/*--------------------------------*- C++ -*----------------------------------*\
| =========                 |                                                 |
| \\      /  F ield         | OpenFOAM: The Open Source CFD Toolbox           |
|  \\    /   O peration     | Version:  v2012                                 |
|   \\  /    A nd           | Website:  www.openfoam.com                      |
|    \\/     M anipulation  |                                                 |
\*---------------------------------------------------------------------------*/
FoamFile
{
    version     2.0;
    format      ascii;
    class       volScalarField;
    location    "1.5";
    object      alphat;
}
// * * * * * * * * * * * * * * * * * * * * * * * * * * * * * * * * * * * * * //

dimensions      [1 -1 -1 0 0 0 0];


internalField   nonuniform List<scalar> 
108993
(
0.000112016
0.000106269
8.3036e-05
0.000116221
0.000116444
6.4674e-05
0.000101427
9.3068e-05
0.000115243
0.000107361
0.00012218
0.000121188
9.63682e-05
9.73032e-05
0.000103289
8.67495e-05
9.10657e-05
0.000104349
9.79814e-05
0.000104574
8.62299e-05
0.000110121
9.34178e-05
0.000115381
0.000112787
0.000104548
0.000100031
0.000111638
0.000124191
7.52256e-05
0.000124828
0.000119929
0.000103429
0.000117953
9.91724e-05
0.000116474
0.000100732
0.000115859
9.47398e-05
0.000103062
0.000130661
0.000123928
0.000106405
0.000118819
0.000104199
7.70093e-05
0.000104067
0.000102981
0.000133972
0.000113856
0.00011652
0.000128854
0.000108576
0.000112032
0.00011921
0.000122976
0.000105416
0.00010882
9.2049e-05
0.000125071
0.000111172
0.000113141
0.000110194
9.83775e-05
0.00010699
0.000124736
9.21452e-05
0.000120166
0.000129705
0.000114478
0.000108088
0.000104099
0.000115101
0.000111567
0.000100635
0.000122703
9.36198e-05
0.000132737
0.000110869
0.000109983
0.000105767
0.000100263
9.72664e-05
9.65566e-05
0.000124316
0.00010429
0.000124695
0.000101187
0.00010654
0.000120889
0.000108184
9.35868e-05
0.000120431
8.63004e-05
0.000116293
0.000114523
9.30131e-05
8.18561e-05
9.10021e-05
9.58389e-05
0.000118495
0.000132828
0.000129563
0.000124261
8.79329e-05
0.000119365
0.000124247
0.000127286
0.000121779
0.000125006
9.72553e-05
0.000107303
0.000108646
0.000112763
0.000114829
9.89433e-05
9.9524e-05
9.31094e-05
0.000129395
0.000111315
0.000109316
0.00010352
0.000105903
7.6023e-05
0.000103178
0.000110883
0.000115031
0.000100781
9.41583e-05
0.000119339
0.000101858
0.000120645
0.00012662
0.000130952
0.000110538
9.41841e-05
0.000105185
9.95047e-05
9.80686e-05
0.00010583
9.75387e-05
8.91976e-05
0.000105912
0.000107051
0.000117987
0.000113673
9.30149e-05
9.81874e-05
0.000106341
0.000108643
0.000110517
9.16557e-05
9.12866e-05
0.000119499
0.000113151
0.000108044
0.000131976
0.000116026
0.000122492
0.000110951
0.000121551
0.000116968
0.000126096
0.000104183
0.000106596
0.000118344
0.00010719
9.31306e-05
9.19203e-05
0.000128028
0.000118192
0.000117854
0.000118129
9.88545e-05
0.000108203
0.000104959
0.000112396
9.94593e-05
0.000120083
9.6906e-05
0.00010029
9.37572e-05
0.000103467
3.64153e-05
0.00013
0.000113989
0.000105443
0.000113566
0.000113737
4.09767e-05
0.00011363
0.000113451
9.94077e-05
0.000115458
0.000120647
0.000107562
0.000126361
0.000115224
0.00012315
4.55519e-05
0.000119931
0.000120013
8.64693e-05
9.592e-05
0.000116999
0.000163039
0.000101699
0.00011488
0.000107821
0.00120084
9.60379e-05
0.000105211
0.000109896
0.000134954
0.0001635
7.96824e-05
0.000100088
0.000112194
0.000105921
0.000135254
0.000111125
9.83948e-05
0.000120086
0.000108418
0.000100152
8.7525e-05
0.000100137
0.000124583
0.000121644
9.26765e-05
5.97711e-05
0.000113642
9.40627e-05
9.31057e-05
0.000104358
8.71149e-05
0.000117695
0.000102973
0.000105019
0.000103254
7.66098e-05
0.000119497
7.46421e-05
0.000110799
0.000123283
0.000105286
0.00030785
0.000108335
0.000113085
0.000123392
9.71747e-05
0.000111392
0.000107597
0.000118862
0.000114042
0.000109999
0.000112029
0.000108726
0.000127302
7.41378e-05
0.000111415
9.59138e-05
0.000124517
9.24991e-05
8.53551e-05
0.000110893
0.000123553
0.000129332
7.37633e-05
0.000109587
8.07959e-05
8.79979e-05
0.000116681
0.00114702
0.000104566
0.00010483
0.000119124
0.000149907
0.00012276
0.00011039
0.0001193
8.81856e-05
7.64007e-05
0.000101394
0.000117495
0.000112562
8.74902e-05
0.000118668
0.000127069
6.78504e-05
0.000108385
9.42147e-05
0.000122538
0.000117389
0.000111925
9.33774e-05
0.000126972
0.000109447
9.43052e-05
6.635e-05
0.000100158
9.23427e-05
0.000119987
8.85262e-05
0.000114977
9.16352e-05
8.24831e-05
9.71426e-05
8.59765e-05
0.000137882
0.000120736
0.000120335
9.66991e-05
0.00010573
0.000122332
9.8333e-05
8.01473e-05
0.0001001
0.000104772
0.000130377
0.000105709
8.15923e-05
8.15082e-05
7.76677e-05
9.06337e-05
0.000109096
0.000442809
0.000126895
0.000103501
0.000125978
0.000133442
0.000130869
0.000249589
0.000105907
0.000127046
0.000104598
0.000112628
0.000116271
0.000114969
0.000101582
0.000107744
0.000122767
0.000101675
0.000118581
0.000102269
0.000105949
0.000100461
9.99243e-05
9.81923e-05
9.42196e-05
0.00011598
7.87306e-05
7.87533e-05
0.000105122
0.000103584
0.000110257
0.000100511
7.30954e-05
0.000103904
6.58125e-05
0.000133866
0.000100778
8.69145e-05
0.000105841
0.000112985
0.000120516
0.000118933
0.000100756
0.000107391
0.00201774
9.22998e-05
0.000118786
9.64448e-05
0.000360782
0.000136296
0.000120512
0.000122963
0.000148343
0.000116174
0.00011829
8.62898e-05
8.91862e-05
0.000123847
9.38505e-05
0.000106288
7.55891e-05
0.000102016
9.30643e-05
0.000105831
0.000123576
0.000219455
7.9597e-05
9.64391e-05
9.66843e-05
9.50312e-05
0.000152156
0.00148935
0.000112115
0.000105073
0.000109132
0.00014948
0.00017525
9.62034e-05
0.000112721
0.000115848
8.06486e-05
0.000100843
7.13317e-05
0.000103296
0.000785299
0.00010308
9.93836e-05
0.000182656
9.8483e-05
0.000113728
0.0001247
0.000169051
0.000101714
6.62022e-05
0.00010385
0.00078532
0.000108096
0.00035915
8.60576e-05
0.000119706
0.000158963
0.00011748
8.06668e-05
0.000302512
7.49661e-05
0.00128123
0.000108593
0.00464604
0.000103454
0.000103561
0.000112437
0.000101039
0.00011625
0.000122503
0.000100346
0.000105728
0.000103823
0.000127686
7.59232e-05
0.000116509
0.000122741
9.85644e-05
0.000122009
0.000105662
8.20605e-05
0.00010865
0.000111241
0.00012129
0.000142011
0.000133174
0.000109594
0.000109759
0.000105495
0.000131821
9.81112e-05
7.60238e-05
0.000108573
7.76914e-05
0.000113188
0.000109157
8.51435e-05
9.24387e-05
9.07292e-05
8.01792e-05
9.78145e-05
7.3589e-05
0.000117437
0.000115233
0.000105412
0.000125136
0.000101691
9.45245e-05
0.000121074
9.89671e-05
0.000118302
9.99884e-05
0.000129608
0.000124372
0.000118333
9.01716e-05
9.7477e-05
9.72896e-05
8.81424e-05
0.000102691
0.000123259
0.000110646
0.00012145
9.79565e-05
9.2705e-05
0.000106845
7.74365e-05
9.59104e-05
0.000118977
8.59545e-05
0.000107103
8.97986e-05
0.000111187
8.78874e-05
0.000111694
0.000118257
0.000117975
0.00010671
9.75121e-05
9.99504e-05
0.000109147
0.000117043
0.00010231
0.000119471
0.000125859
0.000110482
0.000103538
9.47352e-05
0.000109602
0.000127335
0.000132449
8.34957e-05
8.18413e-05
0.000112715
0.000116761
0.000126985
0.000103956
0.00010507
0.000116512
0.000106374
0.000125169
8.86445e-05
0.000102967
9.66296e-05
0.000101452
0.000104785
0.000125674
0.000102215
0.000116596
0.000121554
0.000103102
8.94573e-05
0.000114095
0.000107883
0.000125869
0.000125283
0.000106381
8.91483e-05
9.82619e-05
0.000123287
8.85502e-05
0.000106295
9.28112e-05
0.000104268
0.00013283
0.000122722
8.97807e-05
0.000119112
0.00012748
0.00170537
9.39237e-05
0.000114069
0.000111993
9.27855e-05
0.000118466
7.72124e-05
0.00010028
0.000116947
9.35723e-05
0.000145776
0.000122108
0.000116899
8.52703e-05
0.000685084
8.1471e-05
0.000110509
0.000111031
0.000129561
7.93216e-05
0.000594354
0.00011172
0.000125672
0.000102338
0.000127126
0.000135892
0.000117361
9.52994e-05
9.94308e-05
8.17439e-05
0.000124082
8.1221e-05
0.000131654
8.4424e-05
0.00010451
0.000109345
0.00100238
0.000100324
0.000136015
8.6418e-05
0.000126233
0.000105002
0.000115707
0.000125411
0.00213533
9.85354e-05
9.57265e-05
7.85349e-05
0.00168196
8.54024e-05
0.000108976
0.000116167
0.000137299
0.000115613
0.000129244
0.000107098
0.000135898
0.000103505
0.000117398
8.5486e-05
9.57306e-05
9.82565e-05
0.000130707
0.000109965
0.000117298
0.000118736
0.000124298
0.000123623
0.000132305
0.000117257
9.76505e-05
0.000114592
0.000119763
0.000109364
0.000117702
9.53828e-05
0.000105974
9.48918e-05
8.54051e-05
0.000129018
0.000103649
0.000119428
0.000104987
0.000117121
0.000102789
9.86776e-05
9.41168e-05
9.98424e-05
0.000110624
9.24898e-05
0.000100532
0.000106364
0.000113432
9.43202e-05
0.000115921
6.97839e-05
0.000123731
0.00010131
8.50943e-05
6.10094e-05
0.000106408
6.60042e-05
5.272e-05
0.000112031
8.53982e-05
0.000107884
9.6624e-05
0.00011809
8.88168e-05
0.000120283
9.69577e-05
0.000100561
0.000130618
0.000132957
0.00012622
7.92831e-05
7.27585e-05
0.000130421
9.984e-05
7.28905e-05
0.000112435
0.000123462
0.000103122
0.00012066
0.000107546
0.000114692
7.07548e-05
0.000150319
0.000130393
7.03347e-05
7.30113e-05
0.00117605
0.000100468
0.000109494
0.000117292
9.04682e-05
0.00011246
9.56411e-05
8.9103e-05
9.45426e-05
8.87652e-05
0.000110082
0.00012122
0.000101055
6.62974e-05
7.07901e-05
0.000137787
7.41882e-05
0.000115836
9.71229e-05
0.0001163
9.86093e-05
0.000113886
0.000117318
0.000112755
0.000122381
0.00010528
8.74354e-05
0.000100258
0.000111099
8.41753e-05
0.000120608
0.000122053
0.000116135
0.000140087
9.66263e-05
9.83771e-05
0.000116212
0.000120885
8.91244e-05
9.87718e-05
0.000117568
0.000107043
0.000111749
8.92974e-05
9.94465e-05
0.000118521
9.0304e-05
0.00012957
9.21596e-05
0.000116216
0.000133365
9.81832e-05
8.38385e-05
0.000115702
0.000103137
0.000121053
0.000124218
0.000128829
0.000142526
0.000117709
0.00015299
0.000120194
8.25787e-05
9.46291e-05
0.000135741
8.51036e-05
9.78429e-05
8.89486e-05
7.99769e-05
0.000134226
0.000100165
0.000106982
0.000106791
0.000137734
0.000107872
7.48512e-05
0.000120446
0.000119106
9.37032e-05
0.000116102
0.000116184
0.000101944
0.000110402
0.000115461
0.000121494
0.000104315
0.000133959
0.000108542
0.00106763
7.97683e-05
0.000102024
7.04475e-05
0.000138429
0.000116597
0.000107068
0.000108609
0.000104381
0.000110859
8.86326e-05
0.000115679
7.45596e-05
0.000111248
9.48759e-05
0.00010755
0.000107952
0.00012475
0.000138409
9.96673e-05
0.000122833
0.000126699
0.000121563
9.83904e-05
0.00010213
0.000121765
0.000104606
0.000116583
0.000121211
0.000116419
0.000106434
9.51629e-05
9.91156e-05
9.90726e-05
0.00011284
0.000113389
8.45753e-05
9.15461e-05
0.000122885
8.70054e-05
0.000110405
0.000892264
8.90177e-05
0.00138448
8.80973e-05
0.000109292
0.000116982
0.000373479
9.7834e-05
8.57993e-05
9.30612e-05
9.12325e-05
0.000134286
0.000108792
0.000117608
0.00011204
0.000138686
9.8618e-05
8.60757e-05
0.000104712
8.35289e-05
0.0001322
0.000101439
9.01924e-05
0.000126306
0.000102873
0.000132751
0.000111835
0.000112128
0.000109169
0.000121003
0.00136706
0.000112802
0.000529044
0.00011254
0.00171123
0.000117978
0.000112883
6.78052e-05
0.000104531
0.000111817
0.00014023
6.91645e-05
7.74436e-05
0.000102933
0.000109448
7.35933e-05
0.000103893
0.000120348
0.000109265
8.13391e-05
0.000122233
9.80072e-05
9.44408e-05
0.000103099
9.54805e-05
7.1711e-05
0.000105455
9.81885e-05
0.000120445
8.3701e-05
0.000103099
8.49457e-05
6.09146e-05
7.52351e-05
9.41353e-05
0.000112087
0.000101457
0.000275715
0.000105813
0.000594708
0.00010202
0.000111781
0.000108568
0.000102111
8.70422e-05
0.000100735
0.000108843
9.26854e-05
0.000104325
0.000114433
9.47946e-05
0.000138457
0.000109891
0.000103694
0.000101933
0.000258106
0.000122918
0.000111829
0.00076813
9.81936e-05
8.63356e-05
0.000123073
0.000110075
0.00011387
0.000145062
0.00012701
0.000587091
9.21106e-05
0.000712791
0.000114751
0.000129723
0.000100693
8.88644e-05
0.000121865
0.00010303
0.000125237
0.000116949
0.000125018
8.85641e-05
0.000137143
0.000109313
7.27789e-05
9.34892e-05
8.84568e-05
9.30891e-05
0.00012005
0.000142699
9.6914e-05
0.000103079
9.5432e-05
0.000118437
7.33031e-05
9.05089e-05
0.000101255
9.22257e-05
0.000106285
0.000111709
9.08953e-05
8.14987e-05
0.000298715
0.000125201
0.000107234
0.000113271
0.000117455
9.45874e-05
0.000115416
0.000103047
0.000110512
0.000102264
0.000104676
7.83868e-05
0.000116321
9.79832e-05
9.86932e-05
9.65548e-05
0.000125674
7.89477e-05
9.82965e-05
0.000120592
0.000113799
0.000106667
0.000104425
8.12064e-05
0.000110216
8.32061e-05
0.000108434
8.1864e-05
8.81757e-05
0.000103675
0.000117341
0.000114283
8.76642e-05
9.92688e-05
9.77314e-05
0.000101095
8.66274e-05
0.000103621
0.000114476
0.000113897
0.000105083
0.000124111
0.000107107
9.11813e-05
0.000121473
0.000111529
9.02024e-05
9.85903e-05
8.62548e-05
0.000101489
8.34907e-05
0.000115982
8.65213e-05
0.000105367
9.22371e-05
0.000104503
0.000100149
0.000111804
0.000146126
0.000106481
9.75077e-05
0.000112962
9.90034e-05
0.000109416
0.000110036
0.000121743
6.20002e-05
0.000112955
0.00011341
9.96096e-05
9.9417e-05
0.000111742
8.06029e-05
8.47873e-05
0.000102618
0.000108429
0.000108511
0.000121849
0.000124451
0.000109634
0.00010657
0.000131428
0.000102859
0.000126364
0.000121609
0.000119004
0.000120533
0.000129885
0.0001577
0.000117782
0.000112482
0.000124299
0.000123091
9.26237e-05
0.000112373
0.000113362
0.000124661
0.000111931
9.51015e-05
9.12298e-05
0.000103419
0.000105076
0.000101056
0.000108307
0.000103269
0.000118132
0.000109469
7.61779e-05
0.00011218
0.000107843
9.9207e-05
7.97408e-05
0.000125213
0.00162796
0.000103306
0.000108503
0.000130287
0.0001374
0.000102029
0.000101469
9.14029e-05
9.83126e-05
0.000104409
0.000131569
0.000160958
0.000150146
0.00012574
0.000133319
8.55231e-05
7.2445e-05
0.000105044
8.92853e-05
0.000102076
0.00011
9.84648e-05
9.17224e-05
0.000114778
0.000117348
0.000120643
8.82979e-05
0.000117692
0.000107637
9.26719e-05
0.000107328
0.000122447
0.000119041
7.51554e-05
0.000138514
0.000118304
0.000104876
0.000103039
0.000109897
0.000111869
0.00015789
0.00014236
0.000108094
0.000107488
0.000129446
0.000707903
8.60382e-05
9.46604e-05
0.000121469
9.07547e-05
0.000125361
0.000105187
7.16349e-05
8.63508e-05
0.000128042
0.0001486
8.38837e-05
0.000114301
0.000127441
0.000104152
0.00010232
0.0001085
7.54796e-05
0.000100727
8.34613e-05
0.00011944
0.000116749
9.91693e-05
0.000117675
8.56961e-05
0.000109033
0.00010203
0.00010555
0.000117128
9.98304e-05
0.00011927
7.69482e-05
0.000112613
0.000128882
0.000121497
0.000118541
0.00011997
8.91898e-05
7.11842e-05
0.000115861
0.000133749
0.00102249
0.000323529
0.000118286
0.000113674
0.000120006
0.0001318
8.59802e-05
0.000109723
7.54283e-05
0.000106345
9.53089e-05
6.87807e-05
0.000120979
8.31505e-05
9.7243e-05
0.000130843
9.97412e-05
8.21597e-05
9.88671e-05
0.000103449
0.000104014
0.000158862
0.00012703
0.000103747
7.78396e-05
9.13134e-05
0.000113194
0.000120992
0.000110907
8.24829e-05
7.94292e-05
8.04242e-05
0.000268764
0.000107165
0.000105833
9.71849e-05
0.000133334
9.18802e-05
0.000101101
9.76156e-05
0.00011612
6.47228e-05
9.84471e-05
8.25429e-05
0.000130879
0.000103553
0.000125459
0.000102674
0.000117533
0.000109764
0.000103194
0.000106946
8.32674e-05
0.000117808
7.65687e-05
9.54979e-05
0.000105638
0.000137771
0.000114738
9.91256e-05
0.00011817
9.4167e-05
0.000113372
9.44129e-05
0.000105519
0.000108289
0.000102195
9.90087e-05
0.000117843
0.000109006
9.77503e-05
0.000102308
9.46588e-05
0.000116341
0.000107361
0.000108623
0.000127439
9.68713e-05
0.00107655
0.000119498
9.22815e-05
0.000117496
0.000174593
0.000140871
9.51807e-05
0.000102907
7.85872e-05
0.000113895
0.000151456
0.000138233
0.000129344
0.000111866
9.05569e-05
0.000110148
0.000139606
0.000130259
0.0001297
0.000117777
0.000146863
0.000115636
0.000104745
9.86969e-05
9.55223e-05
0.00011541
0.000122633
0.000120463
0.000211408
0.000118209
0.000102713
7.8959e-05
0.000966021
0.000113144
0.00010498
0.000107915
0.000103806
0.00012172
7.3084e-05
6.81853e-05
7.11237e-05
9.61697e-05
8.90327e-05
0.000123852
6.5811e-05
8.0003e-05
7.65002e-05
8.42197e-05
0.000105208
9.97647e-05
0.000129036
0.000118293
9.70497e-05
9.22891e-05
9.62443e-05
0.000108106
0.000102593
0.000127656
0.00012803
0.000132931
0.000116017
0.000125641
0.000100355
0.000121132
0.00011265
0.000114997
0.000140829
0.000101468
0.000103577
0.000105398
0.000115493
9.84019e-05
0.000111733
0.000110654
0.000111332
9.06873e-05
0.000108372
0.000102519
0.000110811
0.000115507
9.21477e-05
0.000135015
0.000156656
0.000123358
0.000108533
0.000134612
0.000103894
9.99257e-05
0.00012279
0.000111019
8.22528e-05
0.000111771
0.000121663
0.000103766
0.00010735
0.000130242
8.62811e-05
0.000106831
0.000110488
0.000113511
0.000142472
0.000108685
0.000120207
0.000116376
0.000140733
0.000105971
0.000119295
8.80796e-05
9.33489e-05
0.000120394
0.00010946
0.000109781
0.000137838
9.28356e-05
0.000101474
9.93962e-05
0.000109544
0.000121104
0.000113785
0.000126269
0.000125794
0.000139129
0.000100145
0.000124772
0.00010917
9.81621e-05
0.000119775
8.73041e-05
9.38456e-05
0.000100605
0.000107003
0.000115912
0.000130399
0.000116521
0.00011353
0.000103756
8.64221e-05
0.00010299
0.000119687
0.000110185
0.000106251
9.5957e-05
0.000134062
0.000119023
9.78549e-05
0.000104946
0.000103016
0.000100289
0.000116252
9.71292e-05
0.000123605
9.68078e-05
9.78393e-05
0.0001095
0.000118187
0.000102288
9.15724e-05
9.83823e-05
0.000120251
0.000102646
9.00749e-05
0.000137712
0.000125849
0.000119212
9.96255e-05
8.109e-05
0.00011356
0.000112068
8.75759e-05
0.000107494
8.05252e-05
0.000143486
0.000112813
0.00012452
0.000114908
6.77323e-05
9.99566e-05
8.84366e-05
8.00427e-05
0.000125907
8.48308e-05
7.05039e-05
0.000110894
9.5885e-05
6.89479e-05
8.94117e-05
0.000114726
0.000116701
0.000107369
7.51323e-05
0.00010651
0.000127817
9.74415e-05
0.000109259
0.000101046
0.000119098
9.91729e-05
8.41378e-05
9.68824e-05
0.000131982
0.000117332
8.00855e-05
9.79846e-05
0.000103112
0.000130127
9.94118e-05
9.55822e-05
8.7586e-05
9.76793e-05
0.000117324
0.000112692
9.18687e-05
0.000167784
0.000103942
0.000101266
9.60527e-05
8.31577e-05
0.000101986
0.000109148
8.32206e-05
9.62909e-05
0.000125813
0.000188724
0.000103408
0.000127984
9.33596e-05
0.000135786
0.000115974
0.000102859
0.000101189
9.76625e-05
0.000106004
0.000106121
9.95861e-05
7.98558e-05
0.000114523
0.000103008
0.000135355
0.000124295
0.000119519
0.000114579
0.000116552
0.000100027
0.000103474
9.82826e-05
8.43668e-05
0.000106954
0.000103086
0.000103871
0.00010542
0.000120623
0.000128906
0.000107085
7.21818e-05
0.000113697
9.49249e-05
0.000108995
0.000107071
6.95347e-05
0.000111608
7.73046e-05
0.000101876
0.000103623
7.49719e-05
0.000104581
0.000103257
9.76625e-05
0.000109073
0.000123476
0.000118758
0.000129393
9.67647e-05
0.000105629
0.000112107
0.000139531
0.000130503
0.00011435
0.000174747
0.000100919
0.000118304
0.00012393
0.000127171
0.000119516
9.36311e-05
0.000121909
0.000111987
0.000103447
0.000128492
8.67191e-05
0.000110047
9.65492e-05
0.000109289
9.51191e-05
8.32844e-05
0.000112433
0.000100124
0.000109684
0.000117415
9.28544e-05
8.46916e-05
0.000104235
9.18616e-05
9.02122e-05
8.28502e-05
0.000121504
8.71576e-05
0.000102747
8.70582e-05
7.64093e-05
9.49974e-05
6.92462e-05
0.000103396
0.000110183
0.000102102
9.39219e-05
0.00013851
0.00011335
0.000120965
8.72328e-05
0.000108733
9.39487e-05
0.000121495
0.000146937
7.97964e-05
9.40302e-05
0.000110968
7.16102e-05
7.16165e-05
7.99438e-05
0.000114086
0.000107335
0.000115996
9.73885e-05
0.000109643
9.98265e-05
7.81241e-05
0.000113764
7.97877e-05
0.000108356
0.000100805
9.61856e-05
0.000129996
0.000105379
0.000101524
9.02526e-05
7.26443e-05
0.000127106
0.000123908
8.03253e-05
0.000121619
0.00010586
8.09185e-05
8.11203e-05
8.18933e-05
7.20147e-05
0.000103692
9.3944e-05
9.6919e-05
0.000131981
0.000112399
0.000130262
8.38956e-05
0.000114232
0.000146841
0.000123734
9.99699e-05
0.00010875
7.72408e-05
0.000110889
0.000105748
9.72081e-05
0.000138426
0.000110853
0.000105497
0.000106304
0.000117993
8.96049e-05
8.07699e-05
0.000128228
0.000110781
0.000105423
0.000136022
0.000115992
7.93916e-05
0.000100563
9.85559e-05
0.000112845
7.22172e-05
0.000113175
0.000110311
0.000118426
0.000120738
0.000108779
6.58514e-05
8.83605e-05
0.000118584
0.00011887
0.000131777
7.6852e-05
0.000118923
7.99666e-05
9.41343e-05
8.64815e-05
0.000107331
0.00010293
7.95882e-05
0.000114658
0.000103537
7.98634e-05
9.52593e-05
0.000103952
0.0016087
0.000127121
0.000141954
8.80771e-05
9.33178e-05
0.000109826
0.000107752
0.000195409
0.000102117
0.000104834
0.000109433
9.9286e-05
8.95976e-05
9.90701e-05
0.000119735
0.000111925
7.3649e-05
7.87577e-05
8.81657e-05
0.000105178
0.000100429
9.0349e-05
0.000119388
9.18528e-05
0.00012543
7.04421e-05
0.000115707
8.75017e-05
0.000117077
0.000114786
9.5654e-05
9.72362e-05
0.000135513
9.8106e-05
0.000141053
0.000106018
7.20748e-05
0.000115976
0.000123534
0.000109028
9.25912e-05
0.00101947
7.76202e-05
0.000119578
0.00015102
8.29364e-05
0.000140445
9.12265e-05
7.33567e-05
9.98553e-05
0.000102428
8.01741e-05
9.06514e-05
7.58092e-05
7.11125e-05
7.37668e-05
8.63248e-05
0.000104645
0.000119722
0.000109243
8.46814e-05
0.000114894
9.81129e-05
0.000105826
0.000136484
0.00012857
0.000118359
0.00138033
9.51428e-05
8.92691e-05
0.000111407
0.000103071
0.000130429
0.000124727
0.000103356
9.61612e-05
0.000106931
0.000186303
0.000103779
0.000104572
0.000110978
6.97766e-05
0.000100172
0.000111179
0.000108839
0.00167474
0.000102116
9.8322e-05
8.752e-05
9.59995e-05
0.000128327
8.84059e-05
0.000105155
8.9505e-05
0.000128191
9.13626e-05
0.000142764
0.000472561
0.000824396
0.000106832
0.000104761
0.000125034
0.000108843
9.68573e-05
9.75766e-05
7.7394e-05
7.82895e-05
0.000108241
7.40588e-05
7.62719e-05
0.00067869
0.000122605
0.000122431
8.02843e-05
0.000133968
0.000107725
0.000120039
0.000104224
9.43009e-05
0.00011321
9.40704e-05
9.94989e-05
0.000122013
0.000104196
0.00013426
0.000106572
0.00011
9.99352e-05
0.00012008
0.000103433
0.000115587
0.000117598
0.000105552
0.00010372
0.000105043
0.000103144
0.00010531
0.000104616
9.66931e-05
6.87367e-05
8.72454e-05
0.000124783
0.000119136
0.000111786
0.000123301
9.98141e-05
0.00043052
9.28464e-05
0.000115441
9.85622e-05
0.000109003
0.000115115
0.000108738
0.000107039
0.000103628
7.46934e-05
0.000106902
0.000107514
8.45686e-05
0.000109379
0.000105527
0.000133093
0.000116811
0.000119753
0.000117947
0.000144927
0.000106317
0.000138182
5.84947e-05
7.50738e-05
0.0001122
0.000107981
0.000204478
0.000108114
0.000122056
0.000100891
8.30731e-05
0.000116266
0.000135896
0.000150653
0.000132208
0.000104061
0.000111659
0.000111399
0.000160838
0.000114141
0.000111762
0.000118037
0.000112792
0.000114264
0.000103214
0.000112991
0.000101605
0.000109108
0.000114686
0.000104117
7.70056e-05
8.07958e-05
9.86019e-05
0.000112677
9.95901e-05
0.000108647
0.0001037
0.000115572
6.38376e-05
9.82511e-05
0.000112794
8.28426e-05
9.80768e-05
0.000134791
9.07522e-05
0.000104853
0.000135406
7.35484e-05
0.000119151
7.17687e-05
9.35731e-05
0.00012474
0.000120754
9.28685e-05
8.38422e-05
0.000102658
0.000138779
0.000119221
0.000113049
0.000124599
8.70911e-05
0.000111218
0.000142172
7.29572e-05
0.000115617
0.00010235
0.00013854
8.66417e-05
0.000102441
8.03498e-05
0.000124816
0.000118052
0.000111782
0.000148752
9.99922e-05
0.000100832
0.000119988
0.000119624
0.00010541
8.24046e-05
0.000113723
9.94119e-05
0.000100401
0.000130919
0.000108684
0.000105624
9.42198e-05
8.48077e-05
0.000111832
8.53464e-05
0.000132388
0.000132017
0.000129614
0.000106738
0.000108871
0.000104482
0.000129443
0.000106231
0.000107713
0.000106031
8.27449e-05
0.000100628
0.000110204
9.75254e-05
9.6914e-05
0.000108458
9.33663e-05
9.77966e-05
0.000114595
8.24961e-05
9.97098e-05
0.000141943
8.04304e-05
0.000100492
9.30715e-05
0.000103724
0.000120601
0.000120882
0.000113722
0.000101967
0.000104518
9.85289e-05
9.43374e-05
0.000100199
9.64535e-05
9.2504e-05
0.000107382
0.000114286
9.91233e-05
9.15672e-05
0.000112244
0.000101524
0.000116402
9.00694e-05
9.55942e-05
9.15446e-05
9.78938e-05
0.000101429
8.98551e-05
0.000100041
0.00010794
8.88709e-05
0.000102509
0.000119931
0.000119249
9.82258e-05
0.000108489
8.90655e-05
6.31837e-05
0.000129759
9.22515e-05
0.000103837
9.3617e-05
0.000105483
0.000135611
0.00010924
0.00012542
0.000134829
0.000106044
0.000100061
0.000108876
8.82975e-05
0.000100453
9.00031e-05
8.54265e-05
8.00775e-05
0.000116239
0.000102707
0.000104498
0.000120096
0.000117752
9.8648e-05
9.62348e-05
9.21016e-05
8.3986e-05
0.000100074
0.000114657
9.84386e-05
9.76798e-05
0.000101093
0.000147004
0.00011201
8.52005e-05
9.95766e-05
0.000117656
0.000101309
0.000201023
0.000138009
0.00013831
8.04638e-05
0.000379492
0.000133388
0.000110943
8.37963e-05
0.000214852
0.000116475
8.72817e-05
0.000108464
0.000104516
0.00011136
9.95116e-05
8.37083e-05
9.95586e-05
0.000113103
8.39584e-05
9.4954e-05
9.79996e-05
9.8548e-05
8.73714e-05
0.000122963
0.000102735
0.000114494
0.000105261
9.58882e-05
0.000130001
9.52551e-05
9.59221e-05
8.92534e-05
0.000108608
7.647e-05
0.000131003
9.64979e-05
0.000111073
8.25857e-05
0.000109374
0.000125791
9.06561e-05
0.000124531
0.000104382
0.000105876
0.000109832
8.38601e-05
9.03959e-05
0.000134095
8.99188e-05
8.11954e-05
9.75224e-05
0.000111307
0.000108567
0.000106873
0.000109516
0.000108396
0.000106017
9.85434e-05
0.000114866
0.000106367
0.000127385
0.000101991
0.000107222
0.000109944
9.63941e-05
0.000111977
0.000108151
0.000113616
0.000100325
0.000115129
0.000104988
0.000107359
0.000119302
9.90262e-05
0.00010019
0.00011089
0.000152041
8.60933e-05
0.000121882
0.00012807
0.000136335
0.000110875
0.000124005
0.000120069
0.000116233
0.000101915
0.000115443
7.11639e-05
0.000136044
0.000124638
0.000115451
9.98823e-05
0.000114146
0.000126813
8.5553e-05
0.000117759
6.72978e-05
0.000114327
0.000120142
8.20745e-05
0.000102358
9.35186e-05
0.000137851
9.71689e-05
9.8401e-05
5.51656e-05
0.000343516
0.000115961
9.10081e-05
0.000674122
9.36324e-05
8.79876e-05
8.29204e-05
0.000104963
0.00038804
0.000103738
0.000128626
0.000127654
0.000117347
0.000828094
0.00010224
8.63026e-05
0.00011865
9.19502e-05
0.00014771
8.57164e-05
0.000100775
0.00011919
7.85538e-05
9.43392e-05
8.74805e-05
8.46682e-05
9.95358e-05
8.30065e-05
0.00010849
0.000132997
0.000133665
7.94549e-05
0.000104064
8.77799e-05
0.000113766
7.26083e-05
8.19848e-05
0.000102934
0.000107192
0.000116147
0.000124697
0.000104081
0.000143646
0.000105095
0.000114347
0.000117387
0.000101882
0.000103794
0.000118445
9.52778e-05
0.000101584
9.34476e-05
0.000102248
0.00010751
0.000131559
7.88739e-05
0.000116859
9.48434e-05
7.85073e-05
0.00010051
0.000219835
7.64644e-05
0.000104753
9.72415e-05
7.94243e-05
0.000101409
9.70883e-05
0.000128084
7.79913e-05
0.000128307
0.000109586
8.20843e-05
0.000120766
0.000112334
0.000100198
0.000121886
0.000111905
8.30057e-05
0.000120127
9.96679e-05
8.17331e-05
0.000105548
0.000117495
9.95026e-05
8.15944e-05
0.000120761
0.000111583
0.000116935
0.000115937
0.000108977
0.000109121
0.000123299
8.96753e-05
0.000130679
0.000112788
9.17841e-05
0.000126275
0.000133986
0.000113567
0.000116686
0.000103433
0.000118389
9.96711e-05
0.000117746
8.6127e-05
0.000103143
0.00011066
0.000111038
0.000110753
0.000111771
0.000120636
0.000113133
7.84235e-05
0.000119107
0.000116939
0.000150065
0.00010654
9.86131e-05
0.000119953
6.1949e-05
9.79521e-05
9.63053e-05
0.000113207
7.83084e-05
0.000111508
0.000129705
9.93771e-05
0.000108871
0.000121228
6.71753e-05
0.000102709
0.000109039
0.000110738
0.000103425
0.000138985
0.000129915
6.58238e-05
0.000145225
0.000126134
6.41827e-05
0.000100714
0.000119782
6.23661e-05
0.000109392
0.000106568
0.000124306
0.00011137
9.05802e-05
0.000101073
6.49837e-05
0.000115796
0.000111058
6.38185e-05
0.000131638
0.000113677
6.95679e-05
0.000117461
0.000112328
0.000137087
0.000107063
0.000108691
0.000110467
0.000102608
7.66463e-05
0.000116975
0.000109306
7.7205e-05
0.000114701
0.000113249
7.29489e-05
9.65866e-05
0.000101385
9.76068e-05
0.000107578
0.000106322
0.000104101
0.000317915
9.99882e-05
0.00011614
0.000110629
6.99346e-05
0.000131687
0.000109856
7.05866e-05
9.25286e-05
7.2663e-05
0.000131994
9.98287e-05
0.000131221
0.000108227
6.32349e-05
0.000123822
6.78302e-05
0.000118825
0.000103091
6.94822e-05
0.000115678
0.000109642
0.00011477
7.40367e-05
0.000120378
0.000108822
7.31499e-05
9.43529e-05
0.000103431
7.32881e-05
7.90664e-05
0.000102403
0.000132629
8.69993e-05
0.000115659
9.68037e-05
9.90734e-05
0.000137072
0.000123289
7.85171e-05
0.000118002
8.71302e-05
6.97688e-05
0.000124721
0.000106386
0.000120465
6.81483e-05
0.000115963
0.000115595
0.000112721
0.000124192
0.000108926
0.000121558
6.52782e-05
0.000102101
0.000133296
7.37882e-05
7.12713e-05
0.00010706
0.000101958
0.000100491
0.000120407
0.000164097
6.21192e-05
9.99283e-05
8.90514e-05
0.00010841
7.10211e-05
6.24928e-05
6.37606e-05
0.000106618
6.8333e-05
0.00010708
6.96256e-05
7.20748e-05
0.000104802
0.000113794
0.00011374
0.000110555
7.55488e-05
0.000123106
0.000113692
0.000120252
0.000102076
0.000103185
0.000137697
0.000135525
0.000120711
0.000113286
7.95327e-05
0.000129892
0.00012159
0.000123888
0.000119561
6.57692e-05
0.000136682
9.91512e-05
0.000105495
9.76295e-05
0.000108104
9.04957e-05
0.000104329
0.000151301
7.90202e-05
8.06775e-05
9.54037e-05
7.45504e-05
0.000107257
0.000100384
0.000108112
7.97184e-05
0.000102545
0.000111095
9.91697e-05
0.000111511
0.000113765
0.000104387
7.32476e-05
0.000119123
0.000109385
9.7293e-05
0.00013276
6.92623e-05
0.000105489
0.000115911
0.000117565
0.000100021
0.000110782
0.000101682
0.000100048
8.49343e-05
0.000100843
0.000124251
0.000116933
8.6404e-05
7.55888e-05
0.00010262
6.99718e-05
9.767e-05
0.00012068
0.00012957
9.35177e-05
0.000135179
0.000109424
0.000109682
0.000113182
0.00013841
0.00012978
9.06095e-05
7.40692e-05
0.000117876
9.21457e-05
7.05888e-05
0.000120155
0.000123719
0.000136247
9.63186e-05
0.000111406
0.000123937
0.000101443
0.000104368
0.000107674
7.6861e-05
0.000116899
9.67224e-05
8.38537e-05
0.000128316
0.000118585
0.000132628
7.40977e-05
0.000107966
0.000145947
0.000112611
7.71399e-05
0.000107883
9.14008e-05
0.000104537
7.43107e-05
8.79014e-05
0.000256792
7.00729e-05
0.00011146
0.000120724