/*--------------------------------*- C++ -*----------------------------------*\
| =========                 |                                                 |
| \\      /  F ield         | OpenFOAM: The Open Source CFD Toolbox           |
|  \\    /   O peration     | Version:  v2012                                 |
|   \\  /    A nd           | Website:  www.openfoam.com                      |
|    \\/     M anipulation  |                                                 |
\*---------------------------------------------------------------------------*/
FoamFile
{
    version     2.0;
    format      ascii;
    class       volScalarField;
    location    "1.5";
    object      CH4;
}
// * * * * * * * * * * * * * * * * * * * * * * * * * * * * * * * * * * * * * //

dimensions      [0 0 0 0 0 0 0];


internalField   nonuniform List<scalar> 
108993
(
0
1.34832e-108
3.47211e-80
2.77612e-217
6.81428e-221
0
0
0
1.94084e-170
2.8402e-144
0
0
1.1964e-219
5.30199e-147
9.49774e-187
1.81016e-30
1.93567e-137
3.17478e-184
0
1.3793e-139
6.52509e-229
2.6394e-192
7.82106e-121
0
1.46081e-222
0
2.82746e-193
1.48371e-140
0
2.975e-188
0
0
0
1.40627e-113
8.42903e-213
2.84117e-216
9.41752e-198
0
1.83945e-38
3.27001e-79
0
1.86922e-163
0
1.28957e-224
1.72161e-39
6.6924e-74
0
8.59268e-137
0
2.6358e-121
0
1.38779e-52
0
1.14331e-202
0
0
0
3.32427e-203
0
0
1.08199e-193
0
0
0
1.75707e-215
8.55727e-155
0
1.65571e-207
0
0
5.29597e-192
4.16115e-212
9.25297e-206
1.89305e-212
9.08334e-157
2.60528e-174
0
4.30332e-118
0
5.7908e-221
0
1.05818e-148
0
9.60064e-161
7.27365e-184
0
0
0
0
0
2.1466e-209
0
9.34032e-213
0
0
0
0
0
0
0
8.18747e-202
0
7.76009e-178
0
0
0
0
0
9.21659e-213
1.17974e-67
3.59251e-59
4.08595e-208
0
1.47274e-46
0
2.37798e-46
2.11804e-215
9.45995e-121
3.22115e-51
0
5.64384e-157
3.65789e-184
1.34158e-43
1.60863e-99
0
7.12196e-48
1.0929e-109
5.10045e-130
1.10726e-185
4.00073e-190
0
1.56144e-188
0
1.98265e-26
1.29211e-175
0
2.95213e-183
6.9358e-174
0
0
2.14319e-100
1.17805e-175
0
2.99162e-185
6.96309e-188
3.04494e-202
0
0
0
3.42409e-19
4.55326e-18
0
0
5.56914e-16
0
0
0
5.41184e-200
0
3.3072e-63
4.99532e-17
7.63637e-202
8.20211e-184
0
0
1.07111e-61
4.86383e-218
0
1.14783e-212
0
0
3.2645e-168
0
3.0012e-160
0
2.12247e-153
3.51826e-52
1.8331e-214
2.95342e-145
0
2.24319e-125
8.66061e-186
7.58672e-198
1.60345e-106
0
2.03104e-181
4.93319e-200
1.1527e-165
1.29271e-159
9.64306e-104
0
1.13064e-196
0
4.00093e-57
0
5.40429e-88
2.47633e-112
0
7.30471e-178
4.91487e-105
2.90155e-218
0
4.08809e-220
1.82638e-199
0
1.95784e-26
0
0
0
0.000655221
8.18035e-88
3.17559e-186
8.41623e-51
4.41787e-60
7.0936e-29
0
4.37943e-167
0
1.30333e-196
0
0
4.8406e-17
6.47328e-73
0
0
1.40238e-214
0
0
6.60316e-29
2.34418e-155
0
1.51896e-180
3.95594e-212
7.0328e-157
9.33585e-181
0
3.34592e-184
1.13106e-191
0
0
1.03162e-190
0
0
4.06977e-202
0
8.88024e-33
7.30444e-66
4.52981e-41
0
0
0
0
0
1.72194e-166
8.8967e-198
2.89818e-197
6.37995e-198
4.91237e-109
0
0
2.00149e-125
0
1.58346e-64
3.3442e-45
2.59438e-211
5.14928e-134
1.06646e-121
1.22958e-168
0
5.17176e-160
2.92876e-235
3.28722e-89
0
0.000473307
2.37501e-80
3.27981e-150
0
6.2899e-47
0
1.12673e-123
6.13475e-121
0
3.19158e-70
0
5.40946e-172
0
0
1.40171e-122
0
1.95121e-90
0
0
0
3.72411e-132
0
2.23121e-121
0
1.3515e-126
9.85842e-117
5.24908e-233
2.523e-38
1.14955e-15
0
7.72475e-236
3.25787e-163
1.12383e-179
2.61882e-197
0
5.78532e-177
0
0
1.79486e-192
0
4.81183e-200
5.04295e-171
3.86459e-21
0
0
0
2.59989e-156
0
0
8.27377e-177
0
0
3.00003e-19
0.000100139
2.62755e-18
0
7.36029e-86
1.22603e-150
8.05286e-24
6.05025e-07
0
5.85043e-48
0
0
2.92602e-191
0
4.28183e-174
0
6.67872e-42
1.90845e-126
0
0
5.50333e-186
0
2.12984e-194
0
0
0
0
3.70164e-78
0
0
0
0
2.62963e-103
2.13397e-144
0
0
1.57648e-128
0
1.70829e-107
0
0
1.71282e-109
3.73814e-174
0
0.00207746
7.02509e-64
1.32297e-81
8.3203e-103
3.0058e-05
4.26341e-111
8.58729e-14
0
7.71424e-150
2.81664e-21
2.54633e-151
4.95502e-20
1.12756e-19
0
3.93926e-27
0
7.08781e-148
5.47389e-109
0
0
2.75444e-75
5.32602e-20
0
4.58388e-18
3.22045e-139
0
8.10346e-116
0.0102853
2.2714e-201
0
4.41417e-168
1.69533e-113
2.22044e-51
4.14144e-53
0
0
3.36878e-153
0
4.90773e-174
8.15476e-81
4.22894e-06
5.79565e-177
0
1.19907e-16
0
0
2.31479e-163
3.37035e-07
7.71692e-102
0
6.78025e-221
6.05663e-05
6.31842e-110
0.000419588
0
1.53822e-213
9.17949e-08
0
1.55594e-38
1.95795e-05
3.91345e-238
0.0209321
0
0
3.21031e-188
0
3.82118e-141
0
9.50028e-158
3.75692e-202
9.28013e-162
0
0
3.15672e-120
2.54731e-223
0
5.39762e-71
1.32851e-79
3.51821e-59
0
6.16428e-227
0
0
1.64515e-116
1.37243e-106
4.73383e-199
0
9.82143e-158
1.37185e-223
1.6438e-136
0
0
1.16497e-76
2.93382e-53
7.72343e-27
1.04139e-87
3.18032e-90
0
0
3.7286e-88
4.15508e-85
0
1.68665e-210
1.06306e-170
0
0
0
9.67267e-166
0
9.04251e-107
0
0
1.45951e-161
1.93276e-160
6.6776e-112
2.39513e-59
0
8.92722e-85
1.0953e-91
3.63088e-59
8.91386e-115
1.69758e-162
0
3.31105e-44
9.19491e-85
2.16218e-36
2.26848e-189
2.28385e-57
0
5.88507e-106
0
1.08809e-197
0
0
7.15128e-97
0
1.46896e-26
0
0
0
1.09425e-103
1.1096e-46
0
0
0
0
8.44088e-198
9.2179e-190
0
3.21384e-149
4.19235e-156
1.59827e-147
2.82268e-149
0
5.23381e-121
7.06377e-152
3.84707e-38
4.09842e-162
3.75529e-122
9.25654e-39
0
0
1.38943e-202
9.35122e-41
0
1.8622e-192
0
0
0
9.10787e-107
0
8.82877e-180
5.25908e-95
0
0
2.49022e-141
0
0
1.67245e-41
0
5.39149e-193
5.82576e-41
0
5.38136e-49
0
0
0
0
0
0.00754175
6.39307e-137
0
0
4.80492e-95
1.72326e-91
0
3.60178e-38
2.2862e-152
5.93286e-157
8.69409e-103
0
0
3.85896e-91
0.0940118
0
1.57045e-27
5.39029e-80
1.44632e-157
0
9.02126e-06
3.91645e-84
0
0
7.91894e-115
0
1.6812e-159
5.27865e-41
1.92552e-69
0
0
1.86702e-212
0
0
0
9.49966e-109
3.95108e-05
0
1.49634e-165
0
0
0
0
1.39173e-125
0.0002264
0
6.03468e-151
0
0.000249297
0
8.92404e-80
1.777e-97
4.40384e-09
0
0
3.95979e-92
0
0
6.45566e-50
0
3.54159e-63
0
6.04115e-42
7.67686e-191
4.49707e-131
0
0
4.33663e-184
1.31003e-151
0
1.84832e-69
1.80193e-48
6.46801e-18
0
1.99203e-41
5.81111e-22
0
0
3.33401e-203
0
9.47275e-37
0
0
8.79657e-61
0
0
6.49452e-158
5.45443e-47
0
2.25128e-79
2.35915e-56
0
0
4.33902e-33
1.25237e-89
0
0
3.30049e-149
2.09169e-31
4.34808e-108
4.28418e-90
1.69408e-105
0
0
2.40188e-85
0
2.64975e-177
0
1.40106e-177
4.65542e-62
0
5.31976e-94
2.31732e-58
0
3.43847e-61
0
0
4.90263e-199
2.7285e-45
0
6.11785e-202
3.3665e-72
0
2.56929e-95
0
6.82821e-53
1.98426e-85
3.18896e-53
1.11438e-64
0
0
0.000354854
0
0
4.78731e-62
0
7.20242e-172
7.95427e-19
0
4.81762e-49
0
8.76152e-31
3.26477e-48
0
0
0
1.51052e-60
5.31899e-225
0
5.19684e-124
1.9705e-161
0
1.56715e-57
3.18021e-82
2.68979e-44
7.87818e-144
8.04199e-30
1.85674e-118
0
1.42108e-59
0
0
2.11634e-146
5.45845e-41
0
8.23187e-32
0
9.72184e-41
7.50545e-64
0
1.31789e-41
0
0
2.93193e-39
7.80766e-29
1.96003e-36
0
0
3.26299e-107
0
3.61654e-94
0
0
0
2.36552e-55
4.75967e-49
1.64159e-67
9.65047e-73
4.38245e-63
0
5.85645e-68
0
2.64454e-145
0
1.90971e-217
2.77116e-68
9.71826e-220
0
2.12398e-214
9.94816e-41
1.43988e-44
0
3.70623e-53
2.23031e-211
0
0
7.53422e-92
0
0
0
0
1.5243e-115
8.70868e-81
7.5448e-72
0
7.96589e-36
8.49184e-27
0
1.32313e-78
0.00787794
6.19744e-43
7.64763e-114
0
4.74765e-12
4.71365e-78
7.92449e-81
1.12767e-77
1.68166e-123
0
0
1.215e-161
8.34122e-95
1.90595e-190
4.73552e-65
7.10883e-164
5.6618e-126
0
2.93083e-51
1.15135e-23
2.73446e-110
7.26782e-13
3.4822e-181
7.06613e-70
0
0
1.09225e-84
4.75663e-56
2.87851e-153
4.62852e-143
0
4.5449e-135
9.12735e-130
0
0
0
0
2.75696e-134
2.28616e-15
1.04946e-178
0
0.0192189
3.57876e-176
0.00355966
1.45625e-130
0
3.83769e-82
8.99082e-07
1.75327e-57
5.26043e-179
2.72538e-87
0
7.84671e-129
0
0
0
3.0478e-72
1.26695e-41
9.06442e-183
7.8338e-66
5.67259e-84
0
1.63695e-64
0
2.92624e-77
0
1.12928e-68
5.10953e-174
1.95667e-72
0
0
6.74782e-05
0
0.00026647
9.46543e-78
6.7641e-05
0
0
3.3553e-153
2.57178e-33
0
0
0
0
0
1.41084e-82
3.8641e-88
4.28304e-182
3.09851e-177
2.85732e-99
4.27547e-34
1.69505e-68
2.99214e-34
0
0
3.72761e-30
0
1.71706e-155
9.69117e-39
0
0
0
0
4.17315e-99
0
2.08136e-56
5.25215e-36
1.96854e-91
7.37208e-06
1.47529e-207
1.83932e-05
0
1.0544e-16
1.92558e-193
0
3.70159e-40
0
0
1.35157e-174
1.22999e-220
0
4.64686e-29
0
6.98794e-23
2.0971e-70
0
9.27037e-07
0
0
0.000909286
1.66458e-15
1.30543e-151
0
8.2574e-250
0
3.93657e-55
0
0.000239028
1.72023e-116
0
0
1.10592e-57
1.89301e-146
0
9.72825e-58
4.09724e-145
2.63934e-174
0
9.51158e-65
0
0
0
0
9.96777e-49
0
0
0
4.71357e-62
7.02557e-70
0
1.72693e-18
1.16069e-177
0
0
3.62818e-124
0
0
0
0
5.67434e-141
0
0
4.73674e-48
0
0
2.75864e-38
5.29872e-19
0
4.2239e-70
1.04034e-38
0
0
1.63593e-66
0
1.89539e-77
6.29539e-78
9.60736e-65
3.46847e-33
2.23246e-37
0
1.66359e-52
0
2.6487e-67
1.69957e-36
4.873e-22
3.77848e-138
0
0
8.12141e-35
0
0
0
4.16275e-33
0
4.57579e-84
0
2.25873e-207
1.48308e-102
2.62876e-104
3.63017e-162
5.2054e-27
0
1.60434e-98
0
0
0
0
0
9.37829e-210
2.05872e-179
2.60672e-205
9.05238e-60
1.22651e-84
2.21754e-135
0
0
1.59302e-63
0
3.81748e-77
0
0
2.95774e-64
1.87468e-145
1.66542e-75
1.23469e-30
0
4.64546e-219
0
0
1.63145e-179
3.97374e-81
4.15975e-68
0
3.0299e-222
0
0
3.56719e-42
0
1.39653e-67
5.2113e-200
0
2.56813e-64
3.0293e-52
0
0
0
1.10209e-132
1.18786e-80
8.50975e-77
2.32994e-156
1.21207e-213
1.84814e-159
7.09891e-18
4.69728e-101
0
5.36654e-167
0
1.89549e-36
6.24491e-181
2.88292e-75
1.00055e-69
0
1.27108e-90
0
3.38749e-70
8.07115e-34
3.10368e-66
0
0
1.77762e-180
0
3.80098e-67
4.45473e-61
0.00167802
2.02577e-47
0
4.16026e-70
0
5.99885e-54
4.37982e-66
1.0219e-51
1.02713e-81
3.36393e-52
0
1.44743e-11
0
3.30413e-53
0
6.2319e-217
0
0
0
2.77009e-215
0
3.31957e-37
0
0
0
0
0
3.82964e-51
4.33565e-21
0
5.85792e-90
5.15098e-112
4.63079e-96
0
2.7507e-67
2.74257e-30
1.22809e-26
2.11738e-160
0
1.15659e-226
0
2.16092e-108
6.10443e-193
2.17698e-202
0
0.112413
2.28786e-49
3.2396e-218
2.02974e-112
0
0
0
8.35128e-211
0
8.11803e-110
2.14403e-120
0
0
1.72953e-104
0
0
0
0
0
0
0
7.45305e-82
2.9839e-46
6.4636e-69
5.27076e-67
1.93753e-92
4.1919e-218
0
0
0
0
0
8.69579e-78
7.50559e-112
1.64089e-40
1.44484e-106
1.30554e-81
0
0
0
0
0.00222123
5.45838e-05
0
0
6.47663e-135
0
0
0
2.09764e-125
1.37651e-170
0
0
1.63568e-169
0
3.04045e-191
5.71413e-85
0
0
8.25596e-79
0
0
9.39978e-20
0
3.52529e-85
0
1.20745e-124
4.10369e-18
1.86172e-229
0
9.67444e-149
1.81075e-150
3.12229e-153
5.07423e-06
8.03048e-63
1.19809e-202
3.20939e-48
3.99488e-178
1.28358e-43
1.17628e-52
0
7.8076e-139
0
0
6.84732e-95
3.0975e-87
2.89683e-209
9.34218e-28
3.2679e-52
0
0
0
0
2.0462e-225
0
1.02855e-221
0
2.92657e-218
1.96473e-08
9.54516e-57
2.72407e-63
0
0
0
0
1.1322e-59
1.80137e-118
4.20133e-184
4.47861e-51
2.66578e-50
0
3.81757e-45
0
9.49596e-41
1.55353e-110
0
0
1.00561e-180
1.31028e-123
0.0524736
3.70943e-144
0
1.95056e-165
5.13518e-24
0
4.76643e-142
1.80506e-75
8.18993e-68
2.4992e-45
5.69158e-43
0
0
4.78141e-109
0
0
1.03936e-112
0
5.10574e-60
1.44148e-201
2.27003e-30
3.66687e-93
0
3.8442e-70
5.86146e-171
1.54599e-177
3.31929e-169
1.03551e-84
1.90413e-07
0
7.73684e-56
2.44672e-61
2.13293e-05
0
0
0
1.78024e-32
0
0
1.89255e-87
0
2.08581e-59
0
7.06133e-191
4.59581e-85
7.67731e-82
0
0
0
0
4.09839e-130
1.38704e-159
6.44384e-144
0
0
7.29994e-98
1.09199e-101
1.50769e-31
9.83522e-181
9.07365e-125
0
1.25241e-93
0
0
0
0
0
0
2.52193e-55
1.14707e-48
0
2.23244e-156
6.21119e-174
1.11636e-41
2.04533e-142
7.93734e-99
0
0
0
0
3.35981e-179
5.25256e-95
8.51904e-07
8.33089e-99
0
0
0
5.16909e-40
0
1.31876e-134
1.98102e-203
0
0
0
5.12692e-185
7.63545e-60
8.36487e-200
0
3.45962e-72
4.52753e-21
0
0
0
0
1.54348e-47
1.4793e-187
0
2.51327e-200
7.92738e-108
0
0
2.37906e-48
2.35923e-43
7.65672e-85
0
6.41091e-38
1.3515e-169
0
2.22335e-239
1.40363e-89
0
0
9.02389e-14
2.65939e-187
0
1.61701e-76
0
0
2.72707e-57
3.67014e-55
0
0
0
0
1.7645e-36
5.31999e-177
1.19961e-92
3.24343e-27
9.33207e-61
1.2529e-88
0
4.21943e-92
0
0
5.87236e-51
1.60667e-60
0
4.63666e-32
1.10489e-63
4.0719e-96
1.07376e-39
1.68149e-24
3.00103e-99
7.19128e-72
0
2.74988e-69
0
2.07314e-198
1.21218e-123
2.60558e-51
1.35623e-52
0
0
3.03629e-121
0
0
5.32852e-196
0
0
3.2656e-193
2.11224e-164
0
0
2.10762e-193
0
7.84651e-34
0
3.46531e-76
0
0
0
1.90273e-93
3.1058e-94
4.33203e-95
0
4.92765e-66
0
3.43606e-77
1.23771e-33
1.09289e-216
0
6.32707e-181
2.6994e-63
9.78391e-48
0
9.17103e-49
4.86912e-170
9.75743e-60
5.14258e-54
5.23249e-12
7.44497e-80
1.63446e-70
0
1.82096e-18
5.27849e-118
0
0
0
1.67468e-187
3.84888e-189
2.23675e-159
0
1.27103e-53
2.86336e-31
1.62674e-51
0
0
1.04455e-152
5.98683e-199
0
0
0
0
1.40643e-70
6.52097e-160
0
7.03533e-126
4.04249e-45
7.73033e-107
1.96202e-138
0
2.39505e-115
6.86238e-149
0
6.42556e-115
0
2.9675e-118
1.84868e-58
5.88296e-17
2.52519e-146
0
6.30939e-33
0
0
0
1.49227e-107
0
0
1.3092e-38
2.95511e-180
0
4.91711e-16
0
0
1.821e-97
0
1.19217e-70
5.75712e-175
3.99332e-118
0
2.87681e-116
8.48572e-26
1.28388e-18
0
6.6272e-45
2.11279e-32
0
1.03306e-45
0
0
1.726e-171
5.95846e-125
2.03901e-186
1.69081e-136
0
0
0
9.4511e-24
2.52448e-22
8.97518e-31
1.86953e-217
6.07088e-132
8.63147e-52
1.79829e-32
1.37898e-155
0
0
8.13907e-166
1.61898e-120
2.43326e-86
1.91917e-49
7.5429e-43
3.18214e-145
8.52855e-48
2.68052e-53
2.65084e-19
3.41044e-150
1.04695e-44
3.96974e-124
0
5.06983e-39
0
1.05121e-49
0
1.69653e-141
0
2.47163e-53
2.47731e-126
3.14276e-155
0
2.97949e-152
0
1.86468e-61
0
2.59077e-51
4.07483e-162
9.33052e-177
2.69417e-38
1.74928e-233
0
1.12602e-37
1.6259e-185
1.84606e-11
1.971e-157
0
4.11867e-129
1.02135e-128
0
0
1.49536e-33
2.32363e-74
4.09012e-44
2.74138e-25
9.85906e-154
0
0
0
0
0
0
0
0
7.00142e-123
1.08775e-65
3.80588e-128
1.06008e-139
5.42911e-52
2.07756e-12
0
6.1012e-60
7.85213e-57
0
0
8.85656e-75
0
8.77067e-132
2.31275e-161
0
0
0
0
1.4987e-31
2.57802e-44
2.62617e-38
0
4.52441e-73
6.19493e-136
3.12777e-115
5.77223e-22
4.07692e-64
7.38361e-32
0
8.49202e-46
0
2.39332e-16
0
0
0
0
0
2.73809e-202
1.1356e-08
6.95627e-193
0
0
3.35828e-25
1.17145e-19
0
0
0
1.13793e-15
0
8.89564e-20
2.15595e-203
1.21087e-37
5.44409e-38
0
6.06875e-120
1.12931e-64
0
1.34138e-113
6.99291e-109
0
1.85665e-22
2.26248e-96
5.37296e-116
9.14568e-51
9.29979e-61
0
4.69344e-118
1.13577e-39
0.00240731
5.84781e-38
1.39158e-35
0
0
0
0
1.67165e-34
0
0
7.24332e-165
2.57975e-110
4.03563e-70
1.73396e-115
1.47064e-191
0
2.57472e-53
0
0
3.17302e-98
8.66565e-162
3.03934e-53
2.80239e-30
8.70846e-103
4.4697e-17
0
0
0
7.68017e-11
2.39855e-80
8.71904e-21
5.12407e-23
3.19051e-36
1.35548e-19
6.48983e-26
0
3.34085e-55
0
1.44862e-136
8.4274e-76
0
0
7.47534e-47
2.11397e-44
4.06732e-15
5.969e-28
7.23731e-08
1.13486e-77
2.98744e-51
0
4.51256e-123
0
5.25815e-167
5.59531e-53
7.1151e-153
1.28225e-48
0
1.16077e-11
5.37155e-18
1.08677e-41
0
6.123e-30
7.53316e-99
6.92411e-62
1.80512e-58
2.60433e-29
4.87837e-14
0.000233558
6.02888e-100
2.05375e-80
6.15243e-137
0
4.2665e-212
0
8.58362e-68
0
0
0
0
2.74543e-50
1.11058e-36
0
4.97086e-53
9.43151e-39
1.34086e-214
0.00361017
1.08878e-62
1.02704e-173
0
1.13687e-29
0
1.37747e-205
5.56223e-151
0
3.96217e-111
1.22532e-231
5.14068e-08
2.16287e-05
7.26696e-05
3.75609e-33
0
2.9922e-11
7.95197e-37
1.22856e-209
1.14672e-55
1.76992e-112
0
4.01824e-28
0
6.25534e-143
0.0172292
0
5.7639e-70
6.79896e-138
6.8518e-77
0
8.99401e-154
2.15999e-42
4.19817e-84
2.0739e-86
3.0187e-21
1.32543e-23
1.84951e-80
0
1.2691e-103
1.86242e-158
0
0
4.03743e-107
0
0
0
0
9.71657e-68
0
2.03973e-198
0
0
7.50649e-56
0
6.29441e-63
8.35992e-32
2.89145e-42
2.58782e-204
0
1.06257e-100
2.64732e-59
0
2.18336e-170
2.85664e-56
0
3.63255e-133
2.21056e-67
0
0
0
0
1.36074e-84
0
6.11562e-116
1.60162e-34
0
5.46988e-81
1.63171e-112
6.05035e-53
0
1.45565e-86
5.23994e-75
0
0
0
4.63483e-46
1.30291e-16
0
7.87112e-14
1.17612e-37
1.47839e-98
3.8586e-169
1.88277e-203
1.16032e-06
0
3.41421e-35
2.25496e-40
3.2273e-43
0
0
0
4.6108e-56
2.53217e-211
6.25603e-82
7.25873e-133
1.95368e-53
1.67536e-44
0
0
0
0
0
9.54257e-186
8.84104e-128
2.32779e-72
4.25262e-133
5.80288e-112
0
3.69054e-216
0
5.51299e-210
0
1.09084e-63
0
0
1.57629e-66
0
8.70318e-158
1.08043e-54
5.42987e-156
8.25516e-150
0
8.66515e-110
0
2.54809e-121
3.51377e-67
0
3.65282e-179
2.84878e-93
1.87267e-145
3.00426e-61
4.16968e-18
3.19584e-169
4.57767e-217
3.78976e-54
0
2.15639e-37
0
2.73382e-165
2.55556e-236
0
0
1.14091e-22
2.43653e-10
2.75973e-52
3.84276e-115
3.37104e-11
2.20411e-79
2.61447e-49
1.02745e-235
2.54785e-35
2.1329e-162
8.37944e-23
2.4358e-84
6.58103e-146
0
0
5.7616e-39
0
2.82013e-239
4.84166e-46
0
0
0
0
1.44686e-129
0
3.08528e-119
1.46427e-61
0
0
0
0
0
0
0
0
0
0
4.95843e-216
0
0
0
1.55168e-63
4.0282e-77
1.92402e-100
1.37424e-144
0
0
0
0
0
1.71403e-102
1.91455e-56
0
4.8768e-174
2.95095e-28
5.04058e-86
3.13002e-60
0
6.40019e-72
3.50016e-69
5.38071e-113
1.29714e-180
1.66255e-55
7.67651e-82
1.92736e-60
0
0
6.58212e-67
1.09842e-106
1.2832e-29
0
9.87004e-85
0
2.82717e-33
5.52193e-108
0
0
0
0
0
3.50284e-84
6.68445e-75
0
0
7.13165e-171
1.50199e-110
6.08209e-85
6.00815e-93
0
9.49304e-216
0
0
0
2.50985e-223
6.02206e-90
0
1.84165e-83
0
0
0
2.0106e-34
2.89908e-31
1.98027e-225
0
0
5.63153e-74
1.07126e-29
0
1.15924e-07
2.02016e-164
0
0
1.33497e-40
2.69191e-16
5.08477e-07
5.73103e-10
4.4222e-09
4.56998e-231
9.05113e-05
0
3.96294e-38
3.44565e-228
2.75747e-05
5.91737e-10
7.20206e-221
0
1.44494e-15
0
6.58377e-32
1.73701e-227
0
8.25103e-56
0
5.71477e-85
0
9.78829e-165
5.133e-225
0
0
2.23177e-23
0
1.15246e-40
0
6.91145e-233
1.41709e-238
0
0
0
0
3.72798e-42
0
0
3.66965e-102
4.22422e-38
4.54552e-235
1.86483e-40
1.07811e-168
0
1.27557e-74
0
0
1.00846e-112
2.61286e-64
0
3.98305e-37
8.38014e-39
9.06768e-31
1.73844e-42
1.36751e-59
4.6165e-64
0
4.00657e-145
0
0
3.97305e-103
7.54925e-42
4.70236e-38
5.26936e-38
3.71278e-66
1.20508e-64
0
4.07412e-70
1.0273e-61
0
0
0
7.24225e-37
7.59257e-38
0
3.30712e-20
8.52713e-144
0
3.29681e-13
3.72016e-20
3.47496e-166
1.38596e-77
0
0
1.45623e-101
0
3.71931e-121
0
0
1.43398e-107
0
1.48783e-97
5.6549e-12
0
1.27121e-79
0
0
0
0
0
1.05122e-51
1.55492e-48
1.06844e-146
0
1.74042e-167
9.67187e-111
0
0
0
0.000106891
6.97745e-132
0
0
0
9.66641e-05
1.57787e-114
1.4887e-127
5.47499e-140
0
0.000252804
0
2.38086e-171
0
1.74962e-80
0
5.81841e-169
3.7112e-126
0
3.59072e-164
0
1.42928e-98
7.48055e-167
9.51511e-59
0
0
2.67492e-32
0
0
4.42674e-39
1.85281e-36
3.56085e-111
3.19779e-153
0
0
0
0
3.60257e-107
7.30375e-18
0
2.63554e-113
6.09956e-109
1.37702e-106
1.28616e-83
0
1.32301e-51
1.23791e-30
0
4.29397e-26
7.10026e-46
0
2.98888e-45
5.97651e-150
8.96637e-107
0
3.54996e-153
0
8.07309e-24
2.68516e-148
0
0
1.55087e-150
1.42819e-47
7.16891e-126
1.90599e-44
1.02216e-131
5.94544e-42
0
9.66357e-135
6.191e-35
4.9125e-161
6.22319e-26
0
0
0
5.00861e-46
7.61956e-36
2.75272e-140
1.90989e-40
3.03743e-39
1.94748e-37
2.376e-137
0
0
6.81246e-19
0
8.54809e-44
4.83433e-81
0
0
1.44446e-77
0
0
3.63102e-159
1.81789e-159
2.29523e-81
7.50822e-48
0
0
4.45996e-96
0
0
2.11313e-145
0
0
0
9.98499e-81
0
9.79264e-138
0
0
7.45165e-128
3.05139e-125
0
0
0
1.851e-30
0
1.69698e-44
6.3353e-20
1.14421e-204
3.5018e-141
0
1.14099e-146
0
0
0
6.93902e-149
2.88852e-35
2.53599e-34
0
3.85137e-112
6.28325e-72
0
0
2.07008e-40
7.25265e-208
4.18323e-147
3.05239e-58
0
4.3356e-152
8.27143e-30
1.05656e-152
1.10509e-102
4.70241e-90
0
0
6.46335e-69
3.01649e-56
0
5.94112e-105
2.41492e-171
0
4.37929e-154
1.63701e-114
0
2.82376e-174
0
0
0
8.36298e-147
0
0
0
2.28935e-97
0
7.80646e-93
9.50343e-81
2.20344e-140
1.43723e-55
0
9.19342e-144
1.25449e-119
0.00033176
0
5.52841e-114
7.49512e-117
0
1.0255e-103
4.50525e-111
0
0
0
1.17816e-104
0
0
1.9233e-126
0
0
0
0
0
5.92262e-101
0
0
0
5.16816e-98
1.73703e-102
2.92149e-40
4.02427e-103
0
2.42617e-26
1.27251e-97
0
5.53472e-43
0
0
1.02344e-12
3.99662e-58
0
2.25486e-183
1.14949e-150
1.87305e-70
3.06531e-79
1.78097e-75
0
0
2.27739e-133
2.69157e-175
0
0
1.03883e-74
0
2.3248e-208
0
6.98434e-167
0
0
3.63723e-176
0
0
0
2.58627e-186
5.10808e-111
2.79536e-48
6.44439e-167
0
0
1.07083e-93
2.85282e-162
0
0
0
0
0
2.4253e-51
1.80204e-116
6.35635e-121
0
7.02294e-76
0
0
0
2.15837e-107
0
3.10405e-108
0
0
5.54979e-88
2.82112e-82
1.68974e-32
0
0
1.22681e-133
4.73263e-19
3.77271e-100
0
0
4.97308e-27
5.04824e-46
0
2.53431e-50
5.33651e-103
2.75885e-27
1.26396e-92
0
0
0
5.76932e-29
0
0
0
0
0
1.03288e-94
3.22884e-88
4.57003e-24
0
1.442e-61
2.96463e-123
2.36567e-61
3.13529e-77
0
1.45353e-53
0
0
1.3377e-151
2.90894e-20
1.79244e-19
4.61188e-55
0
3.05597e-158
0
3.35953e-59
0
2.93988e-24
0
9.60757e-57
0
1.34297e-64
0
7.59802e-13
0
5.6274e-102
2.05463e-40
8.42675e-60
0
0
7.78363e-132
0
7.31048e-185
0
0
0
0
0
0
2.3361e-27
0
0
0
0
1.28285e-64
0
2.09537e-112
3.76723e-118
1.6506e-120
6.7632e-76
0
3.76392e-78
0
2.02573e-71
2.4513e-113
0
0
8.11414e-33
0
4.43321e-41
2.30921e-100
1.09352e-69
3.10228e-196
3.48367e-149
0
2.26237e-194
0
5.3158e-29
3.0606e-114
1.78102e-62
6.06073e-188
0
2.08497e-85
1.44811e-88
4.36544e-196
0
9.09437e-64
1.4509e-159
4.69288e-43
1.03084e-23
9.17005e-194
0
8.81073e-192
0
8.44032e-70
0
0
0
0
3.10567e-189
0
6.29255e-140
0
1.56083e-203
0
1.41306e-72
7.87015e-78
0
0
8.60184e-164
0
0
0
0
1.1963e-99
4.60934e-53
6.8484e-130
3.90518e-161
1.94046e-110
0
9.47521e-56
0
0
1.63661e-153
3.83725e-187
1.13885e-97
0
0
2.16409e-142
1.50091e-140
0
0
0
1.17766e-46
2.20326e-194
3.40751e-134
2.69607e-148
2.85904e-29
0
1.48248e-140
0
0
1.05759e-156
5.37498e-120
7.11101e-14
0
0
2.42375e-40
0
2.62405e-113
5.44834e-141
0
3.83543e-117
0
0
1.03444e-112
0
0
1.6259e-86
2.76832e-60
0
0
1.62286e-143
2.88942e-70
3.42203e-30
0
0
0
1.73186e-41
4.6166e-27
0
0
2.54336e-204
5.85232e-111
4.40951e-117
0
2.35225e-139
0
0
0
0
4.81739e-139
0
1.63989e-163
7.94913e-172
1.33222e-181
8.02335e-169
0
5.21419e-75
0
0
0
6.86644e-146
0
1.26029e-183
0
5.14267e-53
5.0224e-211
0
1.96783e-185
0
1.63648e-172
0
2.45569e-69
0
0
2.29713e-180
0
0
3.00352e-76
2.76882e-89
1.14777e-08
4.92387e-156
2.07565e-179
3.0135e-186
8.36949e-87
0
0
0
2.2697e-07
3.62133e-06
4.02467e-82
8.03453e-05
1.74207e-15
4.15826e-125
4.51038e-82
1.34932e-38
0
0
4.5752e-225
1.23495e-148
3.38392e-185
1.35042e-124
1.038e-18
0
1.30839e-15
9.71385e-44
6.04232e-16
0
0
0
4.72301e-30
9.33703e-71
8.13061e-22
1.9683e-65
2.21934e-47
1.90459e-27
8.77787e-206
0
1.28723e-18
0
0
0
0
0
1.01804e-19
3.28824e-83
0
0
5.2246e-153
1.01258e-201
0
1.0833e-200
3.77338e-185
0
1.09569e-70
0
0
9.13815e-133
1.67433e-17
0
1.59623e-76
4.07326e-202
2.33273e-187
1.96482e-11
0
0
0
0
3.30244e-126
0
0
3.49978e-97
0
0
0
0
0
2.28476e-153
9.36476e-86
0
0
3.78423e-118
3.1931e-130
0
0
3.19482e-187
0
0
1.42501e-166
1.72601e-113
0
0
2.37607e-117
0
2.52804e-139
1.11292e-07
0
3.45514e-210
1.43529e-146
0
1.84174e-181
0
0
6.35881e-08
0
8.16389e-06
0
0
2.99941e-81
1.19603e-06
7.0984e-07
2.40272e-65
5.81118e-60
1.34285e-100
0
0
5.24558e-98
0
0
0
1.91581e-05
0
1.56076e-94
2.35783e-124
2.50876e-91
0
0
0
0
3.00327e-149
8.43734e-65
0
4.62469e-171
0
0
0
0
5.97244e-93
1.90022e-40
0
1.94509e-39
9.14148e-229
2.96955e-211
1.98464e-93
2.09242e-35
1.34287e-36
2.38968e-35
4.73823e-42
0
0
2.53558e-91
8.34092e-73
6.089e-39
0
0
0
0
0
5.8323e-57
7.03632e-71
7.9998e-115
2.88498e-55
2.61502e-57
0
4.40996e-59
1.05619e-29
2.2127e-181
8.55705e-221
1.41661e-184
0
2.55803e-23
3.18838e-54
0
0
0
7.06918e-80
0
1.15677e-23
2.14949e-21
2.46134e-105
9.56057e-205
2.61072e-30
0
0
5.21173e-194
0
0
5.50832e-185
0
1.72079e-107
0
0
1.71251e-23
4.12652e-187
0
0
2.75028e-181
1.90164e-86
3.49044e-29
5.18861e-27
0
1.40725e-27
2.56512e-31
1.03903e-24
1.96468e-94
0
4.16274e-25
0
1.60075e-28
7.38652e-31
0
0
0
8.94705e-103
1.8635e-69
0
0
8.57361e-43
0
1.03283e-80
3.71232e-201
0
0
3.3045e-44
0
0
0
0
0
2.50366e-42
1.23759e-40
3.99105e-70
8.65346e-162
6.64952e-34
0
0
0
3.23572e-92
2.94092e-36
5.05356e-18
1.41657e-74
1.84278e-137
0
5.42453e-140
8.19457e-131
3.52058e-175
5.50187e-157
0
0
3.96773e-166
0
3.51299e-237
3.06833e-115
2.11905e-163
0
4.30077e-190
7.8097e-212
0
7.15444e-68
4.31587e-88
4.02666e-194
0
0
3.72581e-157
3.39011e-77
6.61436e-65
0
8.30731e-82
5.03123e-138
0
5.12469e-98
7.46857e-80
4.16906e-55
6.997e-167
0
2.35473e-143
4.8989e-177
1.18507e-162
0
1.29815e-162
0
5.92453e-182
0
0
0
0
8.53568e-44
7.61414e-204
0
4.31515e-163
9.40558e-66
9.2309e-161
1.82756e-88
2.50135e-82
2.23526e-29
0
3.09001e-181
1.28944e-183
0
2.31248e-70
0
0
7.0633e-161
2.86486e-186
0
2.17373e-82
2.00864e-163
0
5.5316e-168
2.73733e-174
0
7.67721e-87
0
0
0
0
3.31552e-123
8.74492e-125
2.61438e-132
3.5528e-104
0
0
5.95115e-77
6.86302e-76
0
1.0479e-144
0
1.31329e-111
1.29353e-113
4.02061e-106
0
5.30737e-57
4.05954e-152
0
4.81665e-162
0
5.04556e-171
0
0
2.1044e-89
3.08142e-66
1.47396e-198
1.00895e-101
0
3.33396e-173
0
1.94058e-81
0
0
1.6016e-108
0
0
0
0
6.49127e-158
4.23438e-11
0
0
1.37313e-114
0
0
5.73777e-91
0
0
0
7.46149e-62
0
0
7.23133e-87
1.84153e-130
2.41536e-198
0
2.03629e-93
4.19677e-08
5.18144e-159
0
8.28544e-150
0
1.12353e-80
0
5.19912e-45
1.52492e-206
1.25188e-37
3.50753e-30
0
0
0
1.28292e-133
5.84647e-210
3.49022e-105
3.2289e-108
1.95007e-113
0
0
4.54754e-67
3.79841e-43
3.45518e-11
5.55762e-27
6.35032e-93
2.56722e-200
6.71448e-196
0
1.59718e-150
0
4.25052e-189
9.10217e-193
4.21893e-188
2.67637e-20
3.18991e-73
0
0
2.20704e-155
3.44344e-30
0
8.12219e-55
0
3.37806e-195
1.9616e-46
0
0
6.49081e-217
0
9.68123e-31
1.03791e-28
0
1.38186e-30
0
7.0851e-47
6.97466e-172
3.81299e-28
0
0
0
7.0069e-125
0
1.15237e-16
1.23446e-70
7.79823e-130
9.66904e-24
2.34634e-192
1.26771e-129
0
0
3.78946e-101
7.19923e-196
0
0
8.90542e-179
0
2.54845e-163
0
0
2.29225e-71
1.44899e-157
1.23379e-79
0
1.17951e-144
0
9.72529e-101
0
0
4.75159e-32
0
1.41666e-38
4.76628e-19
6.63908e-64
0
0
4.59743e-59
0
5.0673e-173
0
3.34544e-32
0
0
1.28881e-05
1.90724e-62
0
1.58957e-78
2.09075e-122
0
1.09568e-181
2.572e-139
6.1435e-202
5.07399e-09
3.2564e-205
1.23133e-11
7.81816e-128
0
4.76506e-204
0
1.7861e-61
1.60619e-207
0
5.39479e-122
4.97777e-162
0
6.64472e-25
3.98313e-116
6.1791e-53
0
0
3.90738e-114
3.09114e-88
8.86617e-117
1.0543e-149
0
9.61458e-45
0
1.13601e-94
2.84505e-61
1.38456e-47
0
2.54841e-75
8.37938e-66
0
3.7655e-52
6.28463e-80
1.89829e-113
3.60405e-167
8.71598e-22
2.22251e-67
6.79123e-65
3.37015e-81
4.02399e-50
5.01155e-48
1.86931e-22
3.52048e-66
4.43943e-33
1.85549e-53
0
2.58074e-145
0
0
0
6.65907e-68
2.62551e-27
2.70928e-62
5.68152e-95
5.1642e-44
0
3.43513e-184
5.77135e-26
8.84126e-80
0
3.22436e-102
2.84442e-188
0
9.18356e-144
0
2.95577e-45
0
2.44077e-134
2.35259e-30
0
0
0
8.23647e-25
0
0
0
0
0
1.04027e-146
1.33971e-51
1.60528e-45
1.01152e-113
0
0
1.156e-101
9.89375e-66
1.57575e-92
1.58235e-195
1.1386e-128
2.4406e-27
2.94079e-88
2.56356e-128
0
0
2.30571e-190
0
2.44482e-51
1.52226e-29
3.95329e-65
0
1.34997e-67
3.61974e-182
0
2.05668e-31
2.24421e-46
0
5.48899e-212
4.29475e-77
1.26446e-209
2.49179e-108
0
5.7649e-10
0
0
7.26429e-104
4.85294e-219
1.43147e-216
1.71235e-72
0
0
1.49468e-71
4.45052e-91
0.000566224
0
0
4.37869e-44
9.87651e-07
1.61188e-133
0
1.92273e-34
0
7.50005e-67
3.96639e-58
0
0
0
2.08708e-148
0
2.03821e-140
9.91581e-209
2.11248e-123
3.32546e-16
0
1.01313e-75
0.00829403
3.20143e-39
6.67346e-15
2.81147e-136
0
2.02545e-149
1.55653e-151
1.48776e-14
2.85782e-52
7.17841e-104
8.58436e-13
7.08945e-05
3.39163e-34
0
1.34926e-60
2.70824e-13
7.5319e-26
6.33209e-08
2.36563e-46
6.25296e-136
2.15119e-05
0
8.31867e-152
0
0
3.04007e-28
0
1.19966e-103
0
0
5.84207e-133
4.53283e-44
0
0
3.05394e-06
4.6811e-09
1.70125e-95
0.000120928
7.97422e-06
0
3.43288e-157
6.66366e-12
7.1542e-84
0
0
0
0
8.04563e-154
1.71809e-217
0.000405805
8.8953e-96
3.19139e-05
1.76795e-34
7.92688e-114
1.81114e-83
1.98897e-140
1.16868e-204
0
2.40368e-13
0
2.02185e-179
0
4.75247e-11
0
0
1.02601e-07
2.18993e-34
1.19914e-32
0
0
1.03194e-06
3.60784e-194
0
2.20267e-41
7.99763e-37
2.08093e-32
0
5.80648e-150
0
0
0
2.42282e-08
0
3.38927e-17
2.46099e-07
0
4.79524e-120
4.74911e-10
0
0
4.20248e-07
2.77805e-48
1.274e-41
3.33836e-197
5.19563e-06
0
4.87829e-12
5.68771e-44
8.07545e-216
2.20254e-91
0
4.17882e-188
0
2.48796e-44
0
1.59475e-22
1.62643e-66
1.28855e-44
1.54986e-32
6.3335e-16
9.69101e-45
0
0
2.73325e-78
3.37772e-08
2.24941e-26
0
5.22938e-44
2.18459e-106
1.28695e-108
0
2.717e-42
0
7.32787e-112
7.54559e-118
0
2.20288e-48
0
0
0
0
5.81055e-168
0
0
2.36098e-187
7.99778e-102
0
0
1.4903e-112
7.18062e-97
6.44639e-32
0
5.41033e-40
1.08881e-132
2.36143e-109
5.82528e-11
0
8.19991e-198
1.7939e-51
1.57701e-140
0
6.63345e-162
0
5.81941e-77
1.55606e-21
3.57463e-110
3.86098e-110
0
0
2.30385e-199
2.10302e-21
8.50345e-130
7.759e-195
1.4985e-71
1.30355e-203
6.60483e-147
0
1.68358e-106
9.36904e-74
0
0
5.01405e-122
1.3579e-57
3.96987e-198
7.69678e-129
0
0
6.11524e-193
2.32067e-76
0
1.33033e-22
4.91861e-59
0
0
5.61961e-99
2.33043e-111
0
0
1.83773e-220
0
2.4475e-190
7.5801e-139
0
0
4.88607e-41
1.38992e-76
0
1.02289e-46
6.41493e-26
8.96367e-106
3.93629e-149
0
0
0
2.09692e-70
6.57449e-57
0
0
7.95089e-113
0
1.85548e-188
1.3761e-204
3.1645e-115
1.61165e-33
0
1.03101e-174
0
7.18072e-125
0
8.65832e-52
5.91587e-190
6.2276e-152
0
2.60919e-26
0
2.78106e-35
0
0
3.72756e-113
6.40837e-115
1.24064e-39
4.78768e-151
0
3.49217e-147
7.30219e-154
0
2.38722e-135
0
2.36616e-81
4.03664e-118
0
3.69695e-30
5.00785e-120
3.59743e-07
1.54485e-29
1.20309e-72
1.17621e-25
1.86105e-134
3.60295e-05
2.00503e-184
0
7.16159e-40
1.24173e-05
3.42274e-41
5.28193e-106
0
0
0
0
8.87959e-182
6.93809e-07
0
0
5.237e-176
1.29186e-152
1.67158e-194
8.0843e-93
6.8461e-12
0
0
4.07356e-105
0
6.21454e-131
7.58771e-135
6.34372e-11
0.00515987
3.25822e-36
0
0
0
2.57822e-160
3.66302e-196
3.57077e-117
6.53895e-103
0
5.57421e-197
0
1.26513e-33
1.32809e-119
2.22243e-211
1.30609e-195
0
4.97619e-15
0
0
2.7467e-08
0
0
1.9634e-148
0
0
1.95951e-179
0
7.5862e-203
0
9.73546e-136
9.48239e-179
0
0
1.17976e-142
0
4.81755e-205
0
2.77392e-84
1.14704e-149
0
8.20649e-211
0
0
1.53031e-55
5.67441e-20
8.16076e-32
2.4739e-208
0
2.37394e-218
0
1.80049e-57
0
0
0
4.26605e-219
0
5.68897e-216
2.67032e-122
3.16698e-162
4.86883e-235
0
6.10762e-213
0
3.00214e-38
5.94517e-186
0
3.01959e-33
1.19136e-77
0
0
1.60023e-33
0
5.14633e-191
1.14473e-219
0
7.30646e-186
0
0
0
7.73671e-156
0
0
5.69094e-55
0
4.64156e-105
3.06074e-167
0
1.57611e-221
0
1.35598e-198
0
0
4.56382e-21
9.52795e-188
5.38378e-20
0
0
7.97516e-18
3.33475e-16
0
0
2.87788e-51
0
0
5.40277e-199
2.52981e-106
5.93116e-193
1.57886e-18
4.98289e-162
1.99183e-17
5.27112e-216
1.47285e-213
3.13992e-177
3.0315e-32
5.90734e-31