/*--------------------------------*- C++ -*----------------------------------*\
| =========                 |                                                 |
| \\      /  F ield         | OpenFOAM: The Open Source CFD Toolbox           |
|  \\    /   O peration     | Version:  v2012                                 |
|   \\  /    A nd           | Website:  www.openfoam.com                      |
|    \\/     M anipulation  |                                                 |
\*---------------------------------------------------------------------------*/
FoamFile
{
    version     2.0;
    format      ascii;
    class       volScalarField;
    location    "1.5";
    object      CO2;
}
// * * * * * * * * * * * * * * * * * * * * * * * * * * * * * * * * * * * * * //

dimensions      [0 0 0 0 0 0 0];


internalField   nonuniform List<scalar> 
108993
(
0
7.17533e-109
1.75837e-80
0
1.99486e-221
0
0
0
4.13706e-173
3.55476e-144
0
0
4.10605e-220
1.89917e-147
6.75595e-188
1.17145e-30
2.10102e-137
1.5259e-184
0
5.47637e-140
2.0043e-229
9.3975e-193
3.0575e-121
0
5.00845e-223
0
1.10743e-193
5.74235e-141
0
2.57478e-188
0
0
0
1.51969e-113
3.96773e-213
8.70294e-217
3.70966e-198
0
3.30537e-38
8.49136e-79
0
6.64387e-164
0
4.40008e-225
9.99948e-40
6.98953e-74
0
7.89297e-137
0
1.14422e-121
0
9.04259e-53
0
5.09469e-203
0
0
0
1.1379e-203
0
0
3.99213e-194
0
0
0
6.16804e-216
3.37639e-155
0
3.27124e-208
0
0
2.71002e-191
1.00497e-212
2.64764e-206
5.12175e-213
3.04188e-157
1.03847e-174
0
4.55602e-118
0
1.96387e-221
0
7.59013e-149
0
3.82356e-161
3.52348e-184
0
0
0
3.27455e-215
0
6.52106e-210
0
3.72254e-213
0
0
0
0
0
0
0
2.92764e-202
0
2.74961e-178
0
0
0
0
0
4.9803e-213
1.74655e-67
1.86278e-59
6.4376e-209
0
8.02637e-47
0
8.31582e-47
6.30337e-216
3.72125e-121
5.64856e-51
0
1.65682e-157
1.35826e-184
1.68687e-43
8.33125e-100
0
3.5203e-48
4.69962e-110
2.30791e-130
3.96508e-186
1.4103e-190
0
5.73519e-189
0
1.34333e-26
4.59978e-176
0
1.05459e-183
2.05664e-174
0
0
1.09228e-100
5.26476e-176
0
7.95518e-186
2.43252e-188
1.03452e-202
0
0
0
1.76426e-19
2.99194e-18
0
0
6.80556e-16
0
0
0
1.89573e-200
0
5.15552e-63
4.02696e-17
3.28529e-202
3.22282e-184
0
0
5.6048e-62
1.21571e-218
0
2.57744e-213
0
0
1.92941e-169
0
5.80933e-160
0
8.67515e-154
3.77989e-52
7.7996e-215
1.19127e-145
0
8.40737e-126
2.25307e-186
3.1745e-198
8.48598e-107
0
5.28509e-182
1.94065e-200
4.05974e-166
2.26146e-160
5.00312e-104
0
3.90214e-197
0
6.02145e-57
0
2.78303e-88
1.06315e-112
0
2.56715e-178
2.55165e-105
8.33985e-219
0
1.30607e-220
6.60208e-200
0
9.44375e-27
0
0
0
0.000827385
1.27284e-87
1.23863e-186
1.39774e-50
7.13121e-60
1.08908e-28
0
3.00664e-167
0
4.37859e-197
0
0
5.76879e-17
3.71184e-73
0
0
6.11272e-215
0
0
9.46283e-29
9.00883e-156
0
0
1.73008e-212
2.83077e-157
4.14906e-181
0
1.14959e-184
4.19101e-192
0
0
4.52355e-191
0
0
1.63759e-202
0
6.92288e-33
6.32467e-66
6.61806e-41
0
0
0
0
0
6.55039e-167
2.87522e-198
1.20358e-197
2.42382e-198
2.32943e-109
0
0
8.84012e-126
0
1.20961e-64
1.89717e-45
9.30657e-212
2.02307e-134
5.13732e-122
5.09705e-169
0
1.87735e-160
1.00788e-235
1.66717e-89
0
0.00102146
3.87111e-80
1.27804e-150
0
6.9295e-47
0
4.61838e-124
2.50068e-121
0
3.33131e-70
0
1.95805e-172
0
0
5.84573e-123
0
2.45847e-90
0
0
0
1.63139e-132
0
1.03206e-121
0
6.11431e-127
1.42957e-116
1.34244e-233
2.01983e-38
4.96234e-16
0
1.93475e-236
1.43837e-163
3.45487e-180
8.67687e-198
0
1.81073e-177
0
0
7.72419e-193
0
1.47827e-200
1.59882e-171
1.69946e-21
0
0
0
1.13646e-156
0
0
2.69187e-177
0
0
8.60745e-19
0.000229108
5.62272e-18
0
3.82354e-86
4.34331e-151
1.53172e-23
6.18952e-07
0
9.56328e-48
0
0
1.0905e-191
7.49977e-160
1.58017e-174
0
2.54946e-42
8.27164e-127
0
0
4.07057e-186
0
8.72685e-195
0
0
0
0
3.71947e-78
0
0
0
0
6.76536e-103
8.06992e-145
0
0
7.1765e-129
0
8.26372e-108
0
0
8.05377e-110
1.70343e-174
0
0.0106891
3.53625e-64
5.91287e-82
4.07248e-103
9.19726e-05
1.79101e-111
1.86949e-13
0
3.48553e-150
3.78104e-21
3.11763e-151
9.39688e-20
2.06157e-19
0
3.8309e-27
0
2.91806e-148
4.69806e-109
0
0
4.20458e-75
9.16962e-20
0
8.59128e-18
1.17939e-139
0
3.41339e-116
0.022622
8.14472e-202
0
1.86867e-168
7.15917e-114
3.15783e-51
6.0301e-53
0
0
1.36898e-153
0
1.97415e-174
4.31348e-81
1.70821e-06
0
0
2.27397e-16
0
0
9.88254e-164
1.04749e-06
1.06091e-101
0
2.09412e-221
0.000392563
2.75537e-110
0.00082515
0
4.74145e-214
1.46425e-07
0
1.22897e-38
2.83368e-05
1.34262e-238
0.034372
0
0
1.12354e-188
0
2.97704e-141
0
3.72033e-158
5.71135e-203
4.1499e-162
0
0
1.46582e-120
1.01669e-223
0
2.61694e-71
6.13091e-80
2.14058e-59
0
2.45564e-227
0
0
7.77888e-117
1.06301e-106
6.50962e-200
0
2.72947e-158
5.62398e-224
5.77936e-137
0
0
5.90622e-77
3.03348e-53
2.8128e-27
1.76203e-87
1.62173e-90
0
0
1.9088e-88
2.11872e-85
0
6.08083e-211
3.44501e-171
0
0
0
3.8619e-166
0
1.17045e-106
0
0
6.24087e-162
8.26594e-161
3.20658e-112
1.33281e-59
0
4.6247e-85
5.51504e-92
1.85335e-59
8.48827e-115
5.97605e-163
0
1.95412e-44
4.68316e-85
1.18518e-36
8.09613e-190
1.27796e-57
0
2.80651e-106
0
3.56984e-198
0
0
3.55359e-97
0
5.7927e-27
0
0
0
5.37001e-104
1.05394e-46
0
0
0
0
3.08292e-198
3.52463e-190
0
1.74397e-149
1.57747e-156
6.35062e-148
1.10641e-149
0
2.19034e-121
2.93244e-152
8.7378e-38
1.69616e-162
1.96771e-122
2.00929e-38
0
2.33847e-199
4.26845e-203
2.03989e-40
0
7.01128e-193
0
0
0
2.58922e-107
0
2.32081e-180
7.31883e-95
0
0
8.3144e-142
0
0
3.4386e-41
0
2.1118e-193
4.38034e-41
0
6.47432e-49
0
0
0
0
0
0.00626341
3.37036e-137
1.95593e-106
0
2.39626e-95
7.47023e-92
0
5.85888e-38
8.52581e-153
2.50007e-157
3.77332e-103
0
0
1.70679e-91
0.0431116
0
2.82658e-27
2.62274e-80
5.80434e-158
1.07045e-119
1.78606e-05
3.96357e-84
0
0
3.68344e-115
0
1.05826e-159
2.67743e-41
1.80871e-69
0
0
5.69771e-213
0
0
0
4.48975e-109
0.000116123
0
2.44711e-166
0
0
1.21252e-82
0
5.35374e-126
0.000141998
0
2.14312e-151
0
0.000492428
0
4.76724e-80
8.7248e-98
5.06781e-09
0
0
1.98851e-92
0
0
3.06639e-50
0
3.13801e-63
0
3.14567e-42
2.99535e-191
4.84387e-131
0
0
1.51825e-184
5.57735e-152
0
1.71565e-69
8.87525e-49
7.82056e-18
0
7.72336e-42
3.09604e-22
0
1.60456e-200
1.08079e-203
0
0
0
0
4.33627e-61
0
0
2.97929e-158
2.63674e-47
0
1.07278e-79
4.11907e-56
0
0
3.03341e-33
1.7109e-89
0
0
1.67373e-149
4.8722e-31
1.1787e-107
1.12327e-89
5.94021e-105
0
0
1.2473e-85
0
8.85956e-178
0
5.54497e-178
2.22828e-62
0
7.84555e-94
1.1011e-58
0
1.75553e-61
0
0
1.90488e-199
1.55675e-45
0
2.15311e-202
4.96051e-72
0
3.28156e-95
0
3.2972e-53
2.48888e-85
1.53903e-53
1.85797e-64
0
0
0.00147086
0
0
2.57593e-62
0
2.42696e-172
2.18809e-18
0
7.91907e-49
0
2.11307e-30
1.79063e-48
0
0
0
8.4153e-61
1.8365e-225
0
2.17246e-124
8.96002e-162
0
7.11638e-58
4.44666e-82
5.59966e-44
3.65689e-144
1.74801e-29
1.15689e-118
0
2.47846e-59
0
0
1.14629e-146
2.74745e-41
0
4.45969e-32
1.11644e-159
4.92454e-41
3.77473e-64
0
5.25711e-42
0
0
1.49373e-39
5.12362e-29
1.01455e-36
0
0
3.8975e-107
0
1.76187e-94
0
0
0
4.24338e-55
8.10844e-49
7.35333e-68
4.07501e-73
4.25077e-63
0
3.43883e-68
0
1.22915e-145
0
3.40422e-218
1.5335e-68
4.1097e-220
0
6.4539e-215
6.48409e-41
9.21849e-45
0
2.3346e-53
9.03786e-212
0
0
9.78022e-92
0
0
0
0
6.09336e-116
4.75298e-81
1.16178e-71
8.28203e-180
3.69015e-36
1.08372e-26
0
7.43181e-79
0.0285152
8.94368e-43
5.98825e-114
0
5.46653e-12
2.11649e-78
3.18418e-81
5.07127e-78
7.2341e-124
0
0
5.3942e-162
1.10505e-94
7.60727e-191
7.30596e-65
3.93361e-164
2.23928e-126
0
1.42464e-51
2.17741e-23
1.13102e-110
8.3362e-13
1.69701e-181
3.42266e-70
0
1.37657e-210
5.41314e-85
2.28026e-56
1.15417e-153
2.03346e-143
0
2.05576e-135
4.1819e-130
0
0
0
0
1.07879e-134
3.04138e-15
3.30953e-179
0
0.0537588
1.1302e-176
0.0066707
9.37877e-131
0
1.69879e-82
2.74679e-06
9.33131e-58
1.6498e-179
3.72224e-87
0
4.62663e-129
0
0
0
1.43549e-72
7.57024e-42
2.82895e-183
3.73234e-66
8.25164e-84
0
7.8378e-65
0
1.24925e-77
0
6.67174e-69
1.61297e-174
2.96919e-72
0
0
0.000353497
0
0.0011
5.24186e-78
0.000378505
0
0
1.35759e-153
3.14872e-33
0
0
0
0
0
0
1.0927e-87
1.47727e-182
1.07826e-177
1.25348e-99
8.98704e-34
7.83545e-69
6.43054e-34
0
0
2.74117e-30
0
8.55082e-156
2.01013e-38
0
0
0
0
7.90132e-99
0
1.0782e-56
2.74278e-36
9.14504e-92
6.95053e-06
4.63362e-208
2.64687e-05
0
2.45274e-16
5.7393e-194
0
4.87371e-40
0
0
4.61343e-175
3.79351e-221
0
1.89294e-29
0
6.75717e-23
1.01573e-70
0
1.10772e-06
0
0
0.00163031
3.92346e-15
6.31342e-152
0
2.91865e-250
0
2.22731e-55
0
0.000316158
8.19818e-117
0
0
6.16952e-58
1.02505e-146
0
6.91964e-58
1.6901e-145
9.18496e-175
0
5.27545e-65
0
0
1.06318e-201
0
4.01088e-49
0
0
2.38873e-48
3.20251e-62
3.64611e-70
0
3.65748e-18
5.03495e-178
0
0
1.89701e-124
0
0
0
0
2.69145e-141
0
0
1.65539e-48
0
0
1.10955e-38
2.36051e-19
0
6.2571e-70
1.82259e-38
0
2.30944e-147
7.73269e-67
0
9.42552e-78
1.01153e-77
5.36708e-65
7.63409e-33
4.69709e-37
0
1.09294e-52
0
1.32778e-67
3.60423e-36
4.22065e-22
4.34695e-138
0
0
1.76213e-34
0
0
0
9.18854e-33
0
2.36551e-84
0
1.40632e-207
6.92255e-103
1.2937e-104
1.84888e-162
3.37544e-27
0
6.99566e-99
0
0
0
0
0
3.44623e-210
8.67749e-180
2.03272e-205
1.64393e-59
1.6193e-84
8.85456e-136
0
0
8.20665e-64
0
1.73562e-77
0
0
1.06005e-64
6.88114e-146
2.55226e-75
6.93359e-31
0
3.71028e-218
0
0
5.19431e-180
1.77041e-81
2.45156e-68
0
2.19609e-221
0
0
2.89122e-42
0
6.21829e-68
1.80729e-200
0
1.29089e-64
3.26197e-52
0
0
0
5.10999e-133
5.84619e-81
3.79649e-77
9.76709e-157
4.02918e-214
7.78367e-160
1.43344e-17
1.96903e-101
0
1.94607e-167
0
1.20049e-36
2.41992e-181
2.92908e-75
4.79479e-70
0
6.09082e-91
0
1.58025e-70
5.88591e-34
1.5303e-66
0
0
4.43248e-181
0
2.0349e-67
7.60802e-61
0.013963
4.00652e-47
0
2.49559e-70
0
1.03731e-53
2.54622e-66
1.81008e-51
4.3807e-82
6.04727e-52
0
1.46558e-11
0
1.71053e-53
0
1.90481e-217
0
0
0
9.48593e-216
0
6.31178e-37
0
0
0
0
0
2.13091e-51
3.04957e-21
0
7.50459e-90
4.72479e-112
0
0
1.35776e-67
9.84502e-31
8.97926e-27
1.01109e-160
0
1.1458e-227
0
9.85963e-109
2.14564e-193
7.69812e-203
0
0.0745905
1.16706e-49
1.03597e-218
9.58226e-113
0
0
0
2.57481e-211
0
7.08438e-110
8.48899e-121
0
0
8.60141e-105
0
0
0
0
0
0
0
9.64661e-82
1.62869e-46
3.2666e-69
8.13532e-67
9.24562e-93
1.34902e-218
0
0
0
0
0
5.49136e-78
2.97545e-112
1.1348e-40
5.98961e-107
6.47821e-82
0
0
0
0
0.00672881
0.000115758
0
0
2.86398e-135
0
0
0
2.86145e-125
6.20087e-171
0
0
8.36095e-170
0
1.9061e-191
7.32712e-85
0
0
3.83314e-79
0
0
4.49777e-20
0
5.54849e-85
0
0
1.63287e-18
6.39611e-230
0
5.42322e-149
6.81208e-151
1.10966e-153
1.93e-05
5.41238e-63
6.18347e-203
5.79056e-48
1.45286e-178
2.49628e-43
1.97827e-52
0
3.50727e-139
0
0
3.0444e-95
4.31377e-87
5.53355e-210
3.48612e-28
6.79616e-52
0
0
0
0
6.83311e-226
0
3.43984e-222
0
1.1805e-218
7.5923e-08
1.58524e-56
3.91562e-63
0
0
0
0
4.12078e-60
3.37265e-119
1.43696e-184
8.61464e-51
1.26425e-50
0
7.21946e-45
0
1.72355e-40
7.34958e-111
0
0
3.75912e-181
1.05911e-123
0.0169305
1.85934e-144
0
7.39095e-166
9.50564e-24
0
2.1756e-142
8.40194e-76
4.44597e-68
9.48693e-46
1.08407e-42
0
0
1.47071e-106
0
0
0
0
2.63027e-60
5.84423e-202
9.34651e-31
4.84769e-93
0
6.07197e-70
2.14126e-171
5.97669e-178
1.40923e-169
6.30867e-85
1.73148e-07
0
4.21827e-56
1.24654e-61
6.95982e-05
0
0
0
1.24108e-32
0
0
1.15369e-87
0
7.52709e-60
0
2.309e-191
3.02078e-85
5.70102e-82
0
0
0
0
4.54825e-130
6.13205e-160
3.22526e-144
0
0
3.41776e-98
4.98074e-102
8.77339e-32
3.68839e-181
4.18769e-125
0
3.1098e-93
0
0
0
0
0
0
4.82892e-55
5.92479e-49
0
7.75741e-157
3.38217e-174
6.74568e-42
7.71316e-143
3.41805e-99
0
0
1.92742e-96
3.45758e-96
1.13788e-179
9.75393e-95
2.54553e-06
6.02812e-99
0
0
0
2.76073e-40
0
6.48122e-135
6.61731e-204
0
0
0
2.01553e-185
3.49083e-60
2.88704e-200
0
1.62175e-72
3.37126e-21
0
0
0
0
1.93913e-47
5.89196e-188
0
8.04191e-201
3.13981e-108
0
0
3.6158e-48
3.44634e-43
1.03843e-84
0
2.63997e-38
6.40231e-170
0
0
1.79231e-89
0
0
1.65172e-13
9.71732e-188
0
7.8545e-77
0
0
1.52767e-57
2.06238e-55
0
0
0
0
6.78946e-37
1.24648e-177
5.12796e-93
2.23084e-27
5.13172e-61
5.72936e-89
0
1.6705e-92
0
0
1.18597e-50
8.78068e-61
0
2.00403e-32
1.88427e-63
2.40696e-96
6.39599e-40
7.91987e-25
1.29992e-99
3.3837e-72
0
1.25095e-69
0
3.08486e-199
1.22365e-123
1.45515e-51
5.43334e-53
0
0
7.93618e-121
0
0
1.94907e-196
0
0
1.24805e-193
2.26656e-165
0
0
7.39962e-194
2.90422e-172
1.9547e-33
0
5.15824e-76
0
0
0
8.22798e-94
4.04936e-94
5.79169e-95
0
5.28847e-66
0
1.55949e-77
7.43316e-34
1.12215e-215
0
1.77907e-180
4.09176e-63
5.68331e-48
0
1.11895e-48
1.94988e-170
1.59987e-59
7.80438e-54
1.20624e-11
1.10827e-79
3.19878e-70
0
5.03597e-18
2.38589e-118
0
0
0
6.59826e-188
1.55219e-189
9.12312e-160
0
6.84392e-54
1.02251e-31
6.49953e-52
0
0
4.03916e-153
5.43121e-199
0
0
0
0
2.26541e-70
2.60611e-160
0
2.79584e-126
2.35347e-45
8.78132e-107
1.18826e-138
0
1.18986e-115
2.32125e-149
0
9.48513e-115
1.06494e-72
1.11659e-118
3.14039e-58
5.52522e-17
8.86371e-147
0
2.23513e-33
2.36465e-160
0
0
1.67213e-107
0
0
2.94284e-38
1.1136e-180
0
9.57668e-16
0
0
8.87113e-98
0
5.67444e-71
2.27997e-175
4.79079e-118
0
3.77986e-116
1.78634e-25
1.2269e-18
0
2.22657e-45
1.21961e-32
0
7.49959e-46
0
1.16286e-170
6.88047e-172
3.03771e-125
6.57911e-187
7.53465e-137
0
0
0
2.43431e-23
1.10608e-22
1.46675e-30
7.29929e-218
2.92952e-132
8.55836e-52
6.25867e-33
5.52684e-156
0
0
2.47533e-166
1.96798e-120
3.86016e-86
2.77085e-49
1.19543e-42
1.45862e-145
1.7308e-47
4.08761e-53
6.11114e-19
1.31202e-150
1.69899e-44
4.77656e-124
0
8.51586e-39
0
1.55127e-49
0
7.36896e-142
0
3.4149e-53
3.01155e-126
2.60633e-155
0
1.23815e-152
0
2.96943e-61
0
3.68387e-51
2.25783e-162
4.12413e-177
4.95772e-38
4.69578e-234
0
4.10653e-38
7.29739e-186
6.15525e-11
1.2618e-157
0
2.37663e-129
7.61856e-129
0
0
2.42494e-33
3.11064e-74
5.29291e-44
5.07279e-25
4.1311e-154
0
0
0
0
0
0
0
0
5.50766e-123
5.50857e-66
2.67988e-128
0
2.63256e-52
4.67246e-12
0
1.05806e-59
8.54238e-57
0
0
1.39574e-74
0
8.26646e-134
1.01297e-161
0
0
0
0
9.80702e-32
1.45086e-44
5.40745e-38
0
6.92638e-73
0
3.43259e-115
4.38909e-22
2.01454e-64
1.90286e-31
0
1.30347e-45
0
2.97845e-16
0
0
0
0
0
9.00723e-203
1.12752e-08
2.41686e-193
0
0
9.52925e-25
1.89807e-19
0
0
0
1.77422e-15
0
1.8259e-19
4.6928e-204
4.29573e-38
1.21386e-37
0
2.6119e-120
3.93428e-65
0
1.48224e-113
3.31347e-109
0
3.13777e-22
2.5051e-96
6.40418e-116
1.44659e-50
1.29455e-60
0
4.03844e-118
1.47006e-39
0.0108556
4.15289e-38
3.14688e-35
0
0
0
0
3.82158e-34
0
0
2.5658e-165
1.66255e-110
6.53541e-70
1.70749e-115
5.73199e-192
0
1.3576e-53
0
0
1.36516e-98
4.89422e-162
5.72957e-53
6.70986e-30
7.44413e-103
1.11441e-16
0
0
0
1.96919e-10
3.54057e-80
1.01038e-20
6.07731e-23
5.51802e-36
1.80243e-19
1.70774e-25
0
1.78827e-55
0
7.45649e-137
4.02371e-76
0
0
4.06373e-47
3.54441e-44
4.16666e-15
3.75918e-28
7.51627e-08
9.2426e-78
1.5888e-51
0
4.75785e-123
0
2.0335e-167
3.00419e-53
3.00187e-153
6.98112e-49
0
2.78338e-11
1.65678e-17
1.4385e-41
0
1.45785e-29
3.37308e-99
1.10831e-61
8.39769e-59
5.15723e-29
3.47716e-14
0.00118353
2.66065e-100
9.93995e-81
2.69535e-137
0
2.179e-212
0
7.11856e-68
0
0
0
0
1.41596e-50
2.07999e-36
0
5.84157e-53
2.08854e-38
4.09297e-215
0.0161654
3.76263e-63
3.67125e-174
0
6.19648e-30
0
6.00106e-206
2.07112e-151
0
1.76842e-111
3.95349e-232
1.83678e-07
8.67384e-05
0.00028722
4.65863e-33
0
1.01361e-10
4.69004e-37
5.10754e-210
5.38904e-56
8.43504e-113
0
9.71813e-28
0
3.14861e-143
0.0204075
0
2.72677e-70
6.76604e-138
3.20165e-77
0
3.57907e-154
2.86361e-42
3.29336e-84
9.35462e-87
1.26278e-21
7.85771e-24
2.897e-80
0
5.52237e-104
1.05475e-158
0
0
4.07651e-107
0
0
0
0
9.99597e-68
0
6.13771e-199
0
0
1.00997e-55
0
7.96118e-63
7.94592e-32
1.01972e-42
8.83411e-205
0
1.24469e-100
4.12381e-59
0
8.04893e-171
4.46632e-56
0
1.63964e-133
3.24503e-67
0
0
0
0
1.90598e-84
0
2.60846e-116
1.46104e-34
0
1.20647e-80
7.64185e-113
4.85669e-53
0
2.01577e-86
6.90018e-75
0
0
0
1.86214e-46
2.48329e-16
0
1.86928e-13
4.70862e-38
5.15261e-98
1.14283e-169
7.28617e-204
2.82702e-06
0
5.35455e-35
7.86371e-41
3.82729e-43
0
0
0
1.72664e-56
1.02988e-211
8.82144e-82
1.02932e-133
6.65905e-54
5.87023e-45
0
0
0
0
0
4.40965e-186
2.21765e-128
3.3653e-72
1.87487e-133
2.72716e-112
0
3.09609e-215
0
2.18021e-210
0
1.11667e-63
0
0
3.24828e-66
0
3.26302e-158
1.10629e-54
1.99889e-156
3.14174e-150
0
3.53554e-110
0
3.17186e-121
5.11669e-67
0
8.94814e-178
3.85607e-93
8.61776e-146
5.0447e-61
1.17617e-17
1.31391e-169
1.44127e-217
1.37546e-54
0
4.22074e-37
0
6.16442e-166
2.4425e-236
0
0
2.30236e-22
6.49768e-10
1.48011e-52
1.65399e-115
9.19806e-11
9.85241e-80
1.49572e-49
3.53483e-236
3.9149e-35
1.27512e-162
1.90468e-22
3.50204e-84
2.60119e-146
0
0
3.28059e-39
0
2.88295e-239
6.415e-46
0
0
0
0
6.84638e-130
0
1.50858e-119
2.5012e-61
0
0
0
0
0
0
0
0
0
0
2.27047e-216
0
0
0
1.55874e-63
5.93872e-77
2.72939e-100
8.13949e-145
0
0
0
0
0
9.29501e-103
3.07103e-56
0
2.15686e-174
7.28857e-28
7.20045e-86
5.7237e-60
0
1.22024e-71
1.64615e-69
4.50295e-113
5.73993e-181
2.69112e-55
1.1244e-81
1.93039e-60
0
0
1.0743e-66
5.51945e-107
3.05689e-29
0
1.5149e-84
0
1.68616e-33
6.14949e-108
0
0
0
0
0
7.83423e-84
1.01726e-74
0
0
2.66922e-171
7.03557e-111
1.04265e-84
7.70451e-93
0
4.38686e-216
0
0
0
7.64622e-224
2.9541e-90
0
9.36935e-84
0
0
0
1.2156e-34
1.17186e-31
6.06135e-226
0
0
8.97043e-74
3.9085e-30
0
4.69645e-07
7.6201e-165
0
0
3.34124e-40
9.21634e-16
2.24746e-06
1.70142e-09
1.68808e-08
1.40117e-231
0.000283457
0
0
1.05751e-228
4.22441e-05
1.98629e-09
2.23539e-221
0
5.06523e-15
0
1.70618e-31
5.31172e-228
0
2.88877e-56
0
5.39269e-85
0
1.42503e-165
1.56423e-225
0
0
3.61132e-23
0
1.9186e-40
0
5.792e-233
1.67056e-238
0
0
0
0
2.13581e-42
0
0
1.79192e-102
9.63418e-38
5.40597e-235
1.10683e-40
0
0
2.02417e-74
0
0
4.69728e-113
1.20104e-64
0
7.22757e-37
1.37939e-38
2.3253e-30
1.00189e-42
6.81127e-60
2.30598e-64
0
1.62825e-145
0
0
1.77235e-103
3.98997e-42
2.77324e-38
8.14744e-38
1.8085e-66
5.76546e-65
0
1.86144e-70
5.1502e-62
0
0
0
4.20939e-37
1.27034e-37
0
7.05407e-20
3.34831e-144
0
3.03846e-13
1.58559e-20
1.05733e-166
6.71912e-78
0
0
7.25564e-102
0
1.86333e-121
0
0
5.98578e-108
0
6.34571e-98
4.45099e-12
0
1.80794e-79
0
0
0
0
0
1.96021e-51
1.32846e-48
8.70057e-147
0
5.67355e-168
0
0
0
0
0.000466957
2.96397e-132
0
0
4.05342e-107
0.00039318
6.80506e-115
6.04333e-128
2.9122e-140
0
0.00110338
0
8.26562e-172
0
7.97803e-81
0
2.02821e-169
1.9689e-126
0
1.31111e-164
0
6.1895e-99
2.67895e-167
4.86438e-59
0
0
9.6408e-33
0
0
7.12367e-39
2.92115e-36
4.35573e-111
1.30386e-153
0
0
0
0
1.46318e-107
6.98886e-18
0
3.2396e-113
7.18117e-109
1.64298e-106
5.54509e-84
0
7.39865e-52
9.06657e-31
0
2.90723e-26
1.18071e-45
1.84321e-54
5.15655e-45
2.43811e-150
3.87445e-107
0
1.44759e-153
0
1.26339e-23
1.10836e-148
0
0
6.3375e-151
7.83563e-48
7.49617e-126
2.50304e-44
1.11655e-131
7.88212e-42
0
9.48995e-135
5.27972e-35
1.76533e-161
1.49583e-25
0
0
0
2.5486e-46
1.08506e-35
3.31666e-140
2.61099e-40
1.54839e-39
2.79444e-37
2.45484e-137
0
0
5.92611e-19
0
4.23681e-44
2.17232e-81
0
0
6.41011e-78
0
0
1.63077e-159
7.94438e-160
1.05335e-81
4.98131e-48
0
0
8.70667e-96
0
0
8.60386e-146
0
0
0
4.60052e-81
0
4.62689e-138
0
6.88499e-136
3.31042e-128
1.60925e-125
0
0
0
1.13979e-30
0
3.24809e-44
1.58706e-19
3.46655e-205
1.20582e-141
0
4.70767e-147
0
0
0
3.0254e-149
1.7046e-35
2.4928e-34
0
1.56621e-112
7.2133e-72
0
0
2.03563e-40
2.54259e-208
1.90332e-147
5.04649e-58
0
1.51959e-152
5.84903e-30
4.09983e-153
6.51529e-103
5.149e-90
0
0
9.3875e-69
4.9235e-56
0
9.06144e-105
9.54189e-172
0
1.81106e-154
6.72845e-115
0
1.09922e-174
0
0
0
3.56438e-147
0
0
0
3.15916e-97
0
1.19626e-92
1.13395e-80
2.07144e-140
7.78333e-56
0
3.638e-144
5.80587e-120
0.000473374
0
2.23572e-114
1.14886e-117
0
4.17408e-104
1.95175e-111
0
0
0
4.547e-104
0
0
8.02757e-127
0
0
0
0
0
1.21582e-100
3.53864e-151
0
0
1.08019e-97
7.57175e-103
2.04556e-40
8.36704e-103
0
2.65141e-26
2.41009e-97
0
4.11507e-43
0
0
3.19663e-12
3.9873e-58
0
7.46635e-184
4.98806e-151
9.49968e-71
1.42074e-79
0
0
0
2.02264e-133
1.0664e-175
0
0
4.858e-75
0
8.16843e-209
0
2.69578e-167
0
0
1.43144e-176
0
0
0
8.85689e-186
2.1534e-111
5.60391e-48
2.62945e-167
0
0
4.9126e-94
3.46549e-162
0
0
0
0
0
4.63841e-51
2.60951e-116
9.20483e-121
0
7.70884e-76
0
0
0
7.69268e-108
0
1.45291e-108
0
0
7.99523e-88
1.54999e-82
1.00348e-32
0
0
5.1651e-134
1.08907e-18
5.2715e-100
0
0
3.70045e-27
2.66911e-46
0
1.3927e-50
6.12748e-103
1.90753e-27
1.59347e-92
0
0
0
4.643e-29
0
0
0
0
0
1.13278e-94
1.42664e-88
2.88909e-24
0
6.66081e-62
1.24426e-123
2.59614e-61
1.46092e-77
0
2.67299e-53
0
0
0
4.83543e-20
3.91456e-19
1.0261e-54
0
2.38877e-159
0
3.75493e-59
0
1.94997e-24
0
1.07883e-56
0
6.88517e-65
0
2.59501e-12
0
7.40576e-102
4.54061e-40
1.45797e-59
0
0
5.78681e-132
0
4.91511e-185
0
0
0
0
0
0
4.9444e-27
0
0
0
0
6.48271e-65
0
1.76322e-112
0
6.5394e-121
3.16569e-76
0
1.77069e-78
0
1.26246e-71
1.08601e-113
0
0
1.0635e-32
0
2.81564e-41
2.32892e-100
1.62973e-69
1.07068e-196
1.64154e-149
0
8.11812e-195
0
1.04747e-28
1.57794e-114
8.18277e-63
2.32263e-188
0
8.793e-86
6.27943e-89
1.40817e-196
0
5.31146e-64
2.31088e-160
2.55622e-43
2.94326e-23
3.07863e-194
0
2.2329e-192
0
4.90028e-70
0
0
0
0
1.71623e-189
0
1.71955e-140
2.23361e-180
5.35111e-204
0
1.38724e-72
1.11409e-77
0
0
2.02625e-164
0
2.54787e-191
0
0
5.1938e-100
8.46402e-53
2.67669e-130
1.17989e-161
2.27232e-110
0
1.75086e-55
0
0
6.45422e-154
2.09887e-187
2.17255e-97
0
0
2.15024e-142
6.46504e-141
0
0
0
1.35343e-46
8.80425e-195
3.41436e-134
1.03093e-148
5.70717e-29
0
5.86127e-141
0
0
4.09743e-157
3.69555e-120
1.48021e-13
0
0
8.45467e-41
0
1.0612e-113
2.17866e-141
0
2.60177e-117
0
0
4.46916e-113
0
0
2.1742e-86
4.74315e-60
0
0
6.52271e-144
4.30021e-70
6.354e-30
0
0
0
2.89745e-41
9.62739e-27
0
0
3.01939e-204
2.33784e-111
5.39174e-117
0
9.90225e-140
0
0
0
0
1.77548e-139
0
6.33918e-164
2.69876e-172
4.14131e-182
3.21371e-169
0
7.18093e-75
0
0
0
2.79567e-146
0
3.82518e-184
0
5.31587e-53
2.02136e-210
0
6.73907e-186
0
7.10089e-173
0
3.69485e-69
0
2.71208e-100
6.12468e-181
0
0
4.00559e-76
3.78584e-89
3.80386e-08
3.4006e-156
6.08152e-180
8.30558e-187
1.58231e-86
0
0
0
7.75296e-07
1.31579e-05
5.45415e-82
0.000292142
5.12845e-15
4.17385e-125
7.58433e-82
9.0746e-39
0
0
1.7818e-225
3.43705e-148
1.03507e-185
1.16749e-124
2.19966e-18
0
3.52004e-15
1.41659e-43
1.45729e-15
0
0
0
3.17518e-30
1.77623e-70
2.01399e-21
2.87981e-65
4.00744e-47
4.81585e-27
3.07243e-206
0
3.19735e-18
0
0
0
0
0
2.09991e-19
5.38671e-83
0
0
2.16332e-153
2.84513e-202
0
3.75401e-201
1.29397e-185
0
2.08235e-70
0
0
3.39532e-133
4.20883e-17
0
8.33982e-77
1.4254e-202
8.30867e-188
5.47129e-11
0
0
0
0
2.77248e-125
0
0
5.88434e-97
4.04147e-78
0
0
0
0
7.93267e-154
1.1286e-85
0
0
1.60843e-118
1.52067e-130
0
0
9.42703e-188
0
0
3.52567e-167
8.68779e-114
2.02112e-152
0
1.11852e-117
0
1.24816e-139
4.34659e-07
1.18598e-148
1.06364e-210
4.95259e-147
0
5.99962e-182
2.27731e-146
0
2.21149e-07
0
3.33846e-05
0
0
4.74851e-81
4.17475e-06
2.73526e-06
3.55656e-65
9.30469e-60
6.47778e-101
6.34903e-146
0
2.54943e-98
0
0
0
1.42584e-05
0
3.08561e-94
9.68681e-125
1.1635e-91
1.68722e-150
0
0
0
1.24626e-149
1.01156e-64
2.77144e-107
1.90526e-171
0
0
0
0
8.28419e-93
3.60767e-40
3.95058e-148
3.85122e-39
2.80661e-229
9.08106e-212
1.28695e-93
4.21913e-35
2.60104e-36
4.892e-35
9.14904e-42
0
0
3.53002e-91
1.23788e-72
1.19497e-38
0
0
0
0
0
8.63259e-57
9.38318e-71
9.5662e-115
3.60454e-55
3.68321e-57
0
6.23402e-59
1.75773e-29
8.73743e-182
2.58428e-221
4.65392e-185
8.60282e-38
4.82289e-23
1.26659e-54
0
0
0
6.44778e-80
0
2.12583e-23
1.54449e-21
8.50957e-106
2.84455e-205
2.51876e-30
0
0
1.50492e-194
0
0
2.06718e-185
0
1.07299e-107
0
0
3.85745e-23
1.31471e-187
0
0
9.65503e-182
2.57536e-86
6.05588e-29
9.32956e-27
0
2.50521e-27
1.55024e-31
1.90444e-24
9.49192e-95
0
7.6537e-25
0
2.79284e-28
1.22369e-30
0
0
0
1.15221e-102
2.02508e-69
0
0
1.3528e-42
0
1.00945e-80
1.29161e-201
0
0
4.75487e-44
0
0
0
0
0
3.75539e-42
1.92284e-40
5.60218e-70
3.59495e-162
6.67255e-34
0
0
0
4.367e-92
5.6522e-36
1.20241e-17
1.40876e-74
1.75684e-137
0
3.37611e-140
7.57009e-131
1.27414e-175
2.14429e-157
0
0
8.75679e-167
0
5.29551e-237
1.79774e-115
8.06813e-164
0
2.27807e-190
2.38001e-212
0
9.90114e-68
6.48036e-88
1.41519e-194
0
0
1.35311e-157
3.35185e-77
2.13643e-65
0
1.64842e-81
1.24077e-137
0
2.32642e-98
7.31179e-80
2.01256e-55
2.6249e-167
0
2.72196e-143
1.69709e-177
5.0128e-163
0
4.71451e-163
0
1.675e-182
0
0
0
0
1.13343e-43
2.307e-204
0
1.90903e-163
3.2162e-66
3.99625e-161
2.8187e-88
1.15885e-82
1.53028e-29
0
1.10119e-181
4.51394e-184
0
1.87848e-70
0
0
2.92683e-161
9.18579e-187
0
3.10399e-82
8.26915e-164
0
0
9.47535e-175
9.01111e-116
1.09511e-86
0
0
0
0
1.53046e-123
3.28385e-125
1.19038e-132
3.36081e-104
0
1.01138e-199
3.01118e-77
1.10466e-75
0
3.97811e-145
0
4.61805e-112
5.94034e-114
1.71923e-106
0
8.19433e-57
3.2861e-152
0
2.34497e-162
0
3.80913e-171
0
0
2.97464e-89
1.64519e-66
4.83109e-199
4.78932e-102
0
1.19543e-173
1.83108e-89
8.69844e-82
0
0
6.81291e-109
0
0
0
0
2.28601e-158
8.83701e-11
0
0
6.5221e-115
0
0
5.24168e-92
0
0
0
3.67801e-62
0
0
6.06959e-87
1.04415e-130
0
0
9.21208e-94
1.07037e-07
2.05869e-159
0
3.30212e-150
0
1.38452e-80
0
1.85021e-45
1.56143e-206
4.4462e-38
8.46303e-30
0
0
0
5.64116e-134
6.01697e-210
1.53891e-105
1.45112e-108
2.38953e-113
0
0
6.02049e-67
7.7462e-43
3.90127e-11
1.26924e-26
4.0261e-93
2.71571e-200
1.14859e-196
0
6.99372e-151
0
1.43528e-189
3.0634e-193
1.54769e-188
7.4356e-20
4.86452e-73
0
0
7.14226e-156
7.17375e-30
0
8.51352e-55
0
1.10372e-195
3.00952e-46
0
0
2.82818e-216
0
1.8225e-30
2.2564e-28
0
2.88767e-30
0
3.84536e-47
2.44292e-172
3.47392e-28
0
0
0
2.76269e-125
0
3.27368e-16
1.98169e-70
3.04319e-130
3.79178e-24
7.9149e-193
5.08799e-130
0
0
5.09795e-101
2.42792e-196
0
0
3.79089e-179
0
1.06186e-163
0
0
0
5.73445e-158
1.75367e-79
0
5.57446e-146
0
4.81031e-101
0
0
9.72586e-32
0
4.98841e-39
1.30334e-18
2.19127e-64
0
0
1.57719e-59
0
7.73467e-173
0
1.4292e-32
0
0
3.76571e-05
9.75344e-63
0
8.49242e-79
2.85601e-122
0
4.74142e-182
1.62991e-139
2.39668e-202
1.59587e-08
1.20925e-205
3.96872e-11
3.19545e-128
0
1.77191e-204
0
1.41233e-61
5.94597e-208
0
2.82493e-122
1.97454e-162
0
1.30556e-24
3.97191e-116
1.13402e-52
0
0
3.98e-114
1.4188e-88
4.23942e-117
4.68399e-150
0
2.20168e-44
0
1.61382e-94
1.55688e-61
2.77516e-47
0
3.78513e-75
1.40702e-65
0
7.19405e-52
9.93207e-80
2.37096e-113
1.06882e-167
1.69579e-21
4.23575e-67
1.29781e-64
6.37111e-81
7.25967e-50
2.76896e-48
3.92351e-22
1.41313e-66
8.84846e-33
8.5276e-54
0
1.0825e-145
0
0
0
3.23752e-68
1.53557e-27
5.22094e-62
4.02652e-95
1.0381e-43
0
1.1894e-184
1.23045e-25
1.12463e-79
0
1.50329e-102
9.86352e-189
0
3.5079e-144
0
5.8754e-45
0
1.71477e-134
4.72352e-30
0
0
0
2.02577e-24
0
0
0
0
0
3.87014e-147
6.34351e-52
9.08801e-46
4.00542e-114
0
0
6.47209e-102
1.50583e-65
1.61031e-92
4.74865e-196
4.74088e-129
4.87149e-27
1.23435e-88
1.00577e-128
0
0
7.9722e-191
0
3.6646e-51
2.34517e-29
6.06989e-65
0
1.01477e-67
1.41363e-182
0
4.81009e-31
2.31124e-46
0
1.64008e-212
6.53477e-77
3.80854e-210
5.84391e-108
0
1.94678e-09
0
0
0
1.81561e-219
5.08478e-217
5.7783e-73
0
0
2.34174e-71
6.29647e-91
0.00104636
0
0
2.42759e-44
3.50731e-06
5.60103e-134
0
2.70323e-34
0
1.13655e-66
5.96645e-58
0
0
0
0
0
8.11275e-141
3.9249e-209
8.34758e-124
7.13771e-16
0
1.25406e-75
0.0251128
1.17215e-39
1.49548e-14
1.33046e-136
0
7.84294e-150
4.85805e-152
3.52464e-14
4.85733e-52
1.52826e-103
2.10728e-12
5.74423e-05
1.56522e-34
0
7.03247e-61
6.29399e-13
2.73629e-26
7.79044e-08
1.27819e-46
2.65574e-136
3.16454e-05
0
2.83045e-152
0
0
1.91625e-28
0
1.54381e-103
0
0
4.76683e-133
7.54895e-44
0
0
4.08414e-06
5.11078e-09
2.45985e-95
0.000153879
1.07038e-05
0
1.35591e-157
2.77683e-12
2.37825e-84
0
0
0
0
3.03271e-154
0
0.00112626
6.47334e-95
2.05108e-05
1.00464e-34
8.01652e-114
1.04358e-83
8.32643e-141
4.07026e-205
0
5.75187e-13
0
5.98297e-180
0
1.12948e-10
0
0
9.53486e-08
1.21153e-34
4.82675e-33
0
0
1.2322e-06
1.19246e-194
0
1.1565e-41
1.75592e-36
4.62201e-32
0
2.32216e-150
0
0
0
7.76864e-08
0
4.1327e-17
2.36433e-07
0
7.32416e-120
1.84646e-10
0
0
4.16237e-07
2.37652e-48
7.12148e-42
1.43764e-197
5.79292e-06
0
2.43127e-12
3.54532e-44
6.90061e-215
3.31144e-91
0
1.34157e-188
0
1.1311e-44
0
1.17296e-22
7.93653e-67
7.69452e-45
1.0395e-32
6.14682e-16
5.63441e-45
0
0
3.8595e-78
1.34165e-08
5.52285e-26
0
3.33565e-44
3.00358e-106
1.76106e-108
0
1.74883e-42
0
1.01895e-111
9.72371e-118
0
4.81552e-48
0
0
0
0
2.32888e-168
1.24007e-195
0
7.77527e-188
9.98431e-102
0
0
1.99888e-112
5.15179e-97
3.47677e-32
0
2.84926e-40
4.35803e-133
3.25852e-109
6.41189e-11
0
2.22522e-198
1.01516e-51
6.22889e-141
0
4.01626e-162
0
2.93462e-77
1.22592e-21
1.5426e-110
4.42288e-110
0
0
5.38246e-200
1.66127e-21
3.38969e-130
1.94381e-195
9.21392e-71
4.72303e-204
2.08946e-147
0
1.19855e-106
1.32509e-73
0
0
2.00617e-122
2.08999e-57
8.87448e-199
3.129e-129
0
0
1.96201e-193
1.30378e-76
0
1.01552e-22
9.24833e-59
0
0
2.43604e-99
9.52784e-112
0
0
7.22457e-221
0
8.95989e-191
2.9518e-139
0
0
2.86331e-41
2.62708e-76
0
6.86018e-47
2.6609e-26
3.17672e-106
1.61243e-149
0
0
0
2.79257e-70
2.27138e-57
0
0
3.4591e-113
0
6.43804e-189
6.80347e-205
3.68702e-115
5.77055e-34
0
2.74079e-176
0
3.08756e-125
0
4.69559e-52
2.01749e-190
2.43047e-152
0
1.79958e-26
0
1.5207e-35
0
0
4.46609e-113
7.40059e-115
7.31219e-40
1.54741e-151
0
1.331e-147
2.91423e-154
0
1.25746e-135
0
3.36363e-81
4.63248e-118
0
1.74346e-30
5.68535e-120
4.55709e-07
4.15565e-29
5.82517e-73
2.869e-25
7.58315e-135
5.26934e-05
6.88734e-185
0
4.04637e-40
1.51675e-05
5.91454e-41
2.23897e-106
0
0
0
0
2.50119e-182
7.46385e-07
0
0
1.77104e-176
6.38497e-153
3.77768e-195
3.67629e-93
6.10432e-12
0
0
1.7764e-105
0
2.51555e-131
2.64254e-135
8.76615e-11
0.0133266
1.8125e-36
0
0
0
9.21372e-161
1.28321e-196
4.43645e-117
1.38909e-102
0
0
0
1.42191e-33
1.44027e-119
6.55804e-212
1.10605e-196
0
4.46036e-15
0
0
3.31487e-08
0
0
6.8631e-149
0
0
6.34331e-180
0
2.3026e-203
0
4.0814e-136
3.77424e-179
0
0
4.95299e-143
0
1.30207e-205
0
1.27753e-84
3.83206e-150
0
2.14271e-211
0
0
6.25414e-56
6.43559e-20
5.01677e-32
6.86539e-209
0
7.96578e-219
0
9.23189e-58
0
0
0
2.14463e-218
0
2.45695e-215
0
1.17132e-162
1.59534e-235
0
3.25924e-212
0
1.76096e-38
2.01147e-186
0
1.9276e-33
7.75735e-78
0
0
1.0933e-33
0
1.92957e-191
1.37759e-219
0
3.18907e-186
0
2.36219e-227
0
4.38153e-156
0
0
9.80205e-55
0
1.97532e-105
1.16783e-167
0
8.49777e-221
0
1.70193e-200
0
0
1.34177e-20
2.92204e-188
1.61631e-19
0
0
2.59704e-17
1.12518e-15
0
0
4.849e-51
0