/*--------------------------------*- C++ -*----------------------------------*\
| =========                 |                                                 |
| \\      /  F ield         | OpenFOAM: The Open Source CFD Toolbox           |
|  \\    /   O peration     | Version:  v2012                                 |
|   \\  /    A nd           | Website:  www.openfoam.com                      |
|    \\/     M anipulation  |                                                 |
\*---------------------------------------------------------------------------*/
FoamFile
{
    version     2.0;
    format      ascii;
    class       volScalarField;
    location    "1.5";
    object      G;
}
// * * * * * * * * * * * * * * * * * * * * * * * * * * * * * * * * * * * * * //

dimensions      [1 0 -3 0 0 0 0];


internalField   nonuniform List<scalar> 
108993
(
1837.22
1837.49
1837.22
1837.22
1837.22
1837.22
1837.36
1837.22
1837.22
1837.34
1837.22
1837.22
1837.22
1837.28
1837.22
1837.24
1837.51
1837.23
1837.22
1838.19
1837.22
1837.22
1840.54
1837.22
1837.22
1837.22
1837.22
1837.92
1837.83
1837.22
1837.22
1837.24
1837.22
1837.23
1837.22
1837.22
1837.22
1837.22
2371.8
1991.24
1838.23
1837.22
1837.23
1837.22
1837.7
1866.69
1837.22
1837.72
1837.39
1837.52
1837.22
2503.71
1837.45
1837.22
1837.24
1837.22
1837.22
1837.22
1837.22
1837.22
1837.22
1837.22
1837.22
1837.22
1837.22
1837.23
1837.22
1837.22
1837.25
1845.54
1837.22
1837.22
1837.22
1837.22
1837.38
1837.22
1837.22
1837.29
1837.22
1837.22
1837.22
1837.25
1837.22
1837.22
1837.23
1837.23
1837.22
1837.22
1837.22
1837.22
1837.22
1837.22
1837.22
1837.22
1837.22
1837.24
1837.22
1837.22
1837.22
1837.22
1837.22
1837.22
1837.22
1837.23
1837.22
1837.22
1837.22
1837.21
1837.22
2406.12
1873.06
1837.22
2153.81
2386.37
1837.22
2313.32
1837.22
1837.22
1837.29
1837.22
1837.3
1837.22
1840.66
1837.22
1837.22
1837.28
1838.61
1837.22
1837.22
1837.22
1837.22
1837.22
1837.22
3660.05
1837.22
1837.22
1837.22
1837.22
1837.22
1837.26
1837.22
1837.22
1837.41
1837.22
1837.22
1837.22
1837.22
2046.31
1837.22
3606.47
3649.22
1837.22
1837.22
4812.56
1837.22
1889.47
1837.22
1837.21
1837.21
1959.29
4771.46
1837.21
1837.22
1837.22
1837.22
2757.59
1837.22
1837.22
1837.22
1837.22
1837.22
1837.22
1987.02
1837.22
1838.27
1837.22
1837.58
1837.22
1837.22
1837.22
1837.32
1837.22
1837.21
1837.22
1837.24
1837.22
1837.22
1837.23
1837.22
1837.22
1837.22
1837.22
1837.22
1837.48
1837.22
1837.22
1838.3
1837.22
1837.22
1837.22
1837.22
1877.1
1837.22
1837.21
1849.4
1981.79
1837.22
2721.25
1837.22
13591.7
1970.48
1837.22
1837.55
1902.2
2813.67
1837.22
1837.22
1837.22
1837.21
1837.22
1837.3
3300.6
1837.22
1837.61
1837.22
1837.22
1837.21
1837.22
3336.89
1837.22
1926.11
1837.22
1837.22
1837.81
1837.22
1837.22
1837.22
1837.22
2003.57
1837.21
1837.22
1837.22
1837.22
1837.21
1837.21
1837.23
1950.63
1839.54
1837.21
1837.22
1837.22
1837.22
1837.22
1837.22
1837.21
1837.21
1837.21
1837.22
1837.22
1837.22
1837.22
1837.42
1837.33
1837.28
1837.22
1837.22
1837.22
1837.44
1837.22
1837.22
1837.22
1837.22
1953.77
13982.3
2110.45
1837.22
1837.22
1843
1837.22
1837.33
1837.34
1916.85
1906.52
1837.22
1837.22
1837.25
1837.22
1837.55
1837.22
2412.25
1837.29
1837.22
1837.72
1837.22
1837.22
1837.22
1837.22
1837.22
1839.71
1837.22
1852.84
2040.18
1837.22
1837.22
1837.22
1839.55
1837.25
1837.27
1839.88
1901.47
1837.22
1837.22
1837.35
1837.22
1839.65
1921.04
1837.22
1837.36
2431.87
1837.22
1838.01
1837.22
1837.45
1837.49
1837.22
2648.88
11423.9
1870.3
1837.22
1837.22
1837.22
1847.15
8560.28
1837.22
3506.33
1837.22
1837.22
1837.22
1837.22
1837.22
1837.22
1878.26
1838.01
1837.22
1837.22
1837.22
1837.22
1837.22
1837.22
1837.22
1837.22
1837.22
1912.07
2031.09
1837.26
1837.22
1837.22
2137.47
1837.22
1837.22
1837.23
1837.93
1837.22
1837.22
1837.4
1838.31
1837.22
1837.22
1837.22
17219.9
1837.22
1837.24
1837.22
9850.88
1838.06
3057.82
1837.22
1837.22
2124.22
1837.22
2075.87
2183.73
1838.4
1837.24
1837.22
1861.94
1837.33
2315.16
1837.23
2200.19
2435.69
1866.71
2459.4
1837.31
2006
1837.92
44093.3
1837.22
1837.28
1837.22
1837.95
1848.99
1891.14
1837.22
1837.24
1865.42
1860.01
1837.22
1837.22
15107
1837.26
1837.46
3748.45
1837.22
1837.22
1837.22
4812.42
1843.91
2083.38
1837.22
17119.7
1837.76
16418.2
1837.22
1837.22
11005.5
1837.22
2053.69
13712.2
1837.22
53143.9
1985.64
28410.5
1837.22
1837.22
1837.37
1837.26
1837.25
1837.22
1837.22
1837.22
1837.22
1837.22
1837.54
1988.96
1838.48
1838.59
1997.98
1837.22
1837.55
1837.23
1837.22
1837.22
1837.23
1837.22
1837.22
1837.23
1837.51
1837.22
1837.22
1839.97
1837.22
1839.76
2850.86
1839.79
1837.22
1837.27
1839.68
1837.22
1837.22
1842.48
1837.22
1837.22
1837.23
1837.24
1837.26
1837.22
1928.85
2403.84
1837.54
1837.22
1837.22
1837.22
1837.22
1837.22
1837.22
1837.22
1837.22
1928.75
1837.22
1837.23
1837.22
1837.32
1837.22
1837.3
1837.22
1837.22
1837.22
1837.22
1837.45
1837.22
1837.22
1837.22
1837.22
1837.51
2098.97
1837.22
1837.22
2155.97
1837.22
1837.25
1838.54
1837.22
1837.25
1837.22
1837.21
1837.22
1837.22
1837.41
1837.83
1837.54
1837.57
1838.08
1850.1
1837.49
1840.76
1865.96
1837.22
1842.23
1849.52
1837.74
1837.22
1839.66
1837.3
1837.22
1837.22
2177.37
1837.22
1837.3
1963.58
1837.22
2057.07
1837.22
1837.22
1837.22
1837.22
1837.22
1840.61
1837.22
1837.22
1848.37
1837.76
2032.49
1837.22
1837.23
1837.22
1837.22
1838.03
12087.2
1837.47
1837.23
1837.22
1837.22
1839.74
1931.29
1981.05
1837.22
1837.22
1837.77
1837.92
1837.22
1837.25
62536.9
1934.54
1923.45
1838.09
1837.22
1930.55
13532.7
1837.59
1837.23
1837.22
1837.22
1837.22
1837.22
1837.42
1873.2
1960.64
1837.23
1837.22
1838.65
1837.22
1837.43
1837.22
11097.7
1837.22
1837.22
1837.22
1837.36
1837.92
1837.22
1837.22
17077.7
1837.29
1837.29
1837.22
16208.1
1837.22
1837.3
1837.22
7693.71
1837.22
1844.04
1837.22
1838.43
1837.22
1837.23
1837.22
2231.02
1837.22
3177.71
1837.22
1837.22
2836.74
1837.45
1837.22
1837.22
1842.31
1904.81
1837.25
1926.24
1837.34
1861.84
2234.34
1837.24
1837.22
1837.22
3827.21
1837.28
2218.43
1837.27
2389.53
1837.22
1837.3
1837.22
1837.25
1837.23
2012.45
1837.24
1837.25
1837.25
1837.31
2173.45
1886.28
1843.15
1837.46
1837.36
1891.51
1849.8
1891.64
1891.81
1837.23
1837.29
1837.22
1837.22
1837.95
1855.98
1837.28
1996.04
2277.23
1837.27
1853.11
2783.09
1891.06
1886.66
1837.22
1837.45
1841.9
1837.24
2196.01
1837.43
2067.09
1840.75
1837.25
2427.2
1837.27
1911.94
1842.08
1841.09
9349.29
1837.21
1837.22
1939.79
1837.33
1837.45
2980.65
1838.74
2796.29
1838.24
2178.93
2115.5
1837.22
1837.22
1837.22
1837.38
1837.22
1837.56
1840.14
1837.22
1837.22
1841.17
2143.68
1921.11
1837.22
2494.8
1837.22
2100.99
1838.68
1837.22
2086.02
1837.44
1837.23
2095.36
1837.24
1837.24
1837.26
1939.21
1903.57
1853.39
1837.22
2061.07
1837.23
1837.24
1837.25
1837.23
1837.22
1913.57
1837.22
1837.22
1837.35
1837.22
1837.25
1896.03
2758.7
1837.23
1891.55
1837.23
1837.25
1837.24
1837.4
1837.22
1837.22
1837.22
1837.23
1837.22
1852.08
1837.22
1837.23
1837.36
1837.29
1837.23
1837.22
1837.23
1837.22
1837.27
1837.56
1837.35
2009.29
1837.22
1837.22
1837.22
1877.31
1837.22
1856.27
1844.52
1837.28
1837.22
30800.7
1893.79
1837.29
1837.22
1837.47
1837.22
1837.22
1860.17
1837.79
1840.39
1837.22
1837.22
1837.27
1837.22
2104.34
1837.22
1837.22
1933.7
1837.26
2787.17
1915.05
5086.47
1837.22
1840.23
1837.28
1837.22
1837.22
1837.27
1837.22
1837.22
1837.28
1837.22
1837.22
1837.22
1837.91
1837.22
1837.31
1837.22
1970.21
1838.47
1837.22
55200.3
1838.5
24788.1
1837.36
1837.28
1837.26
10234.7
1838.18
1839.33
1837.26
1891.94
1837.37
1846.15
2373.78
1837.33
1837.22
1840.2
1838.76
1837.22
1837.26
1906.25
1837.22
1837.23
1837.23
1837.73
1837.22
1839.98
1837.9
1837.22
1837.22
13437.5
1837.22
16943.1
1837.22
11464.7
1837.22
1838.87
1845.52
1837.53
1971.25
1837.23
1845.78
1845.78
1852.05
1842.91
1922.77
1837.22
1837.22
1837.22
1838.88
1837.27
1837.39
1837.22
1837.22
1837.33
1928.88
1837.22
1837.26
1840.65
1837.6
1837.66
1890.01
1926.53
1925.07
1848.9
2107.27
1841.19
9877.64
1837.22
11983.3
1987.97
5875.95
1837.22
1837.22
1837.23
1837.4
2024.84
1837.27
1837.22
1837.28
1864.78
1837.22
1992.84
1838.58
1837.41
9217.02
1837.22
1837.22
15607.2
5764.86
1837.42
1837.35
1837.22
1837.24
1837.36
2819.25
11723.9
1837.22
11297.1
1837.25
1837.35
1837.47
1837.23
1837.31
1845.21
1837.66
1837.21
1837.26
1837.23
2931.15
1837.5
1837.22
1842.99
1837.22
1863.31
1837.29
1837.3
1837.35
1837.22
2090.74
1837.22
1923.96
1837.78
1837.22
1837.21
1993.78
2585.37
1837.22
1837.52
8708.67
2355.81
1999.91
1837.23
1837.33
1851.81
1942.38
1837.24
1837.37
3258.22
1837.34
1837.6
1837.33
1837.23
1971.51
2131.6
2601
1837.31
1837.45
1837.42
1837.47
1837.56
1837.8
1837.48
1998.54
1837.49
1837.22
1837.68
1838.56
1837.22
1837.22
1837.22
1838.64
1837.22
1837.22
1837.22
1837.7
1837.22
1837.22
1837.42
3135.24
1837.22
1837.22
1837.36
1837.22
2180.27
1837.22
1837.23
1837.79
1837.23
1837.74
1911.17
1860.54
1837.32
1837.22
1837.22
2115.23
1842.48
2501.25
1837.49
1837.22
2017.08
1837.22
1837.46
1837.61
1887.98
1837.22
1837.22
1837.22
1837.22
1837.24
1841.68
1837.23
1837.22
1837.22
1837.22
1956.78
1837.22
1845.61
1837.21
1837.22
1845.55
2120.58
1905.05
1861.39
1837.22
1837.22
1838.97
2085.92
1837.22
1837.22
1837.22
4224.17
1837.23
1862.2
1837.22
1837.28
1837.23
1837.22
1918.1
2019.03
1837.31
1862.68
2072.19
1837.3
1837.47
1854.95
1903.88
1837.41
1837.22
1837.22
2093.4
1837.26
22339.7
1839.16
1840.84
1837.23
1839.14
1837.45
1837.22
1837.24
2233.92
1837.23
1837.31
1861.4
2020.31
1907.58
1837.22
1837.22
1837.22
1837.22
1837.22
1837.22
1837.22
2749.4
1837.71
1924.23
1837.24
1837.22
1837.22
1883.38
3467.31
1837.22
1837.24
1837.22
1837.3
1837.22
1837.29
3824.28
1837.41
1837.22
1894.78
1837.32
1837.22
1837.22
1837.21
1837.22
1839.56
105751
1845.11
1837.22
1837.22
1837.22
1837.23
1837.24
1837.22
1837.22
1837.22
1837.22
1837.22
1837.22
1837.22
1837.22
1837.22
1837.24
1837.22
1837.22
1837.22
1837.22
1923.45
2240.47
2021.83
2696.83
1837.22
1837.22
1837.23
1837.22
1837.29
1837.22
1837.45
1837.22
1837.22
2739.62
1837.23
1849.37
1837.48
1837.49
1837.22
1837.27
17165.4
13993
1837.22
1837.22
1837.22
1852.27
1837.23
1837.22
2412.68
1837.22
1837.22
1837.22
1837.22
1837.22
1852.52
1837.24
1837.46
2418.61
1837.96
1837.5
1837.44
2292.35
1842.02
1837.23
1837.22
1837.3
3591.17
1837.22
1953.7
1855.33
1857.21
1857.21
8026.26
1856.91
1837.22
1837.49
1837.22
1837.39
1837.59
1856.19
1837.22
1837.22
1837.22
1837.22
1837.23
1837.22
2264.31
2180.44
1837.3
1837.22
1837.22
1837.38
1837.57
1837.22
1837.57
1837.22
1837.54
4310.97
1839.78
1972.51
1837.22
1837.76
1837.22
1842.99
1913.8
1838.65
1837.23
1837.82
1837.24
1896.36
1837.33
1853.44
2628.01
1837.22
1837.22
1837.31
1837.22
1837.22
27503.8
1837.22
1837.22
1837.22
2161.55
1837.22
1837.22
1838.16
1837.22
1864.86
2864.39
1837.22
1856.75
1837.22
1852.68
1837.22
1837.23
1837.22
1843.65
1837.22
1874.57
1838.35
1837.22
2265.09
1837.22
1837.24
1837.22
1902.6
10760.6
1837.22
1841.14
1918.59
16348.1
1842.73
1837.72
1837.22
1837.34
1837.22
1928.64
1938.79
1936.32
1935.84
1938.85
1837.22
1944.98
1946.35
1878.39
1883.7
1837.24
1899.69
1837.22
1837.22
1837.22
1896.72
1837.22
1837.22
1837.22
1837.38
1837.22
1837.22
1837.54
1837.22
1837.53
1837.58
1837.22
1985.94
2749.71
1837.53
2043.62
1837.57
1837.49
1837.99
1837.49
1837.28
1837.22
1837.53
2017.41
1837.52
1837.22
1837.22
1837.27
1837.22
2676.61
1837.22
1837.68
1837.22
1837.87
1873.35
1837.23
1837.22
1837.75
1837.22
1837.23
1837.22
1837.22
1837.23
1837.77
1837.26
1837.68
1968.65
1837.23
2028.83
2176.23
1837.22
1837.73
1837.22
1837.8
1837.82
1837.24
1837.23
2104.59
1936.64
2089.31
1837.23
4642.73
1842.43
1837.22
1837.22
1837.22
1837.23
1837.23
1846.76
3218.66
1837.22
1837.22
1837.23
1837.48
1837.81
1837.22
1837.22
1878.62
1899.99
1837.54
1837.22
1928.03
1837.9
1837.31
1837.3
1837.22
2110.81
1837.22
1837.41
1837.22
1837.44
1929.61
1837.32
1837.37
1850.04
1865.09
1837.31
1837.25
2424.02
1837.28
1837.22
1837.3
2343.53
1837.25
1837.22
1837.3
2122.17
1844.17
2146.81
1837.27
1837.31
2742.08
1837.32
1837.24
2210.28
1837.32
1837.22
1837.34
1837.22
2014.33
1837.23
1837.22
2989.19
1837.32
2060.11
1837.34
2888.84
1837.33
1837.27
2395.34
1837.3
1837.27
1905.7
1837.41
1837.66
2290.47
1837.22
1837.23
1837.22
2533.21
2001.97
1837.23
1838.38
1837.22
1848.17
2927.58
2141.03
1837.55
1891.38
1837.22
3304.27
1837.22
1837.22
1837.44
1837.22
1837.22
1837.22
1837.22
1837.5
1847.89
3202.73
1839.5
1839.45
1837.57
1837.22
1837.25
1837.54
1837.58
1837.22
2086.22
1856.89
1837.22
1837.22
1837.22
2345.05
1837.24
1837.22
2336.67
1837.22
1837.22
1837.22
1837.31
1865.83
1939.24
2108.71
3679.56
1837.22
1837.23
3110.79
1837.22
1837.22
1837.32
2223.46
2404.42
1891.55
2004.97
1837.22
1837.22
3861.97
1837.22
1837.28
1837.22
1837.22
1837.24
1837.22
1837.26
1837.22
1837.25
2437.44
1837.44
1837.25
1847.78
1837.53
1837.22
2961.37
1837.22
1837.22
1837.22
1837.22
1837.22
1837.22
1847.15
1837.22
1837.67
2446.69
1900.59
1841.17
1837.42
1837.22
1932.93
2972.07
1837.22
1842.23
1837.22
1837.22
1925.75
2322.9
1998.82
1894.02
1837.22
1935.72
1947.79
2314.98
1837.22
1939.9
1927.69
1904.63
2365.21
1848.17
1925
1900.28
1837.51
1898.45
1852.51
1922.55
1851.46
1930.07
1852.74
1867.58
2170.29
2053.47
1970.31
1837.22
1837.22
1956.52
1837.22
1837.39
2772.66
1837.22
6446.35
1852.46
1837.22
1837.23
1837.22
1837.22
1851.95
1849.39
2800.12
1840.51
2854.96
1837.22
4052.38
1854.34
1926.23
1837.22
1847.69
1837.22
1837.22
1837.71
1837.22
1885.83
1837.22
1837.22
1837.26
3983.55
1852.28
1899.53
1934.58
1837.2
1837.6
1839.27
1837.22
1837.22
1837.51
1837.22
1837.22
1837.23
1917.6
2612.34
2185.21
2537.33
1930.76
1839.18
1837.22
2015.08
1858.32
1871.55
1999.11
1837.25
1837.23
1837.22
1914.01
1892.34
1862.3
1837.22
1837.22
1837.22
1837.22
5097.34
1837.22
2019.43
1837.22
2162.95
1874.52
1837.22
1837.38
1944.41
1914.21
2466.8
1862.4
1837.22
2787.44
1985.35
1837.22
1851.14
1887.99
1837.27
2034.04
1837.22
2037.39
5672.15
2262.36
2007.02
3298.27
1898.39
2044.28
1837.22
2113.83
12909.4
1837.43
2682.72
1837.34
1837.25
1857.21
1837.22
2686.94
1837.23
1837.61
1837.76
1837.45
1843.46
1837.93
1837.55
1860.53
1837.23
1837.22
1837.22
1837.85
1837.23
2064.63
2433.83
1837.4
3300.48
1837.23
1837.22
1837.31
2017.49
2634.59
1837.26
1837.47
2769.24
3555.32
2211.79
3824.54
1837.22
2293.09
1837.33
1837.22
1837.22
15848.8
1837.26
2237.95
1837.31
3053.9
5541.01
1947.84
1837.23
1998.41
1837.32
1837.55
1837.22
1837.22
1837.22
1837.22
1837.26
4086.86
2893.85
2040.85
1837.26
2720.94
1983.51
2322.02
1837.23
2565.61
3206.22
8612.76
1837.72
1837.22
1837.22
1837.22
1837.22
1837.24
1844.4
1841.18
1994.8
2274.12
1973.66
1883.35
2601.03
1956.21
1996.23
2546.39
1837.22
12774.6
1924.02
1837.22
1837.22
4559.29
2352.92
1837.22
1837.24
1837.22
1873.8
1837.22
6770.01
8004.98
8328.03
4552.53
1837.22
5474.29
2501.94
1837.22
1850.03
1837.22
1837.69
2454.22
1839.24
1837.75
18792.2
1883.87
1837.22
1837.65
1837.22
1837.21
1837.25
1837.85
1837.23
1837.74
2052.53
2531.9
2481.64
2002.87
1845.61
1837.47
1837.22
1837.22
1837.22
2504.13
3152.94
1837.22
1837.22
1861.02
1837.22
1837.22
1837.22
1837.22
2222.5
2349.87
1959.84
2265.13
2515.36
1837.22
2278.15
1837.22
1875.43
2450.42
1837.22
2248.97
1837.22
1837.22
2468.01
1837.22
1837.33
2359.8
2372.08
2460.92
2319.04
1837.22
1841.71
1850.63
2002.5
1843.38
1843.25
2174.79
2471
2032.18
2060.02
1837.26
1837.28
1848.45
4208.31
1998.69
1893.69
1841.08
2355.29
1837.22
1837.22
12791.6
2264.87
1842.1
2125.76
1853.84
4863.05
1979.42
1837.22
2010.07
1837.33
2286.46
1837.22
2022.7
2275.75
1837.22
2525.27
1837.22
2361.96
2336
1837.25
1837.22
2382.09
1837.22
1837.22
1837.22
1837.22
2181.51
1837.36
2301.68
1891.99
1837.22
1837.22
2032.35
1842.57
1837.23
1852.14
1837.23
1837.23
1837.24
1837.22
1968.56
1969.66
2102.82
1837.22
1837.22
2193.19
1837.22
1862.53
5438.66
1837.22
1837.22
1837.75
1837.54
2771.79
1837.22
1837.24
1837.22
1837.21
1837.22
5139.42
6057.87
1839.89
1837.36
5413.92
1837.72
2203.99
1837.22
1847.28
1837.22
2303.6
2029.88
1837.24
1837.22
1837.32
2126.12
2640.43
1837.22
1847.86
1837.53
1837.22
1837.74
1837.34
1837.22
1900.58
1837.22
2331.78
1837.22
1837.22
1837.26
1837.26
1837.22
2220.02
2020.72
1837.22
1837.22
2262.19
1837.22
1841.86
1837.23
1837.22
1923.96
1990.45
1840.55
1837.42
1837.22
1837.68
2031.43
1837.22
2517.12
1837.22
2159.29
2521.98
1837.23
2054.06
2200.61
2144.72
1969.34
2258.69
1837.26
1837.22
1837.22
1842.54
1837.37
1849.23
1950.47
1837.22
1844.42
1837.22
1837.41
2081.69
2144.31
1837.22
2093.66
1909.39
1837.22
1935.75
1837.22
1837.22
1837.22
2216.56
2403.03
2118.99
1837.22
1837.23
1837.22
1934.44
1837.37
1949.13
1837.22
1837.22
1931.69
2083.93
1837.22
1837.22
1857.26
1837.22
1837.22
1837.42
2326.06
2297.88
1877.88
1837.22
1874.56
2055.95
1839.24
3207.64
1847.79
7212.39
1838.38
1971.48
2147.84
1955.41
2800.89
6579.62
5819.33
5028.52
1837.22
13773
2939.96
2896.06
1837.22
8901.91
5000.86
1837.22
2126.56
3250.55
1837.22
2128.2
1837.22
1945.68
2238.08
2344.77
2192.74
2691.73
1837.22
1837.22
1837.29
1837.23
2785.63
1837.22
2395.41
2047.28
1837.46
1837.49
1837.47
1837.22
1837.24
1837.22
1837.89
1837.27
2336.47
1837.22
2678.52
1837.49
1852.86
1837.27
1837.3
1848.91
1837.48
1837.48
1837.22
1837.22
1838.39
2286.79
2210.14
2717.67
1858.29
1838.13
1838.36
1837.24
1881.06
1837.25
1837.67
1837.22
2322.92
1897.46
2277.65
1839.08
1837.86
1837.61
2332.21
1837.69
1837.52
1839.93
1837.25
1837.29
2630.88
1859.26
2924.49
1838.13
1838.45
2624.74
3704.16
1837.22
1864.87
1887.74
1837.85
1919.17
1842.33
1837.62
1838.09
1837.47
1837.53
1837.22
1837.26
3823.53
1837.22
1846.67
1837.59
1838.45
1837.22
1837.22
1838.82
1894.7
2543.05
1850.87
1837.25
1837.22
1894.63
10493.3
1837.33
1852.65
12483.8
1837.27
1837.82
1847.65
1843.53
10775.4
1837.6
1915.36
1851.08
1837.22
13949.9
1837.41
1837.28
1837.24
1837.22
1837.22
1837.28
1837.22
1837.22
1837.31
1837.68
1837.6
1837.28
1848.98
1837.32
1837.28
1858.25
1837.22
1837.3
1973.74
1924.03
1837.22
1846.51
1837.25
1837.34
1877.08
1837.61
1837.22
1838.04
1872.56
1837.22
1837.22
1837.22
1837.23
1837.22
1837.3
1837.32
2603.83
2604.12
3627.85
1837.24
1860.15
1846.13
1837.61
3026.07
1845.6
1837.29
2070.97
1846.44
2684.41
1837.28
1845.63
1837.23
1923.72
1837.92
1867.51
1838.55
1837.72
1870.05
1843.85
1837.23
1840.46
1837.22
1841.61
1865.77
1837.25
1839.92
1860.91
1848.78
1837.33
1849.59
1868.7
1837.25
1837.22
1869.6
1837.48
1837.23
1837.22
1837.23
1861.59
1837.8
1837.3
1837.45
1837.22
1837.22
1838.11
1837.27
1857.65
1837.22
1837.36
1837.23
1837.22
1850.7
1837.22
1912.02
1837.23
1837.23
1837.22
1837.22
1921.35
1837.22
1837.22
1837.22
1837.28
1837.27
1837.22
2369.25
1837.26
1837.38
3866.52
1837.22
1840.03
1837.23
1837.22
1837.23
1837.5
1837.22
1837.22
1837.8
1837.58
1837.26
1837.22
1837.23
1837.22
1837.26
2421.19
1837.22
1837.22
1975.57
1837.22
1837.22
1837.77
1837.22
1842.23
1928.36
1837.26
1837.22
1862.65
1958.67
1898.48
1837.22
1837.22
1837.22
1837.22
1871.76
1844.95
1837.22
1837.22
1837.28
2331.7
1837.22
1837.22
1837.22
1929.47
1962.48
1840.17
1934.93
1926.15
1837.25
1838.34
1837.28
1837.45
1840.27
12504.3
1865.36
1837.22
1866.52
1934.94
1837.22
1837.22
1923.63
1947.31
1922.07
1837.22
1837.51
1837.22
1841.1
1954.86
1837.22
1951.89
1837.25
1837.23
1921.33
1837.33
1837.24
1871.62
1923.98
1837.23
1837.49
1922.57
1837.24
1837.3
1949.99
1843.38
1837.23
1837.92
1842.07
5429.07
1839.83
1917.9
1837.22
1837.22
1932.23
1838.01
1933.11
1837.73
1837.25
1837.23
1837.59
1838.43
1837.47
1838.11
1837.62
1837.22
1838.64
1837.28
1838.14
2242.01
1837.39
1837.27
1840.19
2250.26
1837.24
2159.75
1947.93
1837.22
1837.45
1837.24
2059.15
1837.22
1839.14
1837.22
1837.22
1837.25
1837.22
2207.36
1840.88
1841.1
2370.66
1996.19
1837.25
1837.36
1841.15
1837.22
1837.22
1837.42
1853.03
1837.3
1843.84
1837.22
2546.83
2372.34
1841.51
1858.99
5032.55
2041.61
1837.89
1841.21
3762.37
1924.82
1862.07
1838.16
1885.41
1837.33
1855.35
5028.02
1890.41
1844.87
1837.3
1887.58
2041.49
1837.23
2010.5
1890.96
1837.43
1979.36
1840.73
1924.27
2128.5
1837.24
1964.35
1837.95
1837.46
2122.47
1837.28
1946.95
1837.22
5541.18
5577.18
2199.25
1837.25
1837.22
1837.22
2012.81
1837.6
5262.45
1837.23
2017.99
1947.61
2609.48
1837.22
3863.73
1883.92
1926.32
2048.76
2233.15
1837.22
1837.49
1837.25
1837.3
1837.3
1837.31
1837.22
1837.49
1837.24
1837.22
1837.22
2483.61
1837.22
1837.37
1837.23
2254.52
2052.35
1840.49
1988.7
1837.22
1837.29
1837.27
1837.28
1837.22
1837.24
1837.23
1837.22
1838.84
1837.3
2317.57
1837.22
1837.78
1923.84
1905.69
1837.22
1902.56
1837.63
1837.22
1837.22
2154.93
1837.22
1837.23
1837.22
1837.23
1837.22
1837.26
1837.22
1837.22
1837.22
1837.22
1957.62
2200.49
1837.22
1870.9
1837.22
2714.23
1937.51
1837.22
1837.22
2161.5
1837.26
1848.17
1837.22
1885.87
1848.75
1837.22
1837.22
1879.53
1945.17
1837.33
1959.54
1837.22
1837.49
1848.81
1929.78
1837.22
1838.03
1837.83
1837.74
1837.22
1873.85
1846.92
2157.09
2560.31
1837.62
1838.49
1847.96
1874.76
1837.22
1837.28
1837.22
1837.22
1837.22
1837.22
1837.22
2390.24
1848.24
1837.28
1839.77
3418.13
3648.3
1837.22
1997.9
2108.39
1837.51
2013.02
4872.04
1837.25
2215.78
2220.52
1837.33
1838.62
1837.58
2091.52
2014.44
1842.78
1843.09
1837.87
1837.22
1845.5
1843.59
1948.47
1890.26
1837.23
1837.26
1837.26
3433.95
1843.71
1837.65
1837.3
2898.12
4105.46
1837.22
1838.17
1837.31
1841.41
1956.48
2257.31
1848.46
1925.54
1838.41
1980.3
1837.22
1837.22
1877.13
1837.22
1837.22
1837.22
1837.22
1837.24
1837.24
1837.24
1837.45
1837.36
1839.17
1837.57
1837.22
2682.22
1864.66
1837.22
1888.32
1837.22
1837.22
1837.22
2062.14
1924.13
1871.28
1837.22
1837.22
1837.22
1837.57
1863.2
1837.23
6065.47
1837.33
1837.22
1841.85
1893.19
1895.76
1871.54
1837.22
7222.22
7200.92
2046.99
10206.2
3478.82
1837.35
2509.49
1915.67
1837.27
1837.23
1837.27
1837.25
1837.22
1837.24
3363
2144.49
3271.1
1877.3
3355.7
1837.23
1842.61
1843.04
2693.78
1855.47
3007.81
1864.86
2427.5
2664.15
1837.22
1869.79
3175.83
1837.34
1837.22
1901.97
1837.26
1837.22
4313
1877.32
1837.22
1837.23
1837.34
1837.64
1837.22
1837.22
1837.22
1852.1
1873.61
1837.22
1837.23
1837.89
3803.32
2028.8
1837.22
1837.22
1837.22
4251.2
1837.22
1837.48
1960.15
1837.22
1837.4
1837.22
1837.22
2512.89
1856.61
1837.22
1837.22
1837.22
1837.22
1837.81
1856.95
1837.22
1848.38
1842.11
1837.22
2054.91
1837.22
1837.22
1837.22
1837.25
1837.27
1837.22
1837.43
1837.22
1837.22
2228.36
1837.22
5681.01
1837.42
1837.22
1837.22
1837.22
1837.22
1837.43
2060.68
6479.85
2464.11
8089.17
1859.78
1856.71
1942.43
8081.53
6916.14
2002.59
1909.83
1837.22
1837.48
1837.22
1837.22
1837.22
1837.22
2003.86
12195.5
1837.22
1863.49
1837.26
1837.5
1837.52
1837.22
1886.16
1837.3
1842.3
1900.99
1861.81
1837.47
1837.22
1837.44
1839.27
1837.23
1837.38
2790.89
1837.56
3214.34
1837.22
1837.22
1854.73
3654.59
2781.06
3305.57
3230.11
1959.88
1883.34
1920.85
1933.32
3400.88
1837.23
1838.04
1837.22
1837.29
2008.73
2725.99
2021.66
1926.68
2802.92
2756.65
1837.28
2701.09
3740.03
1837.22
1837.22
1837.22
2650.3
1904.38
1846.29
1837.22
2629.65
3036.3
2035.64
1867.79
1853.1
2150.03
1898.81
1837.22
1849.26
1895.03
1934.17
1837.22
1837.41
1946.68
1837.22
1837.22
1901.46
1837.26
1837.22
3464.71
1837.61
1897.96
3308.59
1837.93
1837.4
1862.13
1863.36
1855.46
1868.36
2493.39
1919.2
1840.83
1837.22
1865.94
1837.7
1849.59
1847.58
1838.29
2293.59
1839.02
2050.16
1875.05
1837.22
1841.94
1901.38
1837.22
1892.76
1837.22
1837.22
1837.22
1920.22
1837.52
1847.68
1837.22
1837.22
2290.33
1899.17
1898.99
1945.36
1837.22
3604
1882.62
1873.51
1837.22
2002.1
2012.67
2327.25
1876.19
1837.25
2333.23
1837.22
1837.23
1837.22
1837.22
1837.29
1837.5
1837.22
1873.71
1837.4
1851.37
1837.22
1837.22
1837.22
1837.22
1837.22
2018.31
1953.54
1837.22
1837.22
2436.15
1837.86
1891.83
1837.36
1837.22
2819.02
1837.29
1837.22
1837.22
1883.45
1837.41
1837.22
1843.19
1844.25
1837.57
1837.22
1848.01
1837.22
1837.22
1837.22
1837.22
1837.22
1837.62
1837.31
1844.39
1837.22
1837.57
1837.22
1971.47
1837.22
1837.23
1837.86
3139.41
1837.86
1837.94
1837.66
1837.33
2466.61
1838.39
1837.22
1837.22
1837.22
1837.22
2040.19
1837.22
1837.22
1837.22
1837.87
1837.22
1971.46
1837.22
1837.22
1837.86
1837.33
1837.22
1837.24
1837.22
1837.23
1837.22
1837.22
1837.22
1860.18
1837.22
1837.22
1837.22
1837.22
1837.22
1837.22
1991.11
1837.32
1837.34
1837.22
1837.22
1877.53
1837.22
1837.46
1998.97
1840.06
2045.26
1837.22
1837.22
1837.22
1837.69
2308.65
1837.22
1837.22
2258.24
1837.22
1837.21
1837.22
1837.22
1837.4
1837.7
5927.83
1837.27
1837.22
1837.22
2303.41
2304.22
2288.01
1858.82
3071.69
1984.34
1838.15
1837.22
1837.57
2265.25
1837.22
1837.6
1837.22
1837.85
11426.5
1837.22
1837.22
1837.29
1960.36
1840.39
1925.27
1954.71
1837.46
2485.89
2418.57
1837.41
1839.61
1837.27
1837.22
1837.48
1837.84
1837.54
1837.37
1837.43
2294.83
2067.13
2241.2
6213.18
2832.04
1846.88
1837.43
1837.36
1837.97
1847.51
1837.43
1837.25
1837.26
1837.56
3004.91
1837.54
1881.69
1948.98
1837.22
2539.55
1880.56
1944.55
1838.06
1837.26
1894.51
1837.22
1837.25
1837.22
2182.54
2648.95
2860.35
1837.22
2625.4
1837.22
1837.28
1837.22
1837.24
1837.22
2387.62
1962.32
1837.22
1837.22
1923.82
1854.84
1837.22
3193.71
1837.27
1837.22
2096.42
1837.22
1837.46
1837.28
1913.79
1837.39
1837.22
1837.42
1837.22
1844.97
1837.33
1909.38
1837.23
1837.25
1837.42
1839.24
2083.98
1837.22
1837.34
1837.22
3163.73
1865.77
2566.79
4300.41
2090.53
1837.22
2156.22
2090.65
1837.35
1837.46
2954.05
1864.45
1837.22
2381.96
5808.52
1837.41
1838.39
1837.22
2466.7
1837.22
1837.22
1837.22
1837.76
6184.17
1837.79
4720.33
1837.83
2098.58
1837.83
1837.37
2082.51
1837.82
1842.52
1837.22
1837.24
1847.09
4350.48
2234.4
2131.22
2262.16
2122.27
2265.71
1837.31
1837.22
1837.22
2041.64
2084.27
1890.73
1838.13
1837.68
2370.22
2276.65
1991.26
2366.32
1837.22
1933.38
1976.61
2237.96
1837.22
2209.99
1930.99
1933.48
1884.77
2020.87
1869.63
4344.91
1837.53
3085
1837.26
1927.77
1865.59
2164.68
4587.96
1837.23
1838
1845.51
1927.89
1838.94
2104.76
1837.22
1837.22
3629.41
1837.23
1837.34
1838.16
1837.22
1864.53
1837.22
4874.64
1925.83
1837.22
1837.45
4172.03
1842.99
1919.69
2003.53
5087.93
1843.57
1837.22
1837.28
2068.01
1837.22
1837.22
1837.24
1837.23
1838.55
4395.62
1837.42
1837.24
2277.06
1921.11
1837.22
1837.49
3047.97
1837.28
1838.03
1925.08
1837.22
1837.22
1837.23
2194.55
2741.39
2672.68
1837.31
1837.78
1837.22
2103.23
2144.03
1838.58
1930.83
1837.22
1837.23
1837.22
1837.28
1837.22
6045.24
2017.98
1837.22
1890.16
1837.22
1837.22
1923.89
1837.23
1850.16
1837.22
2116.01
22716.8
1837.22
1837.22
1914.55
7726.65
1837.22
1858.85
2473.6
1837.22
1837.26
1837.23
1837.22
1837.22
1837.22
1837.22
1837.22
1837.49
1837.22
1838.19
5345.64
1837.22
2063.08
47049
1970.27
5416.18
1837.22
1896.76
1837.89
1837.22
5346.09
2845.62
1894.12
5871.01
13846.3
3947.01
1837.31
1976.56
6516.47
2624.89
5524.06
2187.07
1838.15
10424.6
1837.22
1837.22
1837.22
1849.02
2951.36
1838.36
2326.92
1837.22
1837.23
1837.29
3029.16
1881.26
1837.22
8787.85
6233.9
2050.64
8883.97
8587.44
1837.22
1837.25
5374.36
1837.64
1837.22
1837.22
1837.23
1837.22
1838.46
1837.22
14188.2
2124.37
7611.26
2436.24
1847.2
2172.74
1837.42
1837.22
1837.22
7217.18
1837.22
1837.22
1837.22
7363.91
1838.88
2359.78
5801.03
1951.91
1879.97
2245.19
1838.44
6351.85
1837.51
1837.42
1946.3
2209.51
2792.78
1838
1837.9
1850.54
2263.59
1837.32
5848.34
2033.49
3208.71
8519.81
1837.31
1837.29
6024.11
2037.91
1837.53
8735.07
2427.54
2080.92
1837.22
9685.9
1949.22
5584.21
1837.23
1837.22
1837.42
1857.08
1837.22
1837.28
3001.56
2552.07
3577.81
1838.05
1837.23
2732.11
2623.88
1837.23
1837.22
1837.22
1915.43
6933.23
2825.3
4443.15
1837.23
2570.36
2560.65
1842.77
1837.23
1838.21
1837.29
1837.35
1837.24
1939.82
1837.22
1837.84
1849.12
2532.07
1837.23
1837.25
1837.22
1837.22
2398.05
3072.95
1837.36
2535.6
1838.47
1837.25
1837.22
1837.23
1837.22
2559
2077.48
1837.24
1837.24
2262.85
1837.45
1837.79
1837.44
1837.22
1837.23
4328.36
1837.6
1855.2
1837.29
1837.22
1837.23
4199.56
1837.22
1837.23
2240.81
1837.35
1839.45
1837.22
1837.24
2031.82
1837.27
1892.67
1838.31
1900.25
1837.23
1837.4
1837.37
1837.22
1837.23
1837.86
1837.56
3915.02
2071.93
1837.26
1837.24
1838.48
1837.22
1837.75
1837.23
1837.45
1837.4
1837.76
1837.8
1837.69
1837.22
1837.67
1885.76
2253.69
1837.8
2160.11
1840.22
1838.3
1903.3
1837.71
2070.62
1838.79
1955.51
1837.55
1837.22
1837.23
1837.22
1837.72
1837.71
1842.94
3018.46
1837.31
1837.22
1837.27
1837.75
1838.07
1837.82
1837.25
1837.3
1837.25
1838.04
1843.04
1837.2
1838.17
1837.22
1843.44
1843.48
1836.95
1838.11
1838.21
1837.43
1911.42
1837.43
1864.56
1858.81
1837.38
1843.63
1883.03
3934.21
1843.3
8745.93
2341.82
1837.22
3101.69
1837.22
8628.94
1837.23
8380.97
2124.5
6573.94
3209.35
1837.22
1837.22
1837.29
2108.59
2108.16
1837.22
5759.93
1840.42
1908.18
1837.22
1837.46
1837.22
1837.34
5638.71
1837.22
1837.37
1837.39
1837.23
1837.42
1837.22
7272.72
14090.2
2186.51
1837.29
1837.22
2302.14
1837.22
1837.22
1919.57
1920
1931.32
1837.22
1837.23
2954.28
1921.47
1837.22
1837.21
2288.7
5713.15
2190.18
1837.26
9127.61
1857.57
1837.22
1837.63
1837.22
1837.22
1838.11
1839.42
1837.22
1837.22
1837.22
1838.02
1838.16
1837.25
1837.22
1837.25
1837.22
1837.22
1837.22
1837.24
1837.22
1837.22
1837.22
1837.23
2018
2791.33
2354.54
1837.22
1837.22
1837.22
1837.22
1862.24
1837.22
1837.48
1837.71
1837.22
1837.31
1837.22
1843.52
1837.22
1837.22
1837.35
1837.22
1837.26
1837.28
1837.24
1837.24
1837.16
1992.53
1837.22
1837.23
1840.33
1837.25
1837.22
1837.42
1837.22
1837.24
1837.22
1837.22
1837.7
1837.48
1837.75
2278.16
2288.84
1837.24
1837.77
1837.28
1837.22
1837.22
1837.22
1837.55
1837.22
2053.61
3019.91
1837.23
3038.71
1837.35
1837.22
2986.64
3359.3
1837.23
2067.39
1927.87
1837.24
1837.22
1837.22
1837.74
1837.22
3083.96
1837.3
3261.57
1837.5
1837.22
1837.27
4052.81
4068.82
3769.06
1837.35
1837.23
1837.22
1837.22
1837.24
1837.22
1837.22
1837.22
1837.22
1837.22
3634.17
1837.22
1837.55
1837.68
1837.58
1837.29
1837.22
1837.3
2202.84
1853.9
1922.03
1837.23
1837.85
1837.4
1837.24
1837.61
1837.23
1837.67
1837.25
1896.24
1837.51
1837.22
1837.45
1892.95
1837.22
1849.46
1837.85
1837.45
1837.47
1837.23
1837.55
1953.92
1837.28
1858.83
1837.22
1837.3
1837.27
1837.32
1837.21
1837.23
1837.41
1837.3
1837.49
1837.29
1837.26
2135.44
3298.12
6726.9
1837.22
1837.62
2127.39
1837.49
1838.06
1837.68
1837.22