/*--------------------------------*- C++ -*----------------------------------*\
| =========                 |                                                 |
| \\      /  F ield         | OpenFOAM: The Open Source CFD Toolbox           |
|  \\    /   O peration     | Version:  v2012                                 |
|   \\  /    A nd           | Website:  www.openfoam.com                      |
|    \\/     M anipulation  |                                                 |
\*---------------------------------------------------------------------------*/
FoamFile
{
    version     2.0;
    format      ascii;
    class       volScalarField;
    location    "1.5";
    object      H2O;
}
// * * * * * * * * * * * * * * * * * * * * * * * * * * * * * * * * * * * * * //

dimensions      [0 0 0 0 0 0 0];


internalField   nonuniform List<scalar> 
108993
(
0
5.87438e-109
1.43956e-80
0
1.63317e-221
0
0
0
3.38697e-173
2.91025e-144
0
0
3.36159e-220
1.55483e-147
5.53104e-188
9.5906e-31
1.72009e-137
1.24924e-184
0
4.48346e-140
1.6409e-229
7.69365e-193
2.50315e-121
0
4.10038e-223
0
9.06645e-194
4.70121e-141
0
2.10795e-188
0
0
0
1.24416e-113
3.24835e-213
7.12502e-217
3.03706e-198
0
2.70608e-38
6.9518e-79
0
5.43928e-164
0
3.6023e-225
8.18649e-40
5.72226e-74
0
6.4619e-137
0
9.36764e-122
0
7.40309e-53
0
4.17098e-203
0
0
0
9.31593e-204
0
0
3.26832e-194
0
0
0
5.04972e-216
2.76422e-155
0
2.67813e-208
0
0
2.21867e-191
8.2276e-213
2.1676e-206
4.19313e-213
2.49036e-157
8.50186e-175
0
3.72998e-118
0
1.6078e-221
0
6.21397e-149
0
3.13031e-161
2.88464e-184
0
0
0
2.68085e-215
0
5.33873e-210
0
3.04761e-213
0
0
0
0
0
0
0
2.39683e-202
0
2.25109e-178
0
0
0
0
0
4.07733e-213
1.42988e-67
1.52504e-59
5.27041e-209
0
6.57112e-47
0
6.80809e-47
5.16051e-216
3.04656e-121
4.62442e-51
0
1.35642e-157
1.112e-184
1.38102e-43
6.82072e-100
0
2.88204e-48
3.84754e-110
1.88946e-130
3.24618e-186
1.1546e-190
0
4.69535e-189
0
1.09977e-26
3.7658e-176
0
8.63387e-184
1.68375e-174
0
0
8.94242e-101
4.31021e-176
0
6.51283e-186
1.99148e-188
8.46954e-203
0
0
0
1.44439e-19
2.44947e-18
0
0
5.57165e-16
0
0
0
1.55202e-200
0
4.22077e-63
3.29684e-17
2.68964e-202
2.6385e-184
0
0
4.5886e-62
9.95292e-219
0
2.11013e-213
0
0
1.57959e-169
0
4.75605e-160
0
7.10227e-154
3.09456e-52
6.38546e-215
9.75286e-146
0
6.88304e-126
1.84457e-186
2.59894e-198
6.9474e-107
0
4.32686e-182
1.5888e-200
3.32368e-166
1.85144e-160
4.09601e-104
0
3.19464e-197
0
4.92971e-57
0
2.27845e-88
8.70396e-113
0
2.10171e-178
2.08901e-105
6.82776e-219
0
1.06927e-220
5.40507e-200
0
7.73151e-27
0
0
0
0.000677373
1.04206e-87
1.01405e-186
1.14431e-50
5.83826e-60
8.91621e-29
0
2.46151e-167
0
3.58472e-197
0
0
4.72286e-17
3.03885e-73
0
0
5.00443e-215
0
0
7.74714e-29
7.37545e-156
0
0
1.4164e-212
2.31753e-157
3.3968e-181
0
9.41159e-185
3.43114e-192
0
0
3.70339e-191
0
0
1.34068e-202
0
5.6677e-33
5.17795e-66
5.41815e-41
0
0
0
0
0
5.36275e-167
2.35391e-198
9.85363e-198
1.98436e-198
1.90709e-109
0
0
7.23733e-126
0
9.90295e-65
1.5532e-45
7.61921e-212
1.65627e-134
4.20588e-122
4.17291e-169
0
1.53697e-160
8.25146e-236
1.3649e-89
0
0.000836257
3.16924e-80
1.04632e-150
0
5.67312e-47
0
3.78102e-124
2.04729e-121
0
2.72731e-70
0
1.60304e-172
0
0
4.78585e-123
0
2.01273e-90
0
0
0
1.3356e-132
0
8.44942e-122
0
5.00573e-127
1.17038e-116
1.09905e-233
1.65362e-38
4.06262e-16
0
1.58397e-236
1.17758e-163
2.82847e-180
7.10368e-198
0
1.48243e-177
0
0
6.32372e-193
0
1.21025e-200
1.30894e-171
1.39133e-21
0
0
0
9.30411e-157
0
0
2.20381e-177
0
0
7.04684e-19
0.000187569
4.60327e-18
0
3.1303e-86
3.55583e-151
1.254e-23
5.0673e-07
0
7.82937e-48
0
0
8.92786e-192
6.13999e-160
1.29367e-174
0
2.08722e-42
6.77192e-127
0
0
3.33254e-186
0
7.1446e-195
0
0
0
0
3.0451e-78
0
0
0
0
5.53874e-103
6.60677e-145
0
0
5.87534e-129
0
6.76544e-108
0
0
6.59355e-110
1.39459e-174
0
0.0087511
2.8951e-64
4.84081e-82
3.3341e-103
7.52972e-05
1.46629e-111
1.53054e-13
0
2.85358e-150
3.0955e-21
2.55238e-151
7.69314e-20
1.68779e-19
0
3.13632e-27
0
2.38899e-148
3.84626e-109
0
0
3.44226e-75
7.50708e-20
0
7.03361e-18
9.65552e-140
0
2.79451e-116
0.0185204
6.66801e-202
0
1.52986e-168
5.86115e-114
2.58528e-51
4.93679e-53
0
0
1.12077e-153
0
1.61622e-174
3.53141e-81
1.3985e-06
0
0
1.86168e-16
0
0
8.09075e-164
8.57568e-07
8.68559e-102
0
1.71444e-221
0.000321388
2.2558e-110
0.000675543
0
3.88179e-214
1.19877e-07
0
1.00615e-38
2.31991e-05
1.09919e-238
0.02814
0
0
9.19829e-189
0
2.43728e-141
0
3.0458e-158
4.67583e-203
3.39749e-162
0
0
1.20005e-120
8.32355e-224
0
2.14247e-71
5.01932e-80
1.75247e-59
0
2.01041e-227
0
0
6.3685e-117
8.70279e-107
5.32937e-200
0
2.23459e-158
4.6043e-224
4.73151e-137
0
0
4.83537e-77
2.48348e-53
2.30281e-27
1.44256e-87
1.3277e-90
0
0
1.56272e-88
1.73458e-85
0
4.97832e-211
2.8204e-171
0
0
0
3.16171e-166
0
9.58238e-107
0
0
5.10935e-162
6.76725e-161
2.6252e-112
1.09116e-59
0
3.7862e-85
4.51511e-92
1.51732e-59
6.94928e-115
4.89254e-163
0
1.59982e-44
3.83406e-85
9.70298e-37
6.62823e-190
1.04625e-57
0
2.29767e-106
0
2.9226e-198
0
0
2.90929e-97
0
4.74243e-27
0
0
0
4.39638e-104
8.62848e-47
0
0
0
0
2.52396e-198
2.88559e-190
0
1.42777e-149
1.29146e-156
5.1992e-148
9.0581e-150
0
1.79322e-121
2.40076e-152
7.15356e-38
1.38863e-162
1.61095e-122
1.64499e-38
0
1.91449e-199
3.49454e-203
1.67004e-40
0
5.74008e-193
0
0
0
2.11977e-107
0
1.90003e-180
5.99186e-95
0
0
6.80693e-142
0
0
2.81515e-41
0
1.72891e-193
3.58615e-41
0
5.30047e-49
0
0
0
0
0
0.0051278
2.75929e-137
1.6013e-106
0
1.9618e-95
6.11581e-92
0
4.79661e-38
6.98001e-153
2.04679e-157
3.08918e-103
0
0
1.39733e-91
0.0352951
0
2.3141e-27
2.14721e-80
4.75196e-158
8.7637e-120
1.46223e-05
3.24494e-84
0
0
3.0156e-115
0
8.66387e-160
2.19199e-41
1.48077e-69
0
0
4.66466e-213
0
0
0
3.67572e-109
9.50691e-05
0
2.00343e-166
0
0
9.92677e-83
0
4.38306e-126
0.000116253
0
1.75455e-151
0
0.000403147
0
3.90289e-80
7.14292e-98
4.14897e-09
0
0
1.62797e-92
0
0
2.51043e-50
0
2.56906e-63
0
2.57533e-42
2.45226e-191
3.96564e-131
0
0
1.24298e-184
4.56613e-152
0
1.40459e-69
7.26609e-49
6.40263e-18
0
6.32305e-42
2.5347e-22
0
1.31364e-200
8.84832e-204
0
0
0
0
3.55006e-61
0
0
2.43912e-158
2.15868e-47
0
8.78276e-80
3.37225e-56
0
0
2.48342e-33
1.4007e-89
0
0
1.37027e-149
3.98882e-31
9.6499e-108
9.19614e-90
4.8632e-105
0
0
1.02115e-85
0
7.25324e-178
0
4.53962e-178
1.82427e-62
0
6.42308e-94
9.01458e-59
0
1.43724e-61
0
0
1.55951e-199
1.2745e-45
0
1.76273e-202
4.06113e-72
0
2.68658e-95
0
2.69939e-53
2.03762e-85
1.25999e-53
1.5211e-64
0
0
0.00120418
0
0
2.10889e-62
0
1.98693e-172
1.79137e-18
0
6.48327e-49
0
1.72996e-30
1.46598e-48
0
0
0
6.88954e-61
1.50352e-225
0
1.77857e-124
7.33549e-162
0
5.82612e-58
3.64044e-82
4.58439e-44
2.99386e-144
1.43108e-29
9.47136e-119
0
2.0291e-59
0
0
9.38461e-147
2.24931e-41
0
3.65111e-32
9.14016e-160
4.03167e-41
3.09034e-64
0
4.30395e-42
0
0
1.2229e-39
4.19466e-29
8.306e-37
0
0
3.19085e-107
0
1.44242e-94
0
0
0
3.47402e-55
6.63831e-49
6.0201e-68
3.33617e-73
3.48007e-63
0
2.81534e-68
0
1.0063e-145
0
2.78701e-218
1.25546e-68
3.36457e-220
0
5.28375e-215
5.30847e-41
7.5471e-45
0
1.91131e-53
7.39922e-212
0
0
8.00698e-92
0
0
0
0
4.98858e-116
3.89122e-81
9.51137e-72
6.78043e-180
3.02109e-36
8.87231e-27
0
6.08435e-79
0.0233451
7.32211e-43
4.90253e-114
0
4.4754e-12
1.73275e-78
2.60686e-81
4.15181e-78
5.9225e-124
0
0
4.41618e-162
9.04691e-95
6.22801e-191
5.98132e-65
3.22041e-164
1.83328e-126
0
1.16634e-51
1.78262e-23
9.25958e-111
6.82477e-13
1.38933e-181
2.8021e-70
0
1.12699e-210
4.43169e-85
1.86683e-56
9.44905e-154
1.66477e-143
0
1.68303e-135
3.42369e-130
0
0
0
0
8.83197e-135
2.48995e-15
2.70949e-179
0
0.0440119
9.25284e-177
0.00546124
7.67832e-131
0
1.39078e-82
2.24877e-06
7.63946e-58
1.35068e-179
3.04737e-87
0
3.78778e-129
0
0
0
1.17522e-72
6.19769e-42
2.31604e-183
3.05563e-66
6.75555e-84
0
6.41674e-65
0
1.02275e-77
0
5.46209e-69
1.32052e-174
2.43085e-72
0
0
0.000289405
0
0.000900559
4.29146e-78
0.000309878
0
0
1.11145e-153
2.57783e-33
0
0
0
0
0
0
8.94587e-88
1.20942e-182
8.82761e-178
1.02622e-99
7.35761e-34
6.41482e-69
5.26463e-34
0
0
2.24417e-30
0
7.00048e-156
1.64568e-38
0
0
0
0
6.46874e-99
0
8.82715e-57
2.24549e-36
7.48697e-92
5.69034e-06
3.7935e-208
2.16697e-05
0
2.00804e-16
4.69871e-194
0
3.99007e-40
0
0
3.77697e-175
3.10571e-221
0
1.54973e-29
0
5.53203e-23
8.31569e-71
0
9.06877e-07
0
0
0.00133472
3.2121e-15
5.16874e-152
0
2.38948e-250
0
1.82348e-55
0
0.000258836
6.71178e-117
0
0
5.05093e-58
8.39196e-147
0
5.66505e-58
1.38367e-145
7.51964e-175
0
4.31896e-65
0
0
8.70412e-202
0
3.28367e-49
0
0
1.95563e-48
2.62187e-62
2.98503e-70
0
2.99435e-18
4.12207e-178
0
0
1.55306e-124
0
0
0
0
2.20346e-141
0
0
1.35525e-48
0
0
9.08383e-39
1.93253e-19
0
5.12263e-70
1.49214e-38
0
1.89072e-147
6.33068e-67
0
7.71659e-78
8.28134e-78
4.39398e-65
6.24996e-33
3.84547e-37
0
8.94783e-53
0
1.08704e-67
2.95075e-36
3.45541e-22
3.55881e-138
0
0
1.44264e-34
0
0
0
7.52258e-33
0
1.93662e-84
0
1.15134e-207
5.66743e-103
1.05914e-104
1.51366e-162
2.76344e-27
0
5.72729e-99
0
0
0
0
0
2.82139e-210
7.10418e-180
1.66417e-205
1.34587e-59
1.32571e-84
7.24915e-136
0
0
6.71872e-64
0
1.42094e-77
0
0
8.6785e-65
5.63353e-146
2.08951e-75
5.67647e-31
0
3.03757e-218
0
0
4.25254e-180
1.44942e-81
2.00707e-68
0
1.79792e-221
0
0
2.36702e-42
0
5.09086e-68
1.47961e-200
0
1.05684e-64
2.67054e-52
0
0
0
4.1835e-133
4.78623e-81
3.10815e-77
7.99623e-157
3.29865e-214
6.37242e-160
1.17354e-17
1.61203e-101
0
1.59323e-167
0
9.82828e-37
1.98117e-181
2.39802e-75
3.92545e-70
0
4.9865e-91
0
1.29373e-70
4.81874e-34
1.25284e-66
0
0
3.62883e-181
0
1.66596e-67
6.22862e-61
0.0114314
3.2801e-47
0
2.04312e-70
0
8.49235e-54
2.08457e-66
1.4819e-51
3.58644e-82
4.95085e-52
0
1.19986e-11
0
1.4004e-53
0
1.55945e-217
0
0
0
7.76605e-216
0
5.1674e-37
0
0
0
0
0
1.74456e-51
2.49666e-21
0
6.14394e-90
3.86814e-112
0
0
1.11158e-67
8.06003e-31
7.35124e-27
8.27767e-161
0
9.38057e-228
0
8.07199e-109
1.75662e-193
6.30239e-203
0
0.0610666
9.55459e-50
8.48139e-219
7.84491e-113
0
0
0
2.10798e-211
0
5.79992e-110
6.94986e-121
0
0
7.0419e-105
0
0
0
0
0
0
0
7.89759e-82
1.33339e-46
2.67434e-69
6.66032e-67
7.5693e-93
1.10443e-218
0
0
0
0
0
4.49573e-78
2.43598e-112
9.29054e-41
4.90364e-107
5.30366e-82
0
0
0
0
0.00550882
9.47704e-05
0
0
2.34471e-135
0
0
0
2.34264e-125
5.0766e-171
0
0
6.84504e-170
0
1.56051e-191
5.99865e-85
0
0
3.13816e-79
0
0
3.68228e-20
0
4.5425e-85
0
0
1.33682e-18
5.23644e-230
0
4.43994e-149
5.57699e-151
9.08469e-154
1.58007e-05
4.43107e-63
5.06236e-203
4.74068e-48
1.18945e-178
2.04368e-43
1.61959e-52
0
2.87137e-139
0
0
2.49242e-95
3.53164e-87
4.53027e-210
2.85406e-28
5.56396e-52
0
0
0
0
5.59421e-226
0
2.81617e-222
0
9.66466e-219
6.21575e-08
1.29782e-56
3.20568e-63
0
0
0
0
3.37365e-60
2.76116e-119
1.17643e-184
7.05273e-51
1.03503e-50
0
5.91051e-45
0
1.41106e-40
6.01703e-111
0
0
3.07756e-181
8.67088e-124
0.0138608
1.52222e-144
0
6.05091e-166
7.78218e-24
0
1.78114e-142
6.87859e-76
3.63988e-68
7.76687e-46
8.87515e-43
0
0
1.20405e-106
0
0
0
0
2.15338e-60
4.78462e-202
7.65191e-31
3.96877e-93
0
4.97107e-70
1.75303e-171
4.89306e-178
1.15372e-169
5.16486e-85
1.41755e-07
0
3.45346e-56
1.02053e-61
5.69794e-05
0
0
0
1.01606e-32
0
0
9.44518e-88
0
6.16236e-60
0
1.89036e-191
2.47308e-85
4.66737e-82
0
0
0
0
3.72361e-130
5.02025e-160
2.64049e-144
0
0
2.79809e-98
4.07769e-102
7.18269e-32
3.01965e-181
3.42843e-125
0
2.54597e-93
0
0
0
0
0
0
3.95339e-55
4.85057e-49
0
6.35092e-157
2.76895e-174
5.52263e-42
6.3147e-143
2.79833e-99
0
0
1.57796e-96
2.83069e-96
9.31569e-180
7.98546e-95
2.084e-06
4.93517e-99
0
0
0
2.26019e-40
0
5.30611e-135
5.41753e-204
0
0
0
1.6501e-185
2.85791e-60
2.3636e-200
0
1.32772e-72
2.76002e-21
0
0
0
0
1.58755e-47
4.82369e-188
0
6.58384e-201
2.57054e-108
0
0
2.96022e-48
2.82149e-43
8.50152e-85
0
2.16132e-38
5.24152e-170
0
0
1.46735e-89
0
0
1.35225e-13
7.95548e-188
0
6.43041e-77
0
0
1.25069e-57
1.68845e-55
0
0
0
0
5.55847e-37
1.02048e-177
4.19822e-93
1.82637e-27
4.20129e-61
4.69058e-89
0
1.36762e-92
0
0
9.70945e-51
7.18867e-61
0
1.64068e-32
1.54264e-63
1.97056e-96
5.23634e-40
6.48393e-25
1.06424e-99
2.7702e-72
0
1.02414e-69
0
2.52555e-199
1.00179e-123
1.19132e-51
4.44823e-53
0
0
6.49728e-121
0
0
1.59569e-196
0
0
1.02177e-193
1.85561e-165
0
0
6.058e-194
2.37766e-172
1.60029e-33
0
4.223e-76
0
0
0
6.73617e-94
3.31518e-94
4.7416e-95
0
4.32962e-66
0
1.27674e-77
6.08546e-34
9.18695e-216
0
1.45651e-180
3.34989e-63
4.65287e-48
0
9.16074e-49
1.59635e-170
1.3098e-59
6.38938e-54
9.87542e-12
9.07329e-80
2.61881e-70
0
4.1229e-18
1.95331e-118
0
0
0
5.40194e-188
1.27076e-189
7.46902e-160
0
5.60306e-54
8.37123e-32
5.32111e-52
0
0
3.30683e-153
4.44648e-199
0
0
0
0
1.85467e-70
2.1336e-160
0
2.28893e-126
1.92677e-45
7.18919e-107
9.72816e-139
0
9.74128e-116
1.90038e-149
0
7.76539e-115
8.71858e-73
9.14144e-119
2.57101e-58
4.52345e-17
7.25664e-147
0
1.82988e-33
1.93592e-160
0
0
1.36896e-107
0
0
2.40927e-38
9.11699e-181
0
7.84034e-16
0
0
7.26272e-98
0
4.64562e-71
1.86659e-175
3.92218e-118
0
3.09454e-116
1.46246e-25
1.00446e-18
0
1.82288e-45
9.98485e-33
0
6.13985e-46
0
9.52027e-171
5.63298e-172
2.48695e-125
5.38626e-187
6.16855e-137
0
0
0
1.99295e-23
9.05539e-23
1.20082e-30
5.97586e-218
2.39837e-132
7.00665e-52
5.12392e-33
4.52478e-156
0
0
2.02653e-166
1.61117e-120
3.16028e-86
2.26847e-49
9.78692e-43
1.19416e-145
1.41699e-47
3.34649e-53
5.00313e-19
1.07414e-150
1.39095e-44
3.91052e-124
0
6.97186e-39
0
1.27001e-49
0
6.0329e-142
0
2.79575e-53
2.46553e-126
2.13378e-155
0
1.01366e-152
0
2.43105e-61
0
3.01595e-51
1.84846e-162
3.37639e-177
4.05884e-38
3.8444e-234
0
3.36198e-38
5.97431e-186
5.03925e-11
1.03303e-157
0
1.94573e-129
6.23725e-129
0
0
1.98528e-33
2.54665e-74
4.33326e-44
4.15305e-25
3.3821e-154
0
0
0
0
0
0
0
0
4.50907e-123
4.50981e-66
2.19399e-128
0
2.15526e-52
3.8253e-12
0
8.66224e-60
6.99357e-57
0
0
1.14268e-74
0
6.76768e-134
8.29307e-162
0
0
0
0
8.02892e-32
1.18781e-44
4.42703e-38
0
5.67056e-73
0
2.81023e-115
3.59331e-22
1.64928e-64
1.55786e-31
0
1.06714e-45
0
2.43843e-16
0
0
0
0
0
7.37414e-203
9.23091e-09
1.97866e-193
0
0
7.80152e-25
1.55393e-19
0
0
0
1.45254e-15
0
1.49485e-19
3.84196e-204
3.51688e-38
9.93774e-38
0
2.13834e-120
3.22096e-65
0
1.2135e-113
2.71271e-109
0
2.56886e-22
2.0509e-96
5.24305e-116
1.18431e-50
1.05983e-60
0
3.30623e-118
1.20353e-39
0.00888737
3.39994e-38
2.57632e-35
0
0
0
0
3.1287e-34
0
0
2.1006e-165
1.36111e-110
5.35049e-70
1.39791e-115
4.69273e-192
0
1.11146e-53
0
0
1.11765e-98
4.00685e-162
4.69075e-53
5.4933e-30
6.09445e-103
9.12356e-17
0
0
0
1.61216e-10
2.89863e-80
8.27189e-21
4.97544e-23
4.51756e-36
1.47563e-19
1.39812e-25
0
1.46404e-55
0
6.10456e-137
3.29417e-76
0
0
3.32694e-47
2.90178e-44
3.41121e-15
3.0776e-28
6.1535e-08
7.56684e-78
1.30073e-51
0
3.89521e-123
0
1.66481e-167
2.4595e-53
2.4576e-153
5.71538e-49
0
2.27872e-11
1.35639e-17
1.17769e-41
0
1.19353e-29
2.76151e-99
9.0736e-62
6.87512e-59
4.22218e-29
2.84672e-14
0.000968944
2.17825e-100
8.13775e-81
2.20666e-137
0
1.78393e-212
0
5.8279e-68
0
0
0
0
1.15923e-50
1.70287e-36
0
4.78244e-53
1.70987e-38
3.35088e-215
0.0132345
3.08043e-63
3.00562e-174
0
5.07301e-30
0
4.91301e-206
1.69561e-151
0
1.44779e-111
3.23669e-232
1.50375e-07
7.1012e-05
0.000235145
3.81398e-33
0
8.29834e-11
3.83969e-37
4.1815e-210
4.41196e-56
6.90569e-113
0
7.95615e-28
0
2.57774e-143
0.0167074
0
2.23238e-70
5.5393e-138
2.62116e-77
0
2.93016e-154
2.34441e-42
2.69624e-84
7.65855e-87
1.03383e-21
6.43304e-24
2.37175e-80
0
4.52112e-104
8.63511e-159
0
0
3.3374e-107
0
0
0
0
8.18361e-68
0
5.02489e-199
0
0
8.26852e-56
0
6.51775e-63
6.50525e-32
8.34833e-43
7.23241e-205
0
1.01902e-100
3.37613e-59
0
6.58959e-171
3.65653e-56
0
1.34236e-133
2.65667e-67
0
0
0
0
1.56041e-84
0
2.13553e-116
1.19614e-34
0
9.8773e-81
6.25631e-113
3.97613e-53
0
1.65029e-86
5.64912e-75
0
0
0
1.52452e-46
2.03305e-16
0
1.53036e-13
3.85491e-38
4.21839e-98
9.35626e-170
5.96512e-204
2.31445e-06
0
4.38373e-35
6.43795e-41
3.13337e-43
0
0
0
1.41359e-56
8.43156e-212
7.22204e-82
8.42693e-134
5.45171e-54
4.80591e-45
0
0
0
0
0
3.61014e-186
1.81557e-128
2.75514e-72
1.53494e-133
2.2327e-112
0
2.53474e-215
0
1.78492e-210
0
9.14204e-64
0
0
2.65934e-66
0
2.67141e-158
9.05713e-55
1.63647e-156
2.57211e-150
0
2.89451e-110
0
2.59677e-121
4.18899e-67
0
7.32576e-178
3.15693e-93
7.05529e-146
4.13005e-61
9.62923e-18
1.07569e-169
1.17995e-217
1.12608e-54
0
3.45549e-37
0
5.04675e-166
1.99965e-236
0
0
1.88492e-22
5.3196e-10
1.21175e-52
1.35411e-115
7.53037e-11
8.06608e-80
1.22453e-49
2.89393e-236
3.20509e-35
1.04393e-162
1.55934e-22
2.86709e-84
2.12958e-146
0
0
2.68579e-39
0
2.36025e-239
5.2519e-46
0
0
0
0
5.60507e-130
0
1.23506e-119
2.04771e-61
0
0
0
0
0
0
0
0
0
0
1.85881e-216
0
0
0
1.27613e-63
4.86197e-77
2.23453e-100
6.66373e-145
0
0
0
0
0
7.60974e-103
2.51423e-56
0
1.7658e-174
5.96709e-28
5.89494e-86
4.68595e-60
0
9.98996e-72
1.34769e-69
3.68653e-113
4.69923e-181
2.20319e-55
9.20534e-82
1.58039e-60
0
0
8.79519e-67
4.51873e-107
2.50265e-29
0
1.24024e-84
0
1.38044e-33
5.03453e-108
0
0
0
0
0
6.41382e-84
8.32821e-75
0
0
2.18526e-171
5.75996e-111
8.5361e-85
6.30762e-93
0
3.59149e-216
0
0
0
6.25989e-224
2.4185e-90
0
7.67061e-84
0
0
0
9.95201e-35
9.59392e-32
4.96238e-226
0
0
7.34401e-74
3.19986e-30
0
3.84494e-07
6.23851e-165
0
0
2.73544e-40
7.54533e-16
1.83998e-06
1.39294e-09
1.38202e-08
1.14713e-231
0.000232064
0
0
8.65778e-229
3.45849e-05
1.62616e-09
1.83009e-221
0
4.14686e-15
0
1.39684e-31
4.34866e-228
0
2.36501e-56
0
4.41494e-85
0
1.16666e-165
1.28062e-225
0
0
2.95656e-23
0
1.57074e-40
0
4.74186e-233
1.36767e-238
0
0
0
0
1.74857e-42
0
0
1.46703e-102
7.88742e-38
4.42582e-235
9.06151e-41
0
0
1.65717e-74
0
0
3.84562e-113
9.83283e-65
0
5.91715e-37
1.12929e-38
1.9037e-30
8.20237e-43
5.57633e-60
1.88789e-64
0
1.33304e-145
0
0
1.45101e-103
3.26655e-42
2.27043e-38
6.67024e-38
1.4806e-66
4.72013e-65
0
1.52395e-70
4.21642e-62
0
0
0
3.44619e-37
1.04002e-37
0
5.77511e-20
2.74123e-144
0
2.48756e-13
1.29811e-20
8.65629e-167
5.50089e-78
0
0
5.94013e-102
0
1.52549e-121
0
0
4.9005e-108
0
5.19518e-98
3.64398e-12
0
1.48015e-79
0
0
0
0
0
1.6048e-51
1.0876e-48
7.12308e-147
0
4.64488e-168
0
0
0
0
0.000382294
2.42657e-132
0
0
3.3185e-107
0.000321893
5.57124e-115
4.94762e-128
2.38419e-140
0
0.000903325
0
6.76699e-172
0
6.53154e-81
0
1.66048e-169
1.61192e-126
0
1.0734e-164
0
5.06729e-99
2.19323e-167
3.98242e-59
0
0
7.89283e-33
0
0
5.83209e-39
2.39152e-36
3.566e-111
1.06746e-153
0
0
0
0
1.19789e-107
5.72172e-18
0
2.65223e-113
5.87916e-109
1.34509e-106
4.53972e-84
0
6.05721e-52
7.42272e-31
0
2.38012e-26
9.66639e-46
1.50902e-54
4.22162e-45
1.99606e-150
3.17198e-107
0
1.18513e-153
0
1.03432e-23
9.07404e-149
0
0
5.18846e-151
6.41496e-48
6.13705e-126
2.04922e-44
9.14113e-132
6.45302e-42
0
7.76934e-135
4.32246e-35
1.44526e-161
1.22462e-25
0
0
0
2.08652e-46
8.8833e-36
2.71532e-140
2.13759e-40
1.26765e-39
2.28778e-37
2.00975e-137
0
0
4.85165e-19
0
3.46864e-44
1.77846e-81
0
0
5.2479e-78
0
0
1.3351e-159
6.504e-160
8.62366e-82
4.07816e-48
0
0
7.12808e-96
0
0
7.04391e-146
0
0
0
3.7664e-81
0
3.78799e-138
0
5.63668e-136
2.71021e-128
1.31748e-125
0
0
0
9.33136e-31
0
2.65918e-44
1.29931e-19
2.83804e-205
9.87196e-142
0
3.85413e-147
0
0
0
2.47687e-149
1.39554e-35
2.04083e-34
0
1.28224e-112
5.90547e-72
0
0
1.66655e-40
2.0816e-208
1.55823e-147
4.13151e-58
0
1.24408e-152
4.78855e-30
3.3565e-153
5.33401e-103
4.21544e-90
0
0
7.68546e-69
4.03083e-56
0
7.41853e-105
7.81186e-172
0
1.4827e-154
5.50853e-115
0
8.99919e-175
0
0
0
2.91812e-147
0
0
0
2.58638e-97
0
9.79367e-93
9.28351e-81
1.69587e-140
6.37214e-56
0
2.9784e-144
4.75322e-120
0.000387547
0
1.83037e-114
9.40562e-118
0
3.41728e-104
1.59788e-111
0
0
0
3.72259e-104
0
0
6.5721e-127
0
0
0
0
0
9.95383e-101
2.89705e-151
0
0
8.84345e-98
6.19893e-103
1.67468e-40
6.85002e-103
0
2.17069e-26
1.97312e-97
0
3.36897e-43
0
0
2.61705e-12
3.26437e-58
0
6.11264e-184
4.08368e-151
7.77731e-71
1.16315e-79
0
0
0
1.65592e-133
8.73048e-176
0
0
3.9772e-75
0
6.68742e-209
0
2.20701e-167
0
0
1.17191e-176
0
0
0
7.25106e-186
1.76297e-111
4.58787e-48
2.15271e-167
0
0
4.0219e-94
2.83717e-162
0
0
0
0
0
3.79743e-51
2.13638e-116
7.53592e-121
0
6.31116e-76
0
0
0
6.29793e-108
0
1.18949e-108
0
0
6.54562e-88
1.26897e-82
8.21536e-33
0
0
4.22863e-134
8.91612e-19
4.31573e-100
0
0
3.02953e-27
2.18517e-46
0
1.14019e-50
5.01652e-103
1.56167e-27
1.30456e-92
0
0
0
3.80118e-29
0
0
0
0
0
9.27398e-95
1.16798e-88
2.36527e-24
0
5.45314e-62
1.01866e-123
2.12544e-61
1.19605e-77
0
2.18835e-53
0
0
0
3.95873e-20
3.20482e-19
8.40062e-55
0
1.95566e-159
0
3.07413e-59
0
1.59642e-24
0
8.83225e-57
0
5.63683e-65
0
2.12451e-12
0
6.06303e-102
3.71736e-40
1.19363e-59
0
0
4.73761e-132
0
4.02395e-185
0
0
0
0
0
0
4.04794e-27
0
0
0
0
5.30734e-65
0
1.44354e-112
0
5.35375e-121
2.59172e-76
0
1.44965e-78
0
1.03357e-71
8.89105e-114
0
0
8.7068e-33
0
2.30514e-41
1.90667e-100
1.33425e-69
8.76556e-197
1.34391e-149
0
6.64623e-195
0
8.57558e-29
1.29184e-114
6.69916e-63
1.90152e-188
0
7.19875e-86
5.14092e-89
1.15286e-196
0
4.34844e-64
1.8919e-160
2.09276e-43
2.40962e-23
2.52045e-194
0
1.82806e-192
0
4.01182e-70
0
0
0
0
1.40507e-189
0
1.40778e-140
1.82864e-180
4.38091e-204
0
1.13572e-72
9.12094e-78
0
0
1.65887e-164
0
2.08592e-191
0
0
4.25211e-100
6.92942e-53
2.19138e-130
9.65969e-162
1.86033e-110
0
1.43342e-55
0
0
5.28401e-154
1.71832e-187
1.77865e-97
0
0
1.76038e-142
5.29287e-141
0
0
0
1.10804e-46
7.20796e-195
2.7953e-134
8.44016e-149
4.67241e-29
0
4.79857e-141
0
0
3.35453e-157
3.02551e-120
1.21183e-13
0
0
6.92176e-41
0
8.68792e-114
1.78365e-141
0
2.13004e-117
0
0
3.65887e-113
0
0
1.78e-86
3.88317e-60
0
0
5.34009e-144
3.52054e-70
5.20197e-30
0
0
0
2.37212e-41
7.88186e-27
0
0
2.47195e-204
1.91397e-111
4.41417e-117
0
8.10689e-140
0
0
0
0
1.45357e-139
0
5.18983e-164
2.20945e-172
3.39045e-182
2.63104e-169
0
5.87896e-75
0
0
0
2.28879e-146
0
3.13164e-184
0
4.35206e-53
1.65487e-210
0
5.51721e-186
0
5.81343e-173
0
3.02494e-69
0
2.22035e-100
5.01422e-181
0
0
3.27935e-76
3.09944e-89
3.11418e-08
2.78405e-156
4.97889e-180
6.79971e-187
1.29543e-86
0
0
0
6.34728e-07
1.07723e-05
4.46527e-82
0.000239174
4.19862e-15
3.41709e-125
6.20922e-82
7.42929e-39
0
0
1.45875e-225
2.81388e-148
8.47399e-186
9.55812e-125
1.80084e-18
0
2.88183e-15
1.15975e-43
1.19307e-15
0
0
0
2.59949e-30
1.45418e-70
1.64884e-21
2.35768e-65
3.28085e-47
3.94269e-27
2.51537e-206
0
2.61765e-18
0
0
0
0
0
1.71918e-19
4.41005e-83
0
0
1.77109e-153
2.32929e-202
0
3.07338e-201
1.05937e-185
0
1.7048e-70
0
0
2.77972e-133
3.44573e-17
0
6.82773e-77
1.16696e-202
6.80223e-188
4.4793e-11
0
0
0
0
2.26981e-125
0
0
4.81746e-97
3.30872e-78
0
0
0
0
6.49441e-154
9.23974e-86
0
0
1.3168e-118
1.24496e-130
0
0
7.71783e-188
0
0
2.88644e-167
7.11261e-114
1.65468e-152
0
9.1572e-118
0
1.02186e-139
3.55852e-07
9.70948e-149
8.70793e-211
4.05464e-147
0
4.91184e-182
1.86441e-146
0
1.81053e-07
0
2.73317e-05
0
0
3.88756e-81
3.41783e-06
2.23933e-06
2.91173e-65
7.61767e-60
5.3033e-101
5.1979e-146
0
2.0872e-98
0
0
0
1.16732e-05
0
2.52616e-94
7.93051e-125
9.52544e-92
1.38132e-150
0
0
0
1.02031e-149
8.28159e-65
2.26896e-107
1.55982e-171
0
0
0
0
6.7822e-93
2.95357e-40
3.2343e-148
3.15296e-39
2.29775e-229
7.43458e-212
1.05362e-93
3.45416e-35
2.12945e-36
4.00504e-35
7.49024e-42
0
0
2.88999e-91
1.01344e-72
9.7831e-39
0
0
0
0
0
7.06743e-57
7.68193e-71
7.83177e-115
2.95101e-55
3.01541e-57
0
5.10373e-59
1.43904e-29
7.15326e-182
2.11573e-221
3.81012e-185
7.04305e-38
3.94845e-23
1.03695e-54
0
0
0
5.27874e-80
0
1.7404e-23
1.26446e-21
6.96671e-106
2.32881e-205
2.06209e-30
0
0
1.23206e-194
0
0
1.69238e-185
0
8.78448e-108
0
0
3.15806e-23
1.07634e-187
0
0
7.90449e-182
2.10843e-86
4.95789e-29
7.63803e-27
0
2.05099e-27
1.26917e-31
1.55915e-24
7.77095e-95
0
6.26601e-25
0
2.28647e-28
1.00182e-30
0
0
0
9.43302e-103
1.65792e-69
0
0
1.10753e-42
0
8.26425e-81
1.05743e-201
0
0
3.89277e-44
0
0
0
0
0
3.07451e-42
1.57422e-40
4.58646e-70
2.94315e-162
5.46276e-34
0
0
0
3.57523e-92
4.6274e-36
9.84404e-18
1.15334e-74
1.43831e-137
0
2.76399e-140
6.19757e-131
1.04313e-175
1.75551e-157
0
0
7.16911e-167
0
4.33539e-237
1.4718e-115
6.6053e-164
0
1.86504e-190
1.9485e-212
0
8.10598e-68
5.30541e-88
1.1586e-194
0
0
1.10778e-157
2.74413e-77
1.74907e-65
0
1.34955e-81
1.01581e-137
0
1.90462e-98
5.98609e-80
1.64767e-55
2.14898e-167
0
2.22845e-143
1.38939e-177
4.10394e-163
0
3.85973e-163
0
1.37131e-182
0
0
0
0
9.27931e-44
1.88872e-204
0
1.5629e-163
2.63307e-66
3.27169e-161
2.30764e-88
9.4874e-83
1.25283e-29
0
9.01534e-182
3.69553e-184
0
1.5379e-70
0
0
2.39617e-161
7.52033e-187
0
2.54121e-82
6.76988e-164
0
0
7.75739e-175
7.37732e-116
8.96555e-87
0
0
0
0
1.25298e-123
2.68846e-125
9.74557e-133
2.75147e-104
0
8.28009e-200
2.46522e-77
9.04373e-76
0
3.25684e-145
0
3.78076e-112
4.8633e-114
1.40752e-106
0
6.70862e-57
2.6903e-152
0
1.9198e-162
0
3.1185e-171
0
0
2.43531e-89
1.3469e-66
3.95517e-199
3.92097e-102
0
9.78686e-174
1.49909e-89
7.12134e-82
0
0
5.57767e-109
0
0
0
0
1.87154e-158
7.23478e-11
0
0
5.33959e-115
0
0
4.29132e-92
0
0
0
3.01115e-62
0
0
4.96912e-87
8.54836e-131
0
0
7.54185e-94
8.76302e-08
1.68543e-159
0
2.70342e-150
0
1.1335e-80
0
1.51475e-45
1.27833e-206
3.64007e-38
6.92861e-30
0
0
0
4.61837e-134
4.92604e-210
1.25989e-105
1.18802e-108
1.95629e-113
0
0
4.92892e-67
6.34175e-43
3.19394e-11
1.03912e-26
3.29613e-93
2.22333e-200
9.40339e-197
0
5.7257e-151
0
1.17505e-189
2.50798e-193
1.26708e-188
6.08746e-20
3.98254e-73
0
0
5.84731e-156
5.87309e-30
0
6.96995e-55
0
9.03603e-196
2.46387e-46
0
0
2.3154e-216
0
1.49206e-30
1.84729e-28
0
2.36411e-30
0
3.14816e-47
2e-172
2.84407e-28
0
0
0
2.26179e-125
0
2.68013e-16
1.62239e-70
2.49143e-130
3.1043e-24
6.47986e-193
4.16549e-130
0
0
4.17365e-101
1.98772e-196
0
0
3.10357e-179
0
8.69335e-164
0
0
0
4.69475e-158
1.43572e-79
0
4.56377e-146
0
3.93816e-101
0
0
7.96247e-32
0
4.08397e-39
1.06704e-18
1.79397e-64
0
0
1.29123e-59
0
6.33231e-173
0
1.17008e-32
0
0
3.08295e-05
7.98505e-63
0
6.95267e-79
2.33819e-122
0
3.88176e-182
1.33439e-139
1.96214e-202
1.30653e-08
9.90003e-206
3.24916e-11
2.61609e-128
0
1.45065e-204
0
1.15626e-61
4.86792e-208
0
2.31274e-122
1.61654e-162
0
1.06885e-24
3.25177e-116
9.28409e-53
0
0
3.25839e-114
1.16156e-88
3.47077e-117
3.83474e-150
0
1.8025e-44
0
1.32122e-94
1.2746e-61
2.272e-47
0
3.09885e-75
1.15192e-65
0
5.88971e-52
8.1313e-80
1.94109e-113
8.75033e-168
1.38833e-21
3.46777e-67
1.06251e-64
5.21597e-81
5.94342e-50
2.26692e-48
3.21215e-22
1.15692e-66
7.24415e-33
6.98147e-54
0
8.8623e-146
0
0
0
2.65053e-68
1.25715e-27
4.27434e-62
3.29647e-95
8.49884e-44
0
9.73747e-185
1.00736e-25
9.20722e-80
0
1.23073e-102
8.07518e-189
0
2.87189e-144
0
4.81014e-45
0
1.40387e-134
3.8671e-30
0
0
0
1.65848e-24
0
0
0
0
0
3.16845e-147
5.19338e-52
7.44027e-46
3.2792e-114
0
0
5.29864e-102
1.23281e-65
1.31835e-92
3.88768e-196
3.88132e-129
3.98824e-27
1.01055e-88
8.23418e-129
0
0
6.52677e-191
0
3.00018e-51
1.91997e-29
4.96936e-65
0
8.30781e-68
1.15733e-182
0
3.93798e-31
1.89219e-46
0
1.34272e-212
5.34996e-77
3.11802e-210
4.78436e-108
0
1.59381e-09
0
0
0
1.48642e-219
4.16287e-217
4.73064e-73
0
0
1.91716e-71
5.15486e-91
0.000856646
0
0
1.98744e-44
2.8714e-06
4.58551e-134
0
2.21311e-34
0
9.30483e-67
4.88468e-58
0
0
0
0
0
6.64183e-141
3.21328e-209
6.83409e-124
5.84358e-16
0
1.02669e-75
0.0205596
9.5963e-40
1.22434e-14
1.08924e-136
0
6.42095e-150
3.97724e-152
2.88559e-14
3.97665e-52
1.25117e-103
1.72521e-12
4.70275e-05
1.28143e-34
0
5.75742e-61
5.15284e-13
2.24017e-26
6.37796e-08
1.04644e-46
2.17423e-136
2.59078e-05
0
2.31726e-152
0
0
1.56882e-28
0
1.26391e-103
0
0
3.90256e-133
6.18026e-44
0
0
3.34365e-06
4.18415e-09
2.01385e-95
0.00012598
8.76307e-06
0
1.11008e-157
2.27337e-12
1.94705e-84
0
0
0
0
2.48285e-154
0
0.000922059
5.29966e-95
1.6792e-05
8.22491e-35
6.56305e-114
8.54372e-84
6.81677e-141
3.33228e-205
0
4.70901e-13
0
4.89821e-180
0
9.24698e-11
0
0
7.8061e-08
9.91869e-35
3.95162e-33
0
0
1.00879e-06
9.76256e-195
0
9.46813e-42
1.43756e-36
3.784e-32
0
1.90113e-150
0
0
0
6.36012e-08
0
3.3834e-17
1.93565e-07
0
5.99623e-120
1.51168e-10
0
0
3.40769e-07
1.94564e-48
5.8303e-42
1.17698e-197
4.74262e-06
0
1.99046e-12
2.90252e-44
5.64947e-215
2.71105e-91
0
1.09833e-188
0
9.26023e-45
0
9.60294e-23
6.49756e-67
6.29944e-45
8.51028e-33
5.03234e-16
4.61284e-45
0
0
3.15974e-78
1.0984e-08
4.52151e-26
0
2.73087e-44
2.459e-106
1.44176e-108
0
1.43175e-42
0
8.34208e-112
7.96072e-118
0
3.94242e-48
0
0
0
0
1.90663e-168
1.01523e-195
0
6.36554e-188
8.17407e-102
0
0
1.63647e-112
4.21772e-97
2.8464e-32
0
2.33266e-40
3.56788e-133
2.66772e-109
5.24936e-11
0
1.82176e-198
8.31102e-52
5.09953e-141
0
3.28808e-162
0
2.40255e-77
1.00365e-21
1.26292e-110
3.62098e-110
0
0
4.40657e-200
1.36007e-21
2.77511e-130
1.59138e-195
7.54335e-71
3.8667e-204
1.71062e-147
0
9.81244e-107
1.08484e-73
0
0
1.64244e-122
1.71105e-57
7.26546e-199
2.56168e-129
0
0
1.60628e-193
1.06739e-76
0
8.31398e-23
7.57153e-59
0
0
1.99436e-99
7.80036e-112
0
0
5.91469e-221
0
7.33538e-191
2.41662e-139
0
0
2.34417e-41
2.15077e-76
0
5.61637e-47
2.17846e-26
2.60075e-106
1.32008e-149
0
0
0
2.28626e-70
1.85956e-57
0
0
2.83193e-113
0
5.27077e-189
5.56994e-205
3.01853e-115
4.7243e-34
0
2.24386e-176
0
2.52776e-125
0
3.84424e-52
1.6517e-190
1.9898e-152
0
1.4733e-26
0
1.24498e-35
0
0
3.65635e-113
6.0588e-115
5.98642e-40
1.26685e-151
0
1.08967e-147
2.38585e-154
0
1.02947e-135
0
2.75377e-81
3.79257e-118
0
1.42736e-30
4.65455e-120
3.73085e-07
3.40219e-29
4.76901e-73
2.34882e-25
6.20826e-135
4.31396e-05
5.63861e-185
0
3.31273e-40
1.24175e-05
4.84218e-41
1.83302e-106
0
0
0
0
2.0477e-182
6.11058e-07
0
0
1.44993e-176
5.22732e-153
3.09276e-195
3.00975e-93
4.99755e-12
0
0
1.45433e-105
0
2.05946e-131
2.16342e-135
7.17677e-11
0.0109104
1.48388e-36
0
0
0
7.54319e-161
1.05055e-196
3.63208e-117
1.13723e-102
0
0
0
1.1641e-33
1.17914e-119
5.36901e-212
9.05516e-197
0
3.65166e-15
0
0
2.71385e-08
0
0
5.61876e-149
0
0
5.19321e-180
0
1.88512e-203
0
3.34141e-136
3.08993e-179
0
0
4.05497e-143
0
1.06599e-205
0
1.0459e-84
3.13727e-150
0
1.75422e-211
0
0
5.12021e-56
5.26876e-20
4.10718e-32
5.62063e-209
0
6.52152e-219
0
7.55807e-58
0
0
0
1.75579e-218
0
2.01148e-215
0
9.58949e-163
1.30609e-235
0
2.66831e-212
0
1.44169e-38
1.64677e-186
0
1.57811e-33
6.35087e-78
0
0
8.95073e-34
0
1.57973e-191
1.12782e-219
0
2.61086e-186
0
1.9339e-227
0
3.58712e-156
0
0
8.02486e-55
0
1.61717e-105
9.56094e-168
0
6.95705e-221
0
1.39336e-200
0
0
1.0985e-20
2.39225e-188
1.32326e-19
0
0