/*--------------------------------*- C++ -*----------------------------------*\
| =========                 |                                                 |
| \\      /  F ield         | OpenFOAM: The Open Source CFD Toolbox           |
|  \\    /   O peration     | Version:  v2012                                 |
|   \\  /    A nd           | Website:  www.openfoam.com                      |
|    \\/     M anipulation  |                                                 |
\*---------------------------------------------------------------------------*/
FoamFile
{
    version     2.0;
    format      ascii;
    class       volScalarField;
    location    "1.5";
    object      ILambda_8_0;
}
// * * * * * * * * * * * * * * * * * * * * * * * * * * * * * * * * * * * * * //

dimensions      [1 0 -3 0 0 0 0];


internalField   nonuniform List<scalar> 
108993
(
146.201
146.376
146.201
146.201
146.201
146.203
146.271
146.201
146.201
146.201
146.201
146.201
146.201
146.201
146.201
146.202
146.201
146.201
146.201
146.209
146.201
146.201
146.201
146.201
146.201
146.205
146.201
146.204
146.227
146.202
146.201
146.201
146.201
146.201
146.201
146.201
146.201
146.201
203.755
336.115
146.202
146.201
146.201
146.201
146.202
146.661
146.201
146.218
146.355
146.201
146.201
146.203
146.308
146.201
146.201
146.201
146.201
146.201
146.201
146.201
146.201
146.201
146.201
146.201
146.201
146.214
146.201
146.201
146.201
146.202
146.201
146.201
146.201
146.201
146.391
146.201
146.201
146.201
146.201
146.201
146.201
146.201
146.201
146.201
146.201
146.201
146.201
146.201
146.201
146.201
146.201
146.201
146.201
146.201
146.201
146.201
146.201
146.201
146.201
146.201
146.201
146.201
146.201
146.201
146.201
146.201
146.201
146.201
146.201
857.051
146.202
146.201
146.206
146.205
146.201
146.341
146.201
146.201
146.202
146.201
146.201
146.201
146.302
146.201
146.201
146.202
146.202
146.201
146.201
146.201
146.201
146.201
146.201
146.213
146.201
146.201
146.201
146.201
146.201
146.201
146.201
146.201
146.202
146.201
146.201
146.201
146.201
207.575
146.201
151.416
153.913
146.203
146.201
194.196
146.201
146.204
146.201
146.201
146.201
146.203
163.305
146.201
146.201
146.201
146.201
146.204
146.201
146.201
146.201
146.201
146.201
146.201
146.203
146.201
146.209
146.205
146.218
146.201
146.201
146.201
146.201
146.201
146.201
146.201
146.201
146.201
146.201
146.201
146.201
146.201
146.201
146.201
146.201
146.247
146.201
146.201
146.202
146.201
146.201
146.201
146.201
146.207
146.201
146.201
146.21
146.206
146.201
1248.14
146.201
224.879
146.204
146.201
146.232
217.885
146.322
146.201
146.201
146.201
146.201
146.201
146.201
153.746
146.201
146.222
146.201
146.201
146.201
146.201
146.203
146.201
146.413
146.201
146.201
146.203
146.201
146.201
146.201
146.201
146.204
146.201
146.201
146.201
146.201
146.201
146.201
146.202
273.342
146.225
146.201
146.201
146.201
146.201
146.201
146.201
146.201
146.201
146.201
146.201
146.201
146.202
146.201
146.439
146.202
146.202
146.201
146.201
146.201
146.282
146.203
146.201
146.201
146.201
183.967
144.731
309.575
146.201
146.201
148.141
146.201
146.214
146.206
146.205
146.22
146.201
146.201
146.201
146.201
146.203
146.201
151.841
146.201
146.201
146.203
146.201
146.201
146.201
146.201
146.201
146.202
146.201
146.212
146.232
146.201
146.201
146.201
146.203
146.201
146.273
146.203
187.038
146.201
146.201
146.202
146.201
146.203
146.384
146.201
146.201
176.89
146.201
146.217
146.201
146.217
146.218
146.201
160.398
179.258
146.123
146.201
146.201
146.201
147.112
146.358
146.201
162.152
146.201
146.201
146.201
146.201
146.201
146.201
146.204
146.201
146.201
146.201
146.201
146.201
146.201
146.201
146.201
146.201
146.202
146.204
353.582
146.201
146.201
146.201
523.691
146.201
146.201
146.201
146.201
146.201
146.201
146.402
146.202
146.201
146.201
146.201
491.625
146.202
146.201
146.201
1160.59
146.201
146.104
146.201
146.201
145.811
146.201
145.665
145.456
146.202
146.202
146.201
146.202
146.201
150.574
146.204
467.708
145.776
146.202
145.555
146.201
154.106
146.202
1263.21
146.201
146.202
146.201
146.202
149.556
147.858
146.201
146.201
146.202
146.202
146.201
146.201
143.689
146.201
146.201
187.664
146.201
146.201
146.201
1472.56
146.202
430.727
146.201
149.647
146.272
149.522
146.201
146.201
146.54
146.201
157.456
147.455
146.201
2572.44
186.546
288.128
146.201
146.201
146.201
146.201
146.203
146.201
146.201
146.201
146.201
146.201
146.244
146.203
146.213
146.21
146.203
146.201
146.247
146.201
146.201
146.201
146.201
146.201
146.201
146.201
146.236
146.201
146.201
146.23
146.201
146.298
146.706
146.202
146.201
146.27
146.225
146.201
146.201
146.202
146.201
146.201
146.201
146.201
146.202
146.201
146.204
861.301
146.202
146.201
146.201
146.201
146.201
146.201
146.201
146.201
146.201
146.203
146.201
146.201
146.201
146.202
146.201
146.202
146.201
146.201
146.201
146.201
146.277
146.201
146.201
146.201
146.201
146.202
146.228
146.201
146.201
147.961
146.201
146.202
146.211
146.201
146.201
146.201
146.201
146.202
146.201
146.388
146.207
146.201
146.201
146.215
146.204
146.261
146.202
146.203
146.201
146.202
146.204
146.235
146.201
146.202
146.201
146.201
146.201
146.206
146.201
146.201
241.175
146.201
203.118
146.201
146.201
146.201
146.201
146.201
146.202
146.201
146.201
146.218
146.231
146.227
146.201
146.201
146.201
146.201
146.202
391.745
146.284
146.201
146.201
146.201
146.205
146.203
149.497
146.201
146.201
146.202
146.202
146.201
146.232
1901.59
146.203
170.851
146.202
146.201
146.203
150.236
146.28
146.201
146.201
146.201
146.201
146.201
146.202
146.455
146.203
146.201
146.201
146.202
146.201
146.395
146.201
146.29
146.201
146.201
146.201
146.382
146.202
146.201
146.201
140.385
146.202
146.201
146.201
141.408
146.201
146.202
146.201
146.222
146.201
146.202
146.201
146.204
146.201
146.202
146.201
238.96
146.201
146.204
146.201
146.201
1411.04
146.32
146.201
146.201
146.202
146.275
146.202
162.298
146.236
146.21
146.251
146.202
146.202
146.201
1851.3
146.202
146.203
146.201
146.203
146.201
146.203
146.201
146.202
146.201
146.204
146.202
146.202
146.202
146.202
522.867
146.622
146.202
146.448
146.206
146.304
146.206
146.522
146.384
146.211
146.201
146.201
146.201
146.201
146.202
146.202
280.636
698.317
146.202
146.207
146.204
146.872
146.733
146.201
146.205
146.202
146.217
259.426
146.396
146.204
146.202
146.202
155.973
146.202
146.222
146.202
146.202
7820.81
146.201
146.201
146.203
146.201
146.213
250.822
146.202
162.161
146.202
213.144
146.205
146.201
146.201
146.201
146.202
146.201
146.202
146.202
146.201
146.201
146.205
185.473
162.232
146.201
867.849
146.201
146.206
146.202
146.201
146.204
146.434
146.202
146.205
146.202
146.201
146.202
146.205
146.203
146.202
146.201
146.203
146.202
146.202
146.202
146.201
146.201
146.204
146.201
146.201
146.237
146.201
146.202
188.488
183.06
146.201
146.205
146.202
146.202
146.201
146.202
146.201
146.201
146.201
146.201
146.201
146.208
146.201
146.202
146.202
146.291
146.202
146.201
146.201
146.201
146.203
146.202
146.234
159.854
146.201
146.201
146.201
146.233
146.201
146.395
146.324
146.201
146.201
462.16
148.483
146.201
146.201
146.202
146.201
146.201
146.204
146.201
146.21
146.201
146.201
146.204
146.201
172.756
146.201
146.201
261.026
146.202
188.701
146.203
146.261
146.201
146.209
146.202
146.201
146.201
146.202
146.201
146.201
146.201
146.201
146.201
146.201
146.202
146.201
146.203
146.201
146.201
146.204
146.201
8052.86
146.204
2168.96
146.201
146.201
146.201
271.145
146.212
146.204
146.202
146.204
146.266
146.204
802.141
146.202
146.201
146.202
146.204
146.201
146.209
208.899
146.201
146.201
146.201
146.294
146.201
146.203
146.205
146.201
146.201
152.92
146.201
153.468
146.201
154.177
146.201
146.209
146.202
146.202
146.204
146.201
146.202
146.202
146.204
146.203
146.451
146.201
146.201
146.201
146.202
146.202
146.202
146.201
146.201
146.202
146.434
146.201
146.202
146.202
146.365
146.206
146.203
146.206
147.237
146.204
146.204
146.202
146.541
146.201
146.91
179.927
196.972
146.201
146.201
146.202
146.202
146.204
146.201
146.201
146.202
146.202
146.201
146.202
146.21
146.377
146.404
146.201
146.201
147.445
307.698
146.446
146.265
146.201
146.201
146.202
146.205
147.516
146.201
147.483
146.202
146.202
146.442
146.201
146.202
146.202
146.221
146.201
146.202
146.209
146.205
146.238
146.201
146.202
146.201
146.202
146.202
146.202
146.202
146.201
145.417
146.201
149.276
146.211
146.204
146.201
146.203
146.204
146.201
146.201
154.107
146.206
146.206
146.217
146.202
146.203
146.174
146.201
146.203
163.451
146.202
146.201
146.202
146.202
146.204
447.238
146.204
146.205
146.202
146.201
146.202
146.201
146.202
146.202
146.947
146.201
146.201
146.244
146.202
146.201
146.201
146.201
146.203
146.201
146.201
146.201
146.244
146.201
146.201
146.364
146.216
146.201
146.201
146.201
146.201
560.362
146.201
146.211
146.25
146.217
146.245
214.646
146.202
146.201
146.201
146.201
146.205
146.202
146.206
146.201
146.201
147.159
146.201
146.346
146.202
146.227
146.203
146.201
146.201
146.201
146.201
146.204
146.201
146.202
146.201
146.201
190.489
146.201
146.204
146.201
146.201
146.204
146.202
146.203
146.202
146.201
146.201
146.202
146.205
146.201
146.201
146.201
175.137
146.201
146.206
146.201
146.202
146.202
146.201
146.204
146.204
146.202
146.206
434.723
146.202
146.202
146.207
146.21
146.256
146.201
146.201
146.204
146.202
437.809
146.202
146.201
146.201
146.202
146.202
146.201
146.202
146.207
146.202
146.201
146.202
146.202
146.202
146.201
146.201
146.201
146.201
146.201
146.201
146.201
146.237
146.236
169.558
146.202
146.201
146.201
146.202
146.219
146.201
146.202
146.201
146.201
146.201
146.202
146.606
146.202
146.201
146.25
146.239
146.201
146.201
146.201
146.201
146.202
6881.07
146.202
146.201
146.201
146.201
146.201
146.201
146.201
146.202
146.201
146.201
146.201
146.201
146.201
146.201
146.201
146.201
146.201
146.201
146.202
146.201
146.203
146.207
146.204
161.661
146.201
146.201
146.202
146.201
146.201
146.201
146.218
146.201
146.201
146.203
146.201
146.203
146.217
146.218
146.201
146.201
271.559
172.704
146.201
146.201
146.201
146.203
146.201
146.201
871.415
146.201
146.201
146.201
146.201
146.201
146.202
146.202
146.385
878.217
146.205
146.205
146.204
146.215
146.207
146.202
146.205
146.294
147.552
146.201
146.203
146.202
146.202
146.202
7310.48
146.206
146.201
146.203
146.201
146.205
146.203
146.202
146.202
146.201
146.201
146.201
146.201
146.201
146.305
563.785
146.202
146.201
146.201
146.202
146.244
146.201
146.244
146.201
146.242
485.686
146.203
234.482
146.201
146.202
146.201
146.202
146.204
146.202
146.201
146.203
146.202
146.213
146.205
146.202
146.212
146.201
146.201
146.201
146.201
146.202
382.616
146.201
146.201
146.201
146.048
146.201
146.201
146.207
146.201
146.203
1398.03
146.201
146.204
146.201
146.202
146.201
146.201
146.201
146.205
146.201
146.203
146.202
146.201
582.351
146.201
146.201
146.201
146.204
146.186
146.201
146.202
146.203
151.331
146.202
146.201
146.201
146.202
146.201
188.582
204.123
191.404
146.206
195.254
146.201
211.269
211.497
146.202
146.202
146.227
146.203
146.201
146.201
146.201
146.202
146.201
146.201
146.201
146.202
146.201
146.201
146.201
146.201
146.201
146.201
146.201
146.204
146.332
146.201
146.227
146.202
146.202
146.21
146.274
146.202
146.201
146.204
146.206
146.201
146.201
146.201
146.201
146.201
525.653
146.201
146.202
146.201
146.202
146.202
146.201
146.201
146.233
146.201
146.201
146.201
146.201
146.201
146.233
146.201
146.201
148.64
146.201
146.207
465.83
146.201
146.28
146.201
146.231
146.239
146.201
146.201
344.209
157.866
146.202
146.202
3640.52
146.202
146.201
146.201
146.201
146.201
146.201
146.204
174.129
146.201
146.201
146.201
146.202
146.245
146.201
146.201
151.315
210.827
146.202
146.201
146.205
146.224
146.202
146.202
146.201
146.205
146.201
146.202
146.201
146.202
212.423
146.202
146.201
146.204
146.257
146.202
146.202
146.522
146.201
146.201
146.201
146.205
146.202
146.201
146.201
146.203
146.202
481.399
146.201
146.201
186.541
146.201
146.221
496.056
146.201
146.201
146.201
146.201
260.975
146.212
146.201
146.284
146.201
162.736
146.201
1478.14
146.201
146.201
840.774
146.202
146.201
146.232
146.201
146.201
146.205
146.202
146.202
146.201
199.387
146.203
146.211
146.217
146.201
146.209
212.933
226.248
146.202
186.824
146.201
260.665
146.201
146.202
146.209
146.201
146.201
146.201
146.201
146.242
146.81
146.261
146.202
146.282
146.243
146.201
146.235
146.253
146.238
146.201
146.876
146.204
146.203
146.201
146.201
146.203
146.221
146.201
146.206
146.201
146.201
146.201
146.31
156.213
146.204
439.125
154.738
146.201
146.202
146.286
146.201
146.201
146.314
625.518
851.178
146.215
200.13
146.201
146.201
177.122
146.201
146.268
146.201
146.201
146.203
146.201
146.246
146.201
146.233
705.575
146.202
146.235
146.203
146.202
146.201
146.203
146.201
146.201
146.201
146.201
146.201
146.201
146.203
146.201
146.202
146.256
146.204
147.797
146.256
146.201
162.65
146.239
146.201
146.235
146.201
146.201
146.203
733.599
150.556
154.928
146.201
182.871
180.825
324.12
146.201
180.852
146.203
146.203
440.334
146.202
149.542
146.203
146.201
146.203
147.822
146.203
146.202
146.209
146.202
146.203
349.473
208.363
152.987
146.201
146.201
155.485
146.201
146.411
146.215
146.201
5361.8
146.202
146.202
146.201
146.202
146.202
146.202
146.578
1354.98
147.982
193.083
146.201
146.219
146.202
146.204
146.201
146.203
146.202
146.202
146.202
146.201
146.203
146.202
146.202
146.202
146.673
146.202
146.202
146.329
146.202
146.257
146.366
146.202
146.201
146.274
146.202
146.201
146.201
225.787
146.219
146.207
146.275
246.744
146.202
146.201
146.204
147.685
146.207
152.111
146.201
146.202
146.201
152.024
146.203
146.247
146.201
146.201
146.201
146.201
146.318
146.201
146.204
146.201
152.11
147.501
146.204
146.201
269.817
146.059
912.262
149.79
146.201
146.244
161.114
146.201
146.202
146.203
146.202
146.204
146.201
146.204
182.745
678.915
146.204
1970.41
147.56
146.204
146.201
146.39
3262.27
146.202
148.1
146.201
146.202
146.203
146.201
152.086
146.202
146.202
146.209
146.427
146.488
146.223
146.259
146.202
146.201
146.201
146.201
146.209
146.222
146.507
146.845
146.202
1070.67
146.202
146.201
146.202
208
1153.54
146.202
146.202
166.006
218.834
164.219
146.221
146.201
610.805
146.309
146.201
146.201
208.306
146.202
146.202
146.202
146.216
146.299
146.695
146.202
146.204
146.331
146.256
146.201
146.201
146.202
146.202
146.202
204.821
153.786
146.843
146.202
147.189
146.205
506.759
146.202
146.204
146.255
3997.54
146.203
146.201
146.201
146.201
146.201
146.201
146.202
146.203
146.206
146.423
146.205
146.202
802.281
146.403
146.257
146.254
146.201
3917.78
146.3
146.201
146.201
164.12
211.259
146.201
146.201
146.201
146.203
146.201
5125.37
5930.69
7228.17
158.701
146.201
162.838
146.209
146.201
146.202
146.201
146.201
146.944
146.202
146.201
754.42
146.203
146.201
146.201
146.201
146.201
146.239
146.325
146.215
146.201
146.208
146.22
956.389
146.205
146.203
146.284
146.201
146.201
146.201
147.189
162.114
146.201
146.201
148.988
146.201
146.201
146.201
146.201
146.209
152.921
146.212
155.735
146.22
146.201
346.117
146.201
175.681
151.363
146.201
150.952
146.201
146.201
200.891
146.201
146.304
153.166
149.782
157.498
154.323
146.202
148.032
146.28
246.205
146.202
146.202
164.844
152.756
363.663
147.56
146.245
146.201
146.499
145.993
179.962
156.417
146.203
150.354
146.205
146.201
1029.94
182.788
148.105
146.287
156.804
141.467
318.195
146.201
148.412
146.261
187.73
146.202
146.274
146.272
146.201
1008.9
146.202
148.588
157.528
146.246
146.201
154.006
146.201
146.201
146.201
146.202
148.014
146.247
158.381
146.289
146.201
146.201
369.187
146.202
146.201
146.333
146.201
146.201
146.214
146.201
146.204
146.204
455.488
146.201
146.201
555.075
146.201
146.223
4312.78
146.201
146.201
146.202
146.201
1286.13
146.201
146.226
146.201
146.201
146.201
222.336
911.452
146.202
146.202
387.523
146.201
146.203
146.201
147.151
146.201
439.597
302.535
146.201
146.201
146.327
146.204
1161.83
146.201
151.719
146.202
146.201
146.202
146.203
146.201
146.204
146.201
418.008
146.201
146.201
146.233
146.257
146.203
227.398
146.204
146.201
146.201
407.816
146.201
146.247
146.201
146.201
146.298
312.067
146.251
146.227
146.201
146.202
306.027
146.201
161.164
146.201
269.017
1010.7
146.22
237.892
196.671
147.367
146.48
537.44
146.204
146.201
146.204
146.204
146.207
146.202
284.55
146.202
146.202
146.201
146.208
252.569
468.588
146.201
146.204
146.207
146.201
146.287
146.201
146.201
146.206
160.815
845.695
456.585
146.201
146.204
146.201
262.701
146.371
215.058
146.201
146.201
146.33
146.293
146.201
146.201
149.96
146.201
146.201
146.45
149.325
146.203
146.203
146.201
146.4
167.313
146.414
146.24
146.202
3319.14
146.205
146.204
148.312
156.47
638.709
2748.24
3962.97
625.179
146.201
206.794
1541.09
146.24
146.201
152.618
272.675
146.201
187.784
343.566
146.201
240.311
146.201
203.87
148.633
146.219
586.506
177.938
146.202
146.201
146.254
146.217
146.969
146.203
449.27
146.204
146.227
146.229
146.222
146.201
146.225
146.201
146.207
146.261
156.889
146.201
146.255
146.231
146.208
146.201
146.202
146.291
146.222
146.22
146.201
146.201
146.202
205.089
171.295
146.229
146.209
146.202
146.202
146.226
146.202
146.202
146.203
146.201
146.206
146.202
164.966
146.202
146.202
146.201
146.204
146.202
146.202
146.214
146.201
146.202
169.557
146.202
210.096
146.202
146.202
146.204
148.462
146.201
146.202
146.203
146.202
146.203
146.202
146.229
146.202
146.285
146.201
146.201
146.201
146.832
146.201
146.291
146.201
146.202
146.201
146.201
146.202
146.202
146.203
146.203
146.247
146.201
146.214
147.917
146.241
146.388
147.927
146.201
146.202
146.202
146.202
159.99
146.201
146.204
146.203
146.201
155.752
146.201
146.201
146.201
146.201
146.201
146.201
146.201
146.201
146.201
146.336
146.201
146.201
146.202
146.201
146.202
147.194
146.201
146.201
148.738
148.129
146.201
146.202
146.201
146.349
146.206
146.201
146.201
146.202
146.203
146.201
146.201
146.201
146.201
146.201
146.202
146.202
369.496
146.204
167.493
146.202
146.202
146.202
146.201
208.724
146.202
146.201
146.059
146.202
276.431
146.201
146.202
146.203
146.203
146.429
146.203
146.701
146.201
146.203
147.665
146.201
146.203
146.201
146.202
146.203
146.202
146.95
146.202
152.153
146.202
153.548
146.202
146.201
146.201
146.202
146.202
146.202
146.201
146.201
146.202
146.201
146.202
146.202
146.201
146.201
146.201
146.202
146.219
146.201
146.202
146.201
146.201
146.203
146.201
146.204
146.201
146.201
146.201
146.201
146.202
146.201
146.201
146.201
146.202
146.201
146.201
146.219
146.201
146.202
2593.91
146.202
146.207
146.202
146.201
146.214
146.292
146.201
146.201
146.202
146.202
146.202
146.201
146.201
146.201
146.202
146.203
146.201
146.201
146.202
146.201
146.201
146.202
146.201
146.202
146.203
146.255
146.201
146.202
255.233
146.205
146.201
146.201
146.201
146.201
146.202
146.202
146.201
146.201
146.201
152.691
146.202
146.201
146.201
146.718
146.203
146.202
146.414
146.203
146.201
146.212
146.201
146.201
146.202
1828.53
146.202
146.201
146.206
146.302
146.201
146.201
146.702
146.203
147.155
146.201
146.202
146.201
146.204
291.519
146.201
286.431
146.201
146.201
247.745
146.201
146.201
146.213
251.098
146.201
146.202
249.324
146.201
146.202
283.279
146.238
146.202
146.23
146.224
146.255
146.206
154.331
146.201
146.201
146.203
146.201
146.203
146.266
146.201
146.209
146.266
146.256
146.443
146.201
146.202
146.201
146.202
146.201
146.288
648.606
146.294
146.256
146.268
651.656
146.201
146.205
160.08
146.201
146.29
146.202
146.205
146.201
146.284
146.201
146.201
146.201
146.201
146.209
146.202
146.202
815.739
146.204
146.201
146.201
146.202
146.201
146.201
146.201
146.202
146.201
146.202
146.201
146.212
819.194
146.202
146.202
462.009
146.204
146.211
146.202
146.211
146.203
146.203
146.202
146.209
146.202
146.222
176.732
146.203
146.202
146.202
146.203
146.206
146.201
146.205
146.202
146.202
146.205
146.202
217.272
146.205
146.226
146.206
146.201
146.48
146.203
146.257
146.232
146.201
165.284
194.73
147.377
146.238
146.201
146.201
146.206
146.201
153.667
146.201
146.215
146.242
146.204
146.201
1559.43
146.215
146.203
324.573
146.209
146.201
146.202
146.201
146.202
146.201
146.201
146.201
146.308
146.201
146.201
146.201
149.102
146.201
146.201
146.201
146.206
146.204
146.202
146.205
146.201
146.201
146.202
146.201
146.201
146.201
146.201
146.201
146.202
146.201
146.436
146.201
146.207
146.203
170.536
146.201
146.202
146.293
146.201
146.201
161.572
146.201
146.201
146.201
146.201
146.201
146.201
146.201
146.201
146.201
146.201
146.203
159.825
146.201
146.202
146.201
146.204
146.203
146.201
146.201
472.351
146.201
146.202
146.201
146.203
146.202
146.201
146.201
147.135
248.516
146.293
146.203
146.201
146.205
146.202
146.203
146.201
146.206
146.204
146.212
146.201
146.205
146.202
146.204
1059.68
146.218
146.202
146.202
148.793
146.201
146.277
146.201
146.201
146.201
146.201
146.201
146.203
146.202
146.272
146.209
555.531
228.046
146.202
146.204
146.203
146.201
146.204
157.411
146.201
146.205
146.216
146.201
146.205
146.201
146.204
146.204
146.202
146.201
146.202
146.201
146.202
146.239
146.202
146.205
146.202
146.247
146.244
343.127
146.201
146.202
146.285
257.154
293.76
146.201
146.208
146.201
146.209
146.204
673.144
146.202
146.203
146.202
146.203
146.201
146.201
147.401
146.201
146.202
146.201
146.201
146.202
146.202
146.223
146.202
146.201
146.203
146.207
146.201
1189.18
173.484
146.203
146.205
146.201
146.201
146.201
314.935
151.443
146.322
146.201
146.201
146.201
146.225
146.202
146.202
2051.13
146.34
146.201
146.203
208.343
200.435
146.202
146.201
2066.86
2009.22
146.203
5147.82
1350.96
146.297
968.197
153.156
146.24
146.201
146.24
146.201
146.201
146.201
382.507
513.553
1314.98
150.107
542.304
146.202
146.202
146.202
146.219
146.202
1144.51
146.202
238.802
146.459
146.201
146.261
1333.86
146.201
146.201
151.951
146.201
146.201
882.177
154.135
146.201
146.201
146.201
146.256
146.201
146.201
146.201
146.223
148.334
146.201
146.201
146.201
2345.29
146.204
146.201
146.201
146.201
1178.8
146.201
146.23
146.207
146.201
146.275
146.201
146.201
1002.27
146.202
146.201
146.201
146.201
146.201
146.21
146.202
146.201
146.208
146.203
146.201
146.206
146.201
146.201
146.201
146.201
146.201
146.201
146.201
146.201
146.201
151.866
146.201
1335.85
146.201
146.201
146.201
146.201
146.201
146.201
146.204
2244.26
928.096
2693.86
146.202
146.273
146.202
2219.16
2479.96
146.202
182.825
146.201
146.201
146.201
146.201
146.201
146.201
146.205
149.417
146.201
152.414
146.201
146.244
146.201
146.201
146.204
146.298
146.204
148.395
146.216
146.289
146.201
146.379
146.3
146.214
146.202
1336.03
146.201
1867.87
146.201
146.201
146.208
2370.15
1284.56
1972.54
1841.87
149.807
146.241
146.582
241.691
2103.77
146.201
146.207
146.206
146.295
146.203
230.798
146.203
146.204
229.199
187.855
146.201
227.77
146.206
146.201
146.201
146.201
146.236
154.272
146.202
146.201
146.283
1662.84
146.204
150.591
146.269
146.202
146.259
146.201
146.202
146.255
146.203
146.201
146.25
146.204
146.201
146.201
146.258
146.227
146.201
276.06
146.231
146.246
174.2
146.217
146.351
146.432
147.544
146.202
147.499
146.215
158.582
146.202
146.201
147.871
146.204
147.478
146.62
146.202
146.206
146.202
146.204
146.3
146.201
146.203
148.723
146.201
146.218
146.201
146.201
146.201
148.74
146.202
146.202
146.201
146.201
146.206
150.363
154.061
146.203
146.201
146.206
146.24
182.236
146.201
225.561
181.993
324.914
146.279
146.201
769.231
146.201
146.214
146.201
146.201
146.279
146.201
146.202
146.354
146.235
146.208
146.201
146.201
146.203
146.201
146.202
146.203
146.207
146.201
146.201
901.267
146.206
146.267
146.202
146.201
1386.56
146.201
146.201
146.201
146.282
146.203
146.201
146.202
146.206
146.206
146.201
146.205
146.201
146.201
146.201
146.201
146.201
146.207
146.201
149.509
146.201
146.22
146.201
147.057
146.201
146.202
146.201
146.203
146.205
146.206
146.206
146.201
146.205
146.202
146.201
146.201
146.201
146.202
148.924
146.201
146.201
146.201
146.205
146.201
146.208
146.201
146.201
146.225
146.201
146.201
146.201
146.201
146.201
146.201
146.201
146.201
146.264
146.201
146.201
146.201
146.201
146.201
146.201
294.621
146.202
146.201
146.201
146.201
146.219
146.201
146.409
146.204
146.202
146.204
146.201
146.201
146.201
146.227
151.675
146.201
146.201
153.153
146.201
146.201
146.201
146.201
146.423
146.209
183.99
146.201
146.201
146.201
153.217
149.528
150.923
146.208
185.781
148.703
146.201
146.201
146.305
153.397
146.201
146.259
146.201
146.201
177.175
146.201
146.201
146.288
146.206
146.245
146.214
146.7
146.202
146.215
146.219
146.202
146.204
146.201
146.201
146.202
146.201
146.201
146.389
146.202
146.761
146.203
146.272
146.289
1288.97
146.214
146.201
146.29
146.202
146.202
146.202
146.201
146.201
146.266
537.561
146.341
146.203
146.204
146.208
940.492
146.221
168.618
146.226
146.201
157.386
146.201
146.201
146.203
339.795
991.573
1368.05
146.201
1079.4
146.201
146.202
146.201
146.202
146.201
843.491
146.204
146.201
146.201
146.203
146.238
146.201
146.228
146.201
146.201
419.278
146.201
146.475
146.201
146.203
146.201
146.201
146.201
146.201
146.223
146.201
146.428
146.221
146.202
146.201
146.208
175.014
146.201
146.201
146.201
1617.07
146.202
146.791
2405.09
396.147
146.201
165.6
147.162
146.201
146.249
1557.47
146.203
146.201
830.743
1278.86
146.201
146.207
146.201
940.016
146.201
146.201
146.201
146.245
3853.49
146.25
332.779
146.221
146.205
146.246
146.253
146.203
146.25
146.202
146.208
146.227
146.217
343.256
630.008
146.303
662.23
172.788
674.489
146.207
146.201
146.201
312.515
421.677
206.501
146.332
146.221
146.209
687.518
312.806
773.682
146.201
149.54
317.729
632.138
146.201
158.392
146.532
148.512
151.429
359.565
151.018
2359.53
146.201
856.282
146.203
146.447
146.204
560.234
3552.56
146.201
146.201
146.825
148.05
146.218
146.203
146.201
146.201
2154.17
146.201
146.354
146.222
146.201
146.204
146.201
147.866
146.204
146.201
146.473
3016.97
146.214
146.483
331.988
4113.45
146.223
146.201
146.28
318.91
146.201
146.201
146.202
146.203
146.209
3300.79
146.446
146.223
372.196
146.239
146.201
146.201
746.158
146.202
146.21
146.208
146.201
146.201
146.202
170.567
146.253
1188.41
146.321
146.213
146.201
458.673
327.439
146.735
150.677
146.201
146.201
146.201
146.27
146.201
3472.74
160.58
146.201
206.242
146.201
146.201
149.318
146.21
146.221
146.201
197.971
152.187
146.201
146.207
146.202
4442.73
146.201
146.202
146.229
146.201
146.235
146.202
146.201
146.202
146.201
146.202
146.202
146.201
146.201
146.207
146.26
146.204
268.559
1706.11
146.209
146.283
146.201
146.203
146.201
146.202
146.278
1369.8
211.72
146.272
160.374
149.097
146.233
146.205
205.254
146.217
146.492
146.205
146.202
146.821
146.202
146.202
146.201
146.202
146.222
146.208
763.889
146.201
146.216
146.288
210.603
150.318
146.202
146.919
146.304
146.204
146.606
161.15
146.201
146.201
146.255
146.254
146.201
146.201
146.201
146.201
146.208
146.201
4467.98
483.27
148.743
146.213
146.212
146.205
146.284
146.201
146.201
258.379
146.201
146.201
146.201
334.222
146.204
806.15
146.229
146.203
146.203
241.737
146.212
146.219
146.239
146.244
146.208
152.855
146.226
146.203
146.216
146.202
146.603
146.201
182.866
147.349
146.203
146.333
146.241
146.284
149.98
146.203
146.243
146.232
146.205
146.208
146.203
146.647
146.204
146.478
146.202
146.202
146.353
146.202
146.201
146.276
146.205
1047.63
146.207
146.203
146.202
146.21
146.203
146.202
146.201
146.202
237.211
146.846
148.253
146.215
146.202
1070.76
1056.62
146.203
146.202
146.209
146.288
146.362
146.222
154.079
146.205
146.213
146.202
1023.24
146.217
146.244
146.201
146.201
853.236
1698.65
146.308
1027.55
146.238
146.202
146.203
146.202
146.203
1056.69
146.203
146.201
146.201
146.203
146.201
146.201
146.294
146.201
146.202
146.204
146.202
146.211
146.259
146.201
146.201
146.206
146.203
146.201
524.89
146.28
146.207
146.201
146.222
323.289
146.201
146.216
146.211
146.219
146.201
146.201
146.286
146.204
146.201
146.247
146.215
146.206
377.545
146.219
146.203
146.205
146.202
146.227
146.213
146.265
146.354
146.235
146.201
146.225
146.204
146.202
159.927
519.249
146.21
146.216
146.202
146.202
155.086
146.224
246.711
146.209
146.213
146.201
146.201
146.201
146.201
146.233
146.217
146.202
146.277
146.299
146.201
146.201
146.215
146.203
146.203
146.201
146.201
146.215
146.202
146.202
146.202
146.201
146.201
146.202
146.202
146.202
146.201
146.203
146.202
146.203
146.219
146.203
146.202
146.332
146.202
146.203
147.514
146.202
146.662
147.703
146.202
157.472
146.201
146.605
146.201
146.595
146.209
146.406
1853.7
146.203
146.201
146.201
468.95
484.94
146.201
146.374
146.209
230.462
146.201
146.455
146.201
146.205
146.251
146.201
146.201
146.204
146.205
146.201
146.201
146.25
348.162
146.212
146.218
146.201
146.234
146.201
146.201
146.203
245.252
146.203
146.201
146.201
183.698
146.203
146.201
146.201
710.246
146.207
551.594
146.201
146.222
146.202
146.201
146.201
146.201
146.201
146.221
146.206
146.201
146.201
146.208
146.203
146.221
146.236
146.202
146.201
146.201
146.201
146.202
146.201
146.201
146.201
146.201
146.215
146.205
146.232
146.218
146.201
146.201
146.207
146.207
147.183
146.202
146.244
146.211
146.204
146.288
146.204
146.212
146.201
146.201
146.216
146.206
146.201
146.202
146.201
146.202
146.202
170.098
146.201
146.201
146.202
146.201
146.201
146.221
146.201
146.221
146.201
146.201
146.202
146.291
146.212
582.632
654.155
146.201
146.217
146.201
146.201
146.206
146.201
146.208
146.201
387.476
188.293
146.218
199.732
146.368
146.201
366.82
403.665
146.217
146.204
226.484
146.228
146.203
146.201
146.291
146.202
261.721
146.201
262.481
146.221
146.201
146.201
146.205
146.206
146.206
146.237
146.201
146.201
146.201
146.218
146.202
146.208
146.201
146.203
146.201
146.209
146.201
146.217
146.222
146.208
146.202
146.201
146.244
146.206
146.216
146.204
146.21
146.234
146.202
146.201
146.202
146.218
146.203
146.239
146.219
146.201
146.202
146.312
146.203
146.201
146.202
146.212
146.382
146.202
146.201
146.202
289.104
146.205
146.208
146.201
146.202
146.207
146.201
146.201
146.201
146.377