/*--------------------------------*- C++ -*----------------------------------*\
| =========                 |                                                 |
| \\      /  F ield         | OpenFOAM: The Open Source CFD Toolbox           |
|  \\    /   O peration     | Version:  v2012                                 |
|   \\  /    A nd           | Website:  www.openfoam.com                      |
|    \\/     M anipulation  |                                                 |
\*---------------------------------------------------------------------------*/
FoamFile
{
    version     2.0;
    format      ascii;
    class       volScalarField;
    location    "1.5";
    object      ILambda_0_0;
}
// * * * * * * * * * * * * * * * * * * * * * * * * * * * * * * * * * * * * * //

dimensions      [1 0 -3 0 0 0 0];


internalField   nonuniform List<scalar> 
108993
(
146.201
146.201
146.201
146.201
146.201
146.201
146.261
146.201
146.201
146.201
146.201
146.201
146.201
146.201
146.201
146.202
146.202
146.201
146.201
146.201
146.201
146.201
146.201
146.201
146.201
146.201
146.201
146.201
146.201
146.201
146.201
146.201
146.201
146.201
146.201
146.201
146.201
146.201
146.622
150.486
146.201
146.201
146.201
146.201
146.202
146.597
146.201
146.331
146.201
146.201
146.201
152.35
146.201
146.201
146.201
146.201
146.201
146.201
146.201
146.201
146.201
146.201
146.201
146.201
146.201
146.201
146.201
146.201
146.201
149.958
146.201
146.201
146.201
146.201
146.201
146.201
146.201
146.202
146.201
146.201
146.201
146.201
146.201
146.201
146.201
146.201
146.201
146.201
146.201
146.201
146.201
146.201
146.201
146.201
146.201
146.201
146.201
146.201
146.201
146.201
146.201
146.201
146.201
146.201
146.201
146.201
146.201
146.201
146.201
146.518
146.203
146.201
148.142
146.221
146.201
146.204
146.201
146.201
146.202
146.201
146.201
146.201
146.202
146.201
146.201
146.202
146.201
146.201
146.201
146.201
146.201
146.201
146.201
147.796
146.201
146.201
146.201
146.201
146.201
146.201
146.201
146.201
146.294
146.201
146.201
146.201
146.201
146.213
146.201
146.213
146.227
146.201
146.201
146.234
146.201
146.202
146.201
146.201
146.201
283.107
146.226
146.201
146.201
146.201
146.201
146.76
146.201
146.201
146.201
146.201
146.201
146.201
152.736
146.201
146.201
146.201
146.222
146.201
146.201
146.201
146.201
146.201
146.201
146.201
146.201
146.201
146.201
146.201
146.201
146.201
146.201
146.201
146.201
146.206
146.201
146.201
146.201
146.201
146.201
146.201
146.201
146.232
146.201
146.201
149.433
146.204
146.201
146.204
146.201
135.505
269.622
146.201
146.235
146.202
161.105
146.201
146.201
146.201
146.201
146.201
146.201
146.209
146.201
146.202
146.201
146.201
146.201
146.201
199.741
146.201
234.25
146.201
146.201
146.202
146.201
146.201
146.201
146.201
354.353
146.201
146.201
146.201
146.201
146.201
146.201
146.202
146.203
146.202
146.201
146.201
146.201
146.201
146.201
146.201
146.201
146.201
146.201
146.201
146.201
146.201
146.201
146.201
146.201
146.202
146.201
146.201
146.201
146.201
146.201
146.201
146.201
146.201
146.204
148.752
146.208
146.201
146.201
146.202
146.201
146.201
146.201
149.811
151.487
146.201
146.201
146.201
146.201
146.201
146.201
146.211
146.201
146.201
146.201
146.201
146.201
146.201
146.201
146.201
146.226
146.201
146.203
146.204
146.201
146.201
146.201
146.239
146.201
146.201
146.242
146.203
146.201
146.201
146.201
146.201
146.232
146.203
146.201
146.201
146.317
146.201
146.201
146.201
146.202
146.202
146.201
166.907
146.338
146.204
146.201
146.201
146.201
146.202
146.364
146.201
146.22
146.201
146.201
146.201
146.201
146.201
146.201
146.203
146.201
146.201
146.201
146.201
146.201
146.201
146.201
146.201
146.201
146.201
146.914
146.206
146.201
146.201
146.201
146.607
146.201
146.201
146.201
146.201
146.201
146.201
146.201
146.201
146.201
146.201
146.201
192.964
146.201
146.201
146.201
146.258
146.201
146.214
146.201
146.201
146.207
146.201
146.207
146.206
146.201
146.202
146.201
146.202
146.201
739.878
146.201
146.205
146.211
146.202
146.211
146.201
146.206
146.201
990.694
146.201
146.202
146.201
146.201
146.202
146.203
146.201
146.201
146.202
146.202
146.201
146.201
143.75
146.201
146.201
153.834
146.201
146.201
146.201
146.244
146.855
146.206
146.201
145.068
146.201
146.542
146.201
146.201
146.343
146.201
146.202
146.381
146.201
1366.79
146.949
147.724
146.201
146.201
146.201
146.201
146.201
146.201
146.201
146.201
146.201
146.201
146.201
338.6
146.207
146.202
148.742
146.201
146.201
146.201
146.201
146.201
146.201
146.201
146.201
146.201
146.201
146.201
146.201
146.202
146.201
146.202
146.208
146.301
146.201
146.201
146.202
146.201
146.201
146.282
146.201
146.201
146.201
146.201
146.202
146.201
220.223
146.21
146.204
146.201
146.201
146.201
146.201
146.201
146.201
146.201
146.201
147.999
146.201
146.201
146.201
146.202
146.201
146.202
146.201
146.201
146.201
146.201
146.201
146.201
146.201
146.201
146.201
146.202
146.206
146.201
146.201
537.445
146.201
146.202
146.205
146.201
146.201
146.201
146.201
146.201
146.201
146.201
146.207
146.201
146.201
146.203
146.21
146.201
147.835
146.238
146.201
149.937
146.215
146.201
146.201
147.437
146.201
146.201
146.201
146.207
146.201
146.202
146.205
146.201
146.206
146.201
146.201
146.201
146.201
146.201
148.707
146.201
146.201
146.202
146.201
148.118
146.201
146.201
146.201
146.201
146.201
124.911
146.201
146.201
146.201
146.201
146.206
265.408
146.204
146.201
146.201
146.201
146.201
146.201
146.201
2283.6
269.57
146.202
146.201
146.201
264.396
146.352
146.498
146.201
146.201
146.201
146.201
146.201
146.202
146.772
302.92
146.201
146.201
146.201
146.201
146.201
146.201
147.46
146.201
146.201
146.201
146.201
146.222
146.201
146.201
136.168
146.201
146.201
146.201
147.27
146.201
146.201
146.201
162.342
146.201
153.779
146.201
146.202
146.201
146.202
146.201
146.205
146.201
146.607
146.201
146.201
146.224
146.202
146.201
146.201
146.202
179.717
146.202
146.203
146.201
146.202
146.422
146.202
146.201
146.201
146.717
146.08
146.423
146.201
146.524
146.201
146.201
146.201
146.202
146.201
153.897
146.203
146.202
146.202
146.202
146.205
206.596
146.969
146.201
146.272
213.519
161.678
213.601
213.537
146.201
146.201
146.201
146.201
146.201
146.516
146.202
146.204
146.208
146.202
146.284
146.402
212.438
206.907
146.201
146.201
146.245
146.201
146.212
146.204
437.267
146.286
146.202
146.211
146.202
240.713
146.257
146.245
376.708
146.201
146.201
146.377
146.201
146.202
1366.35
146.211
146.212
146.207
480.56
146.204
146.201
146.201
146.201
146.202
146.201
146.203
146.201
146.201
146.201
146.202
146.205
173.064
146.201
164.358
146.201
146.392
146.238
146.201
146.273
146.201
146.202
146.531
146.202
146.201
146.202
146.255
146.204
146.202
146.201
147.208
146.202
146.202
146.202
146.201
146.201
238.247
146.201
146.201
146.244
146.201
146.202
152.14
146.214
146.201
146.215
146.201
146.201
146.201
146.202
146.201
146.201
146.201
146.201
146.201
146.224
146.201
146.202
146.201
146.201
146.202
146.201
146.201
146.201
146.211
146.201
146.213
146.205
146.201
146.201
146.201
168.005
146.201
146.202
146.203
146.201
146.201
436.577
146.203
146.201
146.201
146.202
146.201
146.201
146.205
146.201
146.216
146.201
146.201
146.21
146.201
146.32
146.201
146.201
148.517
146.202
146.205
146.202
146.231
146.201
146.216
146.202
146.201
146.201
146.202
146.201
146.201
146.201
146.201
146.201
146.201
146.201
146.201
146.23
146.201
314.329
146.227
146.201
5761.95
146.225
846.977
146.201
146.201
146.201
165.893
146.202
146.234
146.203
160.14
146.21
147.836
146.202
146.202
146.201
147.379
146.237
146.201
146.202
169.255
146.201
146.201
146.201
146.663
146.201
146.242
146.23
146.201
146.201
153.087
146.201
218.124
146.201
146.64
146.201
146.208
146.201
146.202
146.608
146.201
146.201
146.202
158.853
146.202
251.387
146.201
146.201
146.201
146.378
146.201
146.206
146.201
146.201
146.202
257.92
146.201
146.203
146.188
146.508
146.202
156.144
257.705
253.987
146.202
146.209
146.201
147.912
146.201
146.429
146.298
146.524
146.201
146.201
146.202
146.203
146.204
146.201
146.201
146.202
146.203
146.201
174.628
146.202
146.201
147.765
146.201
146.201
174.194
148.803
146.201
146.225
146.201
146.201
146.202
147.203
158.112
146.201
163.921
146.202
146.202
146.201
146.201
146.201
146.201
146.201
146.201
146.201
146.201
147.252
146.201
146.201
146.202
146.201
146.305
146.202
146.201
146.201
146.201
146.205
146.201
222.645
146.232
146.201
146.201
146.203
148.302
146.201
146.202
162.899
147.316
146.204
146.201
146.201
146.202
146.204
146.201
146.202
146.213
146.201
146.202
146.201
146.201
146.204
146.227
147.36
146.217
146.206
146.204
146.208
146.201
146.201
146.225
146.203
146.202
146.201
146.201
146.256
146.201
146.201
146.201
146.229
146.201
146.201
146.201
146.201
146.201
146.201
146.201
146.222
146.201
146.201
146.201
146.201
146.545
146.201
146.201
146.201
146.201
146.201
155.08
175.005
146.201
146.201
146.201
146.205
152.209
146.349
146.201
146.201
146.203
146.201
146.286
146.303
208.013
146.201
146.201
146.201
146.201
146.201
146.202
146.201
146.201
146.201
146.201
146.202
146.201
146.204
146.201
146.201
146.202
167.442
146.227
146.202
146.201
146.201
146.201
146.289
146.201
146.201
146.201
150.384
146.201
146.247
146.201
146.203
146.202
146.201
151.378
146.204
146.215
146.23
149.289
146.202
146.193
146.223
146.795
146.201
146.201
146.201
151.61
146.202
812.518
146.757
146.201
146.201
146.201
146.204
146.201
146.203
146.281
146.202
146.202
145.462
147.973
159.049
146.201
146.201
146.201
146.201
146.201
146.201
146.201
254.983
146.201
230.074
146.201
146.201
146.201
150.657
146.274
146.201
146.201
146.201
146.201
146.201
146.201
146.218
146.202
146.201
146.203
146.201
146.201
146.201
146.201
146.201
146.201
7477.6
146.202
146.201
146.201
146.201
146.201
146.201
146.201
146.201
146.201
146.201
146.201
146.201
146.201
146.201
146.201
146.201
146.201
146.201
146.201
146.201
254.702
146.21
146.206
146.216
146.201
146.201
146.202
146.201
146.201
146.201
146.202
146.201
146.201
146.792
146.201
146.202
146.202
146.202
146.201
146.201
158.374
146.31
146.201
146.201
146.201
146.204
146.201
146.201
146.209
146.201
146.201
146.201
146.201
146.201
146.417
146.202
146.201
146.21
146.201
146.201
146.201
146.209
146.228
146.202
146.201
146.201
146.213
146.201
154.473
146.201
146.202
146.202
150.123
146.266
146.201
146.205
146.201
146.227
146.212
146.202
146.201
146.201
146.201
146.201
146.201
146.201
146.205
159.298
146.203
146.201
146.201
146.206
146.201
146.201
146.201
146.201
146.201
728.391
146.395
146.202
146.201
146.213
146.201
148.753
146.203
146.201
146.201
146.213
146.201
218.861
146.204
148.794
156.949
146.201
146.201
146.202
146.201
146.201
247.784
146.201
146.201
146.201
146.21
146.201
146.201
146.207
146.201
146.202
146.213
146.201
146.202
146.201
153.274
146.201
146.201
146.201
146.203
146.201
146.203
146.21
146.201
146.205
146.201
146.201
146.201
146.203
146.331
146.201
147.875
146.204
146.5
147.876
146.201
146.201
146.202
146.201
146.204
146.204
146.204
146.203
146.204
146.201
146.204
146.203
146.202
146.202
146.201
146.205
146.201
146.201
146.201
146.202
146.201
146.201
146.201
146.045
146.201
146.201
146.201
146.201
146.201
146.201
146.201
146.203
176.974
146.201
258.93
146.202
146.201
146.25
146.201
146.188
146.201
146.201
146.777
146.201
146.201
146.201
146.201
146.201
146.207
146.201
146.202
146.201
146.214
146.202
146.201
146.201
146.201
146.201
146.201
146.201
146.201
146.201
146.201
146.201
146.201
146.203
146.201
146.204
146.203
146.201
146.202
146.201
146.201
146.201
146.201
146.201
146.205
146.203
198.998
146.201
146.275
146.202
146.201
146.201
146.201
146.201
146.201
146.205
146.207
146.201
146.201
146.201
146.202
146.201
146.201
146.201
186.514
156.085
146.203
146.201
146.203
146.201
146.201
146.202
146.201
146.247
146.201
146.201
146.201
146.202
184.578
146.219
146.203
146.203
148.086
146.201
146.198
146.257
146.201
146.201
146.202
146.266
146.202
146.201
146.202
146.241
146.202
146.203
146.202
146.202
146.212
146.201
146.201
146.203
146.201
146.201
146.201
146.201
146.407
146.201
146.201
174.485
146.201
146.222
146.201
146.222
146.201
146.201
146.206
146.203
146.201
149.195
146.203
146.201
146.214
146.201
146.201
146.201
146.218
146.266
146.201
146.202
146.201
158.017
146.217
146.204
146.21
161.018
146.201
1797.92
146.201
146.201
146.203
146.201
146.201
146.201
146.201
146.201
146.202
146.223
146.202
148.939
146.201
146.201
146.201
146.201
146.201
146.201
315.891
165.737
146.201
146.201
146.201
146.312
146.201
146.201
146.248
146.201
146.201
146.201
146.202
166.613
149.102
146.202
152.356
146.201
146.201
146.22
146.201
146.201
146.201
146.208
146.229
215.042
295.251
146.201
146.201
238.044
146.201
146.203
146.201
146.201
146.201
146.201
146.201
146.201
146.201
219.01
146.201
146.202
146.202
146.2
146.201
154.134
146.201
146.201
146.201
146.201
146.201
146.201
146.203
146.201
146.206
908.515
146.203
146.202
146.201
146.201
147.592
146.223
146.201
146.202
146.201
146.201
252.732
146.205
146.423
146.202
146.201
154.725
147.775
146.203
146.201
146.202
257.182
225.047
146.203
146.201
146.808
219.585
146.201
217.809
146.202
250.356
149.626
221.48
149.132
146.204
146.204
147.031
146.722
146.201
146.201
159.468
146.201
146.201
146.213
146.201
150.554
149.896
146.201
146.201
146.201
146.201
148.593
146.203
146.321
146.201
146.206
146.201
149.517
149.244
146.205
146.201
146.202
146.201
146.201
146.201
146.201
146.202
146.201
146.201
146.202
146.226
148.646
224.2
150.265
146.096
146.201
148.617
146.201
146.201
146.201
146.201
146.201
146.201
146.202
146.83
146.206
254.61
162.386
147.736
146.201
372.225
146.203
146.237
209.714
146.201
146.202
146.201
146.203
146.202
177.804
146.201
146.201
146.201
146.201
147.089
146.201
377.799
146.201
197.72
146.203
146.201
146.201
150.324
146.204
146.203
146.203
146.201
146.212
209.636
146.201
146.201
146.203
146.202
396.037
146.201
400.206
146.238
146.208
361.822
146.676
146.203
409.135
146.201
168.572
7669.28
146.183
1192.44
146.201
146.202
169.741
146.201
1199.75
146.155
146.205
146.201
146.202
153.775
146.201
146.201
146.202
146.201
146.201
146.201
146.202
146.201
411.124
297.942
146.202
308.557
146.202
146.201
146.202
146.204
146.279
146.202
146.202
146.208
150.047
293.567
147.92
146.201
146.549
146.201
146.201
146.201
77.1157
146.202
339.472
146.202
146.232
147.021
282.323
146.201
347.304
146.201
146.201
146.201
146.201
146.201
146.202
146.202
146.211
912.598
164.05
146.202
1208.58
146.211
146.273
146.201
266.094
146.286
2393.4
146.201
146.201
146.201
146.201
146.201
146.201
155.057
148.867
146.229
668.56
316.31
146.203
146.385
285.703
170.067
1037.17
146.201
237.702
146.203
146.201
146.201
146.212
146.205
146.201
146.201
146.201
146.202
146.201
415.529
484.119
317.451
146.213
146.201
4369.51
146.21
146.201
146.202
146.201
146.205
724.355
146.218
146.206
796.546
146.202
146.201
146.204
146.201
146.201
146.201
146.202
146.201
146.201
146.204
146.217
146.205
146.208
146.205
146.201
146.201
146.201
146.201
146.203
146.218
146.201
146.201
152.029
146.201
146.201
146.201
146.201
174.375
146.211
282.382
146.203
146.21
146.201
146.204
146.201
146.202
146.209
146.201
146.207
146.201
146.201
146.212
146.201
146.201
146.21
146.208
146.211
146.21
146.201
146.202
146.202
146.203
146.201
153.128
146.207
146.211
146.204
314.966
146.201
146.201
146.202
146.23
146.205
146.204
146.202
146.21
146.201
146.201
1393.13
146.207
146.202
146.205
146.202
146.228
152.609
146.201
146.203
146.201
146.209
146.201
146.203
146.206
146.201
146.243
146.201
146.209
146.21
146.201
146.201
146.208
146.201
146.201
146.201
146.201
146.207
146.201
146.21
148.61
146.201
146.201
148.557
146.201
146.201
146.202
146.201
146.201
146.201
146.201
310.807
312.079
146.68
146.201
146.201
146.205
146.201
177.824
148.036
146.201
146.201
146.202
146.201
146.218
146.201
146.201
146.201
146.201
146.201
146.23
166.753
146.202
146.201
220.139
146.201
146.274
146.201
146.202
146.201
146.203
146.204
146.201
146.201
146.201
146.21
146.208
146.201
146.201
146.205
146.201
146.219
146.204
146.201
146.207
146.201
146.207
146.201
146.201
146.201
146.201
146.201
146.205
377.108
146.201
146.201
146.208
146.201
152.044
146.201
146.201
209.132
146.412
150.298
146.206
146.201
146.276
146.223
146.201
146.216
146.201
146.343
146.21
146.201
196.241
146.207
532.404
296.164
146.213
146.201
146.201
146.201
146.619
146.206
160.959
148.972
146.201
149.278
146.201
146.324
146.207
146.206
146.201
146.212
236.566
146.201
262.584
146.201
146.201
146.201
146.211
146.204
146.202
146.201
146.201
146.201
152.387
146.202
146.683
146.201
146.201
263.927
146.262
146.201
146.201
153.027
146.201
146.201
146.202
146.211
146.221
146.203
146.201
161.157
398.061
148.539
146.219
146.202
2562.94
146.201
304.746
534.762
215.445
729.845
2507.33
595.613
3172.28
146.201
1920.2
146.212
146.22
146.201
205.707
3121.07
146.201
146.204
1676.82
146.201
411.903
146.201
146.38
146.203
146.775
146.206
146.212
146.201
146.201
146.201
146.201
162.619
146.201
146.203
413.237
146.201
146.201
146.201
146.201
146.201
146.201
146.202
146.201
146.213
146.201
1205.97
146.201
146.203
146.201
146.201
158.01
146.201
146.201
146.201
146.201
146.208
147.201
147.502
1074.96
146.203
146.201
146.201
146.201
146.202
146.202
146.201
146.201
146.21
146.203
146.466
146.201
146.201
146.201
146.228
146.722
146.201
146.934
146.201
146.162
146.436
146.649
157.58
146.201
146.211
147.583
146.256
146.201
146.202
146.202
146.201
146.202
146.201
146.202
146.202
146.201
146.201
146.201
146.201
147.54
146.201
158.123
146.201
146.202
146.201
146.201
146.202
216.241
160.939
146.222
146.201
146.201
217.12
146.576
146.201
164.879
144.124
146.201
146.206
158.192
147.128
146.655
146.201
146.213
150.59
146.201
144.678
146.202
146.201
146.201
146.201
146.201
146.201
146.201
146.201
146.201
146.635
146.201
146.201
146.202
146.201
146.202
146.202
146.201
146.201
146.204
146.203
146.201
146.202
146.201
146.201
149.305
146.201
146.201
146.008
146.238
146.201
146.201
146.201
146.201
146.201
146.282
146.176
146.273
146.518
146.222
146.203
174.414
146.202
146.201
146.221
146.202
146.201
146.207
146.201
146.213
146.201
146.201
146.201
249.011
146.202
176.182
146.202
146.201
179.512
146.202
146.201
146.345
146.201
146.237
169.667
146.202
146.202
166.026
146.202
146.202
146.202
177.561
146.201
146.201
168.343
146.203
146.202
146.201
146.201
166.2
146.201
146.202
146.333
146.201
146.201
146.201
146.202
172.144
146.201
146.202
146.201
146.201
147.361
146.201
146.203
146.201
146.201
146.201
146.201
146.225
146.201
146.201
146.201
146.202
146.201
146.201
146.808
146.201
146.204
178.979
146.201
146.253
146.202
146.201
146.201
146.201
146.201
146.201
146.202
146.2
146.202
146.201
146.201
146.201
146.202
180.484
146.201
146.201
242.785
146.201
146.201
146.202
146.201
146.589
261.554
146.201
146.201
177.55
184.414
222.456
146.201
146.201
146.201
146.201
146.202
146.201
146.201
146.201
146.201
146.208
146.201
146.201
146.201
261.422
305.022
146.322
268.309
221.268
146.201
146.202
146.201
146.201
146.201
147.141
146.202
146.201
181.196
268.387
146.201
146.201
253.073
146.203
250.511
146.201
146.203
146.201
146.204
147.904
146.201
148.97
146.201
146.201
149.796
146.201
146.201
148.841
149.815
146.201
146.201
149.276
146.201
146.202
149.826
146.202
146.202
146.201
146.202
148.113
146.202
214.009
146.201
146.201
146.204
146.201
146.204
146.768
146.201
146.201
146.201
147.662
146.202
146.201
146.201
146.201
146.216
146.201
147.27
152.986
146.201
146.202
149.883
159.96
146.201
146.219
262.867
146.201
146.393
146.202
152.424
146.201
148.541
146.201
146.201
146.201
146.201
489.017
146.232
146.235
147.995
237.352
146.201
146.201
146.241
146.201
146.201
146.201
161.054
146.201
147.261
146.201
146.214
147.838
146.255
146.201
146.401
406.044
146.201
146.235
150.992
146.203
175.838
146.372
205.186
146.202
157.084
146.246
212.841
153.482
146.202
208.869
401.735
146.201
146.211
213.192
146.202
146.215
146.2
184.047
146.208
146.201
149.162
146.201
146.202
370.369
146.201
151.27
146.201
146.252
146.269
591.227
146.201
146.201
146.201
148.187
146.206
146.229
146.201
149.078
151.561
146.871
146.201
347.481
205.044
258.916
229.05
647.568
146.201
146.203
146.201
146.202
146.201
146.201
146.201
146.201
146.201
146.201
146.201
201.356
146.201
146.201
146.201
146.208
146.205
146.201
336.684
146.201
146.201
146.202
146.201
146.201
146.201
146.201
146.201
146.235
146.202
158.185
146.201
146.202
191.294
146.439
146.201
147.018
146.202
146.201
146.201
171.497
146.201
146.201
146.201
146.201
146.201
146.201
146.201
146.201
146.201
146.201
146.207
426.95
146.201
185.466
146.201
146.461
146.214
146.201
146.201
146.234
146.201
146.419
146.201
146.931
146.282
146.201
146.201
146.369
146.437
146.201
301.422
146.201
146.201
146.345
150.468
146.201
146.202
146.238
146.205
146.201
176.098
146.339
503.499
146.212
146.201
146.201
146.408
190.197
146.201
146.201
146.201
146.201
146.201
146.201
146.201
219.104
146.414
146.201
146.559
146.214
146.221
146.201
348.218
481.819
146.201
368.452
421.75
146.201
240.712
146.206
146.201
146.201
146.201
166.196
370.198
146.201
146.201
146.201
146.201
146.201
148.764
286.288
161.065
146.202
146.201
146.202
146.211
146.201
146.201
146.201
146.211
146.247
146.201
146.274
146.201
146.241
290.794
148.52
146.202
149.093
146.218
327.569
146.201
146.201
185.534
146.201
146.201
146.201
146.201
146.203
146.202
146.201
146.203
146.201
146.202
146.213
146.201
146.32
146.201
146.201
148.983
146.201
146.201
146.201
146.237
146.204
146.443
146.201
146.201
146.201
146.201
177.1
146.202
860.27
146.201
146.201
146.294
154.545
147.973
189.23
146.201
1844.45
1899.74
410.906
2630.13
146.212
146.242
146.242
146.202
146.201
146.201
146.201
146.201
146.201
146.201
170.208
146.37
146.205
146.202
146.205
146.201
147.447
147.056
146.802
168.907
146.206
180.487
146.637
301.065
146.201
187.556
146.208
146.201
146.201
146.831
146.201
146.201
146.212
187.447
146.201
146.201
146.201
146.201
146.201
146.201
146.201
165.062
177.299
146.201
146.201
146.207
146.212
389.386
146.201
146.201
146.201
146.209
146.201
146.202
146.206
146.201
146.206
146.201
146.201
146.281
168.537
146.201
146.201
146.201
146.201
146.238
170.462
146.201
146.336
146.202
146.201
146.362
146.201
146.201
146.201
146.201
146.201
146.201
146.202
146.201
146.201
146.207
146.201
375.545
146.202
146.201
146.201
146.201
146.201
146.202
430.004
184.111
146.205
501.552
146.61
170.888
279.318
175.939
377.074
352.548
146.202
146.201
146.202
146.201
146.201
146.201
146.201
146.21
146.813
146.201
172.752
146.201
146.201
146.202
146.201
146.223
146.201
146.908
146.355
177.013
146.201
146.201
146.202
148.698
146.201
146.203
152.852
146.202
147.746
146.201
146.201
146.38
146.785
148.544
148.07
146.979
208.948
203.116
251.152
146.204
149.349
146.201
146.201
146.201
146.201
353.674
146.213
267.972
254.788
146.213
146.213
146.201
146.213
172.132
146.201
146.201
146.201
150.238
146.203
146.202
146.201
150.361
146.358
162.273
147.894
146.203
155.591
221.361
146.201
161.162
217.671
199.587
146.201
146.209
146.204
146.201
146.201
224.253
146.201
146.201
147.926
146.201
220.923
146.474
146.201
146.264
146.203
146.203
166.919
146.203
146.217
146.203
146.201
146.201
146.203
146.203
146.203
146.203
146.208
146.221
146.51
416.784
151.699
146.201
146.202
146.203
146.201
148.968
146.201
146.201
146.201
146.203
146.201
156.148
146.201
146.201
146.424
146.203
146.203
264.707
146.201
155.898
147.978
154.817
146.201
146.205
152.671
146.204
147.445
146.201
146.207
146.201
146.201
146.201
146.201
146.201
146.201
146.201
149.044
146.201
146.349
146.201
146.201
146.201
146.201
146.201
245.078
283.485
146.201
146.201
146.287
146.201
149.414
146.202
146.201
146.209
146.201
146.201
146.201
147.897
146.201
146.201
146.414
146.248
146.208
146.201
147.972
146.201
146.201
146.201
146.201
146.201
146.21
146.201
146.201
146.201
146.27
146.201
146.203
146.201
146.202
146.201
147.886
146.209
146.212
146.211
146.201
146.654
146.201
146.201
146.201
146.201
146.201
146.212
146.201
146.201
146.201
146.209
146.201
309.206
146.201
146.201
146.201
146.201
146.201
146.201
146.201
146.201
146.201
146.201
146.201
168.659
146.201
146.201
146.201
146.201
146.201
146.201
146.316
146.202
146.201
146.201
146.201
161.771
146.201
146.227
349.425
146.299
146.206
146.201
146.201
146.201
146.201
146.211
146.201
146.201
146.212
146.201
146.201
146.201
146.201
146.201
146.218
149.713
146.201
146.201
146.201
146.212
146.211
146.211
146.52
146.222
215.752
146.201
146.201
146.201
146.212
146.201
146.201
146.201
146.201
146.28
146.201
146.201
146.201
146.533
146.242
179.365
146.202
146.201
146.209
878.075
146.201
148.139
146.201
146.201
146.201
146.201
146.201
146.203
146.201
193.127
304.57
292.592
178.641
146.204
146.436
146.201
146.201
146.201
146.202
146.201
146.201
146.201
146.201
165.004
146.295
202.359
287.892
146.201
146.203
146.203
146.202
146.214
146.201
146.202
146.201
146.201
146.201
146.203
146.203
146.205
146.201
146.203
146.201
146.202
146.201
146.202
146.201
146.521
146.203
146.201
146.201
249.447
148.063
146.201
146.229
146.201
146.201
147.135
146.201
146.203
146.201
146.203
146.201
146.201
146.201
146.201
146.291
146.201
205.345
146.201
146.202
146.201
146.245
146.205
146.201
146.201
146.201
147.335
146.202
146.204
148.281
146.202
146.201
146.212
146.203
146.201
146.201
146.491
146.203
146.201
146.209
146.235
146.201
146.279
146.201
146.21
146.201
146.201
146.201
146.201
1151.89
146.201
3248.43
146.201
146.209
146.201
146.201
161.864
146.201
146.201
146.201
146.201
148.997
146.223
146.208
502.485
146.208
146.203
146.208
146.201
146.201
146.201
146.205
161.637
152.067
147.222
146.202
806.499
146.208
146.475
146.794
146.201
236.229
149.32
146.208
146.201
146.204
228.847
229.348
199.638
146.202
146.202
146.266
146.201
146.217
146.201
220.186
146.551
146.649
146.261
146.201
146.201
146.202
222.748
146.242
481.206
146.201
146.201
146.529
146.201
146.201
146.201
146.201
148.296
146.201
2401.61
255.419
146.201
146.201
146.236
146.312
231.003
151.947
146.948
146.322
146.201
146.201
146.206
146.201
146.201
146.202
146.201
146.211
146.478
146.204
146.201
146.226
247.974
146.201
146.201
147.074
146.201
146.209
251.556
146.201
146.201
146.201
146.204
177.386
146.206
146.201
146.208
146.201
146.206
275.138
146.202
149.093
146.201
146.201
146.201
146.208
146.201
151.197
146.205
146.201
151.997
146.201
146.201
146.204
146.201
148.922
146.201
146.207
147.253
146.201
146.201
146.215
1331.95
146.201
146.202
162.204
146.201
146.202
146.202
146.201
146.201
146.201
146.201
146.201
146.201
146.201
146.206
718.955
146.201
146.203
794.558
146.204
768.623
146.201
173.862
146.201
146.201
562.564
146.226
151.329
724.286
156.611
146.268
146.201
146.204
149.391
146.21
160.88
146.212
146.201
418.805
146.201
146.201
146.201
155.251
146.39
146.206
146.393
146.201
146.201
146.201
146.223
195.825
146.201
258.656
146.749
414.574
146.739
330.685
146.201
146.201
146.248
146.202
146.201
146.201
146.201
146.201
146.321
146.201
361.378
146.206
146.352
146.211
153.859
149.548
146.201
146.201
146.201
146.32
146.201
146.201
146.201
148.433
146.202
147.438
146.407
146.204
146.203
146.204
146.217
146.336
146.201
146.201
146.211
573.874
149.417
146.201
146.201
146.202
208.945
146.201
308.693
263.34
390.264
147.82
146.201
146.201
146.249
400.471
146.201
147.306
149.292
146.205
146.201
146.369
146.204
146.265
146.202
146.201
146.287
146.202
146.201
146.201
146.467
146.21
146.781
146.201
146.202
146.357
150.995
146.202
146.201
146.201
148.801
146.29
1222.33
152.889
146.202
146.215
146.211
146.205
146.202
146.206
146.201
146.201
146.201
172.37
146.201
146.207
146.201
146.216
146.201
146.201
146.201
146.201
146.208
146.215
146.201
146.22
146.245
146.202
146.201
146.202
146.201
146.22
163.573
146.201
146.201
146.337
146.201
146.201
146.201
146.201
146.201
150.06
146.201
155.781
146.201
146.201
146.201
149.834
146.201
146.201
146.229
146.201
146.275
146.201
146.201
146.327
146.201
216.467
146.239
152.919
146.201
146.201
146.201
146.201
146.201
146.202
146.216
148.508
147.264
146.201
146.201
146.201
146.201
146.201
146.201
146.201
146.201
146.201
146.201
146.201
146.201
146.178
193.489
146.206
146.202
146.236
146.201
146.201
184.709
146.201
159.258
146.211
146.203
146.201
146.201
146.201
146.201
146.201
146.201
146.313
146.215
146.201
146.201
146.201
146.218
146.201
146.201
146.201
146.201
146.201
146.112
146.341
146.086
146.201
146.201
146.467
146.485
145.762
146.201
146.202
146.201
146.373
146.201
154.019
146.202
146.203
146.527
146.203
146.225
146.381
268.93
201.113
146.201
1662.25
146.201
180.322
146.201
146.479
146.205
148.635
146.207
146.201
146.201
146.201
146.207
148.825
146.201
147.278
146.626
150.486
146.201
146.201
146.201
146.201
147.483
146.201
146.201
146.201
146.201
146.201
146.201
441.486
461.628
146.206
146.201
146.201
147.333
146.201
146.201
250.295
150.509
265.345
146.201
146.201
146.212
252.767
146.201
146.201
146.209
160.325
146.205
146.201
181.004
146.202
146.201
146.201
146.201
146.201
146.201
146.219
146.201
146.201
146.201
146.201
146.201
146.201
146.201
146.201
146.201
146.201
146.201
146.201
146.201
146.201
146.201
146.201
146.204
148.098
146.446
146.201
146.201
146.201
146.201
146.202
146.201
146.201
146.201
146.201
146.201
146.201
146.786
146.201
146.201
146.201
146.201
146.201
146.193
146.201
146.147
145.96
146.204
146.201
146.201
149.045
146.201
146.201
146.201
146.201
146.201
146.201
146.201
146.201
146.201
146.201
146.206
146.204
146.201
146.201
146.201
146.201
146.201
146.201
146.201
146.201
146.206
1496.98
146.201
1502.56
146.201
146.201
1289.87
1674.66
146.201
146.347
146.202
146.201
146.201
146.201
146.201
146.201
1442.86
146.201
1584.2
146.201
146.201
146.201
151.136
152.478
149.338
146.201
146.201
146.201
146.201
146.201
146.201
146.201
146.201
146.201
146.201
150.538
146.201
146.201
146.201
146.201
146.201
146.201
146.201
146.21
158.4
148.919
146.201
146.201
146.201
146.201
146.201
146.201
146.201
146.201
215.277
146.201
146.201
146.201
146.207
146.201
146.202
146.201
146.201
146.201
146.201
146.203
149.032
146.212
146.226
146.201
146.202
146.208
146.201
146.201
146.201
146.201