/*--------------------------------*- C++ -*----------------------------------*\
| =========                 |                                                 |
| \\      /  F ield         | OpenFOAM: The Open Source CFD Toolbox           |
|  \\    /   O peration     | Version:  v2012                                 |
|   \\  /    A nd           | Website:  www.openfoam.com                      |
|    \\/     M anipulation  |                                                 |
\*---------------------------------------------------------------------------*/
FoamFile
{
    version     2.0;
    format      ascii;
    class       volScalarField;
    location    "1.5";
    object      ILambda_9_0;
}
// * * * * * * * * * * * * * * * * * * * * * * * * * * * * * * * * * * * * * //

dimensions      [1 0 -3 0 0 0 0];


internalField   nonuniform List<scalar> 
108993
(
146.201
146.365
146.201
146.201
146.201
146.201
146.227
146.201
146.201
146.201
146.201
146.201
146.201
146.201
146.201
146.202
146.201
146.201
146.201
147.424
146.201
146.201
146.203
146.201
146.201
146.202
146.201
147.079
146.952
146.201
146.201
146.201
146.201
146.201
146.201
146.201
146.201
146.201
146.212
147.529
146.416
146.201
146.201
146.201
146.202
146.204
146.201
146.214
146.267
146.304
146.201
146.202
146.39
146.201
146.201
146.201
146.201
146.201
146.201
146.201
146.201
146.201
146.201
146.201
146.201
146.209
146.201
146.201
146.201
146.202
146.201
146.201
146.201
146.201
146.22
146.201
146.201
146.201
146.201
146.201
146.201
146.201
146.201
146.201
146.201
146.201
146.201
146.201
146.201
146.201
146.201
146.201
146.201
146.201
146.201
146.201
146.201
146.201
146.201
146.201
146.201
146.201
146.201
146.201
146.201
146.201
146.201
146.201
146.201
147.304
146.202
146.201
146.205
146.203
146.201
497.211
146.201
146.201
146.201
146.201
146.201
146.201
146.203
146.201
146.201
146.202
146.415
146.201
146.201
146.201
146.201
146.201
146.201
147.199
146.201
146.201
146.201
146.201
146.201
146.201
146.201
146.201
146.202
146.201
146.201
146.201
146.201
146.211
146.201
1392
1430.4
146.202
146.201
2916.72
146.201
146.211
146.201
146.201
146.201
146.202
2815.36
146.201
146.201
146.201
146.201
146.207
146.201
146.201
146.201
146.201
146.201
146.201
146.202
146.201
147.534
146.208
146.608
146.201
146.201
146.201
146.201
146.201
146.201
146.201
146.201
146.201
146.201
146.201
146.201
146.201
146.201
146.201
146.201
146.481
146.201
146.201
146.455
146.201
146.201
146.201
146.201
146.448
146.201
146.201
146.207
146.205
146.201
152.648
146.201
310.798
146.203
146.201
146.541
155.682
146.215
146.201
146.201
146.201
146.201
146.201
146.304
902.051
146.201
146.664
146.201
146.201
146.201
146.201
146.216
146.201
146.278
146.201
146.201
146.394
146.201
146.201
146.201
146.201
146.204
146.201
146.201
146.201
146.201
146.201
146.201
146.202
161.961
146.209
146.201
146.201
146.201
146.201
146.201
146.201
146.201
146.201
146.201
146.201
146.201
146.201
146.201
146.217
146.201
146.202
146.201
146.201
146.201
146.406
146.201
146.201
146.201
146.201
146.231
146.334
146.226
146.201
146.201
146.336
146.201
146.33
146.35
146.205
146.204
146.201
146.201
146.201
146.201
146.626
146.201
146.21
146.201
146.201
146.839
146.201
146.201
146.201
146.201
146.201
146.202
146.201
146.204
146.339
146.201
146.201
146.201
146.209
146.208
146.201
146.209
146.259
146.201
146.201
146.201
146.201
146.214
153.61
146.201
146.201
146.211
146.201
147.187
146.201
146.45
146.492
146.201
631.569
146.153
146.48
146.201
146.201
146.201
146.97
147.306
146.201
146.225
146.201
146.201
146.201
146.201
146.201
146.201
147.73
147.166
146.201
146.201
146.201
146.201
146.201
146.201
146.201
146.201
146.201
146.204
146.374
146.256
146.201
146.201
150.376
146.201
146.201
146.201
147.072
146.201
146.201
146.228
147.572
146.201
146.201
146.201
445.145
146.202
146.201
146.201
3920.93
147.229
146.339
146.201
146.201
146.217
146.201
146.219
146.227
147.693
146.202
146.201
146.203
146.201
146.269
146.214
146.438
146.219
146.202
146.22
146.201
146.207
147.081
1424.44
146.201
146.202
146.201
147.129
146.228
146.205
146.201
146.221
146.202
146.203
146.201
146.201
146.903
146.201
146.208
146.233
146.201
146.201
146.201
2399.5
146.202
174.794
146.201
147.784
146.809
154.962
146.201
146.201
147.134
146.201
398.572
148.838
146.201
1595.55
146.206
181.584
146.201
146.201
146.201
146.208
146.243
146.201
146.201
146.201
146.201
146.201
146.576
146.202
147.58
147.822
146.202
146.201
146.578
146.201
146.201
146.201
146.201
146.201
146.201
146.201
146.541
146.201
146.201
146.202
146.201
146.203
905.59
146.202
146.201
146.202
146.203
146.201
146.201
146.202
146.201
146.201
146.202
146.201
146.202
146.201
146.204
150.753
146.202
146.201
146.201
146.201
146.201
146.201
146.201
146.201
146.201
146.203
146.201
146.201
146.201
146.202
146.201
146.202
146.201
146.201
146.201
146.201
146.417
146.201
146.201
146.201
146.201
146.202
157.223
146.201
146.201
146.291
146.201
146.201
146.801
146.201
146.201
146.201
146.201
146.201
146.201
146.264
146.299
146.21
146.209
147.132
146.246
146.484
146.202
146.209
146.201
146.202
146.242
146.838
146.201
146.202
146.201
146.201
146.201
146.207
146.201
146.201
146.249
146.201
146.215
146.201
146.201
146.201
146.201
146.201
146.202
146.201
146.201
146.203
146.866
146.205
146.201
146.201
146.201
146.201
147.147
1575.27
146.444
146.201
146.201
146.201
146.406
146.203
146.208
146.201
146.201
146.682
146.443
146.201
146.205
1467.4
146.203
226.723
146.363
146.201
146.203
147.388
146.232
146.201
146.201
146.201
146.201
146.201
146.202
146.204
146.203
146.201
146.201
146.534
146.201
146.271
146.201
145.366
146.201
146.201
146.201
146.202
146.202
146.201
146.201
144.24
146.201
146.201
146.201
145.512
146.201
146.201
146.201
146.307
146.201
146.202
146.201
146.67
146.201
146.201
146.201
554.44
146.201
146.204
146.201
146.201
152.927
146.37
146.201
146.201
146.338
146.204
146.202
222.073
146.323
150.27
262.575
146.202
146.201
146.201
151.451
146.202
146.203
146.201
146.203
146.201
146.229
146.201
146.202
146.201
146.204
146.202
146.201
146.201
146.202
197.477
146.249
146.202
146.263
146.202
146.21
146.202
146.224
146.212
146.203
146.201
146.201
146.201
146.208
146.202
146.202
213.836
150.572
146.202
146.244
146.203
146.242
146.254
146.201
146.48
146.202
146.211
146.216
146.274
146.203
146.202
146.201
146.211
146.202
146.202
146.202
146.202
1164.91
146.201
146.201
146.203
146.201
146.444
146.895
146.202
146.224
146.202
146.428
146.206
146.201
146.201
146.201
146.202
146.201
146.202
146.272
146.201
146.201
146.365
146.219
146.211
146.201
148.808
146.201
146.206
146.202
146.201
146.203
146.256
146.201
146.211
146.202
146.201
146.202
146.368
146.202
146.436
146.201
146.203
146.201
146.202
146.202
146.201
146.201
146.204
146.201
146.201
146.253
146.201
146.202
146.211
146.225
146.201
146.312
146.201
146.201
146.201
146.201
146.201
146.201
146.201
146.201
146.201
146.592
146.201
146.202
146.202
146.203
146.201
146.201
146.201
146.201
146.201
146.554
146.281
146.211
146.201
146.201
146.201
146.224
146.201
161.073
147.076
146.201
146.201
486.001
146.205
146.201
146.201
146.202
146.201
146.201
146.354
146.209
146.781
146.201
146.201
146.201
146.201
146.208
146.201
146.201
146.348
146.202
146.448
146.213
146.255
146.201
147.02
146.202
146.201
146.201
146.202
146.201
146.201
146.201
146.201
146.201
146.201
146.457
146.201
146.201
146.201
146.208
146.222
146.201
10425.3
146.221
7450.28
146.201
146.201
146.201
146.339
147.364
146.214
146.201
146.204
146.306
146.203
148.835
146.201
146.201
146.202
146.223
146.201
146.201
146.325
146.201
146.201
146.201
146.211
146.201
146.213
146.201
146.201
146.201
156.575
146.201
156.02
146.201
156.609
146.201
146.844
146.202
146.202
146.204
146.201
146.202
146.202
146.202
146.292
146.205
146.201
146.201
146.201
146.202
146.201
146.202
146.201
146.201
146.202
146.204
146.201
146.201
146.202
146.203
146.461
146.203
146.206
146.206
146.231
146.203
146.205
149.332
146.201
147.936
146.206
146.341
146.201
146.201
146.201
146.202
146.206
146.203
146.201
146.202
146.205
146.201
146.202
147.816
146.265
148.302
146.201
146.201
160.71
146.479
146.214
146.263
146.201
146.201
146.202
146.212
261.867
146.201
199.056
146.201
146.202
146.285
146.201
146.201
146.202
146.742
146.201
146.201
146.204
146.213
146.519
146.201
146.202
146.201
146.202
146.202
146.201
146.202
146.201
146.25
146.201
146.943
146.239
146.201
146.201
146.204
146.205
146.201
146.201
1079.21
146.204
151.959
146.206
146.201
146.373
146.229
146.201
146.201
146.226
146.202
146.201
146.201
146.205
146.203
146.297
146.203
146.202
146.202
146.201
146.202
146.326
146.598
146.202
239.993
146.201
146.201
146.748
146.202
146.201
146.201
146.201
146.202
146.201
146.201
146.201
146.772
146.201
146.201
146.302
146.21
146.201
146.201
146.201
146.201
146.617
146.201
146.201
146.876
146.201
146.821
160.561
146.202
146.222
146.201
146.201
146.204
146.202
146.206
146.232
146.201
362.046
146.201
146.267
146.202
146.203
146.201
146.201
146.201
146.201
146.201
146.466
146.201
146.201
146.201
146.201
250.693
146.201
146.364
146.201
146.201
146.247
146.202
146.205
146.208
146.201
146.201
146.311
146.219
146.201
146.201
146.201
146.237
146.201
146.463
146.201
146.201
146.202
146.201
146.204
146.203
146.202
146.263
153.288
146.202
146.202
146.729
146.204
146.398
146.201
146.201
146.203
146.201
819.083
146.202
146.202
146.201
146.334
146.201
146.201
146.201
146.207
146.201
146.201
146.202
146.202
146.202
146.201
146.201
146.201
146.201
146.201
146.201
146.201
146.275
146.79
146.336
146.201
146.201
146.201
146.202
146.209
146.201
146.201
146.201
146.201
146.201
146.201
2275.08
146.202
146.201
182.987
146.297
146.201
146.201
146.201
146.201
146.331
7397.17
146.202
146.201
146.201
146.201
146.201
146.201
146.201
146.201
146.201
146.201
146.201
146.201
146.201
146.201
146.201
146.203
146.201
146.201
146.201
146.201
146.202
146.204
146.203
146.214
146.201
146.201
146.202
146.201
146.201
146.201
146.463
146.201
146.201
146.202
146.201
146.242
146.48
146.506
146.201
146.201
157.017
146.921
146.201
146.201
146.201
146.252
146.202
146.201
153.513
146.201
146.201
146.201
146.201
146.201
146.202
146.201
146.326
154.003
147.131
146.552
146.468
146.214
146.315
146.201
146.201
146.214
825.658
146.201
146.203
146.202
146.202
146.202
385.359
146.365
146.201
146.201
146.201
146.202
146.201
146.203
146.201
146.201
146.201
146.201
146.201
146.201
282.734
150.863
146.201
146.201
146.201
146.201
146.606
146.201
146.611
146.201
146.566
565.734
146.201
229.852
146.201
146.202
146.201
146.202
147.888
146.215
146.209
146.201
146.201
146.203
146.201
146.202
146.739
146.201
146.201
146.201
146.201
146.201
266.564
146.201
146.201
146.201
146.214
146.201
146.201
147.149
146.201
146.816
196.348
146.201
146.227
146.201
146.202
146.201
146.201
146.201
146.268
146.201
146.354
146.202
146.201
254.622
146.201
146.208
146.201
146.219
146.7
146.201
146.202
146.202
157.443
146.202
146.201
146.201
146.202
146.201
220.04
217.418
226.928
153.328
226.329
146.201
218.141
219.653
146.203
146.203
146.202
146.202
146.201
146.201
146.201
146.204
146.201
146.203
146.203
146.202
146.201
146.201
146.203
146.201
146.209
146.204
146.201
146.206
148.784
146.21
146.213
146.206
146.275
146.231
146.47
146.202
146.201
146.579
146.208
146.215
146.201
146.201
146.202
146.201
299.095
146.201
146.202
146.201
146.202
146.202
146.201
146.201
146.852
146.201
146.201
146.201
146.201
146.201
146.876
146.201
146.308
219.571
146.201
161.192
147.025
146.201
146.217
146.201
146.911
146.926
146.201
146.201
146.259
146.213
146.202
146.201
163.603
146.212
146.201
146.201
146.201
146.201
146.201
146.254
1086.77
146.201
146.201
146.203
146.201
146.909
146.201
146.201
146.207
146.293
146.201
146.201
149.507
147.048
146.297
146.202
146.201
146.214
146.201
146.411
146.201
146.201
152.728
146.202
146.201
146.208
146.309
146.303
146.202
456.388
146.259
146.201
146.201
146.208
146.202
146.201
146.201
146.202
146.202
147.005
146.201
146.201
146.226
146.201
146.207
146.846
146.201
146.201
146.201
146.201
146.227
146.201
146.201
149.635
146.201
146.207
146.201
149.586
146.201
146.201
146.948
146.201
146.201
146.204
146.201
146.309
146.203
146.201
146.215
146.201
146.215
146.202
146.201
146.202
146.201
146.202
146.225
304.468
146.201
155.769
146.201
147.632
146.201
146.201
146.361
146.201
146.201
146.201
146.201
146.526
156.388
776.516
146.207
146.203
146.609
146.201
146.204
146.559
146.631
146.201
146.487
146.202
146.203
146.201
146.201
146.202
146.201
146.201
146.207
146.201
146.201
146.201
146.202
146.208
146.204
147.018
2094.29
146.201
146.201
767.162
146.201
146.201
146.219
146.964
146.803
146.202
146.493
146.201
146.201
146.237
146.201
146.201
146.201
146.201
146.222
146.201
146.201
146.201
146.201
149.389
146.202
146.201
146.203
146.202
146.201
146.206
146.201
146.201
146.201
146.201
146.201
146.201
146.283
146.201
146.202
146.202
146.376
148.474
146.4
146.201
146.205
359.85
146.201
146.202
146.201
146.201
146.203
176.744
146.206
146.248
146.201
201.931
146.205
555.541
146.201
146.374
146.203
146.203
146.45
146.202
146.205
146.203
146.211
146.203
146.205
146.203
146.202
146.207
146.202
146.205
366.725
146.209
146.205
146.201
146.201
146.208
146.201
146.204
186.127
146.201
179.362
146.202
146.201
146.201
146.201
146.201
146.202
146.211
162.464
147.366
146.233
146.201
148.859
146.202
146.212
146.201
146.229
146.201
146.201
146.828
146.201
146.207
146.201
146.201
146.202
146.351
146.202
146.202
146.205
146.202
146.638
146.205
146.201
146.201
146.498
146.201
146.201
146.201
146.456
147.173
146.207
146.411
147.889
146.202
146.201
146.204
152.553
146.593
154.287
146.227
146.201
146.201
165.343
146.225
146.203
146.201
146.201
146.201
146.201
521.636
146.201
146.204
146.201
174.876
149.276
146.201
146.399
154.289
149.315
180.32
152.074
146.201
760.851
146.214
146.201
146.205
146.86
146.202
146.204
146.201
146.204
4612.98
148.506
146.204
154.632
146.204
146.204
146.201
146.209
486.38
146.202
146.209
146.201
146.201
146.202
146.201
146.291
146.202
146.202
146.868
146.27
146.209
147.076
146.573
146.217
146.202
146.201
146.201
146.688
146.201
146.206
147.983
146.202
155.699
146.201
146.201
146.202
173.026
148.078
146.202
146.202
146.227
2064.1
146.251
147.378
146.201
146.557
146.238
146.201
146.201
484.807
146.202
146.202
146.202
146.212
148.875
146.226
146.202
146.204
146.202
146.573
146.201
146.201
146.201
146.202
146.202
153.206
147.846
146.208
146.202
146.227
146.217
402.671
146.201
146.21
326.944
1113.25
146.822
146.201
146.201
146.201
146.201
146.203
146.202
146.202
146.218
146.206
146.204
146.202
146.648
146.218
146.206
146.202
146.201
5510.84
215.362
146.201
146.201
3492.11
737.054
146.201
146.201
146.201
146.207
146.201
908.917
1312.22
462.868
3488.86
146.201
148.411
146.208
146.201
146.202
146.201
146.201
146.239
146.202
146.201
3643.77
146.207
146.201
146.201
146.201
146.201
146.205
146.389
146.201
146.699
148.246
146.95
151.482
146.215
146.297
146.445
146.201
146.201
146.201
935.73
146.219
146.201
146.201
146.204
146.201
146.201
146.201
146.201
146.21
146.21
146.204
593.663
308.51
146.201
146.331
146.201
146.343
146.212
146.201
146.211
146.201
146.201
146.216
146.201
146.242
146.21
146.212
146.211
146.21
146.202
149.347
146.203
256.46
146.208
146.202
146.212
146.211
146.961
146.508
146.201
146.201
153.05
146.27
146.219
155.422
146.25
146.21
146.204
146.201
151.784
146.213
146.511
321.567
151.383
150.989
146.571
146.201
354.322
146.29
146.213
146.201
295.239
421.286
146.201
147.147
146.201
146.209
146.211
146.202
146.201
146.214
146.201
146.201
146.201
146.201
146.208
146.333
146.211
146.204
146.201
146.201
168.895
146.208
146.201
146.202
146.201
146.201
146.213
146.201
146.204
146.204
146.469
146.201
146.207
146.524
146.201
146.202
159.767
146.201
146.201
146.208
146.347
181.981
146.201
146.202
146.201
146.201
146.201
146.247
149.514
146.205
146.379
155.236
146.334
146.202
146.201
146.257
146.204
154.027
235.025
146.201
146.201
146.202
146.202
152.739
146.201
146.504
146.201
146.201
146.202
146.201
146.201
146.293
146.201
146.291
146.201
146.201
146.229
146.203
146.201
146.258
146.202
146.201
146.201
425.45
146.201
146.202
146.201
146.201
146.204
146.273
146.203
146.378
146.201
146.201
146.23
146.201
146.211
146.201
146.218
153.045
146.201
223.612
146.214
146.219
146.205
291.449
146.248
146.201
146.207
146.202
146.201
146.202
149.122
146.201
146.202
146.201
146.202
146.212
146.336
146.201
146.202
146.203
146.201
146.211
146.201
146.201
146.202
146.21
164.931
148.001
146.201
146.218
146.201
146.771
146.225
146.209
146.201
146.201
146.211
316.042
146.201
146.201
146.204
146.201
146.201
146.206
146.21
146.202
146.204
146.201
146.204
146.717
146.203
578.151
146.205
309.019
147.678
146.204
146.248
150.146
196.205
398.51
738.066
198.125
146.201
220.158
152.986
399.765
146.201
2792.23
147.099
146.201
146.227
149.203
146.201
148.474
146.201
146.207
635.696
155.818
156.889
146.226
146.201
146.201
146.235
146.201
146.218
146.202
146.401
146.203
146.489
146.519
146.51
146.201
146.201
146.201
146.984
146.205
146.209
146.201
146.202
146.522
146.629
146.201
146.201
146.217
146.512
146.52
146.201
146.201
146.202
146.211
146.21
146.208
146.565
146.295
146.246
146.202
146.204
146.202
146.364
146.201
146.204
146.202
146.21
146.264
146.372
146.451
146.205
146.202
146.589
146.207
146.201
146.202
146.213
146.202
1122.08
147.352
146.202
146.211
1920.55
146.201
146.204
146.204
146.242
146.204
146.203
146.663
146.202
146.431
146.38
146.201
146.201
240.242
146.201
146.202
146.357
146.203
146.201
146.201
146.202
146.202
146.203
146.221
146.204
146.201
146.205
146.959
146.301
146.214
147.272
146.201
146.202
146.202
146.202
160.16
146.306
146.208
146.203
146.201
155.411
146.201
146.202
146.201
146.201
146.201
146.203
146.201
146.201
146.204
146.203
146.258
146.203
146.202
146.207
146.202
165.796
146.201
146.202
146.208
146.21
146.201
146.202
146.206
146.204
146.207
146.219
146.201
146.202
146.209
146.201
146.201
146.201
146.201
146.201
146.202
146.202
146.266
146.203
146.227
146.202
146.202
146.202
146.496
146.231
146.202
146.201
146.209
146.202
146.252
146.201
146.202
146.204
146.203
146.435
146.203
146.612
146.435
146.203
151.737
146.201
146.202
146.201
146.202
146.203
146.202
148.095
146.202
146.845
146.202
147.261
146.202
146.201
146.201
146.204
146.201
146.201
146.201
146.201
146.203
146.21
146.202
146.202
146.201
146.201
146.247
146.201
146.202
146.201
146.202
146.201
146.201
146.203
146.201
146.208
146.201
146.201
146.201
146.201
146.202
146.201
146.201
146.201
146.202
146.201
146.201
153.622
146.201
146.201
196.202
146.201
146.23
146.201
146.201
146.201
146.465
146.201
146.201
146.202
146.202
146.202
146.201
146.201
146.201
146.202
146.202
146.201
146.201
146.202
146.201
146.201
146.202
146.201
146.202
146.203
146.202
146.201
146.202
146.894
146.205
146.201
146.201
146.201
146.201
146.202
146.227
146.201
146.201
146.201
146.211
146.201
146.201
146.201
146.205
146.203
146.202
146.205
146.203
146.201
147.546
146.201
146.31
146.206
1459.23
146.203
146.201
146.204
146.205
146.201
146.201
146.205
146.203
146.207
146.201
146.201
146.201
146.273
148.838
146.201
149.05
146.201
146.201
148.019
146.201
146.201
146.224
148.007
146.201
146.202
148.537
146.201
146.202
148.91
146.202
146.201
147.064
146.203
147.499
146.202
147.526
146.201
146.201
146.203
146.226
146.203
146.202
146.201
146.201
146.608
146.202
146.272
146.276
146.322
146.201
146.201
146.249
146.202
148.895
146.329
146.202
146.202
149.274
146.201
146.206
146.298
146.201
146.202
146.202
146.204
146.201
146.202
146.201
146.201
146.201
146.201
146.203
146.202
146.202
152.632
146.204
146.201
146.201
146.202
146.201
146.201
146.209
146.202
146.201
146.202
146.201
146.207
148.731
146.202
146.204
146.432
146.202
147.037
146.202
147.085
146.202
146.202
146.202
146.203
146.202
146.213
146.244
146.202
146.202
146.202
146.202
146.203
146.201
146.208
146.202
146.201
146.221
146.202
146.607
146.212
146.209
146.205
146.424
146.233
146.202
146.231
146.205
146.201
4567.81
146.303
146.292
146.203
146.201
146.201
146.205
146.201
4107.6
146.201
146.205
146.205
146.207
146.201
812.817
146.203
146.202
148.799
146.202
146.201
146.202
146.201
146.201
146.312
146.201
146.201
146.445
146.201
146.201
146.201
146.217
146.201
146.201
146.201
146.208
146.203
146.202
146.204
146.201
146.201
146.202
146.201
146.201
146.201
146.201
146.201
146.202
146.201
146.211
146.201
146.893
146.203
146.205
146.201
146.202
146.369
146.201
146.201
146.218
146.201
146.201
146.201
146.201
146.201
146.201
146.201
146.201
146.201
146.201
146.202
153.721
146.201
146.202
146.201
146.203
146.204
146.201
146.201
146.316
146.201
146.202
146.201
146.203
146.203
146.201
146.201
146.204
146.228
146.258
146.203
146.201
146.542
146.202
146.203
146.201
146.688
146.201
146.437
146.201
146.204
146.202
146.202
153.085
146.694
147.821
146.202
146.306
146.201
146.201
146.201
146.201
146.201
146.201
146.201
146.203
146.202
146.201
146.208
146.529
146.25
146.201
146.204
146.202
146.569
146.204
146.262
146.201
146.203
266.181
146.227
147.975
146.21
146.203
146.204
146.202
146.202
146.996
146.201
146.202
146.228
146.202
146.204
146.201
146.21
146.207
146.368
146.202
146.54
146.223
146.265
146.326
146.201
146.225
146.313
146.33
146.204
150.188
146.218
146.203
146.201
146.202
146.201
146.201
146.204
146.201
146.201
146.201
146.201
146.201
146.201
146.201
146.201
146.201
146.281
146.261
146.201
147.472
150.085
146.201
146.206
146.201
146.201
146.201
146.233
146.207
146.204
146.201
146.201
146.201
146.624
146.202
146.201
169.52
146.202
146.201
146.206
146.759
146.209
146.202
146.201
186.152
198.976
146.203
499.776
166.543
146.221
179.713
233.529
146.233
146.201
146.226
146.201
146.201
146.201
146.887
146.488
761.858
146.233
149.869
146.201
146.202
146.202
147.725
146.202
152.201
146.202
803.694
146.484
146.201
146.202
624.645
146.201
146.201
146.204
146.201
146.201
147.195
146.518
146.201
146.201
146.338
146.686
146.201
146.201
146.201
146.202
146.205
146.201
146.201
146.201
391.301
146.202
146.201
146.201
146.201
162.771
146.201
146.48
146.33
146.201
146.334
146.201
146.201
149.303
146.202
146.201
146.201
146.201
146.201
146.23
146.202
146.201
146.263
146.277
146.201
146.205
146.201
146.201
146.201
146.201
146.201
146.201
146.201
146.201
146.201
146.21
146.201
2090.8
146.201
146.201
146.201
146.201
146.201
146.201
146.202
3258.84
147.023
2635.51
146.202
146.202
146.202
4556.85
2485.22
146.202
201.595
146.201
146.201
146.201
146.201
146.201
146.201
146.219
887.736
146.201
146.392
146.211
146.514
146.201
146.201
146.209
146.204
146.205
146.204
146.203
146.43
146.201
146.298
146.202
146.201
146.201
152.051
146.201
152.681
146.201
146.201
146.253
153.152
148.482
151.579
152.38
147.377
146.203
146.208
146.458
162.22
146.201
147.237
146.201
146.203
146.203
146.243
146.203
146.204
146.242
146.22
146.201
146.251
146.302
146.201
146.201
146.201
153.17
147.311
146.202
146.201
157.378
154.389
146.204
146.204
146.37
146.202
146.207
146.201
146.202
146.211
146.203
146.201
146.362
146.204
146.201
146.201
146.209
146.233
146.201
2038.51
146.675
146.21
1982.66
147.096
146.209
146.216
146.33
146.202
146.348
146.216
148.276
146.219
146.201
146.743
146.201
146.407
146.232
146.201
146.208
146.202
146.203
146.204
146.201
146.299
146.206
146.201
146.204
146.201
146.201
146.201
146.206
146.344
146.202
146.202
146.201
146.207
146.215
146.219
146.203
146.201
146.279
146.204
147.488
146.201
146.227
146.221
566.885
146.204
146.201
149.919
146.201
146.201
146.201
146.201
146.218
146.396
146.203
146.204
146.407
146.233
146.201
146.201
146.201
146.201
146.201
146.203
146.203
146.201
146.201
153.37
146.993
146.204
146.201
146.201
149.422
146.201
146.201
146.201
146.204
146.337
146.201
146.202
146.232
146.261
146.201
146.206
146.201
146.201
146.201
146.201
146.201
146.279
146.201
146.523
146.201
146.248
146.201
299.253
146.201
146.201
146.399
146.204
146.244
146.254
146.267
146.267
146.207
146.223
146.201
146.201
146.201
146.201
146.206
146.201
146.201
146.201
146.256
146.201
146.203
146.201
146.201
146.997
146.201
146.201
146.201
146.201
146.201
146.201
146.201
146.201
146.21
146.201
146.201
146.201
146.201
146.201
146.201
146.237
146.201
146.201
146.201
146.201
146.218
146.201
146.266
146.204
146.202
146.206
146.201
146.201
146.201
146.775
146.211
146.201
146.201
146.21
146.201
146.201
146.201
146.201
146.211
146.258
146.269
146.201
146.201
146.201
146.21
146.21
146.21
146.238
1671.06
147.58
146.294
146.201
146.544
146.21
146.201
146.633
146.201
146.808
146.347
146.201
146.201
146.213
146.217
146.446
146.217
261.535
146.506
194.176
146.204
146.448
146.202
146.22
146.201
146.529
146.215
146.206
146.202
146.465
148.628
146.203
146.45
225.758
172.513
146.29
146.474
146.295
147.16
146.202
146.476
146.226
146.235
146.568
1111.6
146.358
146.203
146.202
146.204
165.207
156.858
259.521
146.487
146.235
146.23
146.201
146.229
146.201
146.399
149.13
188.566
146.201
174.736
146.201
146.202
146.201
146.202
146.201
148.356
147.818
146.201
146.201
146.202
146.272
146.201
200.167
146.256
146.201
146.317
146.201
146.231
146.26
148.244
146.204
146.201
146.205
146.201
146.34
146.208
146.204
146.201
146.201
146.204
146.254
146.216
146.201
146.206
146.201
149.501
146.206
940.419
1015.44
218.29
146.201
146.21
449.803
146.204
146.468
150.275
146.203
146.201
155.095
174.09
146.229
146.229
146.201
153.55
146.201
146.201
146.201
146.852
681.96
146.883
147.496
146.96
146.203
146.937
146.344
146.203
146.918
146.202
146.201
146.205
146.211
146.271
167.95
146.203
170.879
146.224
163.211
146.311
146.201
146.201
146.25
168.27
147.956
146.202
146.75
146.202
164.058
146.28
191.614
146.201
146.207
146.478
170.315
146.201
146.429
146.472
146.999
146.439
164.376
180.946
151.518
146.214
147.05
146.228
146.426
146.204
148.054
161.962
146.212
146.242
149.952
146.677
146.33
146.202
146.201
146.201
152.034
146.201
146.202
147.378
146.201
146.204
146.201
146.313
146.202
146.201
146.218
156.695
146.294
146.204
165.217
257.087
146.322
146.201
146.202
146.229
146.201
146.201
146.201
146.209
146.343
162.673
146.211
146.201
480.028
146.209
146.201
146.206
146.824
146.259
146.423
146.206
146.201
146.201
146.201
146.218
146.215
156.321
146.202
146.877
146.201
171.741
146.785
147.002
146.206
146.201
146.201
146.201
146.201
146.201
2109.32
146.211
146.201
147.59
146.201
146.201
250.946
146.201
146.227
146.201
146.213
146.064
146.201
146.201
146.202
1313.98
146.201
146.203
146.211
146.201
146.209
146.201
146.201
146.201
146.201
146.201
146.201
146.23
146.201
146.409
146.267
146.201
146.359
1016.91
166.193
146.229
146.201
146.203
147.038
146.201
146.393
149.12
147.85
146.404
1235.11
2792.05
146.287
146.214
146.817
180.65
252.561
146.203
147.381
405.17
146.201
146.201
146.201
146.202
146.274
146.32
151.631
146.201
146.202
146.204
146.221
146.399
146.201
399.481
147.158
146.204
168.221
923.856
146.201
146.208
328.051
146.684
146.201
146.201
146.209
146.201
146.214
146.201
198.25
146.448
1594.16
146.212
146.205
146.204
146.377
146.201
146.201
5683.67
146.201
146.201
146.201
5858.89
146.243
148.051
146.215
146.202
146.204
146.262
146.562
146.215
146.537
146.414
146.393
146.462
151.177
147.159
147.055
146.217
147.54
146.293
1216.22
146.729
146.207
147.481
146.276
146.204
677.906
146.202
146.56
146.216
146.23
146.21
146.201
147.58
146.225
1332.72
146.202
146.201
146.203
146.202
146.201
146.203
146.208
154.669
146.204
147.188
146.202
146.349
146.208
146.202
146.201
146.202
146.263
564.033
146.229
151.041
146.202
154.817
156.584
146.236
146.202
146.559
146.206
146.202
146.203
159.807
146.205
146.601
146.211
153.7
146.201
146.207
146.201
146.207
147.634
159.498
146.275
153.853
146.441
146.202
146.201
146.201
146.201
154.419
146.216
146.201
146.201
146.202
146.393
146.911
146.395
146.203
146.208
146.22
146.616
146.206
146.24
146.201
146.201
146.438
146.201
146.201
281.218
146.287
146.236
146.204
146.202
146.275
146.25
146.202
146.277
146.234
146.201
146.355
146.307
146.201
146.201
146.966
146.331
146.325
212.343
146.232
146.233
147.8
146.201
146.847
146.207
146.431
146.281
146.862
146.889
146.774
146.202
146.202
146.247
303.216
146.918
207.737
146.208
147.578
149.136
146.8
307.141
146.796
182.471
146.612
146.201
146.204
146.201
146.804
146.812
146.202
898.733
146.227
146.205
146.222
146.317
147.256
146.262
146.237
146.276
146.226
146.202
146.202
146.202
147.402
146.205
146.202
146.202
146.202
147.324
146.413
146.465
146.203
146.452
146.203
146.203
146.276
146.202
148.247
2634.09
146.202
285.026
153.373
146.202
146.258
146.202
189.745
146.202
120.688
146.21
127.388
155.832
146.201
146.201
146.249
168.638
146.757
146.201
145.227
146.208
147.84
146.201
146.25
146.201
146.345
146.265
146.202
146.209
146.417
146.218
146.268
146.201
146.283
4412.83
146.212
146.278
146.201
199.344
146.201
146.201
146.203
148.071
146.202
146.201
146.206
1490.3
146.203
146.201
146.201
155.649
146.281
146.5
146.203
146.268
146.202
146.201
146.674
146.201
146.201
147.316
146.268
146.201
146.201
146.202
147.222
147.377
146.204
146.204
146.228
146.201
146.205
146.201
146.221
146.201
146.201
146.201
146.201
148.894
176.803
148.513
146.201
146.201
146.201
146.201
172.448
146.201
146.498
146.788
146.201
146.227
146.201
146.215
146.201
146.201
146.356
146.201
146.251
146.202
146.21
146.202
146.202
319.703
146.201
146.212
146.202
146.206
146.201
146.44
146.201
146.205
146.201
146.201
146.329
146.447
146.868
270.84
212.552
146.202
146.883
146.244
146.201
146.201
146.201
146.625
146.201
146.457
148.831
146.203
149.575
146.202
146.201
155.839
157.52
146.201
146.204
180.816
146.201
146.201
146.201
146.767
146.201
157.77
146.204
160.345
146.539
146.201
146.222
146.237
146.342
146.309
146.334
146.209
146.201
146.201
146.216
146.201
146.201
146.201
146.201
146.201
147.107
146.201
146.604
146.763
146.659
146.293
146.201
146.267
146.206
146.202
146.204
146.201
146.968
146.429
146.203
146.591
146.201
146.774
146.201
146.202
146.467
146.201
146.378
146.203
146.201
147.293
146.988
146.318
146.202
146.212
146.202
146.312
146.201
146.73
146.201
146.202
146.201
146.227
146.201
146.203
146.274
146.202
146.215
146.213
146.201