/*--------------------------------*- C++ -*----------------------------------*\
| =========                 |                                                 |
| \\      /  F ield         | OpenFOAM: The Open Source CFD Toolbox           |
|  \\    /   O peration     | Version:  v2012                                 |
|   \\  /    A nd           | Website:  www.openfoam.com                      |
|    \\/     M anipulation  |                                                 |
\*---------------------------------------------------------------------------*/
FoamFile
{
    version     2.0;
    format      ascii;
    class       volScalarField;
    location    "1.5";
    object      ILambda_1_0;
}
// * * * * * * * * * * * * * * * * * * * * * * * * * * * * * * * * * * * * * //

dimensions      [1 0 -3 0 0 0 0];


internalField   nonuniform List<scalar> 
108993
(
146.201
146.202
146.201
146.201
146.201
146.201
146.222
146.201
146.201
146.201
146.201
146.201
146.201
146.201
146.201
146.202
146.201
146.201
146.201
146.21
146.201
146.201
146.438
146.201
146.201
146.201
146.201
146.21
146.201
146.201
146.201
146.201
146.201
146.201
146.201
146.201
146.201
146.201
146.221
146.23
147.265
146.201
146.201
146.201
146.234
146.204
146.201
146.68
146.201
146.201
146.201
987.81
146.202
146.201
146.201
146.201
146.201
146.201
146.201
146.201
146.201
146.201
146.201
146.201
146.201
146.201
146.201
146.201
146.201
146.201
146.201
146.201
146.201
146.201
146.201
146.201
146.201
146.201
146.201
146.201
146.201
146.201
146.201
146.201
146.201
146.201
146.201
146.201
146.201
146.201
146.201
146.201
146.201
146.201
146.201
146.201
146.201
146.201
146.201
146.201
146.201
146.201
146.201
146.201
146.201
146.201
146.201
146.201
146.201
146.212
151.907
146.201
547.045
624.35
146.201
146.203
146.201
146.201
146.201
146.201
146.201
146.201
146.202
146.201
146.201
146.202
147.749
146.201
146.201
146.201
146.201
146.201
146.201
2115.15
146.201
146.201
146.201
146.201
146.201
146.201
146.201
146.201
146.201
146.201
146.201
146.201
146.201
146.211
146.201
146.215
146.253
146.201
146.201
146.302
146.201
189.163
146.201
146.201
146.201
164.682
146.259
146.201
146.201
146.201
146.201
1315.35
146.201
146.201
146.201
146.201
146.201
146.201
329.909
146.201
146.202
146.201
146.203
146.201
146.201
146.201
146.201
146.201
146.201
146.201
146.201
146.201
146.201
146.201
146.201
146.201
146.201
146.201
146.201
146.202
146.201
146.201
147.307
146.201
146.201
146.201
146.201
196.662
146.201
146.201
158.459
146.205
146.201
146.205
146.201
141.882
192.429
146.201
146.202
146.202
146.214
146.201
146.201
146.201
146.201
146.201
146.201
146.205
146.201
146.205
146.201
146.201
146.201
146.201
1987.37
146.201
170.994
146.201
146.201
146.752
146.201
146.201
146.201
146.201
149.82
146.201
146.201
146.201
146.201
146.201
146.201
146.202
146.203
146.202
146.201
146.201
146.201
146.201
146.201
146.201
146.201
146.201
146.201
146.201
146.201
146.201
146.201
146.201
146.201
146.202
146.201
146.201
146.201
146.201
146.201
146.201
146.201
146.201
146.205
151.292
146.21
146.201
146.201
146.202
146.201
146.201
146.201
146.204
146.204
146.201
146.201
146.201
146.201
146.201
146.201
146.21
146.201
146.201
146.201
146.201
146.201
146.201
146.201
146.201
146.201
146.201
146.203
146.204
146.201
146.201
146.201
149.117
146.201
146.201
149.533
146.204
146.201
146.201
146.201
146.201
149.248
146.203
146.201
146.201
146.213
146.201
146.207
146.201
146.224
146.233
146.201
653.275
146.341
146.205
146.201
146.201
146.201
146.203
514.791
146.201
146.224
146.201
146.201
146.201
146.201
146.201
146.201
146.202
146.201
146.201
146.201
146.201
146.201
146.201
146.201
146.201
146.201
146.201
146.204
146.206
146.201
146.201
146.201
146.215
146.201
146.201
146.201
146.201
146.201
146.201
146.201
146.202
146.201
146.201
146.201
151.604
146.201
146.201
146.201
146.319
146.201
146.22
146.201
146.201
146.209
146.201
146.209
146.209
146.201
146.202
146.201
176.902
146.201
152.519
146.201
146.209
146.217
182.891
146.217
146.201
146.206
146.201
867.859
146.201
146.202
146.201
146.201
146.202
146.203
146.201
146.201
181.039
174.31
146.201
146.201
145.167
146.201
146.202
146.236
146.201
146.201
146.201
146.212
146.201
146.207
146.201
145.829
146.208
146.648
146.201
146.201
146.335
146.201
146.202
146.377
146.201
1025
146.211
153.739
146.201
146.201
146.201
146.201
146.201
146.201
146.201
146.201
146.201
146.201
146.201
146.302
146.407
146.306
347.6
146.201
146.201
146.201
146.201
146.201
146.201
146.201
146.201
146.201
146.201
146.201
146.201
146.202
146.201
146.202
146.206
146.201
146.201
146.201
146.202
146.201
146.201
146.201
146.201
146.201
146.201
146.201
146.202
146.201
188.82
146.21
146.201
146.201
146.201
146.201
146.201
146.201
146.201
146.201
146.201
260.334
146.201
146.201
146.201
146.202
146.201
146.202
146.201
146.201
146.201
146.201
146.201
146.201
146.201
146.201
146.201
146.202
146.204
146.201
146.201
158.242
146.201
146.201
147.264
146.201
146.201
146.201
146.201
146.201
146.201
146.201
146.864
146.201
146.201
146.345
162.536
146.201
146.202
182.741
146.201
146.202
161.791
146.201
146.201
146.202
146.201
146.201
146.201
574.943
146.201
146.201
146.205
146.201
146.208
146.201
146.201
146.201
146.201
146.201
146.202
146.201
146.201
146.203
146.201
146.205
146.201
146.201
146.201
146.201
146.21
223.483
146.201
146.201
146.201
146.201
149.187
146.224
146.206
146.201
146.201
146.405
146.839
146.201
146.201
1941.56
146.226
146.202
146.913
146.201
146.243
146.345
146.265
146.201
146.201
146.201
146.201
146.201
146.202
146.204
146.253
146.201
146.201
147.659
146.201
146.201
146.201
144.719
146.201
146.201
146.201
146.201
146.201
146.201
146.201
143.85
146.201
146.201
146.201
149.081
146.201
146.201
146.201
4767.61
146.201
146.269
146.201
147.265
146.201
146.201
146.201
146.203
146.201
1798.56
146.201
146.201
146.207
146.204
146.201
146.201
146.202
146.205
146.201
146.203
146.201
146.202
284.043
146.201
146.201
146.201
146.232
146.202
626.521
146.201
844.318
146.201
146.201
146.201
146.201
146.201
361.409
146.202
146.201
146.201
146.202
146.206
147.743
146.201
146.201
146.202
147.844
146.202
147.688
148.136
146.201
146.201
146.201
146.201
146.201
169.772
146.202
146.204
146.208
146.201
166.294
1344.76
147.695
147.781
146.201
146.202
146.201
146.201
146.212
146.202
147.765
146.201
146.201
146.211
146.201
146.207
146.201
146.201
173.794
146.201
146.201
272.205
146.201
146.236
148.573
146.201
146.216
146.201
147.228
151.995
146.201
146.201
146.201
146.201
146.201
146.225
149.822
146.201
146.201
150.103
146.207
146.213
146.201
146.241
146.201
477.978
146.201
146.201
450.209
146.201
146.201
474.363
146.202
146.201
146.201
275.699
154.4
146.202
146.201
428.733
146.202
146.202
146.202
146.201
146.201
151.349
146.201
146.201
146.24
146.201
146.202
146.212
146.219
146.201
215.108
146.201
146.201
146.201
146.201
146.201
146.201
146.201
146.201
146.201
164.67
146.201
146.202
146.201
146.201
146.201
146.201
146.201
146.201
146.202
146.283
146.245
146.206
146.201
146.201
146.201
175.377
146.201
146.202
146.203
146.201
146.201
446.102
146.204
146.201
146.201
146.202
146.201
146.201
175.074
146.201
149.632
146.201
146.201
146.202
146.201
146.212
146.201
146.201
146.214
146.201
146.213
244.579
146.245
146.201
149.176
146.202
146.201
146.201
146.202
146.201
146.201
146.201
146.201
146.201
146.201
146.811
146.201
146.202
146.201
146.43
147.747
146.201
9697.24
147.787
1601.99
146.201
146.201
146.201
146.764
146.241
148.844
146.202
201.912
146.215
155.927
146.205
146.202
146.201
148.453
148.097
146.201
146.202
146.243
146.201
146.201
146.201
146.281
146.201
149.664
146.202
146.201
146.201
150.599
146.201
156.046
146.201
148.628
146.201
147.642
148.808
146.202
316.413
146.201
149.178
148.664
146.202
152.879
146.308
146.201
146.201
146.201
146.202
146.201
146.202
146.201
146.201
146.202
146.308
146.201
146.202
146.82
146.203
146.499
203.459
148.331
146.365
149.692
153.631
146.291
1570.43
146.201
1091.92
146.21
146.261
146.201
146.201
146.202
146.201
150.269
146.201
146.201
146.202
146.203
146.201
314.278
146.309
146.201
1478.3
146.201
146.201
2861.62
146.262
146.201
146.219
146.201
146.201
146.201
1393.39
2924.06
146.201
3160.16
146.202
146.201
146.201
146.201
146.201
147.991
146.202
146.201
146.201
146.201
1533.45
146.201
146.201
146.202
146.201
176.471
146.202
146.201
146.201
146.201
146.207
146.201
176.331
146.84
146.201
146.201
147.51
1095.83
146.201
146.201
2009.42
804.672
146.203
146.201
146.201
146.202
146.205
146.201
146.202
146.222
146.201
146.201
146.201
146.201
171.052
146.211
1116.7
146.202
146.202
146.201
146.201
146.201
146.234
146.202
146.203
146.201
146.201
146.201
146.202
146.201
146.201
146.201
146.202
146.201
146.201
146.201
146.201
146.201
146.201
146.201
225.715
146.201
146.201
146.201
146.201
146.213
146.201
146.201
146.201
146.201
146.201
148.604
146.239
146.206
146.201
146.201
153.355
146.805
990.639
146.201
146.201
146.203
146.201
146.201
146.202
148.977
146.201
146.201
146.201
146.201
146.201
151.139
146.201
146.201
146.201
146.201
146.202
146.201
156.006
146.201
146.201
154.154
485.411
232.494
173.496
146.201
146.201
147.691
462.561
146.201
146.201
146.201
146.244
146.201
177.666
146.201
146.202
146.202
146.201
146.204
148.561
146.201
178.5
146.331
146.201
146.202
168.175
146.204
146.201
146.201
146.201
466.438
146.201
1306.37
146.201
146.763
146.201
148.497
146.202
146.201
146.202
636.345
146.202
146.201
146.202
375.343
222.328
146.201
146.201
146.201
146.201
146.201
146.201
146.201
1197.68
146.201
146.412
146.201
146.201
146.201
199.536
543.303
146.201
146.201
146.201
146.201
146.201
146.201
146.473
146.202
146.201
146.202
146.201
146.201
146.201
146.201
146.201
149.028
7707.22
146.335
146.201
146.201
146.201
146.201
146.201
146.201
146.201
146.201
146.201
146.201
146.201
146.201
146.201
146.201
146.201
146.201
146.201
146.201
146.201
146.287
203.251
246.363
146.214
146.201
146.201
146.201
146.201
146.201
146.201
146.22
146.201
146.201
1280.57
146.201
160.355
146.233
146.223
146.201
146.201
160.529
146.322
146.201
146.201
146.201
165.278
146.201
146.201
146.209
146.201
146.201
146.201
146.201
146.201
165.458
146.201
146.201
146.21
146.201
146.201
146.201
146.211
152.157
146.201
146.201
146.201
146.208
146.201
285.933
167.876
170.063
170.598
146.685
171.003
146.201
146.202
146.201
146.202
146.202
169.349
146.201
146.201
146.201
146.201
146.201
146.201
146.203
146.36
146.202
146.201
146.201
146.202
146.201
146.201
146.201
146.201
146.201
1921.48
146.202
146.202
146.201
146.537
146.201
146.202
146.203
147.063
146.201
146.202
146.201
148.821
146.202
164.26
1140.11
146.201
146.201
146.201
146.201
146.201
232.691
146.201
146.201
146.201
146.213
146.201
146.201
146.433
146.201
146.202
146.204
146.201
169.158
146.201
158.811
146.201
146.201
146.201
153.327
146.201
146.203
146.201
146.201
146.204
146.201
146.201
146.201
226.719
146.305
146.201
149.254
158.96
148.739
146.202
146.212
146.201
146.202
146.201
146.203
146.204
146.204
146.203
146.204
146.201
146.204
146.203
198.102
204.775
146.201
157.644
146.201
146.201
146.201
221.606
146.201
146.201
146.201
146.37
146.201
146.201
146.201
146.201
146.201
146.201
146.201
296.06
1271.71
146.201
296.19
146.202
146.424
147.088
146.201
146.201
146.201
146.201
374.986
146.201
146.201
146.201
146.201
146.201
146.215
146.201
146.253
146.201
146.201
146.39
146.201
146.201
146.201
146.201
146.201
146.201
146.201
146.201
146.201
146.201
146.204
146.203
146.201
146.203
146.206
146.201
146.202
146.201
146.201
146.201
146.201
146.201
146.207
146.204
413.89
146.201
146.213
146.202
146.201
146.201
146.201
146.201
146.201
158.268
146.205
146.201
146.201
146.201
146.201
146.201
146.201
146.201
146.225
146.218
146.201
146.201
146.203
146.201
146.201
146.202
146.201
493.943
146.201
146.201
146.201
146.201
152.556
146.201
146.201
146.203
179.625
146.201
146.202
158.862
146.201
146.201
146.201
790.202
146.202
146.201
146.201
464.93
146.202
146.205
146.201
146.201
146.216
146.201
146.201
146.206
146.201
146.201
146.201
146.201
146.212
146.201
146.201
1577.23
146.201
146.21
146.201
146.207
146.201
146.201
146.206
146.201
146.201
146.204
146.201
146.228
279.557
146.201
146.201
146.201
146.216
331.007
146.201
146.202
146.201
146.202
146.219
146.205
146.201
150.097
146.201
167.635
146.201
146.201
146.314
146.201
146.201
146.201
146.201
146.201
146.202
146.274
146.202
146.219
146.201
146.201
146.201
146.201
146.201
146.201
292.501
146.202
146.201
146.201
146.201
750.913
146.201
146.201
773.503
146.201
146.201
146.201
146.201
146.216
273.171
146.204
377.127
146.201
146.201
146.408
146.201
146.201
146.201
146.207
146.209
146.513
146.624
146.201
146.201
146.265
146.201
146.201
146.201
146.201
146.201
146.201
146.201
146.201
146.201
146.263
146.202
146.201
146.202
146.214
146.201
1567.14
146.201
146.201
146.201
146.201
146.201
146.201
158.733
146.201
146.201
146.93
146.203
146.202
146.201
146.201
146.208
146.275
146.201
146.202
146.201
146.201
152.365
146.206
146.206
146.203
146.201
170.621
146.211
146.204
146.201
146.203
150.382
153.161
146.21
157.297
146.206
153.09
146.201
152.532
146.202
150.674
160.908
189.118
163.026
184.761
146.203
146.213
146.206
146.201
146.201
146.21
146.201
146.201
146.211
146.201
146.235
161.908
146.201
146.201
146.201
146.201
162.563
146.203
146.209
146.201
146.214
146.201
2530.21
164.945
259.144
146.201
159.445
146.201
146.201
146.201
146.201
146.819
146.201
146.201
146.201
146.235
162.922
147.118
146.204
146.2
146.201
146.213
146.201
146.201
146.201
146.201
146.201
146.201
146.203
821.296
153.112
928.322
146.651
146.204
146.201
146.511
146.203
189.385
274.676
146.201
146.202
146.201
146.204
216.151
146.476
146.201
146.201
146.201
146.201
630.795
146.201
146.479
146.201
474.129
146.204
146.201
146.201
146.774
146.206
146.204
146.203
146.201
146.212
146.232
146.201
162.198
146.202
146.202
146.884
146.201
146.981
147.799
146.208
146.638
146.215
146.203
146.804
146.201
146.208
1520.62
146.201
163.323
146.201
146.202
146.202
146.201
161.792
146.201
146.201
146.212
146.202
146.265
146.214
146.201
175.699
146.201
146.201
146.201
146.501
146.201
146.404
751.374
146.201
146.281
146.202
146.201
146.202
146.206
146.208
146.202
146.202
146.212
324.252
146.248
1910.62
146.201
146.219
146.201
146.201
146.201
118.528
146.202
462.852
146.202
387.195
693.627
150.312
146.201
150.303
146.201
146.201
146.201
146.201
146.201
146.202
146.202
146.224
714.391
146.206
146.202
148.699
332.082
146.207
146.201
951.078
191.974
1514.43
146.201
146.201
146.201
146.201
146.201
146.201
146.338
146.202
346.663
179.316
149.79
146.933
146.225
157.892
146.205
155.908
146.201
1810.37
146.202
146.201
146.201
146.231
146.203
146.201
146.201
146.201
189.365
146.201
184.239
188.204
156.22
146.277
146.201
428.503
167.125
146.201
146.35
146.201
146.201
352.336
146.201
146.201
1603.15
203.266
146.201
146.201
146.201
146.201
146.201
146.202
146.201
146.201
146.203
307.335
146.205
356.598
156.763
146.201
146.201
146.201
146.201
146.203
146.219
146.201
146.201
146.204
146.201
146.201
146.201
146.201
608.364
146.21
146.227
146.203
146.207
146.201
146.209
146.201
146.202
146.211
146.201
146.209
146.201
146.201
146.214
146.201
146.201
146.21
146.211
146.211
146.21
146.201
146.202
146.203
146.203
151.898
146.875
146.208
146.211
146.205
259.305
146.201
146.201
146.202
146.243
146.205
146.205
146.202
146.21
146.201
146.201
153.133
146.21
146.202
146.203
146.201
146.241
146.217
146.201
146.202
146.201
146.211
146.201
146.202
146.204
146.201
146.208
146.201
146.209
146.21
146.201
146.201
146.211
146.201
146.201
146.201
146.201
146.208
146.201
146.21
146.204
146.201
146.201
146.499
150.916
146.201
146.202
146.201
146.201
146.201
146.201
148.787
148.927
146.215
146.201
146.201
146.206
146.201
146.202
146.231
146.201
146.201
146.202
146.201
146.204
146.201
146.201
146.201
146.201
146.201
146.239
146.268
146.202
146.201
146.44
146.219
568.813
146.201
146.203
146.201
146.206
146.204
146.201
146.201
146.201
197.671
146.208
146.201
146.202
146.201
146.201
146.201
146.202
146.201
226.464
146.201
146.213
146.201
146.201
146.201
146.201
146.201
146.21
146.389
146.201
146.201
146.204
146.201
146.205
146.201
146.201
146.207
146.212
146.281
146.253
146.201
146.202
146.211
146.201
146.212
146.201
146.216
146.21
146.201
202.934
146.209
149.034
146.242
146.204
146.201
146.201
146.201
146.202
146.202
146.447
146.263
146.201
146.202
146.201
146.202
146.209
146.208
146.201
218.006
147.706
146.201
155.114
146.201
146.201
146.201
146.211
146.205
146.204
146.201
146.201
146.201
146.22
146.201
146.21
146.201
146.201
148.528
182.236
146.201
146.201
146.205
146.201
146.201
146.201
146.21
513.791
146.203
146.201
146.204
147.696
146.206
146.267
147.657
471.103
146.201
158.57
149.571
213.151
218.989
501.385
215.311
539.52
146.201
267.382
146.206
146.27
146.201
2020.96
193.861
146.201
146.207
166.222
146.201
153.739
146.201
146.21
146.202
608.652
146.207
146.216
146.201
146.201
146.201
146.201
146.213
146.201
146.209
146.526
146.201
146.201
146.201
146.201
146.201
146.201
146.202
146.201
146.21
146.201
154.501
146.201
163.257
146.201
146.201
149.158
146.201
146.201
146.201
146.201
146.201
146.219
146.217
337.881
171.2
146.202
146.247
146.201
201.519
146.202
146.315
146.201
168.842
151.466
146.216
146.578
146.202
146.21
751.951
146.203
146.201
148.9
146.201
146.217
146.217
173.813
473.55
146.204
146.201
643.989
159.587
146.201
146.874
202.18
146.8
236.72
148.382
146.223
146.202
146.202
146.207
146.201
146.201
869.902
146.201
146.202
146.201
146.202
146.201
146.201
146.202
146.41
1029.04
163.536
146.201
146.201
148.297
147.967
146.201
146.958
154.771
146.201
146.201
146.229
146.201
149.396
146.201
245.573
159.449
146.201
154.738
146.201
146.201
146.201
146.201
146.201
146.201
146.201
146.201
146.201
146.204
146.202
146.201
146.482
146.201
146.201
146.202
146.201
146.201
146.206
146.204
146.201
147.143
146.201
146.201
193.83
146.422
146.201
146.26
191.139
146.201
146.201
146.201
146.201
146.201
146.202
146.202
146.222
818.941
146.225
146.202
146.792
147.057
146.209
146.222
147.984
146.201
146.209
148.647
146.22
146.201
148.518
146.201
153.503
146.202
154.78
146.202
146.204
154.677
146.202
146.201
146.202
146.201
146.201
159.072
146.202
146.202
156.532
146.202
146.201
146.202
154.909
146.201
146.201
163.521
146.201
146.201
146.201
146.201
157.219
146.208
146.201
146.201
146.201
146.201
146.201
146.201
146.23
146.201
146.201
146.201
146.201
162.192
146.201
155.523
146.201
146.201
146.201
146.201
253.254
146.201
146.201
146.201
146.201
146.201
146.201
610.158
146.201
146.202
146.854
146.201
149.695
146.201
146.201
146.201
146.201
146.201
146.201
146.202
146.202
146.201
146.201
146.201
146.201
146.201
854.166
146.201
146.201
225.693
146.201
146.201
146.202
146.201
146.201
146.54
146.201
146.201
147.082
146.251
147.881
146.201
146.201
146.201
146.201
146.995
155.816
146.201
146.201
146.201
146.209
146.201
146.201
146.201
146.452
146.302
146.201
146.541
184.334
146.201
146.265
146.201
146.201
148.015
146.566
153.437
146.201
148.501
146.382
146.201
146.201
146.383
150.355
146.45
146.201
146.201
146.201
151.059
146.24
146.201
146.27
146.201
146.201
146.286
146.201
146.201
187.317
146.281
146.201
146.201
146.281
146.201
146.202
146.274
146.202
146.202
146.201
146.202
1707.1
146.202
171.619
146.201
146.201
149.988
146.201
148.15
146.202
146.201
146.201
146.201
146.202
146.201
146.201
146.316
146.201
146.201
146.201
146.202
146.237
146.201
146.202
146.202
146.276
146.201
556.079
146.313
146.201
146.202
146.202
422.458
146.201
146.202
146.201
146.201
146.201
146.201
274.571
146.201
146.201
146.222
257.426
146.201
146.201
146.201
146.201
146.201
146.204
146.202
146.201
146.201
146.201
362.589
146.216
146.201
173.069
146.247
146.477
146.215
146.201
2432.77
146.613
146.202
147.069
148.547
146.202
158.362
146.243
146.209
146.204
146.202
146.211
150.721
146.201
366.314
146.209
146.201
326.924
146.554
146.287
505.5
146.201
146.204
146.202
146.201
285.14
146.201
146.204
146.201
155.253
146.258
159.996
146.201
146.201
146.201
146.205
146.201
147.443
146.201
146.205
146.205
1127.95
146.201
408.114
146.786
146.224
146.892
148.239
146.201
146.201
146.201
146.201
146.201
146.201
146.201
146.202
146.201
146.201
146.201
146.214
146.201
146.201
146.201
539.607
152.15
147.103
148.561
146.201
146.201
146.201
146.201
146.201
146.201
146.201
146.201
146.201
146.201
146.209
146.201
146.202
211.37
146.208
146.201
228.571
146.202
146.201
146.201
146.214
146.201
146.201
146.201
146.201
146.201
146.201
146.201
146.201
146.201
146.201
157.847
306.662
146.201
149.76
146.201
1257.63
240.508
146.201
146.201
146.212
146.201
159.923
146.201
207.402
160.802
146.201
146.201
146.204
146.211
146.201
146.389
146.201
146.201
160.814
259.759
146.201
146.737
146.202
146.619
146.201
162.924
158.409
196.116
146.208
146.204
146.201
159.667
147.262
146.201
146.201
146.201
146.201
146.201
146.201
146.201
776.942
160.015
146.201
149.078
146.223
146.229
146.201
148.733
155.79
146.201
147.742
147.338
146.201
533.473
146.204
146.201
146.202
146.201
449.874
147.811
146.48
146.4
146.212
146.201
146.47
151.678
146.861
198.857
146.202
146.201
146.201
146.223
146.343
146.255
146.201
146.22
146.24
146.201
147.311
146.201
151.353
153.431
146.222
160.427
255.74
146.201
146.75
146.201
146.201
146.213
146.201
146.201
146.201
146.201
146.202
146.201
146.201
146.201
146.201
148.602
146.574
146.201
146.211
146.201
146.201
208.461
146.201
146.201
146.201
146.213
146.204
146.204
146.201
146.201
146.201
146.205
146.233
146.201
146.437
146.201
146.201
151.993
146.246
146.21
146.323
146.201
147.269
147.39
148.474
182.278
146.217
146.205
146.208
146.202
146.201
146.201
146.201
146.201
146.201
146.201
146.25
146.212
146.205
146.203
146.213
146.201
146.201
146.201
826.785
146.384
146.21
146.31
146.74
1042.96
146.201
146.216
146.205
146.201
146.201
146.205
146.201
146.201
146.225
147.721
146.201
146.201
146.201
146.201
146.201
146.201
146.201
146.202
146.209
146.201
146.201
146.201
146.207
146.26
146.201
146.201
146.201
146.22
146.201
146.22
296.086
146.201
146.213
146.201
146.201
146.208
146.225
146.201
146.201
146.201
146.201
146.878
146.23
146.201
160.185
152.333
146.201
423.118
146.201
146.201
146.201
146.201
146.201
146.201
146.201
146.201
146.201
146.208
146.201
1635.63
146.201
146.201
146.201
146.201
146.201
146.201
146.689
753.554
146.206
2587.71
174.513
146.234
146.587
1087.29
1643.2
150.272
146.202
146.201
146.201
146.201
146.201
146.201
146.201
357.848
147.603
146.201
146.635
146.201
146.201
146.201
146.201
208.439
146.201
151.953
146.205
146.674
146.201
146.201
146.201
146.202
146.201
146.201
146.228
146.201
146.222
146.201
146.201
168.241
146.219
146.225
146.223
146.22
234.776
147.954
146.67
146.205
146.223
146.201
146.208
146.201
146.201
157.074
146.217
259.219
151.492
146.218
146.218
146.201
146.217
2523.6
146.201
146.201
146.201
1154.15
146.205
146.202
146.201
1123.91
146.209
382.705
146.204
146.203
512.576
149.352
146.201
146.212
148.213
216.221
146.201
146.223
211.18
146.201
146.201
149.834
146.201
146.201
188.678
146.203
148.694
150.68
146.202
146.201
146.204
146.204
146.206
146.204
179.607
146.204
148.129
146.201
146.204
146.202
146.203
146.203
146.201
718.181
147.705
146.626
146.204
146.201
152.092
146.204
146.201
146.204
146.201
146.201
146.201
146.204
146.416
146.203
146.201
146.201
722.295
146.204
146.204
165.342
146.201
2370.32
146.204
146.42
146.201
146.206
146.215
146.204
146.204
146.201
146.207
146.201
146.201
146.201
146.201
146.201
146.201
146.201
146.204
146.201
164.028
146.201
146.201
146.201
146.201
146.201
277.813
156.994
146.201
146.201
146.208
146.217
146.204
146.201
146.201
146.206
146.201
146.201
146.201
146.204
146.201
146.201
146.201
155.069
146.576
146.201
158.149
146.201
146.201
146.201
146.201
146.201
146.625
146.201
146.202
146.201
146.506
146.201
146.203
146.201
146.201
146.204
1738.44
146.965
147.054
146.686
146.201
946.463
146.683
146.201
146.201
146.201
146.201
146.206
146.201
146.201
146.201
146.958
146.201
154.095
146.201
146.201
146.201
146.201
146.201
146.201
146.201
146.201
146.201
146.201
146.201
152.89
146.201
146.201
146.201
146.201
146.201
146.201
146.211
146.201
146.201
146.201
146.201
181.914
146.201
146.202
148.894
146.201
359.125
146.201
146.201
146.201
146.202
146.211
146.201
146.201
146.211
146.201
146.201
146.201
146.201
146.201
146.728
146.262
146.201
146.201
146.201
146.211
146.21
146.21
173.323
146.241
260
146.202
146.201
146.203
146.21
146.201
146.201
146.201
146.202
146.301
146.201
146.201
146.201
302.551
149.908
225.098
146.202
146.201
146.207
153.419
146.201
146.202
146.201
146.201
146.201
146.201
146.212
146.201
146.201
678.224
280.514
513.628
4655.34
146.205
158.161
146.201
146.201
146.201
151.738
146.201
146.201
146.201
146.201
255.593
146.209
146.391
146.22
146.201
146.204
146.203
146.201
146.947
146.201
146.203
146.201
146.201
146.201
146.207
146.208
146.205
146.201
146.204
146.201
146.202
146.201
146.202
146.201
146.21
146.203
146.201
146.201
146.203
166.657
146.201
147.449
146.201
146.201
146.217
146.201
146.201
146.201
146.203
146.201
146.201
146.201
146.201
155.811
146.201
146.209
146.201
146.202
146.201
148.666
146.207
146.201
146.201
146.201
146.227
182.186
146.203
147.633
146.202
146.201
146.21
146.202
146.201
146.201
146.212
146.203
146.201
146.209
146.24
146.201
147.579
146.201
146.21
146.201
146.201
146.201
146.201
221.023
146.201
177.544
146.201
273.368
146.201
146.201
442.512
146.201
149.448
146.201
146.201
155.937
146.234
146.208
163.877
146.208
146.207
146.209
146.201
146.201
146.201
146.206
147.364
146.35
146.202
146.211
164.057
146.209
146.212
146.241
146.201
146.238
146.215
146.208
146.201
146.208
182.3
182.453
147.761
146.202
146.201
146.219
146.201
146.22
146.201
186.991
181.967
146.212
146.217
146.201
146.201
146.202
182.73
148.204
151.12
146.201
146.201
146.222
146.201
146.201
146.202
146.201
178.867
146.201
171.076
146.289
146.201
146.201
146.214
153.323
146.229
147.253
146.218
154.012
146.201
146.201
146.208
146.201
146.201
146.201
146.202
147.737
146.214
146.201
146.201
146.205
151.146
146.201
146.231
146.236
146.201
146.991
152.657
146.201
146.201
146.201
146.208
146.213
146.204
146.201
146.21
146.201
146.206
146.269
146.202
146.208
146.201
146.201
146.201
146.201
146.201
148.804
146.206
146.201
146.31
146.201
146.201
146.204
146.201
159.898
146.201
146.208
148.94
146.201
146.201
213.297
836.791
146.201
149.549
146.21
146.201
146.201
146.202
146.201
146.201
146.201
146.201
146.201
146.201
146.201
147.211
4001.56
146.201
146.206
810.089
146.203
4025.74
146.201
194.332
146.201
146.201
4094.11
146.21
146.294
4600.5
150.706
149.362
146.201
198.59
146.272
146.207
2050.31
276.79
146.203
7019.47
146.201
146.201
146.201
146.201
474.802
147.516
146.21
146.201
146.201
146.201
146.222
148.291
146.201
5659.82
605.726
149.536
1275.96
4944.63
146.201
146.201
146.236
146.201
146.201
146.201
146.201
146.201
147.641
146.201
146.304
146.206
143.982
174.565
151.234
569.913
146.201
146.201
146.201
153.392
146.201
146.201
146.201
238.52
146.838
146.215
548.309
147.113
146.203
146.208
147.365
535.693
146.201
146.201
272.669
185.323
1328.84
146.202
146.201
163.074
624.255
146.201
2985.23
277.195
1625.95
1119.6
146.201
146.201
146.231
146.709
146.203
1374.84
894.02
189.964
146.201
851.413
288.168
149.872
146.202
146.201
146.202
149.025
146.201
146.201
1613.72
146.208
1575.61
146.203
146.202
1106.34
835.002
146.202
146.201
146.201
146.212
146.167
148.061
3009.83
146.202
146.208
146.208
153.214
146.202
147.086
146.201
146.201
146.201
229.101
146.201
146.567
161.105
146.208
146.201
146.201
146.201
146.201
146.207
146.204
146.201
146.208
147.465
146.202
146.201
146.202
146.201
146.208
328.494
146.201
146.201
662.863
146.201
146.201
146.201
146.201
146.201
2977.44
146.252
159.485
146.201
146.201
146.201
2737.01
146.201
146.201
146.205
146.201
148.931
146.201
146.201
146.213
146.201
146.51
147.466
219.645
146.201
146.201
146.201
146.201
146.201
146.202
146.481
2385.14
146.399
146.201
146.201
146.201
146.201
146.202
146.201
146.201
146.201
146.202
146.201
146.202
146.201
146.378
146.307
146.203
146.202
169.246
147.432
146.201
179.958
146.202
168.678
147.585
146.202
146.201
146.201
146.201
146.201
146.202
146.201
146.201
146.28
146.201
146.201
146.201
146.73
146.201
146.201
146.201
146.201
146.201
146.269
146.201
146.192
146.201
146.201
146.201
146.201
146.22
146.201
147.248
146.201
240.494
146.201
173.182
148.929
146.201
146.201
146.203
148.514
146.201
5792.27
724.402
146.201
161.362
146.201
3447.09
146.201
974.133
190.268
805.489
146.206
146.201
146.201
146.201
146.207
146.216
146.201
742.044
149.83
146.284
146.201
146.201
146.201
146.201
1661.74
146.201
146.207
146.201
146.201
146.201
146.201
6089.76
2200.8
163.162
146.201
146.201
524.097
146.201
146.201
146.232
146.297
146.227
146.201
146.201
146.204
146.248
146.201
146.201
146.209
4280.21
146.206
146.201
6522.09
168.739
146.201
146.201
146.201
146.201
146.201
148.913
146.201
146.201
146.201
146.201
146.201
146.201
146.201
146.201
146.201
146.201
146.201
146.201
146.201
146.201
146.201
146.201
146.204
1060.4
429.887
146.201
146.201
146.201
146.201
146.202
146.201
146.201
146.232
146.201
146.201
146.201
153.606
146.201
146.201
146.201
146.201
146.201
146.205
146.201
146.2
146.2
146.203
146.201
146.201
147.104
146.201
146.201
146.201
146.201
146.201
146.201
146.201
146.658
146.201
146.201
146.203
146.203
146.201
146.201
146.201
146.201
146.201
146.201
146.201
146.201
146.206
236.38
146.201
236.739
146.201
146.201
211.442
259.425
146.201
439.04
146.202
146.201
146.201
146.201
146.208
146.201
291.044
146.201
361.59
146.201
146.201
146.201
2878.9
2897.17
2538.33
146.201
146.201
146.201
146.201
146.201
146.201
146.201
146.201
146.201
146.201
2286.09
146.201
146.201
146.201
146.201
146.201
146.201
146.201
606.4
146.202
251.447
146.201
146.204
146.201
146.201
146.31
146.201
146.201
146.201
146.395
146.201
146.201
146.201
171.382
146.201
146.202
146.201
146.201
146.202
146.201
146.202
146.214
146.202
173.085
146.201
146.202
146.202
146.201
146.201
146.201
146.201
146.202
146.201
146.201
146.202
146.207
1566