/*--------------------------------*- C++ -*----------------------------------*\
| =========                 |                                                 |
| \\      /  F ield         | OpenFOAM: The Open Source CFD Toolbox           |
|  \\    /   O peration     | Version:  v2012                                 |
|   \\  /    A nd           | Website:  www.openfoam.com                      |
|    \\/     M anipulation  |                                                 |
\*---------------------------------------------------------------------------*/
FoamFile
{
    version     2.0;
    format      ascii;
    class       volScalarField;
    location    "1.5";
    object      k;
}
// * * * * * * * * * * * * * * * * * * * * * * * * * * * * * * * * * * * * * //

dimensions      [0 2 -2 0 0 0 0];


internalField   nonuniform List<scalar> 
108993
(
8.71293e-05
8.65003e-05
8.38661e-05
8.74255e-05
8.741e-05
7.9988e-05
8.57904e-05
8.48912e-05
8.7587e-05
8.65869e-05
8.78791e-05
8.77789e-05
8.56084e-05
8.54327e-05
8.615e-05
8.40438e-05
8.46388e-05
8.635e-05
8.54803e-05
8.63312e-05
8.68809e-05
8.72422e-05
8.48929e-05
8.73132e-05
8.74939e-05
8.62712e-05
8.69969e-05
8.70881e-05
8.81746e-05
8.20477e-05
8.87205e-05
8.77471e-05
9.08671e-05
8.75512e-05
8.73607e-05
8.74329e-05
8.61196e-05
8.82789e-05
8.58896e-05
8.60279e-05
8.86559e-05
8.8158e-05
8.64498e-05
9.38831e-05
8.64415e-05
8.27116e-05
9.20008e-05
8.7833e-05
8.87676e-05
8.71179e-05
8.78079e-05
8.86212e-05
8.67019e-05
8.72373e-05
8.76836e-05
8.80141e-05
8.74126e-05
8.67609e-05
8.47593e-05
8.82933e-05
8.71321e-05
8.72653e-05
8.68696e-05
8.54528e-05
8.73007e-05
8.82257e-05
8.75397e-05
8.77697e-05
8.85787e-05
8.72473e-05
8.65901e-05
8.6476e-05
8.72621e-05
8.70469e-05
8.60202e-05
8.80949e-05
8.54607e-05
8.87193e-05
8.81495e-05
8.72684e-05
8.63335e-05
8.58208e-05
8.54489e-05
8.73867e-05
8.80975e-05
8.62557e-05
8.81951e-05
8.60087e-05
8.64948e-05
8.81143e-05
8.68613e-05
8.52446e-05
8.78395e-05
8.57655e-05
8.7462e-05
8.72841e-05
8.50558e-05
8.33295e-05
8.48706e-05
8.52673e-05
8.76856e-05
8.89208e-05
8.85123e-05
8.80924e-05
8.42987e-05
8.85332e-05
8.80908e-05
8.95449e-05
8.80522e-05
8.81839e-05
8.57931e-05
8.68968e-05
9.13598e-05
8.71463e-05
8.73234e-05
8.75788e-05
8.57417e-05
8.49656e-05
8.84985e-05
8.70205e-05
8.67564e-05
8.62622e-05
8.87105e-05
8.23926e-05
8.76181e-05
8.6812e-05
8.73852e-05
8.58411e-05
8.57632e-05
8.84706e-05
8.60352e-05
8.79607e-05
8.83079e-05
0.000168576
8.69294e-05
8.50497e-05
8.6279e-05
8.55891e-05
8.55386e-05
8.64017e-05
8.52489e-05
8.44676e-05
8.65381e-05
8.63721e-05
8.76683e-05
8.71854e-05
8.49046e-05
9.7317e-05
8.63928e-05
8.75151e-05
8.94125e-05
8.47062e-05
8.48706e-05
8.92023e-05
8.6968e-05
8.66982e-05
8.86464e-05
8.71214e-05
0.000101885
8.69719e-05
8.9644e-05
0.000111769
8.82688e-05
8.61882e-05
8.64911e-05
8.79118e-05
8.65761e-05
8.52179e-05
8.51748e-05
8.83944e-05
8.76202e-05
8.75785e-05
8.77306e-05
8.56047e-05
8.74824e-05
8.63352e-05
0.000109252
8.55611e-05
8.76775e-05
8.54253e-05
8.58146e-05
8.49781e-05
8.65825e-05
6.94827e-05
8.85492e-05
8.71626e-05
8.74388e-05
8.72155e-05
8.71265e-05
7.23419e-05
8.71916e-05
8.8689e-05
8.56987e-05
9.23872e-05
8.76676e-05
8.66399e-05
8.82455e-05
8.7297e-05
8.78698e-05
7.45359e-05
8.77225e-05
8.86014e-05
8.80404e-05
8.53805e-05
8.75476e-05
0.000319777
8.60124e-05
8.78136e-05
8.67106e-05
0.015864
8.52452e-05
8.80268e-05
0.000117346
0.000148257
0.000281069
8.2906e-05
8.57958e-05
8.70604e-05
8.63154e-05
8.89921e-05
8.70424e-05
8.69405e-05
8.9797e-05
8.95193e-05
8.57095e-05
8.4145e-05
8.61338e-05
8.80965e-05
9.27821e-05
8.48467e-05
8.4588e-05
8.71951e-05
8.50932e-05
8.49242e-05
8.63015e-05
8.47871e-05
8.75195e-05
8.62205e-05
8.63351e-05
8.65746e-05
8.33328e-05
8.76111e-05
8.20419e-05
8.69578e-05
8.82445e-05
8.66105e-05
0.000698512
8.7287e-05
8.76544e-05
8.79588e-05
8.67225e-05
8.74898e-05
8.66132e-05
8.75561e-05
8.73337e-05
8.70237e-05
8.72893e-05
8.67169e-05
8.87302e-05
8.19704e-05
8.6992e-05
8.6576e-05
8.81964e-05
8.46035e-05
8.80893e-05
8.69657e-05
8.79504e-05
8.85928e-05
8.18637e-05
8.66677e-05
8.31378e-05
8.45627e-05
9.15751e-05
0.0126522
8.64607e-05
8.63421e-05
8.77132e-05
0.000120608
8.79779e-05
8.68598e-05
8.74821e-05
8.44706e-05
8.25786e-05
8.59035e-05
8.75534e-05
8.71224e-05
8.43958e-05
8.77203e-05
8.82969e-05
8.48705e-05
8.6606e-05
8.50977e-05
8.81699e-05
8.74784e-05
8.71082e-05
8.4911e-05
8.85135e-05
8.67614e-05
8.64599e-05
8.04402e-05
9.27582e-05
8.69026e-05
8.7791e-05
8.41202e-05
8.73446e-05
8.46334e-05
8.38584e-05
8.5458e-05
8.40685e-05
0.000111479
8.78318e-05
8.78842e-05
8.53636e-05
8.64735e-05
8.79167e-05
8.59127e-05
8.38313e-05
8.57699e-05
8.65012e-05
8.8617e-05
8.62054e-05
8.32206e-05
8.3267e-05
8.2756e-05
8.44836e-05
9.47526e-05
0.00161302
8.9708e-05
8.62871e-05
8.82949e-05
8.88156e-05
8.9248e-05
0.000981119
8.64809e-05
0.000123798
8.76617e-05
8.70394e-05
8.76101e-05
8.72682e-05
8.60112e-05
8.67668e-05
0.000117197
8.60673e-05
8.75507e-05
8.61114e-05
8.64665e-05
8.5695e-05
8.5916e-05
8.56126e-05
8.5052e-05
8.73534e-05
8.27193e-05
8.30186e-05
8.66763e-05
8.63891e-05
8.68725e-05
8.58074e-05
8.17483e-05
8.70762e-05
8.03804e-05
8.87998e-05
8.58995e-05
8.4412e-05
8.64039e-05
8.71231e-05
8.79168e-05
8.7662e-05
8.58737e-05
8.72573e-05
0.0651464
8.48967e-05
8.77359e-05
8.53423e-05
0.00094814
8.91164e-05
9.51075e-05
8.80784e-05
8.98065e-05
0.000140098
8.77514e-05
8.81511e-05
8.66204e-05
8.80757e-05
8.53501e-05
8.64e-05
8.23067e-05
8.59298e-05
8.79509e-05
8.63233e-05
8.8172e-05
0.000529127
8.28611e-05
0.000104865
8.53961e-05
8.91567e-05
9.0023e-05
0.0977552
8.72358e-05
8.63365e-05
8.69435e-05
8.98702e-05
0.000251659
9.38966e-05
8.70698e-05
8.74901e-05
8.30498e-05
8.57671e-05
8.14456e-05
8.62292e-05
0.00619636
8.60846e-05
8.56308e-05
0.000344851
8.55928e-05
8.71942e-05
8.80238e-05
0.000195262
8.61664e-05
8.04639e-05
8.64238e-05
0.00482699
8.66382e-05
0.00176435
8.3906e-05
8.77409e-05
0.000404926
8.7495e-05
8.37237e-05
0.000915793
8.21073e-05
0.131813
8.68911e-05
0.135444
8.69787e-05
8.61418e-05
8.6886e-05
8.69373e-05
8.73732e-05
8.8093e-05
8.5824e-05
8.64082e-05
8.61978e-05
8.8364e-05
8.23815e-05
8.74757e-05
8.79328e-05
8.55806e-05
8.79058e-05
8.63984e-05
8.33065e-05
8.67239e-05
8.69568e-05
8.78166e-05
8.94245e-05
8.87492e-05
8.67106e-05
8.68135e-05
8.63041e-05
8.86361e-05
8.55101e-05
0.000101832
8.68916e-05
9.62656e-05
8.76922e-05
8.67951e-05
8.36344e-05
8.55359e-05
9.09266e-05
8.31066e-05
8.55168e-05
8.48292e-05
8.74935e-05
8.73774e-05
8.63741e-05
8.84666e-05
9.26187e-05
8.49595e-05
8.79077e-05
8.68019e-05
8.74817e-05
8.58723e-05
8.85125e-05
8.80884e-05
8.75738e-05
0.000115841
8.55151e-05
8.54132e-05
8.4363e-05
8.61998e-05
8.8086e-05
8.69226e-05
8.78429e-05
9.79728e-05
8.49613e-05
8.68264e-05
8.252e-05
9.17984e-05
8.76656e-05
8.37826e-05
8.66485e-05
8.54953e-05
8.69204e-05
8.43126e-05
8.69224e-05
8.78495e-05
8.80229e-05
8.62504e-05
8.52942e-05
8.94313e-05
8.66954e-05
8.75052e-05
8.64071e-05
8.75739e-05
8.82393e-05
8.68165e-05
8.63959e-05
8.5071e-05
8.68487e-05
8.82401e-05
8.86774e-05
8.91265e-05
8.88936e-05
8.71492e-05
8.74798e-05
8.84598e-05
8.65168e-05
8.64684e-05
8.73847e-05
8.70768e-05
8.81058e-05
8.44597e-05
8.61856e-05
8.59633e-05
8.5915e-05
8.77842e-05
8.8265e-05
8.60268e-05
8.74215e-05
8.78655e-05
8.85749e-05
8.617e-05
9.22039e-05
8.67284e-05
8.82446e-05
8.81696e-05
8.65859e-05
8.43875e-05
8.59601e-05
8.80432e-05
8.42472e-05
0.000102634
8.48499e-05
0.000108793
8.87573e-05
8.79281e-05
8.61562e-05
8.78957e-05
8.83443e-05
0.0369712
8.52236e-05
8.74334e-05
8.70335e-05
8.78159e-05
8.75255e-05
8.24684e-05
8.62481e-05
8.74552e-05
8.49529e-05
8.95327e-05
8.79842e-05
8.7407e-05
8.38583e-05
0.0577994
8.32572e-05
8.70021e-05
8.68855e-05
8.8468e-05
8.40018e-05
0.00384001
8.72606e-05
8.82535e-05
8.5951e-05
8.82749e-05
8.89842e-05
8.74835e-05
8.56144e-05
8.94672e-05
8.33241e-05
8.80903e-05
8.33499e-05
8.85986e-05
8.36803e-05
8.62929e-05
8.65745e-05
0.00969919
8.60453e-05
8.88779e-05
8.39904e-05
8.82905e-05
8.62953e-05
8.71801e-05
8.8162e-05
0.0278769
8.54883e-05
8.52696e-05
8.28237e-05
0.0188474
8.71873e-05
8.68198e-05
8.7378e-05
0.000155871
8.72912e-05
8.87486e-05
8.64815e-05
8.89724e-05
8.61822e-05
8.75614e-05
8.73617e-05
8.61583e-05
8.55047e-05
8.93268e-05
8.67199e-05
8.75214e-05
8.7721e-05
8.82599e-05
8.80331e-05
8.87442e-05
9.10767e-05
8.55996e-05
8.73662e-05
8.97382e-05
8.67262e-05
8.93683e-05
8.80925e-05
8.65855e-05
8.51448e-05
8.38464e-05
9.18144e-05
8.66679e-05
8.78074e-05
8.62542e-05
8.7623e-05
8.60698e-05
8.61585e-05
8.51161e-05
8.58707e-05
8.69079e-05
8.47895e-05
8.58744e-05
8.67528e-05
8.72074e-05
8.54421e-05
0.000106334
8.09304e-05
8.8019e-05
8.76126e-05
8.84017e-05
7.8859e-05
8.65893e-05
8.02974e-05
7.6695e-05
8.70468e-05
8.3985e-05
8.66247e-05
8.54498e-05
9.66628e-05
8.43852e-05
8.77368e-05
9.77786e-05
8.73206e-05
8.86517e-05
8.87685e-05
8.8427e-05
8.27616e-05
8.16064e-05
8.86993e-05
8.82784e-05
8.17487e-05
8.70232e-05
8.81567e-05
8.61871e-05
8.78271e-05
8.67145e-05
8.73818e-05
8.11449e-05
9.00334e-05
8.87681e-05
8.13888e-05
8.17716e-05
0.0122181
8.84086e-05
8.69324e-05
8.74381e-05
8.44248e-05
8.84195e-05
9.41626e-05
8.75708e-05
8.55224e-05
8.44916e-05
9.02638e-05
0.000100531
8.83153e-05
8.04801e-05
8.12655e-05
8.90586e-05
8.24747e-05
8.75448e-05
8.53955e-05
8.7354e-05
8.5526e-05
8.72004e-05
8.78977e-05
8.78757e-05
8.79408e-05
8.76486e-05
8.41357e-05
9.35653e-05
8.68401e-05
8.35965e-05
8.77363e-05
8.78789e-05
8.75186e-05
8.92296e-05
8.57174e-05
8.57387e-05
8.75507e-05
8.80132e-05
8.45405e-05
9.21303e-05
8.75459e-05
8.67857e-05
8.72422e-05
8.44479e-05
8.55056e-05
8.77016e-05
8.43284e-05
8.84725e-05
8.46926e-05
8.73713e-05
8.87628e-05
8.5539e-05
8.31277e-05
8.77796e-05
8.64343e-05
8.80153e-05
8.82916e-05
8.87603e-05
8.94707e-05
8.77019e-05
9.0113e-05
8.77602e-05
8.35961e-05
8.50485e-05
8.93246e-05
8.37581e-05
8.56276e-05
8.44471e-05
0.000137211
8.88257e-05
8.56954e-05
8.69305e-05
8.64657e-05
8.96113e-05
8.6568e-05
8.21151e-05
8.7776e-05
8.77229e-05
8.60046e-05
8.77032e-05
8.74431e-05
8.60406e-05
8.71178e-05
8.72853e-05
8.9174e-05
8.66832e-05
8.88673e-05
8.67597e-05
0.0596981
8.26262e-05
8.59045e-05
8.14235e-05
0.000220478
8.76552e-05
8.66783e-05
8.6772e-05
9.89687e-05
8.69604e-05
8.43134e-05
8.74553e-05
8.19913e-05
8.68736e-05
8.5141e-05
8.65054e-05
8.65645e-05
8.81723e-05
8.91696e-05
8.64849e-05
8.80353e-05
0.000205643
8.782e-05
8.56784e-05
8.60063e-05
8.8105e-05
8.63247e-05
8.74399e-05
8.78492e-05
8.74466e-05
8.63957e-05
8.50984e-05
8.572e-05
9.12488e-05
8.71987e-05
8.71512e-05
8.36122e-05
8.47698e-05
0.000122784
8.40019e-05
8.68419e-05
0.0783273
8.43743e-05
0.0340958
8.51456e-05
8.67532e-05
8.76738e-05
0.00104465
8.57978e-05
8.4893e-05
8.4545e-05
8.45456e-05
8.88985e-05
8.68025e-05
8.86376e-05
8.69535e-05
8.91963e-05
8.58867e-05
8.49051e-05
8.70318e-05
8.39323e-05
8.87555e-05
9.52452e-05
8.44727e-05
8.83413e-05
8.62447e-05
8.89378e-05
8.69959e-05
8.70543e-05
8.68116e-05
8.77721e-05
0.0432022
8.71912e-05
0.00593567
8.7319e-05
0.0638156
8.76973e-05
8.71374e-05
8.06561e-05
8.69673e-05
8.70252e-05
8.92929e-05
8.09083e-05
8.24334e-05
8.6186e-05
8.69776e-05
8.17252e-05
8.62483e-05
8.78775e-05
8.66237e-05
8.4559e-05
8.79976e-05
8.64014e-05
8.52381e-05
8.62348e-05
8.55082e-05
8.14984e-05
8.63784e-05
8.55966e-05
8.80016e-05
9.13919e-05
8.6179e-05
8.5099e-05
7.87561e-05
8.2156e-05
8.50437e-05
8.77239e-05
8.85519e-05
0.00121002
8.6538e-05
0.00531692
8.61438e-05
0.000100228
8.6764e-05
8.61346e-05
8.76865e-05
8.5897e-05
9.51166e-05
8.53264e-05
8.6329e-05
8.74252e-05
8.6073e-05
8.92805e-05
8.94418e-05
8.64773e-05
8.60304e-05
0.00101866
8.79904e-05
8.70415e-05
0.00828543
8.89509e-05
8.40973e-05
8.79652e-05
8.67804e-05
8.72628e-05
8.94898e-05
8.8874e-05
0.00354626
8.48408e-05
0.00521613
8.72903e-05
8.86107e-05
8.76066e-05
8.42792e-05
8.79466e-05
8.59822e-05
8.80966e-05
8.82729e-05
8.84003e-05
8.42744e-05
8.9212e-05
8.68428e-05
8.29624e-05
8.50392e-05
8.409e-05
8.52075e-05
8.80234e-05
8.93608e-05
8.55467e-05
8.61485e-05
8.60495e-05
8.76389e-05
8.8725e-05
8.54639e-05
8.59453e-05
8.51296e-05
9.29657e-05
8.71383e-05
8.45819e-05
8.31626e-05
0.000855094
8.80184e-05
8.74487e-05
8.71086e-05
8.75761e-05
8.84824e-05
8.92609e-05
8.61566e-05
9.1152e-05
8.85163e-05
8.61482e-05
8.27044e-05
8.75355e-05
8.58004e-05
8.55571e-05
8.60888e-05
8.8306e-05
8.53827e-05
8.52625e-05
8.77762e-05
8.74614e-05
8.69459e-05
8.62736e-05
8.33282e-05
8.79474e-05
8.35014e-05
8.67645e-05
8.32719e-05
8.54567e-05
8.62443e-05
8.74306e-05
8.7698e-05
8.63553e-05
8.57244e-05
8.55893e-05
8.58146e-05
8.39206e-05
8.61041e-05
8.71772e-05
8.71108e-05
9.16054e-05
8.81192e-05
8.77949e-05
8.5279e-05
8.79009e-05
8.70435e-05
8.47591e-05
8.56147e-05
8.56621e-05
8.62679e-05
8.36235e-05
8.76094e-05
8.38905e-05
9.11463e-05
8.48494e-05
8.62099e-05
9.2602e-05
8.72423e-05
8.96226e-05
8.66441e-05
8.55922e-05
0.00013786
8.56385e-05
8.74338e-05
8.84445e-05
8.81464e-05
7.93798e-05
8.70986e-05
8.71273e-05
8.57635e-05
8.87712e-05
8.70305e-05
8.31321e-05
8.35167e-05
8.59734e-05
8.67155e-05
8.74705e-05
8.78667e-05
8.81183e-05
8.77611e-05
8.64018e-05
8.86479e-05
8.64145e-05
8.82797e-05
8.7876e-05
8.76088e-05
8.78153e-05
8.84754e-05
9.02825e-05
8.74906e-05
9.07837e-05
8.80853e-05
0.000121282
8.48884e-05
8.72212e-05
8.71085e-05
8.85664e-05
8.86117e-05
8.78618e-05
8.52559e-05
9.19812e-05
9.02868e-05
8.58773e-05
8.69212e-05
8.603e-05
8.78989e-05
8.69363e-05
8.26133e-05
8.70603e-05
8.65768e-05
8.56645e-05
8.30022e-05
8.82807e-05
0.0955159
8.64094e-05
8.66584e-05
8.8699e-05
8.91222e-05
8.58825e-05
8.62105e-05
8.49293e-05
9.159e-05
0.000102214
8.87379e-05
0.000259498
9.05747e-05
8.84462e-05
8.87751e-05
8.3806e-05
8.17974e-05
8.64439e-05
8.43192e-05
8.58184e-05
8.72744e-05
9.26915e-05
8.48132e-05
8.73368e-05
8.76552e-05
8.78392e-05
8.43045e-05
8.77234e-05
8.96267e-05
8.46623e-05
8.6748e-05
8.79954e-05
8.76203e-05
8.22883e-05
8.92308e-05
8.84975e-05
0.000116691
8.76555e-05
8.82277e-05
8.70142e-05
9.03112e-05
8.94075e-05
9.64875e-05
9.67897e-05
8.84276e-05
0.0859623
8.41471e-05
8.52399e-05
8.78708e-05
8.4438e-05
8.825e-05
8.63201e-05
8.14174e-05
8.55026e-05
8.83158e-05
8.9814e-05
8.37025e-05
8.72727e-05
8.83383e-05
8.62509e-05
8.60237e-05
8.67928e-05
8.22083e-05
8.58945e-05
0.000119806
8.77192e-05
8.75564e-05
8.59593e-05
8.75278e-05
8.43716e-05
8.67335e-05
8.68742e-05
8.65228e-05
8.75025e-05
8.58971e-05
8.78082e-05
8.25674e-05
8.71475e-05
8.83957e-05
8.839e-05
8.75929e-05
8.78745e-05
8.79546e-05
8.15728e-05
8.74216e-05
8.88859e-05
0.0183958
0.000843729
8.7576e-05
8.72084e-05
8.77848e-05
8.86576e-05
8.64734e-05
8.68075e-05
8.24051e-05
8.6362e-05
8.53605e-05
8.10307e-05
8.79431e-05
8.34117e-05
8.54023e-05
8.87351e-05
8.78102e-05
8.35814e-05
8.58529e-05
8.61622e-05
8.62951e-05
0.000242656
8.8358e-05
8.63068e-05
8.25851e-05
8.46496e-05
8.80385e-05
8.78326e-05
8.7059e-05
8.33824e-05
8.28292e-05
8.30108e-05
0.000567562
8.67196e-05
8.63903e-05
8.57142e-05
8.87638e-05
8.80936e-05
8.63251e-05
8.53957e-05
8.73167e-05
8.04214e-05
8.56552e-05
8.32127e-05
8.85601e-05
8.60619e-05
8.80592e-05
8.61349e-05
8.74461e-05
8.66898e-05
8.62446e-05
8.68803e-05
8.3423e-05
8.75647e-05
8.24782e-05
8.52217e-05
8.6367e-05
0.000168621
8.71273e-05
8.83126e-05
8.76771e-05
8.52453e-05
8.71062e-05
8.51212e-05
8.69233e-05
8.66654e-05
8.60445e-05
8.63157e-05
8.77022e-05
8.68705e-05
9.08033e-05
8.58044e-05
0.000118319
8.74073e-05
8.66414e-05
8.67276e-05
8.83959e-05
8.59613e-05
0.041152
8.78345e-05
8.51543e-05
8.75041e-05
0.000331791
8.92972e-05
8.72948e-05
8.63034e-05
0.000103843
0.000104228
9.09725e-05
8.91316e-05
8.85272e-05
8.71014e-05
8.47822e-05
8.67668e-05
8.92351e-05
8.84859e-05
8.85106e-05
8.77373e-05
0.000160765
8.73671e-05
8.63165e-05
8.60731e-05
8.52815e-05
8.75159e-05
8.78723e-05
8.77668e-05
0.000488571
8.76539e-05
8.62007e-05
8.29662e-05
0.00760409
8.71034e-05
8.81871e-05
8.66854e-05
9.84645e-05
8.7988e-05
9.27216e-05
0.000102294
0.000100533
8.59923e-05
0.000138733
8.82167e-05
8.93744e-05
9.17068e-05
8.25478e-05
8.35852e-05
8.64073e-05
8.57507e-05
8.84559e-05
8.77493e-05
8.5378e-05
8.47741e-05
8.58452e-05
8.66385e-05
8.601e-05
8.90271e-05
8.84328e-05
8.88983e-05
0.00012637
8.84319e-05
0.000103353
0.000170332
8.71816e-05
8.72486e-05
0.000652535
0.000101137
9.27461e-05
8.69778e-05
8.74318e-05
8.55931e-05
8.69825e-05
8.70577e-05
8.69069e-05
8.44427e-05
8.6714e-05
9.36673e-05
8.71291e-05
8.75281e-05
9.09347e-05
8.90598e-05
0.000165924
8.80357e-05
8.67993e-05
8.8981e-05
8.65513e-05
9.2317e-05
8.81831e-05
8.69405e-05
8.33744e-05
8.69177e-05
8.80783e-05
8.62928e-05
8.68761e-05
8.89209e-05
8.39318e-05
8.64525e-05
8.67475e-05
8.79958e-05
8.95113e-05
0.000107793
8.79545e-05
8.73708e-05
0.000146601
8.64492e-05
8.75959e-05
8.83673e-05
8.49478e-05
8.77106e-05
8.67728e-05
8.89192e-05
8.96875e-05
8.49982e-05
8.68213e-05
8.64097e-05
8.6834e-05
8.78205e-05
8.71478e-05
8.8446e-05
8.83236e-05
8.91526e-05
8.90609e-05
8.81682e-05
8.67559e-05
8.57851e-05
8.77615e-05
8.73737e-05
0.000123986
9.4982e-05
8.66681e-05
8.74894e-05
8.86433e-05
8.74138e-05
9.06673e-05
8.62896e-05
8.44495e-05
0.000103286
8.83261e-05
8.68682e-05
8.78321e-05
8.51182e-05
8.90102e-05
8.76874e-05
8.57476e-05
8.61996e-05
8.6202e-05
8.7018e-05
9.14617e-05
8.54811e-05
8.82551e-05
8.75213e-05
8.54247e-05
8.69369e-05
8.76858e-05
8.59932e-05
8.47855e-05
8.55256e-05
8.78394e-05
8.62677e-05
8.61139e-05
9.21391e-05
8.93628e-05
8.87007e-05
8.64013e-05
8.3086e-05
8.71838e-05
8.75912e-05
8.40773e-05
8.67066e-05
8.47412e-05
8.95197e-05
8.70836e-05
8.81189e-05
8.73265e-05
0.000124354
8.56839e-05
8.4238e-05
8.42626e-05
8.82023e-05
8.38716e-05
8.13203e-05
8.73103e-05
8.51157e-05
8.14875e-05
8.44372e-05
8.73267e-05
8.75187e-05
8.72912e-05
8.20238e-05
8.81934e-05
8.83763e-05
8.5505e-05
8.71848e-05
8.59338e-05
9.68103e-05
8.57007e-05
8.41875e-05
8.54628e-05
9.89435e-05
8.74778e-05
8.44929e-05
8.55314e-05
9.73481e-05
8.85052e-05
8.56168e-05
8.51229e-05
8.56581e-05
8.68474e-05
8.83449e-05
8.70004e-05
8.47698e-05
0.00024194
8.83142e-05
9.0257e-05
8.65462e-05
8.38129e-05
8.59822e-05
8.67787e-05
8.37251e-05
8.5236e-05
8.82478e-05
0.00138067
8.6166e-05
8.83829e-05
8.67664e-05
8.89453e-05
8.76944e-05
8.61617e-05
8.59016e-05
8.55095e-05
8.63517e-05
8.65146e-05
8.71044e-05
8.3006e-05
8.7338e-05
8.60306e-05
9.45307e-05
9.42756e-05
8.76079e-05
8.74135e-05
0.000107797
8.56847e-05
8.60778e-05
8.55029e-05
8.40044e-05
8.6665e-05
8.64434e-05
8.65951e-05
8.63341e-05
8.78445e-05
9.77634e-05
8.65208e-05
8.23186e-05
8.72586e-05
8.50603e-05
8.66114e-05
8.6555e-05
8.16614e-05
8.70075e-05
9.48673e-05
8.76283e-05
9.24753e-05
9.44905e-05
8.78639e-05
8.62458e-05
8.59154e-05
8.72368e-05
8.80903e-05
8.75794e-05
8.84726e-05
8.54984e-05
8.65083e-05
8.71273e-05
8.92079e-05
8.8586e-05
8.733e-05
0.000289468
8.90728e-05
8.87152e-05
8.8066e-05
8.83127e-05
8.77601e-05
8.55248e-05
8.78024e-05
9.83502e-05
8.61466e-05
8.83776e-05
8.40863e-05
8.75151e-05
0.000111026
9.02364e-05
8.5263e-05
8.42406e-05
8.73397e-05
8.76579e-05
8.67795e-05
9.1386e-05
8.49608e-05
8.37873e-05
8.64758e-05
8.46585e-05
8.5734e-05
8.35277e-05
8.84585e-05
8.83523e-05
8.92787e-05
8.80384e-05
8.23832e-05
8.5223e-05
8.11487e-05
8.62405e-05
8.7638e-05
8.61945e-05
8.56117e-05
8.91603e-05
8.71932e-05
8.80468e-05
8.40491e-05
8.67137e-05
9.0704e-05
8.8192e-05
0.00010217
8.52165e-05
8.49445e-05
8.70204e-05
8.15023e-05
8.14184e-05
8.53369e-05
8.75938e-05
8.67953e-05
9.53478e-05
8.5941e-05
8.67292e-05
8.69204e-05
8.25188e-05
8.71928e-05
8.30501e-05
8.66701e-05
8.8462e-05
8.52485e-05
8.85654e-05
8.63561e-05
8.63274e-05
8.63308e-05
8.16804e-05
8.83896e-05
0.000118334
8.30435e-05
8.79918e-05
8.67627e-05
8.31582e-05
8.32294e-05
9.17963e-05
8.1568e-05
8.6166e-05
8.51007e-05
8.71973e-05
8.87337e-05
8.70863e-05
9.66325e-05
0.00016868
0.000111891
0.000218669
8.82581e-05
8.79975e-05
8.67149e-05
8.2515e-05
8.73245e-05
8.65998e-05
8.73037e-05
8.91711e-05
8.74673e-05
8.77794e-05
8.89461e-05
8.76538e-05
8.45517e-05
8.30584e-05
8.84589e-05
8.6962e-05
8.64107e-05
0.000128539
8.75042e-05
8.28058e-05
8.59863e-05
8.74228e-05
8.711e-05
8.14922e-05
0.000104878
8.69834e-05
8.93226e-05
8.94694e-05
8.70551e-05
8.01509e-05
8.61668e-05
8.90633e-05
8.76e-05
8.87538e-05
8.4155e-05
8.76693e-05
8.75688e-05
8.74281e-05
8.39853e-05
8.74907e-05
9.03641e-05
8.66359e-05
8.72854e-05
9.44901e-05
8.29463e-05
8.54719e-05
8.70571e-05
0.0589767
8.84963e-05
0.000200899
8.42123e-05
8.47321e-05
8.67975e-05
8.67155e-05
0.000337749
8.5894e-05
8.62788e-05
8.67844e-05
8.59399e-05
9.21488e-05
8.54356e-05
8.77939e-05
8.70469e-05
8.18992e-05
8.42192e-05
8.43125e-05
8.63014e-05
8.56834e-05
8.53243e-05
8.88967e-05
8.49049e-05
9.61612e-05
8.13413e-05
8.73577e-05
8.50111e-05
9.47298e-05
8.72882e-05
9.74429e-05
8.64016e-05
8.9387e-05
9.0974e-05
9.2181e-05
8.75574e-05
8.30715e-05
8.78054e-05
8.80489e-05
8.679e-05
8.49568e-05
0.00629811
8.27428e-05
8.84867e-05
0.00029943
9.14928e-05
0.000156387
8.46135e-05
8.18917e-05
8.57505e-05
8.60016e-05
8.30157e-05
8.56124e-05
0.000111717
8.14319e-05
8.66924e-05
8.44655e-05
9.11224e-05
0.000104836
8.74304e-05
8.38824e-05
0.000101041
8.56381e-05
8.75283e-05
8.95241e-05
9.04547e-05
9.44233e-05
0.0158822
8.52162e-05
9.27229e-05
8.70305e-05
8.61596e-05
8.86454e-05
8.81653e-05
8.75312e-05
8.53947e-05
8.65235e-05
0.000476121
8.62376e-05
8.63836e-05
8.74507e-05
8.12293e-05
8.59098e-05
0.000120703
8.67357e-05
0.0677034
8.97146e-05
8.79821e-05
8.42368e-05
8.60064e-05
0.000130264
8.42753e-05
8.63351e-05
8.4404e-05
8.84155e-05
8.49178e-05
0.000168056
0.00145432
0.00445816
8.64495e-05
8.8363e-05
0.00015744
8.9592e-05
8.57595e-05
8.87879e-05
8.2368e-05
8.26061e-05
9.0077e-05
8.734e-05
8.23922e-05
0.0155745
8.79653e-05
8.80034e-05
8.29875e-05
8.88384e-05
8.8359e-05
8.78003e-05
9.06008e-05
8.51131e-05
8.72334e-05
8.72808e-05
9.23929e-05
8.9639e-05
8.62873e-05
8.89573e-05
8.66043e-05
8.71227e-05
8.61643e-05
8.78011e-05
8.65809e-05
0.000116886
8.7563e-05
8.63171e-05
8.66042e-05
8.63727e-05
8.63883e-05
8.63614e-05
8.63568e-05
8.67244e-05
8.42204e-05
8.88643e-05
8.88102e-05
0.000139048
8.73998e-05
8.89545e-05
8.62377e-05
0.00152887
8.53448e-05
8.73301e-05
8.95339e-05
8.67552e-05
8.73033e-05
8.71852e-05
8.79975e-05
8.62472e-05
8.32569e-05
0.000115411
8.6845e-05
0.000105567
8.67706e-05
8.77915e-05
0.000210568
0.00013595
8.78043e-05
8.80635e-05
8.98352e-05
9.27561e-05
9.22238e-05
8.95834e-05
8.23325e-05
8.69916e-05
9.027e-05
0.000380971
8.78187e-05
9.12005e-05
8.65908e-05
0.000106607
8.73461e-05
8.89033e-05
0.000145435
8.86967e-05
8.73448e-05
8.73808e-05
9.30628e-05
0.000162653
8.7378e-05
8.7275e-05
8.85205e-05
8.70454e-05
8.71839e-05
8.77874e-05
8.87407e-05
9.22837e-05
8.64859e-05
8.72663e-05
8.6183e-05
0.000102909
8.30977e-05
8.553e-05
8.71311e-05
8.60899e-05
8.66917e-05
8.61282e-05
8.73747e-05
7.97071e-05
9.09584e-05
8.71022e-05
8.34077e-05
8.57246e-05
8.88788e-05
8.47461e-05
8.68823e-05
8.89002e-05
8.182e-05
0.000151396
8.14938e-05
8.49551e-05
8.80671e-05
8.78717e-05
8.47489e-05
8.36764e-05
8.60376e-05
8.91079e-05
8.7788e-05
9.08439e-05
8.81741e-05
8.44515e-05
8.86749e-05
8.94001e-05
8.17816e-05
9.47275e-05
8.99451e-05
9.00753e-05
8.39795e-05
8.59795e-05
8.29638e-05
0.000103686
8.76349e-05
8.91661e-05
0.000104777
8.64866e-05
8.58261e-05
0.000103659
8.76793e-05
8.64281e-05
8.33601e-05
8.83962e-05
8.57612e-05
8.60255e-05
0.000165219
8.66998e-05
8.74871e-05
8.69817e-05
8.44416e-05
8.71758e-05
8.38859e-05
0.00010997
8.86857e-05
8.85333e-05
8.64012e-05
8.68971e-05
8.62508e-05
8.86653e-05
8.64188e-05
8.70301e-05
8.63937e-05
8.33926e-05
8.5897e-05
8.68845e-05
8.58179e-05
8.59586e-05
8.67751e-05
8.49328e-05
8.55562e-05
0.000130303
8.33406e-05
8.6001e-05
8.95295e-05
8.30818e-05
8.8614e-05
8.5229e-05
8.64442e-05
8.78675e-05
8.7774e-05
8.72905e-05
9.7531e-05
8.62517e-05
8.70329e-05
8.51042e-05
8.56881e-05
8.56224e-05
8.55285e-05
8.77336e-05
8.75269e-05
8.90874e-05
8.48579e-05
0.000124563
8.60474e-05
8.73961e-05
8.44132e-05
8.55361e-05
8.49073e-05
8.58193e-05
8.6155e-05
8.75593e-05
8.59103e-05
8.63668e-05
9.46159e-05
9.55665e-05
8.79041e-05
8.7627e-05
8.65643e-05
8.67146e-05
8.45203e-05
7.94618e-05
8.84604e-05
8.57848e-05
8.6281e-05
8.49835e-05
8.83614e-05
9.09218e-05
8.68209e-05
8.81858e-05
8.88861e-05
8.66036e-05
8.57816e-05
8.70366e-05
8.43626e-05
8.58107e-05
8.44938e-05
9.03325e-05
8.30438e-05
8.73244e-05
8.88421e-05
8.6378e-05
8.77509e-05
8.76868e-05
0.000115268
8.61777e-05
8.60865e-05
8.62066e-05
8.58563e-05
8.83649e-05
9.10283e-05
8.60847e-05
8.58266e-05
0.000166836
9.27745e-05
8.3953e-05
8.60247e-05
8.84355e-05
9.22477e-05
0.000315796
0.000142586
0.00014113
8.30832e-05
0.00123901
8.88481e-05
0.000118733
8.61628e-05
0.0004481
0.000109968
8.40154e-05
8.74688e-05
9.55225e-05
8.69172e-05
8.84658e-05
8.35616e-05
8.58711e-05
9.6142e-05
0.000154093
8.64361e-05
8.59205e-05
8.68611e-05
8.41743e-05
8.80387e-05
8.6083e-05
9.75501e-05
8.62892e-05
8.55418e-05
8.85954e-05
8.52274e-05
8.55585e-05
8.48012e-05
8.66072e-05
8.226e-05
8.85949e-05
8.88016e-05
8.69717e-05
8.32504e-05
8.6686e-05
0.00020302
8.47458e-05
9.46873e-05
8.6202e-05
8.65375e-05
8.70457e-05
8.35896e-05
8.45189e-05
8.88569e-05
8.47602e-05
8.30505e-05
8.61738e-05
8.714e-05
8.79976e-05
8.8652e-05
8.68122e-05
8.67268e-05
8.64675e-05
8.54451e-05
9.09118e-05
8.65405e-05
8.83054e-05
8.61671e-05
8.68235e-05
8.79217e-05
8.53166e-05
8.69684e-05
8.67026e-05
8.74321e-05
8.60147e-05
8.75206e-05
8.62884e-05
8.65413e-05
8.78496e-05
8.693e-05
8.57178e-05
9.20125e-05
9.05334e-05
8.38756e-05
0.000100929
9.24217e-05
8.8988e-05
9.0189e-05
8.80557e-05
8.78601e-05
8.75059e-05
8.60378e-05
8.72977e-05
8.2572e-05
8.89887e-05
8.81175e-05
8.72451e-05
8.56966e-05
9.56088e-05
8.83463e-05
8.40961e-05
8.75306e-05
8.22334e-05
8.73301e-05
8.7824e-05
8.45869e-05
8.64755e-05
8.56139e-05
8.9071e-05
8.55096e-05
8.54674e-05
7.74365e-05
0.00317359
8.73703e-05
0.000110085
0.0103853
8.49468e-05
8.4332e-05
8.3647e-05
8.62828e-05
0.00416288
8.63065e-05
8.84745e-05
8.82975e-05
8.74887e-05
0.0151894
8.60404e-05
8.44478e-05
8.76602e-05
8.49268e-05
8.97596e-05
8.41761e-05
8.58564e-05
8.7766e-05
8.27811e-05
8.52614e-05
8.39044e-05
8.36379e-05
8.98294e-05
8.34231e-05
8.66104e-05
9.03895e-05
8.88652e-05
8.3932e-05
0.000112294
8.52311e-05
8.7243e-05
8.16444e-05
8.35476e-05
8.61244e-05
8.6732e-05
8.74331e-05
8.81845e-05
9.10686e-05
8.95029e-05
8.64934e-05
8.73198e-05
8.75759e-05
8.60233e-05
8.62413e-05
8.76584e-05
8.55677e-05
8.61887e-05
8.6615e-05
8.72268e-05
8.68808e-05
8.87464e-05
8.27376e-05
8.73539e-05
8.51496e-05
8.26439e-05
8.58115e-05
0.000631955
8.24452e-05
8.6678e-05
8.54033e-05
8.27908e-05
8.76127e-05
8.52761e-05
0.000122891
8.27641e-05
0.000109563
8.67927e-05
8.33531e-05
8.85411e-05
8.70755e-05
9.84048e-05
8.78567e-05
8.77808e-05
8.34205e-05
8.79476e-05
8.81323e-05
8.78718e-05
9.26453e-05
8.76841e-05
8.74434e-05
8.75226e-05
8.79358e-05
8.70848e-05
9.90157e-05
8.73758e-05
8.6786e-05
8.66964e-05
8.80305e-05
8.44042e-05
8.87158e-05
8.72003e-05
8.48819e-05
8.82872e-05
8.88977e-05
8.74072e-05
8.75974e-05
8.79919e-05
8.76974e-05
9.00281e-05
8.85495e-05
8.39758e-05
8.61483e-05
8.69212e-05
8.68636e-05
8.71504e-05
8.7092e-05
8.78071e-05
8.71989e-05
8.2771e-05
8.76674e-05
9.0195e-05
8.98546e-05
8.65311e-05
8.55768e-05
8.78263e-05
8.68705e-05
8.55307e-05
8.56405e-05
9.0136e-05
8.27046e-05
8.69485e-05
8.85208e-05
8.56449e-05
8.66721e-05
8.78882e-05
8.0732e-05
8.60111e-05
8.71177e-05
8.71024e-05
8.62901e-05
8.90948e-05
8.90395e-05
8.06302e-05
8.94954e-05
8.93998e-05
8.00904e-05
8.58084e-05
8.77773e-05
8.2656e-05
8.67188e-05
0.000100335
8.8056e-05
8.69379e-05
8.48273e-05
8.59338e-05
8.3392e-05
8.73557e-05
8.71933e-05
7.96322e-05
8.86122e-05
8.72199e-05
8.13888e-05
8.74251e-05
8.80227e-05
8.91183e-05
8.65826e-05
8.67748e-05
8.69019e-05
8.66202e-05
8.23654e-05
8.74036e-05
8.67692e-05
8.23933e-05
8.72455e-05
8.7125e-05
8.17102e-05
8.53248e-05
8.59611e-05
8.60819e-05
8.66879e-05
8.74182e-05
8.62646e-05
0.000541975
8.57728e-05
8.75603e-05
8.8557e-05
8.6096e-05
8.86297e-05
8.68432e-05
8.65194e-05
8.48836e-05
8.17246e-05
8.87219e-05
8.57528e-05
8.86516e-05
8.66853e-05
7.9704e-05
8.81067e-05
8.10429e-05
8.7684e-05
8.61282e-05
8.16804e-05
8.73469e-05
8.68519e-05
8.72703e-05
8.18795e-05
8.7761e-05
8.69296e-05
9.8085e-05
8.50948e-05
8.68816e-05
8.18934e-05
0.000107424
8.60399e-05
8.87727e-05
9.2493e-05
0.00010754
0.00017442
8.72223e-05
8.92316e-05
8.80491e-05
8.29388e-05
9.12664e-05
8.45908e-05
8.10502e-05
8.81359e-05
8.64893e-05
8.7751e-05
8.08132e-05
8.73115e-05
8.74714e-05
8.69284e-05
8.80622e-05
8.66487e-05
8.98245e-05
8.01529e-05
8.63458e-05
8.88498e-05
8.22613e-05
8.13465e-05
8.66038e-05
8.60015e-05
8.72965e-05
8.83745e-05
9.06582e-05
8.1642e-05
9.02927e-05
8.47016e-05
8.66113e-05
8.11454e-05
7.95951e-05
7.987e-05
8.64872e-05
8.49889e-05
8.88326e-05
8.1038e-05
8.17171e-05
8.63319e-05
8.73104e-05
8.71537e-05
8.68821e-05
8.22502e-05
8.80454e-05
8.71785e-05
8.79589e-05
8.60007e-05
8.61003e-05
8.90978e-05
8.90414e-05
9.06713e-05
8.72476e-05
8.75002e-05
8.85028e-05
9.07567e-05
8.80999e-05
8.77991e-05
8.01376e-05
0.000356473
9.08206e-05
8.63468e-05
8.5615e-05
8.67605e-05
8.48038e-05
8.62117e-05
0.000213299
8.27807e-05
8.33433e-05
8.59403e-05
8.19861e-05
8.66371e-05
8.58248e-05
8.66718e-05
8.29899e-05
8.57685e-05
8.68886e-05
8.64684e-05
8.70832e-05
8.71969e-05
8.62845e-05
8.25436e-05
8.7605e-05
8.67625e-05
8.60124e-05
8.87564e-05
8.11934e-05
8.62639e-05
9.02732e-05
9.87607e-05
9.82334e-05
8.69166e-05
8.59623e-05
8.58153e-05
9.60406e-05
8.57984e-05
8.95467e-05
8.76787e-05
8.50046e-05
8.2565e-05
8.61735e-05
8.13519e-05
0.000104668
8.7731e-05
8.8548e-05
8.54799e-05
8.95819e-05
8.68375e-05
8.67977e-05
8.71961e-05
8.92225e-05
8.86662e-05
8.46723e-05
9.02157e-05
8.76049e-05
8.50925e-05
8.15803e-05
8.7754e-05
9.02632e-05
8.90132e-05
8.532e-05
8.6957e-05
8.82291e-05
8.58111e-05
8.62511e-05
8.66298e-05
9.15109e-05
8.75414e-05
9.1591e-05
8.36115e-05
8.84661e-05
8.75798e-05
8.9094e-05
8.1931e-05
8.66472e-05
8.96656e-05
0.000100404
8.23253e-05
0.000126159
8.74629e-05
8.70243e-05
8.1858e-05
8.49181e-05
0.000603901
8.11932e-05
8.7038e-05
8.94469e-05
8.55119e-05
8.9186e-05
8.24608e-05
8.59531e-05
8.7398e-05
8.71489e-05
8.14042e-05