/*--------------------------------*- C++ -*----------------------------------*\
| =========                 |                                                 |
| \\      /  F ield         | OpenFOAM: The Open Source CFD Toolbox           |
|  \\    /   O peration     | Version:  v2012                                 |
|   \\  /    A nd           | Website:  www.openfoam.com                      |
|    \\/     M anipulation  |                                                 |
\*---------------------------------------------------------------------------*/
FoamFile
{
    version     2.0;
    format      ascii;
    class       volScalarField;
    location    "1.5";
    object      nut;
}
// * * * * * * * * * * * * * * * * * * * * * * * * * * * * * * * * * * * * * //

dimensions      [0 2 -1 0 0 0 0];


internalField   nonuniform List<scalar> 
108993
(
9.56048e-05
9.06931e-05
7.08493e-05
9.91807e-05
9.93781e-05
5.51993e-05
8.65667e-05
7.94329e-05
9.83346e-05
9.16294e-05
0.000104248
0.000103399
8.22403e-05
8.30289e-05
8.81555e-05
7.40126e-05
7.77226e-05
8.90597e-05
8.36163e-05
8.92425e-05
7.35971e-05
9.39681e-05
7.97026e-05
9.84768e-05
9.62522e-05
8.92239e-05
8.53498e-05
9.527e-05
0.00010599
6.42045e-05
0.000106505
0.000102334
8.8249e-05
0.000100669
8.46295e-05
9.94079e-05
8.5947e-05
9.88753e-05
8.08519e-05
8.79609e-05
0.000111495
0.000105738
9.07896e-05
0.000101397
8.89017e-05
6.57264e-05
8.87924e-05
8.78944e-05
0.000114344
9.71424e-05
9.9417e-05
0.000109954
9.26586e-05
9.55861e-05
0.000101745
0.000104956
8.9944e-05
9.2872e-05
7.85499e-05
0.00010674
9.48781e-05
9.65548e-05
9.40488e-05
8.39333e-05
9.13057e-05
0.000106451
7.86377e-05
0.00010255
0.000110686
9.77037e-05
9.22522e-05
8.88388e-05
9.82282e-05
9.52127e-05
8.5891e-05
0.000104692
7.98739e-05
0.000113287
9.45974e-05
9.38606e-05
9.02647e-05
8.55667e-05
8.29982e-05
8.23826e-05
0.0001061
8.89825e-05
0.000106391
8.63332e-05
9.09275e-05
0.00010317
9.23267e-05
7.98495e-05
0.00010278
7.36509e-05
9.92481e-05
9.77177e-05
7.93601e-05
6.98525e-05
7.76446e-05
8.17672e-05
0.000101127
0.00011335
0.000110575
0.000106036
7.50421e-05
0.000101869
0.00010604
0.00010862
0.000103912
0.000106691
8.29774e-05
9.15745e-05
9.27136e-05
9.62132e-05
9.7978e-05
8.44216e-05
8.49384e-05
7.94477e-05
0.000110416
9.49763e-05
9.32907e-05
8.83398e-05
9.03624e-05
6.48644e-05
8.8055e-05
9.46029e-05
9.81562e-05
8.60073e-05
8.03503e-05
0.000101839
8.6908e-05
0.000102954
0.00010805
0.000111741
9.4313e-05
8.03564e-05
8.976e-05
8.49104e-05
8.3699e-05
9.03053e-05
8.32215e-05
7.61011e-05
9.03752e-05
9.13529e-05
0.000100685
9.70078e-05
7.93779e-05
8.38034e-05
9.07317e-05
9.2703e-05
9.43028e-05
7.82212e-05
7.78845e-05
0.000101973
9.65526e-05
9.21857e-05
0.000112627
9.90043e-05
0.000104517
9.46818e-05
0.000103724
9.98041e-05
0.000107585
8.89198e-05
9.09541e-05
0.000100985
9.14835e-05
7.94565e-05
7.84243e-05
0.000109242
0.00010086
0.000100584
0.0001008
8.43417e-05
9.23415e-05
8.95676e-05
9.59101e-05
8.48563e-05
0.000102466
8.26847e-05
8.55877e-05
8.00035e-05
8.82871e-05
3.10703e-05
0.000110931
9.72797e-05
8.99742e-05
9.69189e-05
9.70664e-05
3.49623e-05
9.69593e-05
9.68042e-05
8.48252e-05
9.85252e-05
0.000102947
9.1782e-05
0.000107825
9.83282e-05
0.000105093
3.88658e-05
0.000102358
0.000102408
7.38014e-05
8.18511e-05
9.98542e-05
0.000139104
8.67779e-05
9.80435e-05
9.2007e-05
0.00105159
8.19606e-05
8.97853e-05
9.37774e-05
0.000115163
0.00013953
6.80002e-05
8.54202e-05
9.5732e-05
9.03809e-05
0.000115407
9.48237e-05
8.39568e-05
0.000102474
9.25141e-05
8.54481e-05
7.46742e-05
8.54459e-05
0.000106297
0.000103802
7.90781e-05
5.1009e-05
9.69897e-05
8.02522e-05
7.94582e-05
8.90414e-05
7.43288e-05
0.000100427
8.7874e-05
8.96319e-05
8.81056e-05
6.53617e-05
0.000101966
6.37069e-05
9.45439e-05
0.000105199
8.98307e-05
0.000262709
9.24352e-05
9.64943e-05
0.000105292
8.29066e-05
9.50605e-05
9.18118e-05
0.000101422
9.73125e-05
9.38613e-05
9.55957e-05
9.27638e-05
0.000108621
6.32758e-05
9.50613e-05
8.18625e-05
0.000106247
7.89179e-05
7.28295e-05
9.46247e-05
0.000105415
0.00011038
6.29561e-05
9.35134e-05
6.89586e-05
7.50789e-05
9.95777e-05
0.00103545
8.92479e-05
8.94508e-05
0.000101637
0.000127913
0.000104746
9.42018e-05
0.000101803
7.52649e-05
6.52065e-05
8.65241e-05
0.00010026
9.60364e-05
7.46634e-05
0.000101261
0.000108426
5.79112e-05
9.24949e-05
8.03842e-05
0.000104563
0.000100156
9.55008e-05
7.96725e-05
0.000108336
9.3381e-05
8.0487e-05
5.66297e-05
8.54569e-05
7.87851e-05
0.000102401
7.55573e-05
9.81084e-05
7.82101e-05
7.03767e-05
8.29105e-05
7.338e-05
0.000117668
0.000103046
0.000102694
8.25153e-05
9.02371e-05
0.000104409
8.38971e-05
6.83792e-05
8.54155e-05
8.94175e-05
0.000111248
9.02098e-05
6.96122e-05
6.95665e-05
6.6289e-05
7.73445e-05
9.30911e-05
0.000383153
0.000108269
8.83125e-05
0.000107498
0.00011385
0.000111661
0.000213025
9.03683e-05
0.000108426
8.92744e-05
9.60925e-05
9.9228e-05
9.81023e-05
8.66812e-05
9.19325e-05
0.000104741
8.67572e-05
0.0001012
8.72738e-05
9.04267e-05
8.57146e-05
8.52825e-05
8.37747e-05
8.03894e-05
9.89546e-05
6.71964e-05
6.72155e-05
8.97206e-05
8.83862e-05
9.40937e-05
8.5773e-05
6.2387e-05
8.86477e-05
5.61495e-05
0.000114216
8.59919e-05
7.4156e-05
9.03023e-05
9.6432e-05
0.000102835
0.000101474
8.59767e-05
9.16462e-05
0.00272383
7.8756e-05
0.000101349
8.22862e-05
0.000309752
0.000116297
0.000102832
0.000104929
0.000126577
9.91219e-05
0.000100932
7.36258e-05
7.60962e-05
0.000105679
8.00773e-05
9.07163e-05
6.44989e-05
8.70563e-05
7.94221e-05
9.03099e-05
0.000105469
0.000187251
6.79188e-05
8.22877e-05
8.25051e-05
8.11041e-05
0.000129833
0.00288253
9.56602e-05
8.96467e-05
9.31201e-05
0.00012755
0.000149542
8.20931e-05
9.61748e-05
9.88493e-05
6.88156e-05
8.6047e-05
6.08739e-05
8.81415e-05
0.000665854
8.79664e-05
8.47919e-05
0.000155873
8.40549e-05
9.70333e-05
0.000106402
0.000144279
8.68086e-05
5.64986e-05
8.86364e-05
0.000694073
9.22498e-05
0.000321915
7.34217e-05
0.000102164
0.000135687
0.000100265
6.883e-05
0.000258716
6.39833e-05
0.00304572
9.26787e-05
0.00345214
8.8281e-05
8.83596e-05
9.59586e-05
8.62073e-05
9.92024e-05
0.00010452
8.56155e-05
9.02307e-05
8.85884e-05
0.000108954
6.47996e-05
9.94361e-05
0.000104737
8.41066e-05
0.00010411
9.01573e-05
7.00382e-05
9.26978e-05
9.4939e-05
0.000103491
0.000121195
0.000113626
9.35358e-05
9.36689e-05
9.00378e-05
0.000112479
8.37075e-05
6.48686e-05
9.26355e-05
6.62916e-05
9.65779e-05
9.31553e-05
7.26438e-05
7.88965e-05
7.74157e-05
6.8408e-05
8.34532e-05
6.28081e-05
0.000100226
9.83234e-05
8.9935e-05
0.000106764
8.67597e-05
8.06461e-05
0.000103329
8.44682e-05
0.000100946
8.53306e-05
0.000110589
0.000106121
0.000100961
7.69315e-05
8.31648e-05
8.3008e-05
7.52007e-05
8.7626e-05
0.000105198
9.44259e-05
0.000103652
8.35734e-05
7.90933e-05
9.11613e-05
6.60913e-05
8.18281e-05
0.000101511
7.33388e-05
9.14022e-05
7.66298e-05
9.48703e-05
7.49847e-05
9.52978e-05
0.000100894
0.000100655
9.10432e-05
8.3196e-05
8.52981e-05
9.31251e-05
9.98704e-05
8.73054e-05
0.000101935
0.000107388
9.42658e-05
8.83518e-05
8.08516e-05
9.35156e-05
0.000108679
0.00011304
7.12368e-05
6.9825e-05
9.61854e-05
9.96405e-05
0.000108372
8.87062e-05
8.96689e-05
9.94132e-05
9.07705e-05
0.000106816
7.56574e-05
8.78792e-05
8.24544e-05
8.65745e-05
8.94212e-05
0.00010723
8.72191e-05
9.94905e-05
0.00010374
8.79946e-05
7.63519e-05
9.73808e-05
9.20784e-05
0.000107425
0.000106897
9.07771e-05
7.60842e-05
8.38476e-05
0.000105201
7.55504e-05
9.06943e-05
7.92133e-05
8.89854e-05
0.000113365
0.000104733
7.66279e-05
0.000101623
0.000108774
0.00180456
8.01566e-05
9.73494e-05
9.55512e-05
7.91618e-05
0.000101094
6.5901e-05
8.55698e-05
9.98042e-05
7.98347e-05
0.000124389
0.000104195
9.97376e-05
7.27663e-05
0.00185213
6.95353e-05
9.42925e-05
9.47358e-05
0.000110565
6.77014e-05
0.000507879
9.53459e-05
0.000107237
8.73375e-05
0.000108479
0.000115967
0.000100166
8.13068e-05
8.4862e-05
6.97681e-05
0.00010587
6.92966e-05
0.000112339
7.20555e-05
8.91991e-05
9.3297e-05
0.00085854
8.56113e-05
0.000116058
7.37577e-05
0.000107738
8.96052e-05
9.87263e-05
0.000107009
0.00182678
8.40732e-05
8.16871e-05
6.70295e-05
0.00145032
7.28911e-05
9.29903e-05
9.91111e-05
0.000117174
9.86383e-05
0.000110289
9.1374e-05
0.000115967
8.8308e-05
0.000100168
7.29625e-05
8.16916e-05
8.38311e-05
0.000111532
9.38215e-05
0.000100105
0.000101342
0.000106086
0.000105502
0.00011289
0.000100041
8.33428e-05
9.77691e-05
0.000102186
9.33303e-05
0.000100422
8.13832e-05
9.04165e-05
8.09865e-05
7.28926e-05
0.000110105
8.84375e-05
0.000101906
8.96044e-05
9.99383e-05
8.7697e-05
8.41923e-05
8.03014e-05
8.51852e-05
9.43842e-05
7.89257e-05
8.57774e-05
9.075e-05
9.67806e-05
8.04747e-05
9.89301e-05
5.95601e-05
0.000105604
8.64679e-05
7.26129e-05
5.20707e-05
9.08188e-05
5.63337e-05
4.49962e-05
9.56118e-05
7.28729e-05
9.20491e-05
8.24494e-05
0.00010075
7.58036e-05
0.000102622
8.27423e-05
8.58244e-05
0.000111446
0.000113466
0.000107705
6.76679e-05
6.20986e-05
0.000111303
8.51893e-05
6.22117e-05
9.59569e-05
0.000105373
8.80105e-05
0.000102981
9.17805e-05
9.78551e-05
6.03897e-05
0.000128253
0.000111283
6.00307e-05
6.23146e-05
0.00108614
8.57281e-05
9.34267e-05
0.00010008
7.72129e-05
9.5983e-05
8.16162e-05
7.60495e-05
8.06839e-05
7.57599e-05
9.39417e-05
0.000103422
8.62168e-05
5.65634e-05
6.03963e-05
0.000117572
6.33195e-05
9.88299e-05
8.28768e-05
9.92275e-05
8.41316e-05
9.71706e-05
0.000100127
9.62278e-05
0.000104445
8.9845e-05
7.4618e-05
8.55487e-05
9.48071e-05
7.18436e-05
0.00010291
0.000104172
9.90866e-05
0.000119542
8.24417e-05
8.39609e-05
9.91522e-05
0.000103153
7.60398e-05
8.42692e-05
0.000100337
9.13391e-05
9.53454e-05
7.61864e-05
8.48474e-05
0.000101122
7.7074e-05
0.000110585
7.86283e-05
9.91595e-05
0.000113825
8.37672e-05
7.15327e-05
9.87468e-05
8.80194e-05
0.000103292
0.000105996
0.00010993
0.000121613
0.00010044
0.000130561
0.000102574
7.04545e-05
8.07351e-05
0.000115826
7.2608e-05
8.34913e-05
7.58891e-05
6.82338e-05
0.00011453
8.54906e-05
9.12835e-05
9.11127e-05
0.000117528
9.20419e-05
6.38851e-05
0.000102779
0.000101657
7.99711e-05
9.90781e-05
9.9135e-05
8.69854e-05
9.42177e-05
9.85159e-05
0.000103661
8.90017e-05
0.000114315
9.26145e-05
0.00227334
6.80656e-05
8.70674e-05
6.0104e-05
0.000118108
9.94864e-05
9.13565e-05
9.26758e-05
8.90549e-05
9.4599e-05
7.56476e-05
9.87087e-05
6.36365e-05
9.49162e-05
8.09735e-05
9.17587e-05
9.2112e-05
0.000106472
0.00011809
8.50494e-05
0.000104813
0.000108115
0.000103753
8.39583e-05
8.71353e-05
0.000103918
8.9247e-05
9.94659e-05
0.00010342
9.93519e-05
9.08272e-05
8.12079e-05
8.45734e-05
8.45257e-05
9.62874e-05
9.67429e-05
7.21842e-05
7.81143e-05
0.000104852
7.42586e-05
9.42082e-05
0.00269578
7.59757e-05
0.0016444
7.51815e-05
9.32648e-05
9.98146e-05
0.000318829
8.34813e-05
7.3229e-05
7.94254e-05
7.78622e-05
0.000114611
9.28531e-05
0.00010037
9.56193e-05
0.000118332
8.4146e-05
7.34653e-05
8.93436e-05
7.12905e-05
0.000112829
8.65518e-05
7.69787e-05
0.000107774
8.78e-05
0.000113275
9.54494e-05
9.56954e-05
9.31488e-05
0.000103239
0.00118771
9.62508e-05
0.000480318
9.60328e-05
0.00149058
0.000100667
9.63257e-05
5.78513e-05
8.91935e-05
9.54258e-05
0.000119655
5.90112e-05
6.60746e-05
8.78468e-05
9.33879e-05
6.28114e-05
8.86438e-05
0.000102681
9.32224e-05
6.94062e-05
0.00010429
8.36288e-05
8.05946e-05
8.7971e-05
8.14617e-05
6.12052e-05
8.99726e-05
8.37851e-05
0.000102763
7.14357e-05
8.7988e-05
7.24969e-05
5.19892e-05
6.42125e-05
8.03159e-05
9.56309e-05
8.65599e-05
0.000235408
9.03074e-05
0.000508435
8.70727e-05
9.53991e-05
9.26502e-05
8.71308e-05
7.42727e-05
8.59589e-05
9.2862e-05
7.90773e-05
8.90338e-05
9.76327e-05
8.08773e-05
0.000118163
9.37653e-05
8.84829e-05
8.6998e-05
0.000220308
0.000104878
9.54424e-05
0.00072008
8.38028e-05
7.36872e-05
0.00010504
9.39483e-05
9.71722e-05
0.000123778
0.00010838
0.000512665
7.86032e-05
0.000607788
9.7927e-05
0.00011069
8.59412e-05
7.58188e-05
0.000103984
8.7904e-05
0.000106887
9.97933e-05
0.000106675
7.55795e-05
0.000117027
9.32943e-05
6.20988e-05
7.97626e-05
7.54757e-05
7.94278e-05
0.000102424
0.00012176
8.26956e-05
8.79613e-05
8.14251e-05
0.000101083
6.25563e-05
7.72493e-05
8.64125e-05
7.86981e-05
9.06798e-05
9.53252e-05
7.7557e-05
6.95587e-05
0.000251225
0.000106838
9.14901e-05
9.66711e-05
0.000100221
8.06992e-05
9.84707e-05
8.79359e-05
9.43144e-05
8.72731e-05
8.93175e-05
6.69031e-05
9.92535e-05
8.3601e-05
8.4204e-05
8.241e-05
0.000107242
6.73677e-05
8.38783e-05
0.000102919
9.7103e-05
9.10084e-05
8.90975e-05
6.92951e-05
9.40376e-05
7.10157e-05
9.25186e-05
6.98705e-05
7.52425e-05
8.84537e-05
0.000100145
9.75135e-05
7.48056e-05
8.47074e-05
8.3384e-05
8.62655e-05
7.39356e-05
8.84159e-05
9.76843e-05
9.72103e-05
8.96586e-05
0.000105908
9.13809e-05
7.78173e-05
0.000103662
9.51877e-05
7.69583e-05
8.41431e-05
7.36183e-05
8.66209e-05
7.12584e-05
9.89781e-05
7.38389e-05
8.98997e-05
7.87069e-05
8.91897e-05
8.54453e-05
9.54049e-05
0.000124694
9.08493e-05
8.32043e-05
9.63876e-05
8.44682e-05
9.33765e-05
9.38885e-05
0.000103902
5.2917e-05
9.63864e-05
9.67744e-05
8.50106e-05
8.48196e-05
9.5344e-05
6.87681e-05
7.23656e-05
8.75624e-05
9.25172e-05
9.25906e-05
0.000103973
0.000106188
9.35551e-05
9.09366e-05
0.000112138
8.77715e-05
0.000107836
0.000103763
0.000101546
0.00010284
0.000110822
0.00013457
0.000100506
9.59729e-05
0.000106057
0.000105046
7.90251e-05
9.58905e-05
9.67238e-05
0.000106386
9.54988e-05
8.11522e-05
7.78637e-05
8.82347e-05
8.96606e-05
8.62377e-05
9.24344e-05
8.81155e-05
0.000100795
9.34099e-05
6.50177e-05
9.57404e-05
9.20364e-05
8.46659e-05
6.80446e-05
0.000106854
0.00248913
8.81538e-05
9.2574e-05
0.000111173
0.000117245
8.70684e-05
8.65725e-05
7.80007e-05
8.3888e-05
8.90989e-05
0.000112287
0.000137329
0.000128116
0.000107294
0.000113758
7.29663e-05
6.18094e-05
8.96268e-05
7.61758e-05
8.71129e-05
9.388e-05
8.40238e-05
7.82782e-05
9.79569e-05
0.00010015
0.000102941
7.53334e-05
0.000100425
9.18412e-05
7.90649e-05
9.15982e-05
0.000104496
0.000101575
6.41217e-05
0.000118189
0.000100948
8.94764e-05
8.79111e-05
9.37663e-05
9.54773e-05
0.000134739
0.000121485
9.22352e-05
9.17266e-05
0.000110458
0.00249331
7.34054e-05
8.0782e-05
0.000103658
7.74314e-05
0.000106963
8.97477e-05
6.11178e-05
7.37002e-05
0.000109272
0.000126815
7.15711e-05
9.75373e-05
0.000108749
8.8886e-05
8.73085e-05
9.25716e-05
6.43977e-05
8.59604e-05
7.12343e-05
0.000101919
9.96383e-05
8.46112e-05
0.000100402
7.31397e-05
9.30369e-05
8.70741e-05
9.0053e-05
9.99662e-05
8.52053e-05
0.000101773
6.56748e-05
9.60799e-05
0.00010997
0.000103672
0.00010114
0.000102366
7.61233e-05
6.07556e-05
9.88646e-05
0.000114134
0.00119105
0.000278127
0.000100943
9.70117e-05
0.000102393
0.000112468
7.33556e-05
9.36145e-05
6.43796e-05
9.07309e-05
8.13212e-05
5.86817e-05
0.000103234
7.09417e-05
8.29967e-05
0.000111668
8.51291e-05
7.01243e-05
8.43609e-05
8.8272e-05
8.87524e-05
0.000135543
0.000108403
8.85412e-05
6.643e-05
7.79289e-05
9.65841e-05
0.000103265
9.46395e-05
7.03796e-05
6.7774e-05
6.86236e-05
0.000229677
9.14472e-05
9.02956e-05
8.29345e-05
0.000113784
7.84076e-05
8.62777e-05
8.32924e-05
9.9105e-05
5.52252e-05
8.39969e-05
7.04307e-05
0.000111684
8.83689e-05
0.000107043
8.76242e-05
0.000100302
9.36482e-05
8.80427e-05
9.1268e-05
7.10683e-05
0.000100516
6.53508e-05
8.15071e-05
9.01603e-05
0.000117569
9.79183e-05
8.45883e-05
0.000100825
8.03452e-05
9.67551e-05
8.05763e-05
9.00262e-05
9.23952e-05
8.71989e-05
8.44927e-05
0.000100549
9.30322e-05
8.34171e-05
8.73186e-05
8.07746e-05
9.92747e-05
9.16306e-05
9.27012e-05
0.000108759
8.26794e-05
0.00171776
0.000101955
7.87616e-05
0.000100271
0.000148975
0.000120206
8.12069e-05
8.78112e-05
6.70483e-05
9.71719e-05
0.000129251
0.000117946
0.000110363
9.54692e-05
7.72901e-05
9.40065e-05
0.000119146
0.00011117
0.000110665
0.000100484
0.000125299
9.86849e-05
8.9397e-05
8.42284e-05
8.1524e-05
9.84717e-05
0.000104641
0.000102787
0.000180447
0.000100853
8.76429e-05
6.7367e-05
0.000823734
9.65651e-05
8.95656e-05
9.20956e-05
8.85642e-05
0.000103881
6.23667e-05
5.8187e-05
6.06938e-05
8.20506e-05
7.59771e-05
0.000105683
5.61609e-05
6.82715e-05
6.52778e-05
7.1865e-05
8.97941e-05
8.51189e-05
0.000110125
0.000100937
8.28002e-05
7.87514e-05
8.2125e-05
9.22433e-05
8.75387e-05
0.000108918
0.000109263
0.000113443
9.8983e-05
0.000107223
8.56211e-05
0.000103347
9.61154e-05
9.81188e-05
0.000120172
8.65702e-05
8.83901e-05
8.99229e-05
9.85461e-05
8.39856e-05
9.53616e-05
9.44155e-05
9.49882e-05
7.73819e-05
9.24832e-05
8.74672e-05
9.45661e-05
9.85749e-05
7.86183e-05
0.000115223
0.000133696
0.000105274
9.2599e-05
0.000114872
8.8655e-05
8.52536e-05
0.00010479
9.47224e-05
7.02024e-05
9.53633e-05
0.000103829
8.85326e-05
9.15928e-05
0.000111127
7.36401e-05
9.1149e-05
9.42676e-05
9.68488e-05
0.000121587
9.2728e-05
0.000102587
9.93233e-05
0.000120079
9.04208e-05
0.000101816
7.51753e-05
7.96427e-05
0.000102724
9.3423e-05
9.36815e-05
0.000117619
7.9228e-05
8.66032e-05
8.48024e-05
9.34888e-05
0.000103361
9.71084e-05
0.000107761
0.000107353
0.000118725
8.54513e-05
0.000106469
9.31467e-05
8.37505e-05
0.000102222
7.45138e-05
8.00665e-05
8.58336e-05
9.13232e-05
9.89278e-05
0.000111291
9.94193e-05
9.68615e-05
8.85488e-05
7.3741e-05
8.78675e-05
0.000102115
9.40233e-05
9.06498e-05
8.18768e-05
0.000114398
0.00010158
8.3508e-05
8.95491e-05
8.79194e-05
8.55644e-05
9.9207e-05
8.28778e-05
0.000105461
8.25994e-05
8.34828e-05
9.34302e-05
0.000100872
8.72846e-05
7.8128e-05
8.3955e-05
0.000102633
8.75815e-05
7.68495e-05
0.000117527
0.000107412
0.000101747
8.50241e-05
6.92103e-05
9.69179e-05
9.56434e-05
7.47456e-05
9.17148e-05
6.87284e-05
0.000122422
9.62837e-05
0.000106274
9.80688e-05
5.77975e-05
8.53119e-05
7.548e-05
6.83166e-05
0.000107463
7.24028e-05
6.01523e-05
9.46486e-05
8.1837e-05
5.88246e-05
7.63104e-05
9.79137e-05
9.95692e-05
9.16077e-05
6.41235e-05
9.0893e-05
0.000109088
8.31631e-05
9.32236e-05
8.62362e-05
0.000101619
8.4639e-05
7.1805e-05
8.26849e-05
0.000112612
0.000100138
6.83456e-05
8.36291e-05
8.79923e-05
0.000111037
8.48472e-05
8.15788e-05
7.47257e-05
8.33464e-05
0.000100105
9.61462e-05
7.84092e-05
0.000143161
8.86878e-05
8.63973e-05
8.19788e-05
7.09745e-05
8.70287e-05
9.31565e-05
7.10285e-05
8.21827e-05
0.000107343
0.000161052
8.82524e-05
0.000109218
7.96624e-05
0.000115866
9.89559e-05
8.77823e-05
8.636e-05
8.33341e-05
9.04453e-05
9.05724e-05
8.49932e-05
6.81563e-05
9.77436e-05
8.79092e-05
0.000115511
0.000106062
0.000102007
9.77903e-05
9.94474e-05
8.53722e-05
8.83104e-05
8.38834e-05
7.20077e-05
9.1285e-05
8.79839e-05
8.86428e-05
8.99735e-05
0.000102948
0.000110005
9.13936e-05
6.16069e-05
9.70031e-05
8.10141e-05
9.30034e-05
9.13813e-05
5.93476e-05
9.52474e-05
6.59791e-05
8.69385e-05
8.84119e-05
6.39884e-05
8.92281e-05
8.80985e-05
8.33516e-05
9.30745e-05
0.000105358
0.000101357
0.000110431
8.2557e-05
9.014e-05
9.56634e-05
0.000119066
0.000111377
9.75813e-05
0.000149118
8.6102e-05
0.000100942
0.000105773
0.000108506
0.000102
7.98886e-05
0.000104029
9.55542e-05
8.82806e-05
0.000109665
7.40143e-05
9.39177e-05
8.2398e-05
9.32572e-05
8.11738e-05
7.10708e-05
9.59555e-05
8.54323e-05
9.35914e-05
0.000100195
7.92514e-05
7.22837e-05
8.89517e-05
7.83799e-05
7.69899e-05
7.07126e-05
0.000103665
7.43893e-05
8.76742e-05
7.43046e-05
6.52153e-05
8.10732e-05
5.91013e-05
8.82328e-05
9.40258e-05
8.71385e-05
8.01564e-05
0.000118187
9.67136e-05
0.000103232
7.4452e-05
9.2801e-05
8.01572e-05
0.000103672
0.000125404
6.81065e-05
8.02544e-05
9.47081e-05
6.11187e-05
6.11241e-05
6.82322e-05
9.73444e-05
9.16075e-05
9.89765e-05
8.31054e-05
9.3572e-05
8.51832e-05
6.66783e-05
9.70758e-05
6.80826e-05
9.24636e-05
8.6037e-05
8.2094e-05
0.000110929
8.99389e-05
8.66177e-05
7.7029e-05
6.20013e-05
0.000108446
0.000105733
6.85575e-05
0.000103785
9.03461e-05
6.90421e-05
6.9236e-05
6.98912e-05
6.14638e-05
8.84986e-05
8.01804e-05
8.27204e-05
0.000112626
9.59283e-05
0.000111159
7.15838e-05
9.74605e-05
0.000125305
0.000105599
8.53101e-05
9.28155e-05
6.59255e-05
9.46107e-05
9.02358e-05
8.29507e-05
0.000118116
9.45919e-05
9.00069e-05
9.07e-05
0.000100684
7.64747e-05
6.89203e-05
0.000109407
9.45506e-05
8.99732e-05
0.000116072
9.89872e-05
6.77609e-05
8.5799e-05
8.40988e-05
9.62796e-05
6.16374e-05
9.65713e-05
9.41434e-05
0.000101043
0.000103039
9.28134e-05
5.61997e-05
7.53927e-05
0.0001012
0.000101448
0.00011244
6.55678e-05
0.000101463
6.82522e-05
8.03125e-05
7.38122e-05
9.15943e-05
8.78484e-05
6.79292e-05
9.78553e-05
8.8353e-05
6.81633e-05
8.13004e-05
8.87138e-05
0.00219491
0.000108466
0.000121143
7.51661e-05
7.9643e-05
9.37352e-05
9.19386e-05
0.000166761
8.71291e-05
8.94628e-05
9.33943e-05
8.47351e-05
7.64655e-05
8.4545e-05
0.000102191
9.55061e-05
6.28356e-05
6.71936e-05
7.52317e-05
8.97544e-05
8.57152e-05
7.71074e-05
0.000101878
7.83848e-05
0.000107039
6.0122e-05
9.87548e-05
7.4654e-05
9.98953e-05
9.79702e-05
8.16155e-05
8.29661e-05
0.000115643
8.37161e-05
0.000120371
9.04645e-05
6.14922e-05
9.89798e-05
0.00010543
9.30293e-05
7.90052e-05
0.000704473
6.62238e-05
0.000102041
0.000128852
7.07637e-05
0.000119847
7.78562e-05
6.25864e-05
8.52249e-05
8.74217e-05
6.84285e-05
7.73489e-05
6.46782e-05
6.06943e-05
6.29358e-05
7.36501e-05
8.92997e-05
0.000102164
9.3229e-05
7.22485e-05
9.8049e-05
8.37216e-05
9.03105e-05
0.000116455
0.00010971
0.000100989
0.00125858
8.11836e-05
7.61687e-05
9.50729e-05
8.79555e-05
0.000111314
0.000106417
8.81987e-05
8.20707e-05
9.12491e-05
0.000158989
8.85742e-05
8.92183e-05
9.47105e-05
5.95491e-05
8.5491e-05
9.48794e-05
9.28932e-05
0.0026831
8.71279e-05
8.38903e-05
7.46802e-05
8.19212e-05
0.000109507
7.54257e-05
8.97209e-05
7.63635e-05
0.00010938
7.79713e-05
0.000121846
0.000405346
0.000716217
9.11656e-05
8.93926e-05
0.000106707
9.28647e-05
8.26364e-05
8.32493e-05
6.60309e-05
6.68196e-05
9.23674e-05
6.32088e-05
6.5098e-05
0.00124362
0.000104614
0.000104463
6.8522e-05
0.000114307
9.19261e-05
0.000102446
8.8927e-05
8.04721e-05
9.65949e-05
8.02592e-05
8.48938e-05
0.000104133
8.89116e-05
0.000114568
9.09556e-05
9.38543e-05
8.52888e-05
0.000102479
8.82566e-05
9.86488e-05
0.00010036
9.00615e-05
8.85242e-05
8.96455e-05
8.80221e-05
8.98747e-05
8.92816e-05
8.25133e-05
5.86678e-05
7.44611e-05
0.000106472
0.000101648
9.53986e-05
0.000105227
8.51843e-05
0.000367392
7.92421e-05
9.85184e-05
8.41118e-05
9.30172e-05
9.82219e-05
9.28048e-05
9.13391e-05
8.84357e-05
6.37519e-05
9.12315e-05
9.17634e-05
7.21806e-05
9.33352e-05
9.00406e-05
0.000113565
9.9683e-05
0.000102178
0.000100645
0.000123693
9.07416e-05
0.000117928
4.99172e-05
6.40754e-05
9.57624e-05
9.21321e-05
0.000174493
9.22692e-05
0.000104142
8.60784e-05
7.09043e-05
9.92201e-05
0.000115984
0.000128626
0.000112837
8.87911e-05
9.52695e-05
9.50552e-05
0.00013725
9.74178e-05
9.53793e-05
0.000100718
9.6266e-05
9.75242e-05
8.8089e-05
9.64067e-05
8.66914e-05
9.31161e-05
9.78856e-05
8.88614e-05
6.5725e-05
6.896e-05
8.41563e-05
9.61651e-05
8.49937e-05
9.27256e-05
8.84798e-05
9.86067e-05
5.4484e-05
8.38532e-05
9.62667e-05
7.07066e-05
8.37055e-05
0.000115005
7.74485e-05
8.94837e-05
0.000115533
6.27493e-05
0.00010167
6.12312e-05
7.98346e-05
0.000106458
0.000103034
7.92635e-05
7.1559e-05
8.76161e-05
0.000118415
0.000101732
9.64884e-05
0.000106329
7.43266e-05
9.49185e-05
0.000121307
6.22452e-05
9.86412e-05
8.73258e-05
0.000118227
7.39487e-05
8.74297e-05
6.85783e-05
0.000106501
0.000100721
9.53992e-05
0.000126953
8.53106e-05
8.60386e-05
0.000102398
0.000102063
8.99406e-05
7.0332e-05
9.70352e-05
8.48294e-05
8.56731e-05
0.000111725
9.27339e-05
9.01498e-05
8.04166e-05
7.23581e-05
9.54493e-05
7.28429e-05
0.000112967
0.000112671
0.00011062
9.10826e-05
9.29111e-05
8.91434e-05
0.000110454
9.06353e-05
9.1928e-05
9.04643e-05
7.06229e-05
8.58806e-05
9.40496e-05
8.32359e-05
8.27093e-05
9.25602e-05
7.96876e-05
8.34687e-05
9.77932e-05
7.03837e-05
8.51017e-05
0.000121144
6.86219e-05
8.57666e-05
7.94365e-05
8.85277e-05
0.000102931
0.000103169
9.70607e-05
8.70295e-05
8.9177e-05
8.40926e-05
8.0488e-05
8.55154e-05
8.23243e-05
7.89522e-05
9.16317e-05
9.75428e-05
8.45954e-05
7.81494e-05
9.57892e-05
8.66292e-05
9.93135e-05
7.68644e-05
8.15804e-05
7.81308e-05
8.35374e-05
8.65678e-05
7.66779e-05
8.53745e-05
9.20939e-05
7.58352e-05
8.7492e-05
0.000102361
0.000101743
8.38064e-05
9.25945e-05
7.59893e-05
5.39231e-05
0.00011071
7.87367e-05
8.86189e-05
7.99027e-05
9.00215e-05
0.000115731
9.32207e-05
0.00010703
0.000115051
9.05077e-05
8.5394e-05
9.29234e-05
7.53334e-05
8.57047e-05
7.68148e-05
7.28882e-05
6.83462e-05
9.91761e-05
8.76603e-05
8.91562e-05
0.000102465
0.000100501
8.41956e-05
8.211e-05
7.85786e-05
7.16823e-05
8.54126e-05
9.78493e-05
8.40124e-05
8.33445e-05
8.62514e-05
0.000125469
9.55885e-05
7.2714e-05
8.49815e-05
0.000100402
8.64514e-05
0.000171606
0.000117781
0.000118033
6.86759e-05
0.000329118
0.000113845
9.46596e-05
7.15203e-05
0.00018394
9.93992e-05
7.44947e-05
9.25668e-05
8.91886e-05
9.50446e-05
8.49204e-05
7.14447e-05
8.49729e-05
9.65091e-05
7.16374e-05
8.10368e-05
8.36356e-05
8.41107e-05
7.45709e-05
0.000104936
8.76786e-05
9.77055e-05
8.98303e-05
8.1829e-05
0.000110955
8.12977e-05
8.18675e-05
7.61754e-05
9.26765e-05
6.52667e-05
0.000111809
8.2336e-05
9.47961e-05
7.04872e-05
9.33294e-05
0.00010735
7.73731e-05
0.000106256
8.90778e-05
9.03387e-05
9.37341e-05
7.15718e-05
7.71499e-05
0.000114424
7.67198e-05
6.92997e-05
8.32259e-05
9.499e-05
9.26466e-05
9.11883e-05
9.34381e-05
9.24817e-05
9.04833e-05
8.40878e-05
9.80017e-05
9.07554e-05
0.000108689
8.70182e-05
9.14806e-05
9.38268e-05
8.22428e-05
9.55393e-05
9.22773e-05
9.69441e-05
8.56071e-05
9.8246e-05
8.96065e-05
9.1597e-05
0.000101791
8.45102e-05
8.55099e-05
9.46233e-05
0.000129747
7.34805e-05
0.000103995
0.000109282
0.000116336
9.45957e-05
0.000105807
0.00010245
9.91749e-05
8.69549e-05
9.8522e-05
6.07153e-05
0.00011611
0.000106344
9.85239e-05
8.52173e-05
9.73985e-05
0.000108226
7.30168e-05
0.000100473
5.74166e-05
9.75711e-05
0.000102534
7.0024e-05
8.73492e-05
7.98018e-05
0.000117644
8.29333e-05
8.39693e-05
4.70832e-05
0.000291856
9.89648e-05
7.76671e-05
0.000590707
7.98941e-05
7.50919e-05
7.07633e-05
8.95825e-05
0.000338196
8.85093e-05
0.000109764
0.000108952
0.00010014
0.000752795
8.72557e-05
7.36313e-05
0.00010124
7.8454e-05
0.000126059
7.31316e-05
8.59787e-05
0.000101722
6.70206e-05
8.05156e-05
7.46376e-05
7.22374e-05
8.49216e-05
7.08197e-05
9.25685e-05
0.000113476
0.000114073
6.77888e-05
8.87981e-05
7.49012e-05
9.70917e-05
6.19483e-05
6.99509e-05
8.78489e-05
9.14814e-05
9.90997e-05
0.000106397
8.88028e-05
0.000122588
8.96922e-05
9.7587e-05
0.000100181
8.69253e-05
8.85603e-05
0.000101064
8.12927e-05
8.66963e-05
7.97334e-05
8.72635e-05
9.17312e-05
0.000112262
6.7294e-05
9.97073e-05
8.09443e-05
6.69817e-05
8.57807e-05
0.000187571
6.52386e-05
8.94006e-05
8.29805e-05
6.77644e-05
8.65248e-05
8.28638e-05
0.000109287
6.65652e-05
0.000109478
9.35003e-05
7.0059e-05
0.000103043
9.58607e-05
8.54997e-05
0.000104015
9.55111e-05
7.08447e-05
0.000102491
8.50409e-05
6.97594e-05
9.00634e-05
0.000100249
8.4904e-05
6.96411e-05
0.000103069
9.5225e-05
9.97732e-05
9.89434e-05
9.29816e-05
9.31062e-05
0.000105199
7.65376e-05
0.000111492
9.62374e-05
7.83187e-05
0.000107764
0.000114344
9.68924e-05
9.95627e-05
8.82797e-05
0.000101028
8.50534e-05
0.000100493
7.34812e-05
8.80311e-05
9.4432e-05
9.47361e-05
9.45091e-05
9.53661e-05
0.000102928
9.65411e-05
6.69254e-05
0.00010164
9.97893e-05
0.000128058
9.08976e-05
8.41655e-05
0.000102346
5.28577e-05
8.36021e-05
8.21808e-05
9.66108e-05
6.68327e-05
9.5167e-05
0.000110683
8.48109e-05
9.29212e-05
0.00010346
5.73244e-05
8.7654e-05
9.30287e-05
9.44887e-05
8.82431e-05
0.000118589
0.000110861
5.6171e-05
0.000123906
0.000107632
5.47716e-05
8.5951e-05
0.000102216
5.3221e-05
9.33589e-05
9.09205e-05
0.000106084
9.50484e-05
7.7304e-05
8.62609e-05
5.54544e-05
9.88156e-05
9.47811e-05
5.44689e-05
0.000112339
9.70162e-05
5.93665e-05
0.000100242
9.58353e-05
0.000116975
9.13727e-05
9.27413e-05
9.42746e-05
8.75735e-05
6.54168e-05
9.98096e-05
9.32647e-05
6.5894e-05
9.78937e-05
9.66422e-05
6.22618e-05
8.24258e-05
8.6526e-05
8.32868e-05
9.17895e-05
9.07159e-05
8.88211e-05
0.000279398
8.53097e-05
9.90973e-05
9.44217e-05
5.96892e-05
0.000112363
9.37374e-05
6.02457e-05
7.89433e-05
6.20176e-05
0.000112624
8.51939e-05
0.000111973
9.23585e-05
5.39706e-05
0.000105654
5.78925e-05
0.000101382
8.79725e-05
5.93028e-05
9.87278e-05
9.35622e-05
9.79452e-05
6.31897e-05
0.000102707
9.28539e-05
6.24333e-05
8.0503e-05
8.82521e-05
6.25507e-05
6.74647e-05
8.73789e-05
0.000113191
7.42332e-05
9.86961e-05
8.25989e-05
8.45484e-05
0.000116955
0.000105224
6.69894e-05
0.000100676
7.43375e-05
5.95476e-05
0.000106434
9.0798e-05
0.000102811
5.81643e-05
9.89707e-05
9.86234e-05
9.61747e-05
0.000105997
9.29664e-05
0.000103722
5.57149e-05
8.71369e-05
0.000113765
6.29771e-05
6.08296e-05
9.13686e-05
8.70203e-05
8.57518e-05
0.000102758
0.000140016
5.30188e-05
8.52575e-05
7.59945e-05
9.25214e-05
6.06161e-05
5.33173e-05
5.43986e-05
9.09903e-05
5.82996e-05
9.13804e-05
5.94251e-05
6.15158e-05
8.94436e-05
9.71118e-05
9.70596e-05
9.43543e-05
6.44807e-05
0.000105051
9.70308e-05
0.000102596
8.71152e-05
8.80504e-05
0.00011752
0.000115647
0.000102992
9.66854e-05
6.78813e-05
0.000110834
0.00010377
0.000105738
0.000102036
5.61338e-05
0.000116633
8.4593e-05
9.00387e-05
8.33025e-05
9.22647e-05
7.72087e-05
8.90393e-05
0.000129127
6.74435e-05
6.88489e-05
8.14006e-05
6.36289e-05
9.15401e-05
8.56602e-05
9.22548e-05
6.80391e-05
8.75112e-05
9.48005e-05
8.46102e-05
9.51697e-05
9.70709e-05
8.90838e-05
6.25143e-05
0.000101635
9.33597e-05
8.30262e-05
0.000113301
5.91128e-05
9.00309e-05
9.89162e-05
0.000100335
8.53583e-05
9.45505e-05
8.67798e-05
8.53867e-05
7.24881e-05
8.60651e-05
0.000106031
9.98016e-05
7.3742e-05
6.45118e-05
8.75688e-05
5.96979e-05
8.33469e-05
0.000103
0.000110586
7.98075e-05
0.000115366
9.33611e-05
9.35897e-05
9.65871e-05
0.000118096
0.000110746
7.73268e-05
6.31935e-05
0.000100603
7.8619e-05
6.02243e-05
0.000102543
0.000105579
0.000116248
8.21896e-05
9.50693e-05
0.000105747
8.65494e-05
8.90468e-05
9.19003e-05
6.55753e-05
9.97518e-05
8.25247e-05
7.15686e-05
0.000109487
0.000101195
0.000113172
6.32184e-05
9.21386e-05
0.000124561
9.61004e-05
6.58138e-05
9.20539e-05
7.80021e-05
8.92218e-05
6.34168e-05
7.50193e-05
0.000219106
5.98e-05
9.50951e-05
0.000103023
8.46902e-05