/*--------------------------------*- C++ -*----------------------------------*\
| =========                 |                                                 |
| \\      /  F ield         | OpenFOAM: The Open Source CFD Toolbox           |
|  \\    /   O peration     | Version:  v2012                                 |
|   \\  /    A nd           | Website:  www.openfoam.com                      |
|    \\/     M anipulation  |                                                 |
\*---------------------------------------------------------------------------*/
FoamFile
{
    version     2.0;
    format      ascii;
    class       volScalarField;
    location    "1.5";
    object      p_rgh;
}
// * * * * * * * * * * * * * * * * * * * * * * * * * * * * * * * * * * * * * //

dimensions      [1 -1 -2 0 0 0 0];


internalField   nonuniform List<scalar> 
108993
(
0.210931
0.208895
0.192071
0.0695603
0.0927504
0.128447
0.237132
0.093539
0.0857993
0.237107
0.196793
0.192879
0.0792557
0.21666
0.188732
0.352104
0.252005
0.206898
0.0745307
0.152856
0.115811
0.0572413
0.229933
0.158649
0.0769812
0.127858
0.0611749
0.163607
0.143794
0.121797
0.0724302
0.213572
0.0597236
0.23573
0.053905
0.11035
0.0658059
0.12428
1.14843
0.958996
0.204861
0.122724
0.214896
0.0647808
0.401215
1.10107
0.0621193
0.238425
0.14019
0.138388
0.0695966
0.376261
0.206127
0.0716165
0.211511
0.176148
0.0594464
0.0929676
0.0989821
0.0923431
0.0949979
0.0822775
0.120084
0.0958042
0.0706396
0.1336
0.0765959
0.0911312
0.217466
0.355206
0.156435
0.0872341
0.106428
0.0900386
0.151589
0.0834016
0.0966127
0.255365
0.0600711
0.0780621
0.139774
0.218313
0.0872013
0.172116
0.205178
0.215107
0.167052
0.19798
0.092005
0.0813902
0.0832278
0.0796712
0.0848186
0.0865761
0.0852685
0.220402
0.0783554
0.138347
0.0741819
0.0869811
0.0858436
0.0746923
0.174504
0.211753
0.127967
0.0836183
0.125636
0.0289325
0.0680498
0.911036
0.374992
0.0816791
0.310062
0.355595
0.124432
0.61586
0.0968683
0.17041
0.359755
0.0776829
0.216578
0.0695601
0.526177
0.191391
0.118968
0.333431
0.209668
0.16446
0.0656374
0.0581732
0.222624
0.0648279
0.111094
0.487894
0.116246
0.169776
0.070506
0.119078
0.121127
0.216983
0.18622
0.0982492
0.383647
0.0668194
0.0606896
0.111975
0.132616
0.878687
0.190044
0.656342
0.644877
0.124746
0.24374
0.683771
0.101147
0.282375
0.190257
0.0186561
0.0372789
0.387317
0.666629
0.014816
0.0805695
0.144192
0.209782
0.330748
0.0931687
0.0987456
0.097927
0.135564
0.0800029
0.170215
0.380528
0.155565
0.111146
0.118367
0.347784
0.0994343
0.139599
0.0959215
0.246571
0.0935218
0.0346369
0.188207
0.216374
0.143773
0.0436236
0.203419
0.202019
0.189317
0.166298
0.0450112
0.170137
0.310846
0.124777
0.201725
0.205142
0.145308
0.122193
0.186529
0.0938167
0.322283
0.12844
0.00638206
0.273052
0.594646
0.124503
0.725682
0.127893
-0.34148
0.334152
0.133869
0.340245
0.147254
1.41195
0.12775
0.191514
0.124091
0.0307181
0.0709148
0.0824947
0.622993
0.254157
0.313817
0.0743127
0.100715
0.0189401
0.147712
0.499327
0.123532
0.949316
0.154989
0.100183
0.200968
0.0948923
0.0754636
0.0619699
0.0738007
0.32455
0.0185696
0.0850388
0.129391
0.0943561
0.0124401
0.036706
0.356369
0.245064
0.560693
0.0193387
0.0743847
0.0904529
0.0683699
0.103066
0.130413
0.0278181
0.0132205
0.0277923
0.197257
0.070543
0.128394
0.135612
0.15208
0.317141
0.343998
0.053186
0.135027
0.136652
0.133352
0.128366
0.118433
0.0930082
0.178174
0.663835
-0.169223
0.839064
0.13534
0.0786502
0.404833
0.191563
0.144954
0.141751
1.13709
1.13632
0.123528
0.0776493
0.2713
0.078842
0.13057
0.21178
0.835976
0.218158
0.12286
0.132824
0.125268
0.11199
0.139716
0.0773387
0.130287
0.305221
0.094737
0.59999
0.527039
0.12887
0.0944224
0.106698
0.224096
0.0397479
0.165444
0.2248
0.579995
0.0955624
0.0867573
0.281066
0.11586
0.223248
0.605944
0.0964919
0.271321
1.03083
0.115431
0.198964
0.0956333
0.177554
0.176812
0.145733
0.912004
0.853771
0.653559
0.0784031
0.203792
0.0740918
0.647101
-0.0832933
0.106255
0.864835
0.135861
0.110604
0.0904237
0.126661
0.0741301
0.100133
0.568455
0.108577
0.134372
0.19153
0.1991
0.156344
0.107768
0.0786134
0.159007
0.125756
0.128197
1.13354
0.741055
0.0478362
0.122801
0.136355
0.887906
0.185771
0.102126
0.259177
0.103087
0.155547
0.156477
0.148437
0.148315
0.150968
0.0792364
0.195286
2.2755
0.244914
0.255535
0.160712
0.0682131
0.146845
0.732291
0.219615
0.128159
0.600792
0.167278
0.688699
0.618232
0.137015
0.395853
0.198231
0.237287
0.254036
1.05023
0.143562
0.804005
0.680371
0.237305
0.709383
0.223041
0.722253
0.125826
3.10791
0.0788978
0.351243
0.0865728
0.135738
0.387672
0.539221
0.109366
0.0671736
0.237441
0.237176
0.136835
0.205578
-0.660836
0.212847
0.179941
1.68082
0.142942
0.204144
0.0953258
0.832388
0.345445
0.654706
0.0964998
-0.406182
0.204671
-0.230202
0.101005
0.0921386
-0.316875
0.125779
0.610305
-0.322035
0.0929649
4.02087
1.07079
-2.30904
0.063911
0.124588
0.237857
0.0287685
0.108225
0.102362
0.104984
0.200043
0.144422
0.152016
0.101692
0.360923
0.261556
0.236656
0.380612
0.147135
0.101626
0.219563
0.0896478
0.14929
0.236504
0.103257
0.180653
0.202921
0.100297
0.171038
0.0905752
0.506048
0.200637
0.503222
0.662971
0.340956
0.177577
0.141599
0.505916
0.181102
0.190959
0.32171
0.0998232
0.0863691
0.251561
0.0382856
0.333864
0.106095
0.316683
0.72798
0.387497
0.123977
0.0927669
0.0994645
0.148221
0.239601
0.184471
0.185761
0.18049
0.384943
0.222937
0.203977
0.165109
0.351276
0.190944
0.38386
0.119806
0.24454
0.142404
0.159853
0.179775
0.0691462
0.100206
0.1155
0.167246
0.3918
0.616182
0.156642
0.108962
0.975586
0.157439
0.343172
0.245294
0.093803
0.244638
0.155072
0.012768
0.130999
0.152054
0.171629
0.207985
0.0247498
0.0114631
0.23462
0.233479
0.137003
0.433524
0.232052
0.157508
0.435527
0.23277
0.131479
0.113296
0.423722
0.220983
0.127839
0.127708
0.271645
0.206787
0.267717
0.736794
0.127709
0.777184
0.0941443
0.121292
0.177043
0.129854
0.112578
0.42587
0.146118
0.0864019
0.59033
0.128207
1.2024
0.130971
0.20119
0.125632
0.0801181
0.19522
1.33995
0.166936
0.234001
0.0966837
0.183286
0.238588
0.352122
0.670691
0.191405
0.106885
0.197375
0.201479
0.190639
0.21186
5.65344
0.352343
0.665233
0.23948
0.186937
0.35084
-0.226935
0.284877
0.24931
0.181037
0.153034
0.0774843
0.16288
0.379224
1.11369
0.350964
0.217422
0.101772
0.212707
0.141447
0.173733
0.156904
-0.679069
0.0878832
0.0937378
0.140487
0.211376
0.34039
0.168029
0.199648
-0.8039
0.287322
0.215966
0.147197
-0.641656
0.145106
0.284711
0.197197
0.443487
0.208962
0.411592
0.197527
0.221995
0.161877
0.313657
0.142251
0.643653
0.0845817
0.387055
0.0845059
0.173862
0.79912
0.192566
0.0952979
0.099678
0.544394
1.12131
0.316954
0.682106
0.158145
0.559344
0.637112
0.308976
0.129777
0.143874
1.17123
0.409538
0.358799
0.213093
0.357334
0.142757
0.273087
0.110728
0.314474
0.243242
0.345314
0.394021
0.315232
0.308384
0.390082
0.66819
1.0048
0.344166
0.175737
0.493446
1.00533
0.360264
1.00527
1.00526
0.123988
0.279587
0.121711
0.12131
0.179357
0.233631
0.310596
0.583132
0.69486
0.325177
0.243313
0.336455
1.00518
1.00466
0.0832
0.299104
0.319807
0.11518
0.886753
0.21825
0.338798
0.343207
0.306763
0.843429
0.313291
0.388678
0.318201
0.317251
2.4105
0.0479574
0.171812
0.370393
0.226154
0.182144
1.47746
0.28596
0.788704
0.287189
1.21175
0.323069
0.112135
0.0906408
0.0902512
0.35214
0.0990079
0.397974
0.218351
0.109195
0.0904325
0.284925
0.757429
1.16812
0.148764
1.1736
0.172665
0.34005
0.368134
0.0943998
0.350839
0.173522
0.322908
0.307801
0.352612
0.214672
0.337912
0.287184
0.359787
0.56152
0.0994037
0.367
0.326478
0.355687
0.34059
0.227886
0.0947042
0.308888
0.0987199
0.176638
0.223863
0.20115
0.35701
1.07947
0.84479
0.274152
0.268612
0.294434
0.303214
0.282218
0.33373
0.19154
0.099294
0.0965638
0.267537
0.0986471
0.275089
0.0963364
0.321218
0.38007
0.146712
0.303016
0.0988479
0.26919
0.228275
0.353212
0.177836
0.211359
0.725023
0.0729434
0.149165
0.23178
0.326234
0.108046
0.564733
0.609051
0.230461
0.237555
3.68381
0.603545
0.250592
0.159738
0.345249
0.239941
0.23738
0.256219
0.125354
0.268324
0.0960399
0.116575
0.353429
0.0855198
1.00132
0.114328
0.17288
0.992084
0.318017
0.864812
0.247758
0.340852
0.122137
0.266836
0.335465
0.0834634
0.233028
0.319791
0.104399
0.182341
0.213779
0.14307
0.141855
0.219943
0.197376
0.0891724
0.355053
0.155816
0.536659
0.219595
0.206567
3.79674
0.220015
1.80467
0.24145
0.221274
0.262264
1.7127
0.282818
0.22276
0.345218
0.285418
0.209795
0.254112
0.696431
0.347281
0.21863
0.421164
0.22082
0.226182
0.362411
1.02434
0.227898
0.171416
0.250201
0.271933
0.25307
0.224176
0.368916
0.232108
0.206789
-1.16582
0.227073
-0.837773
0.23425
-1.04923
0.233723
0.255107
0.237781
0.409697
0.258712
0.21376
0.237847
0.23784
0.378784
0.246532
1.05624
0.0620498
0.0595686
0.219554
0.432734
0.28393
0.422914
0.0836142
0.151979
0.366281
1.05479
0.136255
0.407798
0.40285
0.344976
0.19236
0.280552
1.00517
1.05097
0.291573
0.400522
0.246351
-0.106687
0.0928676
-0.343339
0.992413
1.3679
0.0829311
0.0770408
0.390802
0.333519
0.301004
0.0228309
0.0984822
0.370795
0.597216
0.0857981
0.491468
0.253275
0.157908
0.0524425
0.073333
0.163131
0.128689
1.47059
0.163453
0.228318
0.094859
0.210872
0.341686
0.345619
-0.241083
0.187629
-0.312881
0.365716
0.340944
0.182072
0.214875
0.32157
0.237158
0.151226
0.0217936
0.295932
0.159018
0.351597
0.104746
0.113279
0.56729
0.112651
0.398371
0.377976
0.310303
0.315578
0.0969992
0.644475
0.166123
0.928277
0.216212
0.173675
0.0186247
0.291478
0.342841
0.114126
0.252433
-0.40275
0.332206
0.581787
0.119182
0.298553
0.568053
0.544236
0.212722
0.368158
0.822613
0.310563
0.251201
0.305947
0.235594
0.313865
0.885507
0.340002
0.465508
0.427108
0.271487
0.377604
0.207359
0.24924
0.438392
0.642899
0.250544
0.0758274
0.11251
0.449488
0.0794025
0.145287
0.0636658
0.461838
0.213255
0.185668
0.205928
0.112592
0.202047
0.202305
0.15189
0.409904
0.201866
0.220821
0.233955
0.0835786
0.941357
0.154948
0.149236
0.114388
0.140181
0.114948
0.963916
0.37287
0.17623
0.210044
0.100058
0.336628
0.406468
0.300128
0.122656
0.209117
0.488316
0.205367
0.29134
0.440081
0.322077
0.128573
0.215441
0.212449
0.153001
0.256839
0.265776
0.21375
0.128446
0.191881
0.103807
0.54448
0.187223
0.26641
0.0113066
0.186309
0.278375
0.393569
0.237243
0.245652
0.185956
0.147374
0.240765
0.283923
0.161282
0.0663254
0.0965656
1.53216
0.23462
0.279755
0.126553
0.357918
0.337538
0.076574
1.1343
0.345211
0.366268
0.257556
0.944638
0.309362
0.394841
0.2733
1.13284
0.118977
0.157563
0.157317
0.359331
0.343097
2.68757
0.404231
0.233509
0.27429
0.210932
0.386562
0.232615
0.391708
0.315641
0.382426
0.283594
0.368356
0.407354
0.400458
0.132583
0.101799
0.103033
0.143823
0.101956
0.0902791
0.251613
0.537826
0.127588
1.05358
0.286016
0.190015
0.15181
0.403209
0.440921
0.101974
0.285498
0.181335
0.258994
0.102904
0.291788
0.71398
0.371052
0.160752
0.530028
0.101271
0.164138
0.176711
0.0135296
0.0611044
0.21208
5.95101
0.398835
0.0792381
0.172866
0.103282
0.227635
0.219897
0.102521
0.231343
0.182604
0.172775
0.084018
0.194285
0.195066
0.153483
0.188425
0.0443176
0.145941
0.14813
0.234314
0.205031
0.368702
0.350739
0.319309
0.910513
0.206158
0.0956707
0.306001
0.136272
0.215011
0.199034
0.176318
0.202099
0.194963
0.407743
0.230562
0.252845
0.179271
0.175609
0.194099
0.225791
1.34659
0.789612
0.160259
0.128917
0.125904
0.235774
0.250785
0.124119
0.732137
0.101433
0.0875497
0.0885925
0.0881581
0.101972
0.230738
0.307698
0.176375
0.731401
0.217101
0.213751
0.236955
0.542276
0.266815
0.298858
0.137747
0.184185
0.619964
0.0951932
0.366559
0.23753
0.237593
0.237404
1.87387
0.303678
0.0752418
0.423418
0.100222
0.458819
0.405444
0.237113
0.166879
0.186239
0.244809
0.18744
0.256648
0.0938547
0.631016
1.0021
0.381478
0.132964
0.0763477
0.379628
0.104326
0.0777044
0.104484
0.105942
0.102858
1.37618
0.388981
0.508375
0.176872
0.405151
0.13762
0.354306
0.559076
0.222199
0.0564736
0.415726
0.314858
0.324465
0.443929
0.252811
0.464145
0.16127
0.16129
0.271066
0.0992779
0.220515
4.11428
0.144439
0.216156
0.132348
0.784831
0.158507
0.119388
0.25166
0.214065
0.55772
0.72815
0.117222
0.271802
0.226463
0.261843
0.147568
0.23679
0.103748
0.283797
0.0792409
0.590973
0.319734
0.148271
0.694317
0.148796
0.041553
0.0953733
0.264521
-0.193344
0.217276
0.408958
0.360354
-0.819222
0.358086
0.214199
0.124217
0.36296
0.164803
0.505273
0.527144
0.506029
0.561195
0.516214
0.0432433
0.528936
0.518302
0.236928
0.236916
0.125288
0.366218
0.169035
0.0944315
0.129876
0.236915
0.0653428
0.17505
0.16746
0.419249
0.0963504
0.16464
0.0393273
0.233185
0.0466894
0.0106233
0.142065
0.295077
0.627319
0.00774069
0.399428
0.287588
0.197251
0.218778
0.135842
0.39736
0.194791
0.176311
0.27919
0.0235987
0.220599
0.227906
0.0150891
0.228727
0.712935
0.222787
0.40014
0.241228
0.367112
0.400636
0.260504
0.122692
0.124443
0.15937
0.263437
0.106251
0.0719953
0.275735
0.124573
0.269403
0.238224
0.638555
0.251736
0.577279
0.712813
0.11073
0.45681
0.0699854
0.128324
0.129728
0.232553
0.214792
0.773516
0.589869
0.420865
0.290482
0.946627
0.575203
0.134683
0.209499
0.0918064
0.266572
0.270087
0.234985
0.594935
0.0679875
0.0834229
0.241512
0.293634
0.127029
0.239955
0.245741
1.08225
1.03442
0.293332
0.0859176
0.586169
0.110177
0.179246
0.3629
0.234712
0.272725
0.170534
0.179925
0.253716
0.287906
0.98134
0.367829
0.259395
0.590675
0.328843
0.177914
0.392793
0.666224
0.166626
0.218461
0.26243
0.310684
0.345825
0.0962883
0.25332
0.371511
0.566266
0.684823
0.256362
0.258476
0.814298
0.222242
0.119277
0.745244
0.222667
0.0729103
0.225923
0.23004
0.983441
0.128837
0.159651
0.636936
0.226515
0.961362
0.223837
0.807053
0.225023
0.263073
0.754601
0.316513
0.262433
1.14128
0.26542
0.231389
0.401546
0.12866
0.097314
0.16836
0.906087
0.378391
0.154063
0.52177
0.127043
0.405067
0.889506
0.629075
0.336044
0.970839
0.144906
1.46228
0.156113
0.155025
0.193698
0.0865127
0.0724717
0.0617489
0.0998796
0.099752
0.365934
0.676674
0.554936
0.3133
0.100863
0.130216
0.123158
0.10022
0.100943
0.123374
0.625758
0.377231
0.1208
0.133703
0.142266
0.385199
0.214987
0.158692
0.307305
0.15117
0.154253
0.150123
0.248193
1.06616
0.278008
0.629909
0.784861
0.157103
0.278542
0.680359
0.146953
0.135094
0.129101
0.736909
0.846776
0.319326
1.12579
0.123611
0.0953618
1.7144
0.131596
0.249723
0.200779
0.134032
0.231353
0.124319
0.236618
0.127713
0.240829
1.26589
0.401101
0.245456
0.573811
0.405068
0.0963318
0.396442
0.150053
0.145028
0.124356
0.144406
0.0751006
0.135684
0.232954
0.101435
0.340191
0.652298
0.576951
0.59389
0.102718
0.135478
1.10916
0.671606
0.102733
0.526353
0.125466
0.138071
0.302407
0.669658
1.13755
0.571831
0.13297
0.947993
1.08922
0.768985
0.126283
0.575708
0.302939
0.298134
0.792089
0.237402
1.14903
0.294495
0.04229
0.294934
0.498029
0.298958
0.255159
0.32289
0.254683
0.234145
0.64884
1.06214
1.12976
0.0923146
0.0814236
1.22322
0.0942367
0.196907
0.646728
0.0576126
1.44397
0.253215
0.178777
0.198763
0.194715
0.184756
0.250448
0.616994
0.838717
0.199572
0.853603
0.133957
0.546816
0.252599
0.248928
0.193224
0.228887
0.2099
0.188043
0.108488
0.200415
0.286669
0.196223
0.182051
0.314788
0.719131
0.250275
0.409184
1.16037
0.413131
0.108933
0.357968
0.178958
0.186121
0.162667
0.167193
0.108812
0.211534
0.480558
0.590882
0.336957
0.535333
0.98046
0.384587
0.185393
0.341354
0.623371
0.27916
0.895646
0.0549378
0.372856
0.0584313
0.621891
0.242884
0.328348
0.191811
0.0937858
0.109348
0.10053
0.282941
0.0808505
0.341379
0.0685776
0.897489
0.621028
0.141719
0.0112338
0.953116
0.623854
0.636659
0.687108
0.128569
0.66889
1.20745
0.117015
0.238899
0.548813
0.350976
0.335407
0.157312
0.335423
0.777819
0.719349
0.338702
0.928177
0.547546
0.338723
0.205029
1.25448
2.78683
0.393694
0.832989
0.230394
0.34544
0.357223
0.23307
0.959591
0.40498
0.314211
0.16234
0.216189
0.363327
0.200488
0.116054
0.23415
0.26711
0.091751
0.195416
0.228532
0.162228
1.10523
0.750219
0.287339
1.49886
0.327618
0.0950445
0.346236
0.699456
0.842603
0.422955
0.42408
0.781593
0.911176
1.36206
0.513969
0.266839
0.986747
0.166914
0.209472
0.229958
-3.2391
0.281153
0.440179
0.385004
0.408057
0.191438
0.99466
0.271938
0.321428
0.209239
0.105145
0.118082
0.270687
0.158681
0.280337
0.329698
0.945248
1.01161
1.24253
0.329523
1.25247
0.25657
0.79506
0.278991
0.531856
0.488485
2.24013
0.176759
0.221658
0.142793
0.0834928
0.0902547
0.0396408
0.400626
0.362114
0.262043
0.718097
0.316275
0.387801
1.03226
0.978982
1.17184
0.581701
0.110693
1.76812
0.52899
0.121171
0.195728
0.75712
0.653293
0.0932231
0.21581
0.211604
0.246964
0.0907956
1.76129
2.13875
2.34113
0.763772
0.0845609
1.62603
0.360667
0.0946563
0.391935
0.15146
0.26159
0.836315
0.295771
0.260804
4.13007
0.246723
0.223104
0.259361
0.205853
0.0288089
0.140069
0.50666
0.229089
0.195167
0.593508
0.532131
0.697387
0.257514
0.232459
0.150334
0.212361
0.227888
0.197033
0.607826
0.86525
0.200515
0.0876167
1.10014
0.225402
0.0707166
0.222883
0.228397
0.380893
0.835996
1.09502
0.650765
0.635226
0.0754325
0.762814
0.232335
0.187187
0.770712
0.110331
0.676059
0.107454
0.125002
0.853618
0.0486122
0.206588
0.813823
0.707567
0.819859
0.830049
0.155332
0.540944
0.548575
0.56103
0.237301
0.414134
0.766428
0.811876
0.648418
0.735235
0.224722
0.229626
0.493939
0.912476
0.711572
0.691676
0.574348
0.821575
0.120006
0.10197
1.89311
0.805502
0.571328
0.617901
0.380875
0.289328
0.989975
0.080149
0.506076
0.106167
0.820564
0.174109
0.565457
0.621264
0.149449
0.841092
0.169794
0.787779
0.812684
0.132214
0.175888
0.739851
0.16887
0.152299
0.0843454
0.128708
0.732633
0.104332
0.82002
1.1394
0.0847545
0.0913837
0.93009
0.234644
0.213348
0.512112
0.21369
0.213079
0.111409
0.17334
0.313884
0.314468
0.960807
0.172315
0.0956883
0.774168
0.1232
0.395557
1.22703
0.0847394
0.102084
0.286805
0.183587
0.741088
0.0932291
0.143543
0.0942514
0.0152456
0.0786653
1.0524
1.63928
0.295775
0.145505
1.85162
0.225725
0.375173
0.0933101
0.597182
0.109982
0.857551
0.593938
0.215998
0.131579
0.186065
0.392417
0.743512
0.0934601
0.353317
0.318293
0.0953575
0.354155
0.371638
0.126522
0.26287
0.139344
0.841974
0.138309
0.0930518
0.117802
0.196042
0.137755
0.771609
0.401274
0.0935109
0.0935561
0.714795
0.100672
0.344535
0.253599
0.101255
1.12402
0.954131
0.298669
0.200152
0.198409
0.344332
0.891681
0.173235
0.930115
0.165727
0.991369
0.732897
0.150071
1.00822
0.796895
1.04153
1.08977
0.753109
0.236516
0.154325
0.113208
0.403644
0.36207
0.402387
0.934248
0.178312
0.383171
0.157294
0.509255
0.823638
0.793138
0.156066
0.406461
0.312038
0.100443
0.986399
0.190502
0.114675
0.125373
0.855819
0.643605
0.645349
0.133424
0.107905
0.163231
0.966291
0.239097
1.02343
0.100119
0.10006
1.00489
0.682201
0.113539
0.178543
1.09502
0.189149
0.193298
0.242452
0.942023
0.40923
0.591958
0.112021
1.1169
1.06477
0.363529
0.671128
0.24804
2.25978
0.0952531
0.330304
1.03761
0.904143
1.38767
2.23317
1.72676
1.89605
0.108179
1.76689
0.772743
0.672317
0.109794
0.224883
1.95209
0.0974715
0.726112
1.55796
0.114452
1.08286
0.108291
0.996117
0.567527
0.632129
0.646099
0.801567
0.141822
0.110085
0.183443
0.208136
1.51342
0.12624
0.77117
0.341882
0.0971312
0.0973522
0.0966648
0.184428
0.199346
0.134631
0.306583
0.149684
0.907377
0.181472
0.575325
0.097547
0.337701
0.213414
0.298925
0.314272
0.0959919
0.0961514
0.167743
0.245394
0.282125
1.17529
1.18246
0.630953
0.327455
0.254725
0.264559
0.128228
0.236661
0.325887
0.263135
0.21385
0.380641
0.400203
1.19143
0.26379
0.247224
0.186493
0.309113
0.400283
0.0432372
0.252139
0.233184
0.411384
1.18475
0.238674
0.931143
0.135606
0.281917
0.431758
0.687209
0.1223
0.269418
0.25157
0.209141
0.259479
0.238404
0.201347
0.555161
0.178944
0.18054
0.205265
0.248355
0.421788
0.157315
0.367386
0.163876
0.555865
0.157361
0.0907606
0.557873
0.420796
0.399635
0.228942
0.123512
0.126739
1.0057
-1.10952
0.115364
0.397143
-0.870949
0.222369
0.289336
0.382527
0.345718
-0.935413
0.127571
0.239779
0.260232
0.202012
-0.652921
0.252564
0.00550435
0.225094
0.237381
0.174171
0.0117817
0.152571
0.161418
0.00891642
0.343525
0.193302
0.0131461
0.387762
0.00708881
0.313097
0.590017
0.161169
0.00236382
0.668644
0.654971
0.193875
0.237714
0.0388138
0.183187
0.275199
0.211349
0.176548
0.420225
0.23334
0.191379
0.198757
0.201619
0.246908
0.198055
0.401966
0.402996
0.966804
0.439133
0.922543
0.39379
0.436366
0.237579
0.182995
0.934634
0.237689
0.226648
0.671252
0.23762
0.895557
0.213849
0.237591
0.280011
0.301459
0.407543
0.281957
0.414476
0.208906
0.282188
0.544452
0.205843
0.510798
0.195441
0.320178
0.278325
0.366559
0.535359
0.275098
0.420228
0.363095
0.479995
0.278866
0.263315
0.116815
0.48259
0.293439
0.318428
0.234032
0.216343
0.274899
0.232324
0.306819
0.388809
0.121208
0.116873
0.211145
0.332227
0.339364
0.129554
0.29648
0.257821
0.153594
0.249677
0.134238
0.291342
0.240021
0.242096
0.208647
0.129163
0.234826
0.135005
0.142326
0.146716
0.281836
0.210371
0.131827
0.616418
0.210353
0.403714
1.25603
0.128952
0.228233
0.336396
0.141144
0.141007
0.172228
0.0683607
0.138652
0.390995
0.412223
0.31375
0.176569
0.278116
0.0681033
0.345545
0.429778
0.0721645
0.13908
0.392305
0.071004
0.140946
0.387885
0.12584
0.342029
0.367819
0.174213
0.0691407
0.397065
1.04883
1.00599
0.216392
0.1202
0.0697364
0.153316
0.250772
0.228236
0.118391
0.10334
0.238934
0.764664
0.161956
0.105091
0.107083
1.04101
0.356572
0.389476
1.03999
0.35512
0.224888
0.287614
0.260929
0.00746339
0.231583
-0.144524
0.251324
0.173709
0.294084
1.04417
0.182568
0.174818
1.04886
0.279328
1.04676
0.183384
0.294536
0.185558
0.223434
0.920717
0.184055
0.925744
0.240326
0.206067
0.938738
0.231816
0.213995
0.297254
0.939118
0.2293
0.390668
0.932904
0.222986
0.412038
0.933172
0.508944
0.356723
0.13001
0.513082
0.391137
0.509888
0.940329
0.0726543
0.205483
0.347006
0.218517
0.348056
0.359035
0.214324
0.191524
0.124495
0.359403
0.198505
0.224442
0.251436
0.108357
0.315402
0.0154998
0.353346
0.995609
0.124545
0.364458
0.358077
1.00708
0.208062
0.257531
1.10486
0.0803096
0.357129
0.369057
0.313809
0.193756
0.353659
0.098756
0.0990083
0.268993
0.0975491
0.447742
0.311
0.311511
0.9478
0.34237
0.213412
0.244253
0.314077
0.222249
0.152443
0.20658
0.366331
0.246935
0.353445
0.219028
0.381285
0.950806
0.314543
0.236821
1.25802
0.34416
0.165495
0.312685
0.496442
0.391794
0.356666
0.411357
0.308381
0.36764
0.293177
1.16247
0.354287
0.384724
0.377583
0.354013
0.33406
0.209959
0.252891
0.354783
0.293223
0.263171
0.411931
1.03303
0.301967
0.169324
1.15098
0.216813
0.185823
0.420019
0.147902
1.15084
0.146833
0.787408
1.27875
0.979173
0.125648
0.193057
0.110182
1.15778
0.27267
0.750628
0.252373
1.16351
1.15772
0.329259
0.159618
1.36032
0.316359
0.354757
1.0872
0.4013
0.224549
0.378923
0.221389
0.314247
0.05867
0.217924
0.156915
0.183798
0.221882
0.150872
0.215954
1.41503
0.208188
0.273064
0.207369
0.338285
0.343703
0.233769
0.318656
0.153368
0.231751
0.296107
0.213905
0.219178
0.212527
0.263984
0.154212
0.326858
0.276728
1.35432
0.151305
0.309789
0.32431
1.02929
0.127563
0.248997
0.396805
0.127306
0.215123
1.34585
0.160312
0.2799
0.127079
0.208517
0.213563
0.265471
0.127065
0.20761
0.237064
0.144269
0.391687
0.962957
0.126814
0.398332
0.12679
0.333627
0.340633
0.151751
0.0612717
0.906346
0.216228
0.231231
0.100438
0.252437
0.230014
0.0983436
0.0934975
1.0877
0.978348
0.111121
0.356801
0.149501
0.0764492
0.230392
0.278206
0.146788
0.222352
0.409572
0.20546
0.144706
0.291846
0.230128
0.402526
0.757468
0.165879
0.0785683
0.231286
1.00038
0.143018
0.180969
0.155151
0.153953
0.15494
0.146018
0.148296
0.424254
0.230461
0.193236
0.241056
0.959468
0.981006
0.140361
0.320873
0.36736
0.0538991
0.324195
1.80263
0.0347299
0.405007
0.616485
0.22591
0.164822
0.0611864
0.349353
0.324368
0.235235
0.235117
0.170363
0.204666
0.236546
0.290169
0.406105
0.287585
0.338327
0.147165
0.282906
0.929611
0.235943
0.231775
0.131785
0.879293
1.11166
0.129936
0.220259
0.0502684
0.232131
0.312744
0.94527
0.228131
0.272168
0.316335
0.370449
0.0879762
0.209674
1.0878
0.127616
0.131583
0.120996
0.126882
0.33816
0.299922
0.204358
0.289409
0.235328
0.21798
0.209211
0.121223
0.887633
0.152673
0.129206
0.271904
0.121765
0.122237
0.125003
0.922261
0.603358
1.10765
0.21316
0.159944
0.0363583
0.159029
0.377291
0.310767
2.10544
0.1619
0.121446
0.227585
0.975127
1.0397
0.379412
0.122127
2.23507
2.41492
0.364701
2.52801
1.08043
0.2379
0.803725
0.565939
0.107429
0.207139
0.108439
0.220004
0.137467
0.224439
1.53242
0.930712
0.908456
0.572655
0.982688
0.250133
0.345535
0.344072
0.573813
0.391788
0.929169
0.397328
0.869491
0.719298
0.0929977
0.384688
0.911158
0.238953
0.180344
1.07293
0.223625
0.0892092
1.06675
0.993598
0.103974
0.210866
0.053977
0.115851
0.235177
0.0887657
0.134134
0.359921
1.09199
0.136117
0.265235
0.273371
0.956099
0.369557
0.203358
0.0922032
0.116939
1.10272
0.152706
0.186156
0.327905
0.0916902
0.210272
0.114842
0.150894
0.831927
0.378154
0.144237
0.0932278
0.141352
0.210304
0.21878
0.374113
0.112594
0.269445
0.221346
0.139909
0.263733
0.110818
0.159878
0.113967
0.222253
0.214037
0.156587
0.24226
0.137521
0.15259
0.76098
0.160531
1.38349
0.242519
0.0898375
0.128169
0.171269
0.176517
0.245291
0.355282
1.24288
0.744765
1.42579
0.236372
0.377356
0.375281
1.11298
1.4247
0.389903
0.297335
0.170161
0.248314
0.112159
0.17408
0.0697827
0.151938
0.260084
-0.432063
0.096809
0.996079
0.0975569
0.220216
0.245002
0.0991954
0.237801
0.138986
0.247486
1.0847
0.307573
0.132198
0.102339
0.227992
0.352414
0.203261
0.290012
1.02689
0.248578
1.00805
0.104654
0.113035
0.269783
1.00263
1.05754
1.0409
0.971742
0.835867
0.335718
1.02729
0.620562
0.99221
0.20797
0.149963
0.144375
0.145454
0.349398
0.858254
0.366726
0.306698
0.858082
0.851231
0.238887
0.850855
0.554348
0.137278
0.0957448
0.107163
0.722189
0.73548
0.564296
0.114932
0.728728
0.854214
0.32257
1.08791
0.644793
0.47008
1.00368
0.1258
0.465138
1.0045
0.345731
0.132012
0.211954
0.28899
0.127175
0.106468
1.00422
0.106676
0.091979
0.940347
0.152467
1.00482
0.858739
0.134806
0.28655
0.647399
0.671123
0.360765
0.665901
0.384823
0.710927
0.240477
0.105931
0.683039
0.392669
0.647217
0.63453
0.304609
0.290488
0.411836
0.342285
1.12545
0.102608
0.225418
0.61031
0.138797
1.13168
0.141688
0.151809
0.113054
0.613148
0.191059
0.352721
0.0519905
0.160663
0.281057
0.599128
0.614635
0.374489
0.100927
0.481964
1.13028
0.968296
0.0651334
0.755532
1.22361
0.766835
1.12514
0.22652
0.707365
0.177609
0.1941
0.148043
0.107297
0.125356
0.100924
0.117602
1.12687
0.0981057
0.250039
0.110557
0.108733
0.134582
0.114733
0.162874
0.368931
0.328024
0.0999293
0.0912504
0.814648
0.158257
1.13079
0.325884
0.0861058
0.759687
0.231176
0.0902638
0.17576
1.12943
0.264676
0.0993785
0.334355
0.230286
0.208235
0.103085
0.258524
0.141713
0.0775036
0.124771
0.0832392
0.109956
0.207739
0.238286
0.314442
0.0872197
0.235015
0.116631
0.490803
0.118643
0.293162
0.211092
0.453403
0.213067
0.212614
0.209844
0.0177166
0.318158
0.225307
0.11233
0.136988
0.0708215
0.145448
0.98322
0.106137
0.0937821
0.158311
0.211073
0.210267
0.329219
0.138774
0.139166
0.137094
0.273091
0.156005
0.224079
0.129344
0.241583
0.123401
0.0852313
0.200713
0.317848
0.193156
0.207737
0.0825418
0.208423
0.169943
0.20827
0.948854
0.34303
0.228978
0.226336
0.188675
0.306255
0.167341
0.304458
0.320953
0.338762
0.301346
0.191739
0.178754
0.104462
0.148473
0.851881
0.22091
0.0828091
0.858116
0.212514
0.0160297
0.129011
0.0884153
0.170531
0.213174
1.71495
0.219532
0.088563
0.164813
0.867945
0.870281
0.87877
0.288104
0.756439
0.820044
0.252375
0.177163
0.186616
0.877132
0.15592
0.121362
0.162128
0.189391
1.26904
0.130083
0.152851
0.15504
0.2923
0.273341
0.326976
0.556676
0.0660849
0.630629
0.581515
0.0612223
0.361797
0.0142135
0.152184
0.0661522
0.149664
0.214171
0.249807
0.0611213
0.785408
0.366525
0.51521
0.582154
0.842491
0.272024
0.0587042
0.114533
0.0459157
0.238161
0.0588076
0.0403491
0.0407602
0.127892
1.03799
0.292647
0.375555
0.355698
0.133824
0.782435
0.54076
0.463389
0.253827
0.0414335
0.521901
0.0700595
0.040799
0.129209
0.746961
0.821622
0.815202
0.196232
0.775446
0.138183
0.287051
0.117762
0.374636
0.118822
0.880497
0.564165
0.13593
0.133113
0.504949
0.312887
0.130122
0.627068
0.0423027
0.129984
1.00437
0.0972242
0.248386
0.0426923
0.554859
0.0108988
0.188968
0.00480535
0.0999833
0.272483
0.0128751
1.10466
0.148468
0.349215
0.00236125
0.222954
0.736916
0.163746
0.00967315
0.125779
1.08005
0.235554
0.635133
1.09259
0.544299
0.0928019
0.882989
0.520968
0.00451508
0.120458
0.89349
0.590115
0.113373
0.732053
0.963847
0.254281
0.226101
0.210523
0.732916
0.199348
0.188904
0.15568
0.118063
1.85544
0.11799
1.81204
0.152316
0.335076
0.116574
0.102199
0.373718
0.116437
0.235406
0.176768
0.133974
0.27447
1.02492
0.704211
0.44401
0.700859
0.677744
0.709944
0.197809
0.142415
0.106445
0.752758
0.982968
0.959217
0.331347
0.281354
0.474457
0.707616
0.963406
0.895291
0.104101
1.12467
0.971564
0.698939
0.0843184
0.810386
0.921877
0.922184
0.996806
0.514262
0.330273
1.0186
0.253039
0.952361
0.267608
0.910325
0.244028
0.893441
0.993846
0.18207
0.246047
0.612154
0.909462
0.257194
0.466813
0.106624
0.0847647
1.04039
0.282383
0.194144
0.193129
0.0860185
0.259535
0.124374
1.81287
0.452229
0.0881102
0.185723
0.958592
0.277858
1.09579
0.956859
1.0669
0.276995
0.122824
0.151719
0.790954
0.114741
0.111582
0.309888
0.289136
0.226929
0.9667
0.234103
0.21855
0.76208
0.995126
0.130619
0.20531
1.15062
0.189367
0.210021
0.998219
0.086413
0.0878092
0.293543
0.693521
1.37766
0.695089
0.180292
0.280526
0.119918
0.624042
1.24393
0.283501
1.1997
0.0876587
0.288017
0.08786
0.263678
0.0778308
1.29629
0.720503
0.0834471
0.956924
0.0910932
0.0905009
0.441627
0.192372
0.288733
0.292533
0.788547
-0.263765
0.0894062
0.138574
0.392917
1.95435
0.153054
0.248681
1.30412
0.0985723
0.277894
0.338097
0.0900452
0.175441
0.126094
0.172582
0.167001
0.0443219
0.118717
0.214441
0.694057
0.171234
0.710928
3.83372
0.591543
0.713836
0.135624
0.29686
0.0219047
0.166435
0.720381
0.84242
0.950592
0.706452
-0.145526
0.811902
0.151377
0.305214
1.48393
0.631923
0.305824
0.367241
0.14216
0.251977
0.170015
0.168615
0.0642152
0.365773
0.446107
0.211981
0.843924
0.0634357
0.227174
0.176235
0.969686
0.998347
0.130634
0.348555
0.121538
0.335658
-0.295157