/*--------------------------------*- C++ -*----------------------------------*\
| =========                 |                                                 |
| \\      /  F ield         | OpenFOAM: The Open Source CFD Toolbox           |
|  \\    /   O peration     | Version:  v2012                                 |
|   \\  /    A nd           | Website:  www.openfoam.com                      |
|    \\/     M anipulation  |                                                 |
\*---------------------------------------------------------------------------*/
FoamFile
{
    version     2.0;
    format      ascii;
    class       surfaceScalarField;
    location    "1.5";
    object      phi;
}
// * * * * * * * * * * * * * * * * * * * * * * * * * * * * * * * * * * * * * //

dimensions      [1 0 -1 0 0 0 0];
oriented        oriented;


internalField   nonuniform List<scalar> 
210647
(
0.000424331
-0.000449567
-0.00040054
0.000425649
0.000267996
-0.000146671
0.000396373
-0.00051779
0.000302886
-0.000423587
9.22877e-05
2.83649e-05
-0.000844074
0.000392779
0.000345992
0.000105258
-0.000141944
0.000413244
-0.000124949
-0.000146416
1.33031e-07
1.60295e-05
-6.10757e-07
-1.55669e-05
-0.000533459
4.04102e-06
0.000235854
0.000293471
3.42902e-08
-3.23237e-05
3.22535e-05
0.000259987
0.00045815
0.000363619
-0.00108181
-5.17018e-05
0.000304084
-0.000159426
-9.30804e-05
0.000211237
4.93303e-05
0.00022947
-0.000490193
0.000130881
0.000369772
-0.000212676
-0.000288127
-0.000312498
0.000350393
-0.000246743
0.000208817
-6.78559e-05
2.04998e-05
-2.37659e-05
7.10324e-05
-0.00025488
8.32406e-05
-0.000120629
0.000292172
-0.000782797
0.000927451
-0.000100755
-4.39633e-05
-0.000193387
0.000227989
4.87949e-05
-8.34784e-05
0.000101003
-0.000140639
0.000155653
-0.000116124
0.000788432
8.2658e-05
-0.000449606
-0.000421515
-0.000246874
-0.00037335
-5.76839e-05
0.000677842
-8.6437e-06
0.000171777
-0.000163167
0.000331246
0.000680498
-0.000473777
-0.000538
-0.000178329
1.85797e-05
0.00027318
-0.000113502
0.000360263
-0.000362551
-0.000344037
0.000346214
-0.000364441
0.000471864
-0.000219555
0.000112085
7.92106e-06
-0.000128781
0.000151786
-3.09818e-05
0.000445137
0.000638124
-0.000302523
-0.000780765
0.000782372
-1.30738e-05
-0.00011872
-0.000650663
-0.000757136
0.000303263
-0.000110293
0.000564064
0.000165435
-1.2601e-06
-0.000160842
-3.35815e-06
-0.000812984
0.000624673
-0.000313092
0.000501344
-0.000118175
-3.38234e-05
6.76149e-05
8.42243e-05
-0.000237888
0.000682998
-3.89371e-05
-0.000545324
0.000645655
-6.15504e-05
-0.000847529
-0.000313874
0.00132841
-0.000167024
-8.01959e-05
4.361e-05
0.000384127
-0.000347621
0.000560687
-0.000129241
-5.7885e-05
-0.00037359
-6.31395e-05
0.000486782
-0.000423728
-0.00170314
-0.000561556
0.00132463
0.000940111
0.000342084
-0.00042338
-0.00080131
0.000882497
0.000163295
0.000522893
-0.000710277
2.39247e-05
-0.00018107
-0.000205301
-0.000198661
0.00058493
-6.97656e-06
-3.18742e-05
3.87361e-05
-4.39904e-06
-0.000885363
0.000889721
0.000216672
-0.000428012
0.000149468
6.17604e-05
8.95421e-05
4.54446e-05
-0.000452935
0.000317883
0.000322772
5.43204e-05
-0.000376831
0.000322414
0.000386917
-0.000408645
-0.000267207
0.000288809
-0.000372139
1.07798e-05
-0.000817992
0.00117928
-0.00046209
0.000746593
-0.000419931
0.000135382
0.00136095
-0.000590796
-0.000785289
1.53438e-05
-0.00023397
-0.000251072
-1.7107e-05
0.000502054
-0.000272714
0.000402701
-0.000159288
2.92583e-05
4.46754e-05
0.000110646
6.28397e-05
-0.000218319
0.00029782
0.000123039
3.06032e-05
-0.000451608
-9.56581e-05
0.000725914
-0.000316081
-0.000314204
-0.000165878
9.35903e-05
-0.000100135
0.000172368
0.000286593
5.6473e-05
-0.000384987
4.18847e-05
0.000266981
-0.000425915
-1.14861e-05
0.000170341
0.000318875
-0.000441151
-5.89772e-05
0.000181195
5.18973e-06
4.3643e-05
-0.000599662
0.000550777
-4.09071e-05
0.000222606
-0.000420634
0.000238861
-0.000110923
-1.451e-05
-2.62134e-05
0.000151612
3.2968e-05
0.000661377
-0.000174435
-0.000519947
-0.000405084
0.000509919
4.98492e-05
-0.00015478
-0.000353693
6.6211e-05
0.000287456
-0.000577083
0.000373523
0.000114873
8.8617e-05
0.00024974
-0.000244946
-0.000117419
0.000112424
-0.000163986
0.000129087
0.000255989
-0.00022126
-1.84282e-05
-0.00039758
3.19314e-05
0.000383985
-0.00033815
9.50387e-05
0.000403987
-0.00016092
0.000343131
-0.000134828
0.000108059
-0.000316436
7.58839e-05
-0.000275989
-0.0001381
-0.000164786
0.000455072
0.000268149
-0.000558495
0.000594276
-0.000412464
-0.000231054
4.91755e-05
-0.000112529
1.57556e-06
-0.000537954
0.000625801
-0.000145992
5.79124e-05
0.00041215
-0.000894914
0.00052132
-3.85902e-05
-2.47865e-05
-0.000663798
6.02391e-06
0.000682515
-7.84309e-05
-0.000325814
4.6075e-05
0.000358095
0.000190799
-0.000195359
-1.28328e-05
1.72954e-05
0.000207096
0.000509871
-0.000413742
-0.00030326
1.82936e-06
-0.000264223
0.000262325
-0.000155052
0.000115721
-9.80608e-05
0.000137218
8.6698e-06
2.82582e-05
-8.0173e-05
4.31368e-05
-0.000317337
-0.000191971
0.000581041
-7.18756e-05
-1.78597e-05
-0.000243442
1.81037e-05
0.000243106
-3.70459e-05
-1.12418e-05
0.000218051
-0.000169813
0.000429068
0.000380225
-0.000366794
-0.000442562
-0.000363409
0.000135197
0.0002694
-4.12351e-05
0.000161488
0.000244816
0.000101895
-0.000508228
0.000156288
-4.89091e-05
-0.000470853
-0.000108998
0.000148638
-3.96653e-05
0.000424256
-0.000421726
-0.000215594
0.000213005
-3.70067e-05
-3.92625e-05
0.000215809
-0.000139682
0.000241599
0.000157028
-0.000237167
0.000183776
-3.01593e-07
6.3306e-05
-0.000246817
-0.000249931
0.000240602
-2.17669e-05
3.10702e-05
5.17874e-05
0.000197146
-0.000261378
1.24101e-05
0.000213804
-0.000422573
-6.39526e-05
0.000272659
6.18907e-05
-0.000461454
0.00107027
-0.000670779
0.000425771
-0.000264178
-0.000204546
4.27845e-05
-0.000106325
0.000234309
0.000103858
-0.000232015
0.000180795
-0.000288102
0.000120149
-1.28835e-05
0.000580483
0.000338922
8.96557e-05
8.04168e-05
-0.000509103
-0.000254688
-0.00201339
0.00100695
0.0012611
0.000248076
0.000322076
-0.000440911
-0.000129292
2.67769e-05
-8.77188e-07
-0.0011718
0.00114597
0.000610259
-0.000454791
0.00054284
-0.00069839
0.000281966
0.000433669
0.000461858
-0.000408289
-5.35738e-05
-0.00129108
0.00106575
0.000775645
-0.000550212
0.000316934
-7.19586e-05
0.000189346
-0.000434405
-0.000254933
0.00145824
0.000315716
-0.00151892
0.000256645
-0.000126588
2.95084e-05
-0.00015961
0.000190707
0.000167988
-0.000331492
-2.72658e-05
0.00153006
-0.00101057
-0.000477246
-4.24648e-05
0.00018074
0.000533148
-0.000469118
-4.82695e-05
-3.7931e-05
-4.10134e-05
0.000127089
0.000244553
-0.000755916
0.000288577
0.000222753
0.00213748
-0.0012748
-0.0013116
0.000448883
8.48166e-05
0.00010567
1.26859e-05
-0.000203212
-5.38117e-05
-0.000289341
0.000343094
0.000405653
-0.000279793
-0.000808222
0.000682225
0.000541179
0.000292438
-0.000561994
-0.000271739
0.000450587
5.17432e-05
-0.000403231
-9.9176e-05
-0.000558849
0.000344002
0.000459375
-0.0011842
-0.000655232
0.000908722
0.00093067
-2.85516e-05
-2.75307e-05
-0.00017984
0.000235821
1.89651e-05
-0.000473153
-0.00073006
-0.000576736
-0.000156139
0.000631647
0.00010113
-0.000624423
0.00364317
-0.00237011
-0.000648233
0.000638943
-0.000180178
3.12496e-05
-0.000490084
6.28035e-05
-0.00037824
-3.29053e-05
0.000348278
-4.59599e-05
-0.000746609
0.000233685
-0.000152869
-0.000291672
-8.50245e-05
0.000529512
-0.000310752
3.28485e-05
0.000312042
-3.41925e-05
3.89368e-05
-2.72135e-05
4.59215e-05
-5.77582e-05
-0.000334842
-0.000178592
7.94586e-05
0.000433899
0.000232111
1.37681e-05
-0.000314711
6.87995e-05
-0.00042492
0.000366611
0.000319478
-0.000261299
0.00128975
-0.000269113
-0.000600155
-0.000420516
0.000504955
0.000129519
0.000416717
-8.82653e-05
6.81978e-05
-0.000396723
0.000236092
-8.57379e-05
-0.000206173
5.57691e-05
-0.000841629
0.000123978
0.000717594
-0.000380836
0.000130712
-0.00244434
0.000978064
0.00146449
2.48443e-06
-0.00235326
0.000305499
-0.000395753
8.32007e-05
3.75137e-05
-0.000113139
-7.61291e-06
-7.28123e-05
-6.82117e-05
2.3776e-08
0.000140938
0.00422271
-0.000747517
-0.000976964
-0.00249667
-0.000481334
0.000121133
-0.000186108
0.000546244
-0.000830516
0.000550603
-4.04065e-05
0.000320225
6.15284e-05
-8.78859e-05
0.000625036
-0.000598866
0.000980153
-0.00142035
-0.000422757
0.000862947
-0.00137348
-0.00120811
0.00178373
0.000797835
0.000357885
2.15242e-05
-0.000447253
6.77463e-05
0.00379699
-0.00192594
2.93705e-05
3.30372e-05
-0.00243665
-4.37671e-05
-7.74523e-05
-0.000287075
0.000408226
-1.92639e-05
0.000374651
-0.000345029
-1.04338e-05
3.19568e-05
1.01214e-05
0.000101282
-0.000143473
0.00021159
0.00093938
-4.47554e-05
-0.00110591
-9.36177e-05
0.000115812
-1.06066e-05
-1.16405e-05
8.37139e-05
-9.35385e-05
9.79394e-06
-2.8844e-05
0.000456003
6.52662e-05
-0.00052349
2.09594e-06
-0.000245033
0.000201696
-0.000497715
0.000540995
-0.000446203
0.000349485
0.000124563
-2.79706e-05
-0.000342154
0.000953472
0.000266427
-0.000877837
-0.000297485
-0.000323275
0.000355065
0.000265626
-0.000110444
0.000351685
0.000509994
-0.000751286
0.00042034
6.23496e-05
-0.000296288
-0.000186453
-0.000525692
0.00176528
-0.00271795
0.00147827
-0.000103938
-1.18236e-05
2.21861e-05
0.000116872
0.00052537
-0.00032467
-0.000317678
0.000412209
-8.04326e-05
-0.000306271
-2.55451e-05
-0.000147564
-4.39687e-05
-0.000114753
0.000306182
7.7071e-05
-0.000510883
0.000113895
0.000319881
0.00130507
-0.000397096
-0.000300974
-0.000607017
-5.42924e-05
7.06994e-05
-3.49589e-05
1.85464e-05
-0.000192804
0.00027787
3.9389e-05
-0.000124657
-6.82524e-05
-0.00024077
-0.000167857
0.000476783
0.000102188
-0.000655422
0.000997871
-0.000444658
-0.000110609
0.000271546
3.46735e-05
-0.000195742
-0.000154876
-5.52844e-05
-8.58919e-05
0.00029592
-2.18128e-05
-5.4027e-05
2.15399e-05
-0.000202248
0.000322934
0.00010885
-0.000229645
0.000679631
0.000697064
-0.00140218
2.5457e-05
0.00034339
-0.000282759
-8.82777e-05
2.75707e-05
-0.000874969
0.00136925
-0.00104448
0.000550069
-0.000353487
0.000376877
0.000241797
-0.000265284
0.000421494
0.000268583
-0.000556402
-0.000133779
0.000135651
0.000568673
0.000251336
-0.000428686
3.02374e-05
0.000147013
-4.2306e-05
-0.000524471
3.72515e-05
0.000529424
1.24363e-05
-4.02868e-05
9.85403e-05
-9.70352e-05
-7.12916e-05
0.000174044
-5.78967e-06
-0.00103173
-5.23486e-05
-0.000419171
0.00150312
-8.49163e-06
-0.000186426
0.00019488
-0.000316676
-0.000721392
-0.00010337
0.000364454
0.000135352
0.000185799
-0.000685752
-3.16022e-05
0.00135315
-0.00132153
-3.33248e-05
3.33474e-05
-0.000470441
0.00047036
0.000189882
0.00091751
-0.00277579
0.00166866
0.000228236
0.000255678
-0.000552156
6.8171e-05
0.00853823
-0.00729919
-0.0006958
-0.000740841
0.00039074
-0.000534828
0.000269533
-0.000125504
-0.000358142
-2.42917e-05
0.000382364
-0.0029841
0.00114411
0.00131423
-0.00010569
-0.00745026
0.00335006
0.0042059
-3.87604e-05
0.0019535
-0.00191458
0.000140736
-0.00016773
-6.40726e-05
9.10355e-05
-5.94942e-05
-2.87362e-05
0.000237617
-0.000149474
0.00048578
-2.63061e-05
-0.000493952
3.44013e-05
0.00125197
-0.000587193
-0.000111072
-0.000553722
0.000240502
0.00027361
-0.000814709
0.000300525
-0.000465413
0.000848766
-0.000456556
7.31619e-05
0.00105324
0.00052271
0.000515504
-0.00209101
0.00111243
-0.000205565
-0.000267262
-0.000639758
0.000698246
0.000630726
-0.002254
0.000924917
0.000224998
3.52437e-05
-2.6453e-05
-0.000233816
6.01314e-05
-5.02209e-05
1.59186e-05
-2.58555e-05
0.000577621
0.000411607
0.000262735
-0.000179006
0.00016709
-0.000543048
0.000554841
-0.000923527
0.00143106
0.00175883
-0.00226574
-0.000161075
6.68395e-05
6.32219e-05
3.09761e-05
-7.11983e-05
-0.000204132
0.000275308
-0.000450126
0.00018683
2.00282e-05
0.000243164
-4.38391e-05
-1.16996e-05
3.69549e-05
-0.000251949
0.000226628
0.000364969
-6.02475e-05
-0.000423124
0.000118355
8.55517e-05
-0.000163528
7.79542e-05
3.61205e-05
-9.08219e-05
-0.000847748
0.000902406
-0.000126033
0.000516292
-0.000403447
1.31537e-05
0.000360455
0.000105258
-0.000197278
-0.000268503
0.000545515
0.000402848
-0.0013248
0.000376428
-0.00012605
9.1336e-05
3.46958e-05
0.000142108
-0.000150449
-0.000564142
0.000572386
-6.68343e-07
5.47517e-06
-4.82647e-06
0.000701444
0.000824217
0.0017703
-0.000149571
-0.000520711
-0.00110005
-6.50786e-05
-0.000111707
-0.000987241
0.00116391
0.00238585
0.00634686
-0.00694617
-0.00178652
-0.00146782
0.000593995
-0.000912792
0.00178659
0.00122511
-0.000210413
0.000789178
-0.00180389
0.000370689
-0.000607331
0.000712897
-0.000476313
0.000227516
1.27525e-05
-0.000240305
-0.000126709
-0.000109276
-0.000649791
0.000885735
-0.000520615
-0.000379678
0.000562007
0.00033823
-0.000455468
0.000642007
5.33821e-05
-0.000240018
-0.000211698
0.000183735
-0.00135868
0.00138662
0.000960886
0.000667068
0.00124934
4.9932e-05
-0.00151098
-0.000258063
3.76748e-05
-0.000123678
0.000343956
-0.000344458
0.000321093
0.000798757
-0.000775451
3.14266e-06
6.43615e-06
-8.76385e-06
-8.36813e-07
-0.000541974
0.000494942
0.000176803
-0.000129853
0.000176577
-0.000341416
-0.000815304
-0.000270998
0.00046328
0.000622825
-0.000354198
-0.000388017
-5.75479e-05
0.00079968
0.00105696
-0.000309572
-0.000356289
-0.000391107
0.000317386
-0.000157089
-0.00019634
3.59747e-05
-0.000479945
0.000356136
-0.000315199
0.000438896
0.000400078
-0.000220807
0.000404222
-0.0005836
7.03277e-06
-1.56572e-05
1.17454e-05
-0.000355774
7.51221e-05
0.000504088
-0.000223506
-1.12607e-05
-4.48157e-05
1.87343e-05
3.73181e-05
-0.000366674
-0.000566968
0.000458283
0.000475306
0.000910897
-0.00145417
-0.000589692
0.00113287
-0.00631837
0.00695858
3.26489e-05
-0.00067282
0.000144138
-0.000119542
0.00102132
-0.00104597
-0.000491848
1.02996e-05
0.000158495
0.000322983
0.000271924
0.00023466
1.47835e-05
-0.000521424
0.00697897
-0.00188542
0.000973979
-0.00606758
-0.000482573
-0.00023205
0.000276928
0.000437544
-0.000106187
-0.000621751
0.000503912
0.000223954
-0.000311693
0.000669053
0.000296566
-0.000654013
0.000101298
0.000141431
-9.92489e-06
-0.000232889
0.00019576
-7.62502e-05
-1.82707e-05
-6.7032e-05
6.63263e-05
-4.03603e-05
4.10168e-05
-0.000288837
4.65451e-05
-0.000605036
0.000847274
-0.000261145
0.000556933
0.000228081
-0.000524012
-0.000105128
0.000296395
0.000106445
-0.000297735
-0.000350554
0.000231954
-0.000376363
0.000494884
-1.12453e-05
0.000532018
-0.000587791
6.68398e-05
5.25856e-06
0.000424372
-0.000405564
-2.40527e-05
4.15316e-05
1.38227e-05
-0.000134724
7.92474e-05
-0.000279424
0.000186085
-0.000140726
0.000234019
0.000374741
0.000378271
-0.00110365
-0.000429993
-7.15468e-05
-1.55847e-05
0.000517036
3.89859e-05
-0.000107546
0.000317071
-0.000248569
-0.000358648
0.000269789
9.53134e-05
-6.50666e-06
0.000309353
-0.000155864
0.00064597
-0.000799525
0.000126518
7.48838e-05
-0.000605696
0.000404219
-0.000217097
0.000281537
-6.45339e-05
2.28664e-05
-1.56416e-06
5.2734e-06
-2.65899e-05
0.00212482
-0.00158801
0.00133997
-0.0018768
-0.000951025
-0.000598569
-7.64078e-05
0.00162606
0.0006232
-0.000483712
-0.000232114
9.25268e-05
5.73819e-06
1.70965e-05
0.00010182
-0.000409016
0.000526436
-0.000219311
-1.18011e-05
9.74124e-05
-8.71001e-05
1.41897e-06
4.44493e-05
1.44508e-05
-5.89083e-05
-0.000173061
-0.000162586
3.74544e-05
0.000298134
7.2897e-05
-7.26734e-06
-7.74891e-05
0.0024083
-0.00300631
-0.00136726
0.00196516
-5.32121e-05
0.000111424
0.000104874
-0.000163161
-0.000665012
-3.15258e-06
0.000197513
0.000470586
-8.08446e-05
-0.00010291
0.000441166
-0.000257508
0.000336556
-0.000257178
-5.30623e-05
-2.63791e-05
-0.000208775
-3.22448e-05
0.000241643
-7.79165e-07
-0.000812048
-0.00144713
0.000337186
0.00192201
8.00584e-05
-7.85024e-05
-0.000227673
-0.000487812
0.000315302
0.000400078
0.00152202
0.000595776
-0.000725473
-0.00139226
0.000117369
-0.000309917
-0.000425383
0.00061782
1.10536e-05
0.000506556
-0.000134144
-0.000383553
8.48728e-05
-1.93449e-05
-1.93411e-05
2.56746e-05
0.000247642
-0.000254016
-0.000219193
1.9645e-05
0.000180172
0.000201061
5.95954e-05
1.79228e-05
-0.000278631
-0.000195808
0.00198455
0.00119121
-0.0029797
0.00832241
-0.0129808
-0.0039286
0.00907982
-0.00252896
7.70837e-05
0.00402688
-0.001575
-0.000505026
0.000409988
-8.28022e-05
0.000177802
0.000327148
-0.000984725
-3.08929e-05
0.000688307
0.000840195
-0.000268718
-0.000405507
-0.000166033
0.00212539
-0.00386867
-0.000239016
0.00198226
-0.000235969
-0.000302749
-0.00161318
0.00215306
0.000109677
-9.78385e-05
0.000429854
-0.000441749
-0.00216782
-4.12204e-05
0.00220954
-1.21214e-05
0.00032468
-0.000312629
2.32018e-05
-2.92615e-05
-0.000422771
0.00042876
-2.02629e-06
-0.000428522
0.000160028
0.000270457
6.05646e-06
0.000634844
-0.000125452
-0.000515533
-6.24882e-05
-0.000506002
0.000354803
0.000213653
3.56806e-06
0.000497741
4.51226e-05
-0.000546488
-0.000552462
-0.000936206
0.00148864
0.000619698
0.00013965
-0.000554934
-0.000204456
-0.000198533
0.000582129
-0.000194818
-0.000188877
2.63664e-05
-0.000184177
-5.78918e-05
0.00021561
-0.000179332
0.000146894
0.000238281
-0.000205951
-0.000428309
0.000252404
-5.17402e-05
0.000227575
-2.48344e-05
0.00028389
0.000144467
-0.000403573
1.5519e-05
6.14662e-05
-7.70185e-05
-0.000452503
6.9758e-06
1.71588e-05
0.000471536
-0.000253127
0.000153574
-0.000372069
1.08836e-05
-6.17891e-06
-4.73062e-06
-4.50819e-05
4.2673e-05
2.34552e-06
-8.501e-06
0.000113398
-0.000303685
0.00019871
0.00029945
-4.50809e-06
-0.00022277
-7.21912e-05
0.000107548
0.000451094
-8.73528e-05
-0.000471363
-0.000390679
-0.000105731
0.000191931
0.000304416
1.83602e-05
-0.000455913
5.05193e-06
0.000432479
0.000332675
-6.9501e-05
-0.000263266
1.15525e-05
2.80163e-06
-1.43662e-05
-0.000480323
-0.000914808
0.000876366
0.000518539
0.000913298
-5.45983e-05
-0.00023904
0.000432525
-0.000388038
0.000207871
0.000280524
-9.40157e-05
-0.000659845
0.000473256
3.25206e-05
0.00037614
-0.000557896
0.000149154
0.000781862
-0.00069714
-0.000406719
0.000321905
-0.000432692
-0.000205384
0.000582859
5.51083e-05
-0.000144041
-0.000127692
0.000675679
-0.000403981
-1.5742e-05
0.000233067
-0.000217433
0.00172636
-0.0034604
0.0116708
-0.00619054
0.000217591
0.000182733
0.000214494
-0.000614883
-0.000290004
0.000271221
-0.000569627
0.000588248
2.02491e-06
0.00048254
-9.04052e-06
-0.000475588
0.0036151
-0.00592404
-0.00173281
0.00416446
0.00025961
-0.000764042
-0.000970662
0.00147496
-0.00438079
0.00467878
-0.000983117
0.000685858
-0.000146428
0.000392387
8.46734e-05
-0.000330801
0.000121417
-0.000564416
0.000921758
-0.000478937
-0.000526196
-0.00168813
0.000453048
0.00176136
-0.000626082
0.000343996
0.000282978
-1.01439e-06
-0.00243446
-0.000121737
0.000586976
0.00196928
0.00159022
-0.00214562
2.9309e-05
-4.86024e-06
-2.06056e-05
-0.0011133
0.00113867
0.00070587
2.43716e-05
-0.00129699
0.000566669
-0.000147348
-0.000217084
0.000202994
0.000161329
-1.5644e-05
-4.26402e-05
3.68573e-05
2.13885e-05
0.00026118
-0.000240676
-4.51192e-05
2.45052e-05
-0.000135234
0.000384015
0.000723492
-0.000972252
-0.000247778
3.96581e-05
-0.0001558
0.000363857
0.000538015
-7.13952e-05
0.00130383
-0.00177048
-0.00035269
-0.00202228
0.00237511
-7.15821e-06
-2.31371e-05
1.46077e-05
0.00230881
-0.000308842
-0.00235252
9.37178e-05
-0.000193974
0.00012068
-2.0513e-05
-0.000525007
-0.000120105
0.00064506
-0.00152294
0.00080132
0.000517295
0.00020417
-0.00396914
-0.00253471
-0.00792693
0.0117292
4.58389e-05
-4.92745e-05
-0.000485533
0.000488921
3.66606e-05
0.000344223
-0.00079407
0.000413068
0.000485571
-0.00079708
0.000571447
-0.00114841
-0.00024274
-0.000131944
0.00136628
0.00387302
-0.00194589
-0.00329344
-0.000826186
0.000500692
-0.000873399
0.00119887
3.7529e-05
-0.000121642
-0.000284279
0.000368323
-0.000622632
0.000699291
0.000467358
-0.000544055
4.57821e-06
-1.17819e-05
9.2928e-07
-5.24194e-05
4.41871e-05
7.21672e-06
-0.00010712
-0.000110004
-5.20593e-05
0.000269158
-0.000833978
0.000243142
0.000232557
0.000358186
0.010676
-0.00535605
-0.00527799
-7.00153e-06
-1.64715e-05
2.3368e-05
-0.000365495
-0.000233639
2.11195e-05
0.000577948
-0.00280503
0.00469286
-0.00545137
0.00356403
-3.05887e-05
0.000277265
2.19298e-05
-0.00026867
0.000229296
-1.89072e-05
-5.99756e-05
-0.000150545
-0.000655365
0.000461512
0.000477935
-0.000284163
-0.00377375
0.00853381
-0.010216
0.00546146
8.22623e-06
0.000311172
-0.000326881
7.36231e-06
-0.000155479
3.32857e-05
-0.000405293
0.000527477
-8.14118e-05
-6.72553e-05
0.000148617
0.00789415
-0.0073958
0.00958979
0.000141316
0.000391197
-0.000118319
-0.000414288
-0.0044963
0.00086708
0.00432818
-0.000820105
4.20121e-05
-7.71161e-06
-3.43258e-05
-8.12704e-05
0.000135799
-0.000144716
9.01169e-05
-0.00240998
-0.00214725
0.00181043
0.00274841
-2.26065e-05
-0.000390936
0.000333487
7.99627e-05
-0.000929581
0.00248511
-6.0154e-05
-0.00149536
-0.00546653
0.00459134
-0.00137983
0.00226038
-1.66234e-05
1.06703e-05
-5.32723e-06
-0.00872916
-0.00253215
0.00591618
0.000710905
-6.08897e-05
-0.00120896
0.000558838
-0.000195201
-0.00590554
-0.00596493
-0.000487074
-2.31665e-05
0.000616692
-0.000106481
9.74225e-05
0.000115149
0.000240986
-0.00045362
-0.000202117
-0.000107883
0.000301541
8.31688e-06
-0.000483251
-6.1324e-05
0.000341132
0.000203433
6.50476e-05
7.68556e-05
-0.000468638
0.000326672
-0.00024505
-1.54917e-05
0.000260473
0.000217291
-6.50481e-05
-0.000373665
0.000221375
-0.000143534
4.59959e-05
-0.000110229
0.00020766
-0.000455835
5.74962e-05
0.000598676
-0.000200409
-0.000645334
-9.01676e-05
0.000720913
1.44527e-05
-2.35772e-05
8.73023e-05
-3.31243e-05
-3.06192e-05
3.0315e-05
-0.000193135
0.000293695
-0.000130982
0.000872419
-0.000155297
-1.4566e-05
-0.00070271
8.01237e-05
-0.0005142
-0.000311816
0.000745815
0.0005795
-7.34322e-05
-0.000848317
-0.000392519
-0.000337674
0.000274281
6.56126e-05
-1.59261e-05
-7.32864e-05
-0.00027251
1.67506e-05
0.000153973
0.000101664
-0.000163258
0.000238825
-6.61856e-06
-6.90049e-05
0.000195914
-2.76584e-05
-0.000560889
-0.000932305
0.000247236
0.000338516
0.000346288
-0.000253492
0.000214635
-0.000206281
0.000304829
-1.51728e-05
-5.66574e-07
-0.000289198
9.70585e-05
-0.000205266
2.72314e-05
8.08564e-05
-0.00010894
4.72668e-05
0.000134275
-7.26468e-05
-8.58776e-05
-0.000155609
0.000538854
-0.000297537
-0.0002798
-6.9427e-06
0.000240214
4.64899e-05
0.00024335
-0.000314149
-0.000492045
0.000562834
-0.000733057
0.000216722
-0.000362666
0.000878895
-7.54659e-05
0.00107852
-0.000759717
-0.00123789
-0.00147199
0.00117141
0.00153889
0.000135252
0.000125538
0.000287887
-0.000548824
-0.000308706
0.000523236
1.38096e-05
-0.000228388
-0.000141304
-8.81665e-05
0.000229426
-0.00162829
-0.000584487
0.00213729
-5.79561e-05
3.01133e-05
-0.000280905
6.91503e-05
-0.000170913
0.000487437
-0.00038575
-0.000116272
-3.91403e-06
0.00012014
-0.000354146
-1.49331e-05
6.11052e-05
0.000307901
0.000276903
-0.000308339
-0.000592194
0.000623572
0.000314253
0.000120186
-0.000331149
-0.000103385
8.55914e-05
0.00019649
-0.000282107
0.000511495
-0.000492537
-1.90569e-05
0.000344473
-8.59741e-05
-1.073e-05
-0.00024781
-0.000603386
0.000433376
-0.000423285
0.000593161
-0.000139527
-0.000149026
0.000288596
0.0010455
-0.000238646
-0.000780723
-2.62991e-05
0.000356648
0.000249565
-0.000436792
-0.000169478
0.000431994
-0.000734319
0.000140754
0.000161485
-4.36135e-05
0.000505937
-0.000721936
0.000259529
-0.00012003
-0.000742284
0.00050086
0.000361348
-0.000551126
-5.04515e-05
0.000601535
7.2596e-05
0.000478649
-0.00046488
-8.64397e-05
-6.7893e-05
-0.000600483
0.000637136
3.11665e-05
-0.000352226
0.000375765
-1.96695e-05
-3.9243e-06
7.42313e-06
-0.000482047
0.000609438
-0.000134897
0.00050543
-0.000632304
-0.000243295
0.000369999
0.000172685
-0.000195935
-8.74827e-05
5.44103e-05
0.000400934
0.000124634
-0.000580108
0.000574489
-0.000159293
-0.000415275
0.000135195
-0.000354516
-0.000131251
0.000350507
8.02686e-05
0.000875208
-0.000965734
1.01383e-05
-3.27393e-06
0.000149625
1.90562e-05
-0.000439586
0.000621596
-0.000733211
-9.22163e-05
4.83896e-05
-0.000454199
0.00049792
-0.000265092
-0.000270368
0.000557162
-2.17477e-05
0.000413703
-0.000318769
0.000371669
-0.000466685
0.000141621
-0.000219494
7.78509e-05
-0.000559147
7.21704e-05
0.000444744
4.21725e-05
0.00025464
0.000110629
-3.18687e-05
-0.000333437
-0.000481422
-0.000104018
0.000485387
9.99533e-05
-0.000360811
0.000160959
0.00027976
-8.00693e-05
-0.000336319
-0.00184511
0.00204517
0.000136365
-1.78061e-05
0.000577341
6.24672e-05
-0.000622085
-6.49222e-05
-7.75136e-05
0.000416823
-0.000274434
-0.000264893
-0.00114464
0.00112115
0.00028835
-0.000606278
0.000253424
0.000301025
-0.000871219
0.00140074
-0.000161206
-0.000368477
-0.00085101
0.000237144
0.000186457
0.000427319
-4.23166e-06
1.42804e-05
-0.000458803
0.000448685
-0.000163342
3.62322e-05
0.000509749
-0.00038283
0.000584746
4.09495e-05
-0.000328448
-0.000297339
-5.75046e-05
0.000385636
-0.0012243
0.000896159
6.72828e-05
-5.16163e-05
-6.43993e-05
4.86891e-05
6.2601e-06
0.000583366
-0.000375248
-0.000214466
-0.000309014
-0.000379086
1.25277e-05
0.00067544
-0.000247788
-0.000294983
7.68806e-06
0.000534902
0.000754216
7.05561e-05
-0.000665079
-0.000159698
0.0012446
0.000378575
-0.00086896
-0.000322963
-0.00018802
-6.26245e-05
0.000573492
0.00012762
0.000267175
3.41076e-05
-0.000429034
0.000281018
-0.000679707
-0.000222595
0.000621182
-3.0145e-05
0.000488192
0.000474618
-0.000932782
-5.59937e-05
9.24573e-05
-3.65581e-05
0.000607471
-0.000293153
-0.000194661
-0.000119766
0.000496729
0.000434358
-0.000961356
-0.000326204
0.000168068
0.000285596
0.000207558
-0.000353484
-7.79695e-05
0.000223859
-8.61682e-05
0.000194731
0.000227935
-3.91426e-05
0.000773078
-0.000245838
0.000157505
-0.000143905
3.9947e-05
-5.36486e-05
0.000374475
-4.38463e-05
-0.000330694
0.000195133
0.000285959
-0.000625942
0.000144739
-0.000316785
2.19225e-06
0.000291061
2.35419e-05
3.21253e-05
9.51445e-07
0.000157367
-0.000190587
2.93423e-05
0.000275271
0.000268176
-0.000572974
0.000329289
0.000120271
-0.00044965
0.000250474
-0.000267963
1.74468e-05
-0.000606321
-2.99469e-05
0.000636183
4.40286e-05
4.98945e-05
-9.39777e-05
-0.000100509
-0.000308743
-3.281e-05
0.000441955
0.00036405
0.000198383
-0.00013081
-0.000431776
-0.00037203
0.00033399
8.00461e-05
-4.20757e-05
4.89846e-06
-0.000226122
0.000106002
0.000115184
0.000724858
-0.000267371
-0.000452146
0.000304299
0.000204196
-5.64699e-05
0.000110916
-0.000229916
2.12958e-05
9.76764e-05
-0.000421339
-0.00175453
0.000554696
0.00162115
0.000184313
9.54407e-05
-8.55729e-05
-0.000194221
0.000150096
0.000752215
-0.000902364
-0.000381143
0.00055758
-0.000300409
0.000123836
0.000198879
-9.47876e-05
-0.000247788
-1.01717e-05
0.000260603
0.000126306
-0.00011248
-1.38849e-05
-0.000423873
-0.000726183
0.00106923
8.06911e-05
-0.0116559
0.00174606
-0.00253602
0.00909565
0.000229016
0.000423778
-0.000239059
-0.000413787
-4.43761e-05
0.000562917
-0.000419116
-9.95663e-05
0.000383651
-8.03191e-05
-0.000231919
-7.14723e-05
-0.000348556
0.000421091
2.99017e-05
-0.000651237
7.50694e-05
0.000546128
-1.53554e-05
7.50431e-05
-7.83206e-06
-5.18988e-05
0.000142693
0.000448213
0.00269768
-0.00328859
0.000130451
-0.000372463
0.000286311
-4.44332e-05
0.000289795
8.80215e-05
2.02852e-05
-0.000398142
0.000721126
-0.00102229
-0.000454598
0.000755546
0.000642171
-3.69134e-05
-8.24984e-05
-0.000536375
-0.000145763
0.000670163
1.18465e-05
-0.000369921
-7.38695e-05
0.000450921
-7.17903e-06
0.000719491
-0.00644068
0.00219004
0.00347875
8.1465e-05
-8.52095e-05
-1.16601e-05
0.00293013
0.000113078
-0.00293947
-0.000103735
-0.000354954
0.000325224
0.000457872
-0.000428253
-0.000437334
-7.37527e-05
0.000452135
5.87733e-05
8.31832e-05
-8.18534e-06
0.00839536
0.00264958
-0.00531462
-0.00570583
0.00039323
-0.000835813
0.000968047
-0.000525595
0.000750478
-9.27492e-05
-6.07289e-05
-0.00059719
7.36609e-05
-0.000352594
0.000308496
-2.96503e-05
0.000195439
-5.90416e-05
-0.000518523
0.000381992
0.000835084
0.000102757
-0.000220224
-0.000717698
0.00030931
0.000217939
-5.7362e-05
-0.000470006
0.000417394
-0.000419433
-0.000261635
0.000263586
0.000203397
0.000365607
-0.000569126
0.000120646
-5.38961e-05
1.46707e-05
-6.63404e-05
-0.000107492
0.000156204
1.74513e-05
3.57145e-05
1.08645e-05
-4.66006e-05
-0.000799704
-0.00014006
0.000791162
0.000148432
3.49444e-05
-0.000205986
2.39128e-05
0.000147087
-0.000170556
-0.000291822
0.000153286
0.000238233
0.000118319
0.000329954
-0.000686595
-0.00738014
0.00114083
0.000396866
0.00014005
-0.000771031
0.000234075
-0.000317185
0.000134171
-0.000805008
0.000987921
-0.000170146
1.34441e-05
0.000191602
0.000654997
-0.000269334
-0.000257789
-0.000128026
8.01499e-05
-0.000216697
0.000505247
-0.000368829
0.000166361
-0.000642427
9.76229e-05
0.000378332
-0.000344194
-0.00037835
0.000458437
0.000263939
-0.000593992
0.00832011
-0.00723293
-6.90361e-05
0.000200151
-0.000490095
0.00035888
-2.38399e-05
1.60342e-05
7.13048e-05
-6.35847e-05
0.000173709
-3.65526e-06
-0.000158074
-1.20148e-05
0.0093435
-0.00252309
0.000172705
9.62512e-07
-0.000400582
0.000234666
0.000761081
-0.000595298
-0.000444559
0.000490858
-2.66838e-05
-1.97458e-05
0.00127775
0.00508313
-0.00516643
-0.00119257
3.55061e-05
-0.000628724
6.88127e-06
0.000586204
-0.000414626
0.000804297
-5.3429e-05
-0.000336465
-0.000416325
3.99908e-05
-2.2639e-05
0.00039887
0.000554721
9.55921e-05
0.000199691
-0.000850197
-0.000433687
-0.000152076
0.00017451
0.000411173
0.000221016
0.00122847
-0.000144805
-0.00130484
2.51787e-06
0.00165727
-0.00205197
-0.000406313
0.000801058
5.34927e-05
0.000286508
-0.000129967
-0.00021007
0.000254874
0.0011929
0.000425864
-0.00187296
-0.000223319
-0.00014714
0.000423902
9.87806e-05
-0.000436454
-0.000183884
0.000521435
-0.000995432
0.000781154
-0.000468797
0.000683356
0.000177128
0.000274632
-0.000788452
0.000336555
0.000470618
-0.000499953
0.000141038
-0.000111783
0.000249334
-0.000158287
-0.000720026
0.000628881
0.00044675
-0.000215865
0.000620391
-0.000851321
-0.000343371
0.000358269
-0.000148206
0.00013319
0.000260065
-0.00118401
0.000325627
0.000598173
0.00379438
-0.00195369
6.80336e-05
-0.00190866
-0.000317827
-0.000202111
3.10094e-06
0.00051676
2.60623e-05
0.0010405
0.000750465
-0.00181707
0.00092058
-0.000106292
-0.00108539
0.000271182
-0.00116027
0.000341134
-0.000107293
0.000926308
3.1087e-06
-1.02013e-05
-5.44639e-05