/*--------------------------------*- C++ -*----------------------------------*\
| =========                 |                                                 |
| \\      /  F ield         | OpenFOAM: The Open Source CFD Toolbox           |
|  \\    /   O peration     | Version:  v2012                                 |
|   \\  /    A nd           | Website:  www.openfoam.com                      |
|    \\/     M anipulation  |                                                 |
\*---------------------------------------------------------------------------*/
FoamFile
{
    version     2.0;
    format      ascii;
    class       volScalarField;
    location    "1.5";
    object      Qdot;
}
// * * * * * * * * * * * * * * * * * * * * * * * * * * * * * * * * * * * * * //

dimensions      [1 -1 -3 0 0 0 0];


internalField   nonuniform List<scalar> 
108993
(
0
2.09817e-102
9.04292e-74
7.83898e-210
7.8337e-216
0
0
0
0
2.10685e-139
0
0
4.53957e-213
1.24961e-140
0
7.72962e-24
0
0
0
2.80694e-133
7.64993e-223
1.65774e-186
1.1429e-114
0
1.72558e-216
0
8.09207e-187
2.23112e-134
0
3.29594e-182
0
0
0
1.54899e-107
1.20737e-206
1.6897e-210
1.80371e-191
0
4.77471e-32
1.11236e-72
0
5.75114e-157
0
1.71544e-218
5.82259e-33
2.80705e-67
0
6.55865e-131
0
3.5963e-115
0
2.97544e-46
0
7.11317e-197
0
0
0
3.47672e-197
0
0
5.25544e-188
0
0
0
2.3819e-209
7.67294e-149
9.44995e-214
2.70955e-201
0
0
9.29885e-186
6.86923e-206
1.07445e-199
3.4858e-206
2.31582e-150
2.81714e-168
0
2.2417e-112
0
0
0
6.56028e-142
3.00177e-188
2.55757e-154
0
0
0
0
0
0
2.65092e-203
0
1.72036e-206
0
9.71648e-201
0
0
0
0
0
2.33846e-195
0
6.27714e-172
0
0
0
0
0
2.40549e-206
8.6627e-62
1.06433e-52
6.03117e-202
0
5.45943e-40
0
6.59751e-40
1.9642e-209
5.76052e-114
5.22566e-45
0
1.37055e-150
4.3701e-178
3.65391e-37
3.46278e-93
0
2.26442e-41
8.79764e-104
1.30703e-123
1.64961e-179
3.48263e-184
0
1.5993e-182
0
1.08298e-19
9.81922e-170
0
5.21476e-177
0
0
0
4.82376e-94
5.32046e-170
0
4.53364e-179
4.5932e-182
9.84209e-197
0
0
0
1.56824e-12
2.06417e-11
0
0
2.14629e-09
0
0
0
6.32235e-194
0
6.06473e-57
1.97345e-10
8.49708e-196
1.08118e-177
0
0
2.7358e-55
6.38506e-212
0
7.6703e-207
0
0
3.08115e-162
3.25207e-52
0
0
2.24403e-147
8.41112e-46
1.11549e-208
3.87133e-139
0
2.3643e-119
1.60962e-179
1.4152e-191
2.62204e-100
0
4.92091e-176
4.91575e-194
0
7.07271e-154
3.48799e-97
0
0
0
6.82295e-51
0
9.63835e-82
2.93216e-106
0
6.07689e-172
9.71332e-99
2.46915e-212
0
1.69098e-213
3.26144e-193
0
1.96823e-19
0
0
2.18294e-151
58409.6
1.01829e-81
1.26446e-180
1.99916e-44
1.18907e-53
4.77171e-22
0
5.02103e-161
0
3.28964e-191
0
0
2.41e-10
1.39774e-66
0
0
1.20518e-208
0
0
1.8233e-22
1.31235e-149
0
0
2.52792e-206
4.07384e-150
1.76443e-174
0
2.81699e-178
2.05608e-185
0
0
1.48123e-184
0
0
5.45301e-196
0
2.57695e-26
1.37364e-57
1.24319e-34
0
0
0
0
0
6.64239e-160
8.69762e-192
5.78801e-191
1.34389e-191
1.1343e-102
0
0
2.31983e-119
0
5.94302e-58
1.35278e-38
3.56901e-205
5.30734e-128
1.52172e-115
3.0042e-162
0
6.63924e-154
1.63399e-229
7.68084e-83
0
31890.6
4.32678e-74
5.56886e-144
0
1.72928e-40
0
6.89815e-118
5.2432e-115
0
5.36495e-64
0
6.27265e-166
0
0
2.31005e-116
0
4.50823e-84
0
0
3.06455e-114
4.58e-126
0
3.36469e-115
0
2.05928e-120
3.51749e-111
4.62786e-227
9.32334e-32
6.63771e-09
0
5.49318e-230
0
5.50108e-174
1.67327e-191
0
1.16311e-171
0
0
3.58576e-186
0
6.85945e-194
3.31834e-165
1.93865e-14
0
0
0
2.47081e-150
0
1.79974e-209
7.44875e-171
0
0
1.06191e-12
1768.91
8.6689e-12
0
1.0815e-79
1.52146e-144
2.59827e-17
13.6123
0
2.28318e-41
0
0
3.1699e-185
0
9.75646e-168
0
2.74053e-35
2.08491e-120
0
0
0
0
3.36522e-189
0
0
0
0
7.60231e-72
0
0
0
0
1.48719e-96
3.88202e-138
0
0
1.68455e-122
0
2.67769e-101
0
0
2.55834e-103
9.6139e-168
0
168676
2.00143e-57
1.68054e-75
1.72944e-96
461.895
1.35462e-104
3.28631e-07
0
2.18479e-143
1.60994e-14
1.08654e-143
2.39447e-13
5.48117e-13
0
1.13028e-20
0
1.14035e-141
5.80325e-103
0
0
5.76707e-69
5.89757e-13
0
2.56488e-11
5.95939e-133
0
9.07255e-110
967811
2.97241e-195
0
5.4826e-162
2.02015e-107
9.25575e-45
1.31511e-46
0
0
7.3311e-147
0
1.06388e-167
2.08579e-74
198.437
0
0
9.33924e-10
0
0
3.04927e-157
2.01835
8.43756e-96
0
7.12056e-215
0
0
13153.4
0
1.20568e-207
0.551313
0
6.55948e-32
375.519
1.08541e-232
1.96987e+06
0
0
3.8517e-182
0
7.37743e-135
7.06073e-175
3.33271e-152
4.44745e-196
1.11105e-155
0
0
9.43693e-114
5.43915e-217
0
1.05118e-64
2.90511e-73
6.51314e-53
0
1.15431e-220
0
0
2.06272e-110
1.73749e-100
6.55811e-193
0
1.86032e-151
1.81785e-217
2.43842e-130
0
0
2.84349e-70
1.19035e-46
3.11204e-20
0
7.36227e-84
0
0
1.01465e-81
9.47455e-79
0
0
1.24631e-164
0
6.23968e-196
0
2.97933e-159
0
1.74479e-100
0
0
1.42153e-155
8.65128e-154
9.91087e-106
9.38664e-53
0
1.05504e-78
2.07203e-85
1.06808e-52
7.94524e-109
0
4.28903e-130
2.86001e-37
2.91113e-78
7.42939e-30
4.28485e-183
6.24082e-51
0
8.80855e-100
0
1.52265e-191
0
0
1.90831e-90
0
5.8463e-20
0
0
0
2.61004e-97
3.0921e-40
0
0
0
1.16927e-103
1.14859e-191
2.17427e-183
0
2.26128e-144
3.84989e-150
1.70029e-141
1.71399e-143
0
3.91858e-114
8.67781e-146
9.22867e-32
2.88932e-156
3.50911e-116
2.07901e-32
0
0
1.08891e-196
2.07421e-34
1.80029e-138
0
0
0
0
6.44213e-101
0
2.45003e-173
8.08049e-89
0
0
0
0
0
2.78223e-35
0
4.44711e-187
1.46937e-34
0
1.3914e-42
0
0
0
0
0
783390
6.52908e-131
2.23703e-102
0
1.24517e-88
2.9356e-85
0
1.27795e-31
1.23886e-144
6.42413e-151
1.02966e-96
0
0
8.93052e-85
2.12143e+06
0
5.33052e-21
1.36203e-73
2.21631e-152
1.73823e-112
311.504
4.14063e-78
0
0
1.31462e-108
0
5.712e-153
3.84808e-34
3.67154e-63
0
0
9.28576e-208
0
0
0
1.25655e-102
2333.73
0
5.69125e-160
0
0
6.92573e-75
0
2.22264e-119
19562.5
5.51998e-68
1.74332e-144
0
18006.6
0
1.67938e-73
3.38548e-91
0.0270779
0
0
8.34396e-86
0
0
1.77842e-43
0
9.48429e-57
0
1.72687e-35
8.92589e-185
1.55716e-124
0
0
9.36652e-178
1.24703e-145
0
2.99802e-63
5.39069e-42
2.63811e-11
0
6.57153e-35
3.13406e-15
0
0
6.75536e-197
0
1.17733e-29
0
0
1.88319e-54
0
0
6.75834e-152
1.836e-40
0
6.8493e-73
0
1.6967e-44
0
1.51211e-26
2.21133e-83
0
0
5.72579e-143
5.65508e-25
1.33124e-101
8.91045e-84
0
0
0
4.10018e-79
0
0
1.24127e-94
3.48479e-171
9.05319e-56
0
0
3.03151e-52
0
7.8326e-55
0
0
3.32727e-192
6.86857e-39
0
9.85433e-196
7.68414e-66
2.27841e-109
3.38328e-89
1.53229e-75
2.14906e-46
5.42645e-79
6.31984e-47
1.43374e-58
0
0
12715.7
8.54406e-187
0
9.22281e-56
0
3.62935e-166
2.85944e-12
1.89698e-125
1.19849e-42
0
1.99211e-24
1.03949e-41
0
0
0
2.76901e-54
1.9987e-218
0
6.27297e-118
1.15427e-155
0
5.60597e-51
5.07134e-76
5.23852e-38
1.81602e-137
1.95867e-23
3.01634e-112
0
1.72814e-53
0
0
0
1.75011e-34
0
3.47281e-25
5.34857e-155
3.27038e-34
1.40556e-57
0
5.99207e-35
0
0
1.01204e-32
3.50028e-22
7.72967e-30
0
1.65208e-227
4.22064e-101
0
2.87627e-88
5.49116e-124
0
0
3.43901e-49
1.0816e-42
3.66213e-61
2.26972e-66
1.27555e-56
0
1.96312e-61
0
3.88651e-139
0
2.09062e-211
5.6023e-62
3.30116e-213
0
8.39533e-209
6.86152e-34
3.61139e-38
0
9.73769e-47
1.08394e-205
0
0
8.63653e-86
0
0
0
0
2.73322e-109
2.22014e-74
2.00872e-65
0
2.45568e-29
3.27811e-20
0
3.36125e-72
494354
2.15631e-36
3.21602e-108
0
3.84174e-05
1.01528e-71
1.99876e-74
2.83542e-71
2.58473e-117
0
6.01545e-238
5.79188e-156
1.17987e-88
1.57813e-184
8.92816e-59
3.35096e-158
1.3857e-119
0
6.18324e-45
3.68849e-17
2.6585e-104
6.66798e-06
2.78083e-175
1.47643e-63
0
1.34799e-204
2.34669e-78
1.20067e-49
3.02789e-147
4.10341e-137
0
7.3031e-129
2.04773e-123
0
0
0
0
5.68455e-128
1.02886e-08
3.44636e-174
0
952209
7.89888e-171
274836
1.64131e-124
0
1.25273e-75
13.3942
4.78604e-51
1.14285e-173
4.01622e-81
0
1.13158e-122
0
1.67446e-57
0
5.83604e-66
4.18031e-35
5.04344e-177
1.67553e-59
1.02866e-77
0
6.66852e-58
0
6.00521e-71
0
2.29612e-62
1.62936e-168
2.70359e-66
0
0
13397.2
0
18143
2.0701e-71
16520.1
0
0
5.65749e-147
9.12479e-27
0
0
0
0
0
7.14486e-75
3.75015e-82
1.4326e-175
1.30037e-170
5.28078e-93
1.22533e-27
3.88375e-62
6.75849e-28
0
1.04935e-113
1.54278e-23
0
4.50493e-150
1.92935e-32
0
0
0
0
0
0
5.92194e-50
1.91427e-29
3.48384e-85
224.916
1.77406e-201
1093.69
0
3.50322e-10
5.66177e-187
0
1.26842e-33
0
0
1.65909e-168
0
0
2.0847e-22
0
2.41803e-16
5.01901e-64
0
24.319
0
0
54990.9
5.78041e-09
2.66556e-145
0
5.36261e-245
0
8.43017e-49
0
9198.36
2.98228e-110
0
0
2.46199e-51
5.9653e-140
0
2.22958e-51
7.05957e-139
1.74207e-168
0
3.96831e-58
0
4.67234e-46
0
2.2448e-180
3.08384e-42
0
0
0
8.23194e-56
1.81953e-63
0
7.30759e-12
0
0
0
1.05436e-117
0
0
0
0
9.06725e-135
0
0
1.54047e-41
0
0
1.13532e-31
2.39257e-12
0
7.61244e-64
2.80295e-32
0
0
4.70471e-60
0
4.22439e-71
1.413e-71
1.05655e-58
1.19874e-26
4.679e-31
0
4.45232e-46
0
5.37329e-61
4.50371e-30
1.94361e-15
0
0
0
2.07861e-28
0
0
0
1.10626e-26
0
1.16874e-77
0
4.30186e-202
2.64289e-96
1.1361e-97
1.03331e-155
2.20368e-20
0
3.03114e-92
0
0
0
0
0
4.33531e-204
0
1.0119e-198
1.69794e-53
1.25691e-78
6.11354e-129
1.16615e-96
0
4.77028e-57
0
5.60197e-71
0
0
1.17446e-57
6.34386e-139
2.08889e-69
4.78193e-24
0
5.37457e-213
0
0
0
1.89065e-74
1.31388e-61
0
2.50212e-216
0
0
1.08853e-35
3.98146e-95
2.87139e-61
4.04594e-194
0
6.19784e-58
7.50407e-46
0
0
0
4.27769e-126
2.57319e-74
8.35919e-71
2.89344e-150
8.60442e-208
3.27813e-153
3.12334e-11
1.18821e-94
0
6.99086e-161
0
6.58034e-30
4.63781e-175
5.44442e-69
3.03498e-63
0
2.42837e-84
0
6.55718e-64
2.54234e-27
6.16884e-60
0
0
9.09506e-174
0
1.35504e-60
5.65077e-55
206461
4.41721e-41
0
1.08631e-63
0
1.03838e-47
1.03667e-59
2.14325e-45
1.5656e-75
8.55852e-46
0
0.000121996
0
8.54625e-47
4.68657e-133
1.10879e-211
3.41573e-203
0
0
5.01762e-209
0
9.43527e-31
0
0
0
0
0
1.12685e-44
1.89615e-14
0
5.23033e-84
7.40875e-106
0
0
8.4844e-61
1.0557e-23
6.99441e-20
6.74323e-154
0
2.25879e-220
0
5.5746e-103
2.87197e-187
5.85677e-196
0
1.1193e+06
8.63717e-43
1.87814e-211
2.43344e-106
0
4.91e-105
0
2.30809e-204
0
8.48274e-104
2.54799e-114
0
0
2.55912e-98
0
0
0
0
0
0
0
6.21266e-76
9.50992e-40
1.60829e-62
5.10043e-61
3.05899e-86
6.80153e-212
0
0
0
0
0
0
1.38083e-105
4.23739e-34
3.06531e-100
2.92845e-75
9.19567e-175
2.36633e-173
0
0
142811
734.189
0
0
7.6524e-129
0
0
0
5.21448e-119
1.32338e-164
0
1.35782e-187
1.1416e-163
0
4.54111e-185
7.46477e-79
0
0
2.06923e-72
0
8.57092e-63
8.78671e-13
0
4.12774e-79
0
3.25502e-118
1.8729e-11
4.43586e-224
0
4.41366e-142
6.68115e-144
1.03802e-146
37.0396
1.39407e-56
2.19973e-196
5.38766e-42
5.4329e-172
3.32104e-37
2.40473e-46
0
5.98619e-133
0
0
9.73644e-89
4.20592e-81
2.56422e-203
3.30491e-21
6.77889e-46
0
0
0
0
0
0
0
0
6.36059e-212
0.0966266
1.62609e-50
5.06091e-57
0
0
0
0
3.20616e-53
9.62752e-112
3.08538e-178
8.14712e-45
7.00383e-44
0
8.18292e-39
0
3.46632e-34
2.2057e-104
0
0
1.25618e-174
1.32881e-117
3.81045e+06
1.54193e-138
0
2.19453e-159
4.37494e-17
0
5.03134e-136
1.8923e-69
2.82864e-61
1.15409e-38
8.854e-37
0
0
2.62222e-102
0
0
2.53648e-107
0
9.58764e-54
1.93017e-195
1.24188e-23
6.77392e-87
1.565e-182
7.0371e-64
9.88646e-165
0
3.24429e-163
1.67054e-77
2.99482
0
2.31914e-49
1.11475e-54
838.047
0
0
0
7.32947e-26
4.09305e-127
0
6.56951e-81
0
7.03932e-53
0
5.88871e-185
1.43756e-78
1.97723e-75
0
0
7.4614e-200
0
6.25134e-124
1.5432e-153
4.12861e-138
0
0
4.34878e-91
3.1178e-95
5.4152e-25
1.31339e-174
1.89993e-118
0
8.97193e-88
0
0
0
0
0
0
4.02699e-49
3.5748e-42
0
4.43795e-150
1.43137e-167
1.84669e-35
3.67339e-136
3.03029e-92
0
0
2.83963e-89
0
2.92742e-173
4.87463e-89
4.96331
0
0
0
0
1.86391e-33
0
2.0078e-128
0
0
0
0
3.29299e-179
1.92179e-53
0
0
6.81623e-66
1.82566e-14
0
0
0
2.34101e-182
5.5732e-41
0
0
0
1.80307e-101
0
0
6.48066e-42
5.05554e-37
4.87721e-79
0
2.32834e-31
6.658e-163
0
8.54775e-233
1.64385e-83
0
0
4.26252e-07
1.55367e-181
1.03711e-175
4.17846e-70
0
0
9.75812e-51
9.87957e-49
0
0
0
0
6.34055e-30
6.92336e-171
3.56645e-86
1.45542e-20
2.22038e-54
3.46763e-82
8.88519e-130
1.19622e-85
0
0
1.47437e-44
4.32789e-54
0
1.99647e-25
1.91269e-57
0
3.78403e-33
8.26169e-18
5.70389e-93
1.83187e-65
0
7.7222e-63
0
3.16713e-192
7.48184e-118
7.96015e-45
5.1699e-46
0
0
1.5339e-114
0
0
2.79259e-189
0
0
7.20291e-187
2.95466e-159
0
0
3.85056e-187
0
3.60561e-27
0
4.75668e-70
1.80768e-162
0
0
7.13467e-87
7.16783e-88
5.50868e-89
0
1.44242e-59
0
7.52623e-71
4.54532e-27
1.02605e-210
0
2.43464e-175
6.13447e-57
2.82836e-41
0
2.88461e-42
6.82925e-164
2.23875e-53
1.33189e-47
1.97142e-05
1.15174e-73
3.05305e-64
0
6.49616e-12
9.63552e-112
0
0
0
8.26193e-182
4.16443e-183
1.54969e-153
0
0
1.19847e-24
5.85496e-45
0
0
0
9.09126e-194
0
0
0
0
1.88947e-64
0
0
6.98275e-120
1.20594e-38
8.49802e-101
3.4893e-132
0
5.60688e-109
5.44929e-143
0
2.82437e-109
0
1.10948e-112
0
2.56474e-10
1.85522e-140
0
2.77997e-26
0
0
0
0
0
0
2.35954e-32
3.70233e-174
0
1.61441e-09
0
0
3.7377e-91
0
2.74873e-64
1.28299e-168
2.81578e-112
0
1.19968e-110
2.82515e-19
4.92557e-12
0
2.41118e-38
1.09551e-25
0
2.67857e-39
0
0
1.93591e-165
1.17474e-118
2.57568e-180
1.57299e-130
0
0
0
4.68863e-17
1.3055e-15
2.72177e-24
1.38019e-211
1.24177e-125
1.96548e-45
8.71352e-26
1.42643e-149
0
1.34984e-144
0
1.75277e-114
2.71363e-80
5.57664e-43
1.96964e-36
5.4272e-139
2.38545e-41
4.45781e-47
9.6875e-13
2.40927e-144
2.4236e-38
5.21816e-118
0
1.5366e-32
0
3.72168e-43
0
2.08408e-135
0
3.59126e-47
1.79083e-120
2.3553e-150
0
4.27773e-146
8.14572e-142
3.38318e-55
0
5.82085e-45
9.04603e-156
1.18543e-170
4.37159e-32
0
0
5.99483e-31
2.33849e-178
4.80246e-05
0
0
4.37425e-123
1.29552e-122
0
0
4.47169e-27
2.88688e-68
1.01946e-37
8.39616e-19
5.86473e-148
0
0
0
0
0
0
0
0
6.57683e-117
3.22913e-59
4.37521e-122
1.49268e-133
1.42484e-45
9.72063e-06
0
9.94274e-54
1.83554e-50
7.83493e-32
0
2.91345e-68
0
4.9604e-125
1.68863e-155
0
0
0
0
1.4411e-24
7.8642e-38
9.81193e-32
0
7.18072e-67
0
4.45582e-108
2.36586e-15
8.22528e-58
1.9942e-25
0
1.78841e-39
0
1.07967e-09
0
0
0
0
0
5.68219e-196
0.0643
2.72031e-186
1.34655e-104
0
9.344e-19
4.54587e-13
0
0
0
4.21855e-09
0
3.32847e-13
2.62624e-197
5.33672e-31
1.049e-31
0
8.20027e-114
5.21371e-58
0
1.98488e-107
1.69458e-102
0
7.00991e-16
8.45525e-90
5.53837e-111
0
2.46012e-54
0
3.77023e-112
3.01307e-33
192271
1.45894e-31
4.37857e-29
0
0
0
0
6.60671e-28
0
0
1.22926e-158
0
8.0798e-64
0
3.16556e-186
0
1.00623e-46
0
0
6.37305e-92
1.67321e-155
4.49451e-47
7.39197e-24
4.20823e-97
1.22035e-10
9.77772e-93
0
0
0.000320965
1.73235e-74
4.17329e-14
1.87578e-16
4.75397e-30
6.18367e-13
1.06533e-19
0
9.93216e-49
0
2.47131e-130
2.14556e-69
0
0
2.7698e-40
4.04061e-38
4.39734e-08
3.14027e-21
0.488287
1.99731e-71
1.12779e-44
0
7.08302e-117
0
3.7331e-161
3.01386e-46
7.07295e-147
5.65185e-42
0
4.78333e-05
2.07208e-11
2.86712e-35
4.8936e-59
1.42487e-23
1.93778e-92
1.4303e-55
4.16759e-52
5.71428e-23
2.14721e-07
10007.2
1.31269e-93
5.1423e-74
8.46546e-131
0
9.23168e-206
0
1.63998e-61
0
0
0
0
8.6125e-44
1.96835e-30
0
8.52463e-47
2.56526e-32
6.43789e-209
253736
3.42135e-56
9.47154e-168
0
4.94703e-23
0
7.46228e-200
7.8542e-145
0
7.38095e-105
0
0.224221
253.91
1371.09
1.18913e-26
0
0.000135665
2.53879e-30
6.43307e-204
3.80887e-49
3.65966e-106
0
8.25645e-22
0
0
603293
0
1.39199e-63
1.33748e-132
1.16703e-70
0
5.07157e-148
6.5004e-36
9.30646e-78
4.09851e-80
1.55905e-14
6.89986e-17
2.54096e-75
0
2.38661e-97
0
0
0
5.0869e-101
1.14173e-40
0
0
0
1.91857e-61
0
5.80298e-192
0
0
1.70242e-49
0
1.16322e-56
2.46643e-25
1.45208e-35
3.88107e-198
0
1.30298e-94
2.59812e-52
0
1.3e-164
6.8981e-50
0
4.95656e-127
3.40051e-61
0
0
0
0
1.72083e-78
0
2.51155e-110
5.18033e-28
0
2.38015e-74
3.00622e-106
1.28204e-46
0
2.17758e-80
0
1.61981e-36
0
0
1.58236e-39
1.29085e-09
0
2.87246e-07
4.10764e-31
0
3.36898e-163
1.47224e-197
6.20959
0
1.08548e-28
7.39576e-34
7.49612e-37
0
0
0
1.27961e-49
1.13726e-204
7.28888e-76
5.16024e-127
5.97498e-47
5.50627e-38
0
0
0
0
0
4.30115e-180
9.35063e-122
4.87137e-66
5.40525e-127
9.1842e-106
0
3.78156e-210
3.91719e-89
1.81538e-204
0
2.40196e-57
0
0
4.4136e-60
0
2.30493e-151
4.34001e-48
9.45138e-150
2.26495e-143
0
2.39756e-103
0
3.57334e-115
5.09549e-61
0
1.52482e-172
4.70863e-87
3.44413e-139
5.65062e-55
1.13299e-11
2.81162e-162
2.62126e-210
4.25528e-48
0
3.67315e-31
0
0
0
0
0
3.80162e-16
0.00070504
7.65754e-46
5.14232e-109
9.98572e-05
5.47525e-73
8.1405e-43
7.37829e-230
9.05545e-29
1.19744e-155
2.65668e-16
6.49579e-78
9.71014e-140
2.16366e-189
0
2.36719e-32
0
2.14944e-231
1.3144e-39
0
0
0
0
2.39445e-123
0
5.57727e-113
2.81681e-55
0
0
1.30237e-176
0
0
0
0
0
0
0
1.53501e-209
0
0
0
4.1004e-57
5.55937e-71
0
0
0
0
0
0
0
2.95398e-96
3.77694e-50
0
2.5521e-168
8.26779e-22
1.48352e-79
5.32725e-54
0
4.30361e-65
6.5282e-63
1.74494e-105
2.1922e-174
3.32081e-49
8.33206e-76
2.27815e-54
0
0
1.37385e-60
1.01366e-100
3.34608e-23
0
1.01701e-79
0
1.15478e-26
6.62218e-102
4.17347e-207
6.40043e-78
0
0
0
4.13791e-78
7.85606e-69
0
3.59399e-141
6.55948e-166
1.57188e-104
1.48383e-78
6.47236e-87
0
3.27909e-209
0
3.87447e-88
0
6.74081e-218
9.62232e-84
0
3.48664e-77
0
0
0
6.98319e-28
1.29973e-24
1.50508e-219
0
0
7.74594e-68
4.89382e-23
0
0.435893
0
0
0
3.48194e-34
7.47379e-10
2.62062
0.00240236
0.0165883
2.65767e-225
1501.54
0
0
3.34075e-222
333.543
0.00213953
2.18777e-214
8.61492e-66
3.98974e-09
0
1.83118e-25
1.25008e-221
0
2.84145e-49
0
1.32238e-78
0
1.66824e-158
1.27437e-219
0
0
6.9051e-17
0
3.83598e-34
1.75365e-95
2.40539e-227
8.85993e-235
0
0
0
0
1.19293e-35
0
0
5.40915e-96
1.63214e-31
5.61249e-231
5.11064e-34
9.16003e-162
0
1.35362e-68
0
0
1.34929e-106
7.04835e-58
0
9.65071e-31
1.78439e-32
2.00464e-24
6.00653e-36
3.44248e-53
1.42487e-57
0
2.28233e-140
0
0
0
2.53161e-35
1.47694e-31
1.45006e-31
9.362e-60
3.04522e-58
0
1.7063e-63
3.70377e-55
0
0
0
2.31134e-30
1.84881e-31
0
1.22539e-13
1.20287e-137
0
1.50389e-06
1.61144e-13
0
3.36191e-71
0
0
1.67752e-95
0
2.7808e-115
0
0
1.72429e-101
0
4.24809e-91
2.86051e-05
0
2.33731e-73
3.26764e-108
0
0
1.87497e-223
0
2.00664e-45
4.20285e-42
8.47256e-142
0
0
7.0611e-106
0
0
0
9457.46
1.35304e-125
0
0
5.97732e-102
7283.58
3.17962e-108
3.73463e-121
8.83227e-134
0
27625.2
0
3.58374e-165
0
1.04159e-73
0
8.89414e-163
1.79009e-119
0
4.83465e-158
0
2.49976e-92
9.73646e-161
2.94231e-52
0
0
6.71182e-26
0
0
1.42045e-32
5.48098e-30
1.06092e-104
5.45023e-147
9.36498e-195
0
0
0
1.02797e-100
2.63118e-11
0
4.41135e-107
1.76173e-102
5.4575e-100
2.02685e-77
0
2.95691e-45
4.80685e-24
0
1.94343e-19
1.80954e-39
0
3.94318e-39
9.77462e-144
1.20106e-100
0
5.72707e-147
0
7.36967e-17
5.66836e-142
0
0
2.59513e-144
4.73252e-41
7.59652e-120
5.45624e-38
4.48037e-126
1.70557e-35
0
5.39541e-129
1.82644e-28
6.45314e-155
1.90302e-19
0
0
0
1.34732e-39
2.64869e-29
1.60352e-134
6.09998e-34
1.13993e-32
6.77878e-31
1.88871e-131
0
0
3.21835e-12
0
2.91038e-37
1.12887e-74
0
0
2.69064e-71
0
0
1.91199e-153
1.85416e-153
4.99146e-75
1.7382e-41
0
1.21881e-132
9.65948e-90
0
0
2.14885e-139
2.39033e-131
0
0
1.80048e-74
0
1.98088e-131
0
9.31588e-129
1.77758e-121
1.03545e-118
0
0
0
1.24709e-23
0
3.21349e-38
1.64724e-13
8.55148e-199
3.47242e-135
0
1.78548e-140
0
0
0
0
8.81258e-29
6.82934e-28
0
8.85345e-106
8.00958e-66
0
0
4.92465e-34
1.75081e-202
5.75852e-141
5.49828e-52
0
4.38297e-146
3.7598e-23
1.18041e-146
1.10243e-96
4.8619e-84
0
0
1.06541e-62
5.82328e-50
0
5.95408e-99
3.00729e-165
0
6.4315e-148
3.31844e-108
0
3.75453e-168
0
0
0
7.62959e-141
0
0
0
1.99088e-91
0
9.95245e-87
1.97847e-74
1.71191e-134
3.92952e-49
0
6.67716e-138
2.41466e-113
4272.03
0
1.23481e-107
7.60528e-111
8.29894e-88
2.4131e-97
7.00595e-105
0
0
0
0
0
0
2.97555e-120
0
5.65655e-100
0
0
0
1.90085e-94
0
0
0
1.38755e-91
3.58944e-96
6.43826e-34
1.22759e-96
0
7.84905e-20
7.27675e-91
0
1.60744e-36
0
0
3.64874e-05
2.15883e-51
0
3.01441e-176
8.89761e-145
7.83069e-64
6.45843e-73
5.73202e-67
0
0
2.14383e-127
1.9908e-169
0
3.14504e-121
2.55891e-68
3.10018e-66
1.98227e-202
0
3.58701e-161
0
0
6.22421e-170
0
0
0
1.23003e-180
9.05688e-105
4.56211e-42
5.47927e-161
0
0
4.36235e-87
8.71161e-156
0
0
0
0
2.17237e-168
4.25119e-45
7.9903e-112
1.30496e-120
0
1.08387e-69
0
0
1.89415e-115
9.9711e-101
0
3.30084e-102
0
0
7.07703e-82
4.44576e-76
5.83844e-26
0
1.69834e-118
2.86091e-127
1.16263e-12
1.55588e-94
0
0
4.6995e-20
1.74984e-39
0
8.8307e-44
1.92609e-96
1.35473e-20
1.14151e-86
0
0
0
2.16421e-22
0
0
0
0
0
1.17649e-88
0
2.14465e-17
0
4.35789e-55
7.01504e-117
5.22284e-55
6.55478e-71
1.57563e-135
2.88738e-47
0
0
1.75408e-145
1.13822e-13
5.1756e-13
3.64351e-49
0
5.75434e-153
0
7.35652e-53
0
1.05518e-17
0
1.89782e-50
0
3.66394e-58
0
2.77062e-06
0
2.9036e-96
4.47173e-34
8.88958e-54
0
0
8.19915e-126
0
5.23652e-179
0
8.98691e-109
0
0
0
0
5.5386e-21
0
0
0
0
3.21377e-58
0
4.58924e-106
5.18591e-111
2.16832e-114
1.89553e-69
0
5.70576e-72
0
4.20224e-65
9.45547e-107
0
0
2.57576e-26
0
2.10546e-34
0
2.11238e-63
9.63503e-190
9.2378e-143
0
6.26528e-188
0
1.39137e-22
1.01871e-107
4.58872e-56
2.24588e-182
0
3.66824e-79
3.5186e-82
1.28159e-189
0
3.08004e-57
1.96899e-153
1.93805e-36
2.42526e-17
2.08936e-187
0
0
0
1.76046e-63
0
0
0
0
4.96213e-183
0
0
0
2.64377e-197
0
3.26799e-66
1.42308e-71
0
0
4.0537e-157
0
0
0
4.15969e-160
0
8.45642e-47
8.97056e-124
1.116e-154
1.49145e-104
0
1.31624e-49
0
0
3.48355e-147
6.68706e-181
0
0
0
1.30329e-136
2.01373e-134
0
0
0
3.05389e-40
1.70478e-188
3.72031e-128
2.51237e-143
9.44329e-23
0
1.17035e-134
0
0
7.22942e-151
7.42203e-114
2.38765e-07
0
0
8.175e-34
0
4.16317e-107
5.46699e-135
0
8.99579e-111
0
0
1.26851e-106
0
0
2.18945e-80
7.77285e-54
0
0
1.42795e-137
6.41236e-64
1.0033e-23
0
0
0
3.23861e-35
1.05496e-20
0
0
7.90812e-198
8.02714e-105
4.38699e-111
0
4.12518e-133
0
0
0
0
9.73066e-133
0
1.85456e-157
1.78065e-166
5.95017e-175
9.67598e-163
0
1.07897e-68
0
0
0
6.59751e-140
0
6.36034e-177
0
1.21262e-46
4.77963e-205
0
4.77234e-179
0
1.11477e-166
0
0
0
8.08216e-95
1.18859e-173
0
0
3.01054e-70
5.44899e-83
0.0459711
3.99626e-150
9.31984e-173
1.17626e-179
2.78171e-80
0
0
0
1.02439
25.1456
2.67346e-76
1950.78
4.10803e-09
1.31612e-119
7.44552e-76
4.66431e-32
0
0
3.38336e-219
0
5.63337e-179
0
3.04655e-12
0
4.45187e-09
2.98631e-37
1.92563e-09
0
3.63719e-114
0
4.5192e-23
1.18121e-64
2.37011e-15
4.12435e-59
4.4543e-41
4.62493e-21
0
0
4.17488e-12
0
0
0
0
0
2.80735e-13
4.6199e-77
0
0
7.60317e-147
1.51197e-195
0
1.17569e-194
7.753e-179
0
1.02509e-64
0
0
2.1278e-126
5.61584e-11
0
4.04226e-70
0
1.57108e-181
5.73258e-05
0
0
0
0
1.31466e-118
9.30422e-169
0
0
3.08441e-70
1.66398e-117
0
0
0
5.57368e-147
1.00492e-79
0
0
5.54205e-112
6.39762e-124
0
0
3.48027e-181
0
0
3.75072e-160
4.45084e-107
0
0
3.23346e-111
0
1.31519e-133
0.594666
0
3.7018e-204
0
0
5.78827e-176
0
0
0.383656
0
89.5387
0
0
4.55996e-75
9.18814
4.40382
3.673e-59
1.18973e-53
1.79427e-94
0
0
8.89385e-92
0
0
0
538.461
0
1.83843e-88
3.15039e-118
4.58281e-85
0
0
0
1.92329e-170
3.31368e-143
1.68665e-58
0
6.04726e-165
0
0
0
0
5.4282e-87
3.94421e-34
0
3.76325e-33
7.24825e-223
1.39193e-205
1.68504e-87
4.02917e-29
3.16567e-30
5.18857e-29
1.09593e-35
0
0
3.11672e-85
2.50395e-66
1.19931e-32
0
0
0
0
0
1.09547e-50
1.25307e-64
9.30977e-109
5.44149e-49
4.9028e-51
0
7.7763e-53
3.7521e-23
1.82148e-175
1.18536e-214
1.21745e-178
3.59037e-32
7.49609e-17
1.06349e-47
0
0
0
1.31498e-73
0
3.66444e-17
1.07033e-14
1.5993e-98
9.68604e-200
8.32523e-24
1.8161e-96
0
3.43885e-188
0
1.73962e-85
1.20264e-178
0
9.26413e-101
0
0
5.76948e-17
3.95163e-181
0
0
3.3287e-175
3.25833e-80
1.11411e-22
1.56331e-20
0
4.58849e-21
1.82806e-24
2.9197e-18
5.9761e-88
0
1.25693e-18
0
4.80368e-22
2.10936e-24
0
0
0
1.72829e-97
3.49365e-63
0
0
2.21822e-36
0
2.07643e-74
7.41363e-196
0
0
1.21511e-37
1.12801e-128
0
0
0
0
7.24145e-36
3.0139e-34
7.98345e-64
2.91684e-156
2.44367e-27
0
0
0
3.78559e-86
6.28489e-30
1.77951e-11
3.40581e-68
1.47405e-131
0
0
6.82248e-125
6.79804e-169
0
3.1843e-177
0
1.19945e-159
0
4.15568e-232
2.95314e-109
2.06927e-157
0
6.33437e-184
4.47526e-206
0
1.36975e-61
2.77763e-82
1.74494e-188
0
0
3.42133e-151
6.93039e-71
1.35737e-58
6.56365e-165
3.26252e-75
4.91415e-131
0
8.93074e-92
1.59501e-73
1.92671e-48
8.88121e-161
0
1.17298e-137
2.60465e-172
1.02932e-156
0
2.40115e-156
0
0
3.00088e-206
0
0
0
2.29532e-37
9.23468e-198
0
0
3.61361e-59
0
1.42007e-82
6.38585e-76
8.28909e-23
0
0
4.17695e-181
0
6.41955e-65
0
0
1.1382e-154
0
0
6.33244e-76
1.77306e-158
0
7.50186e-162
1.51376e-169
0
1.0114e-80
0
0
0
0
3.52914e-117
1.80125e-118
2.69133e-126
3.90778e-98
0
0
1.34114e-70
6.91498e-70
0
3.97291e-138
0
0
3.60537e-108
7.34177e-100
0
8.9943e-51
0
0
0
0
3.74567e-165
0
0
4.60809e-83
5.94147e-60
0
1.27234e-95
0
4.4872e-167
4.0305e-83
3.05057e-75
5.73065e-195
4.08703e-81
2.61346e-102
0
0
0
0
8.99098e-152
0.00121292
0
0
1.35913e-108
5.49552e-79
0
0
0
0
0
1.99169e-55
0
0
0
1.71621e-124
5.69525e-191
0
5.79163e-87
0.449939
7.7234e-153
0
3.76082e-143
0
2.10223e-74
0
1.55374e-38
1.37737e-200
4.5036e-31
9.62837e-24
0
0
7.81954e-160
1.93115e-127
7.49146e-204
4.68775e-99
7.06216e-102
1.76124e-107
0
0
1.04338e-60
2.17144e-36
0.000189379
1.22029e-20
3.34689e-87
0
2.04672e-190
0
2.11046e-144
0
8.54364e-184
2.39502e-187
2.0976e-182
6.54114e-14
4.21458e-67
0
0
1.68104e-149
8.01068e-24
0
1.75679e-48
0
4.49317e-190
5.28835e-40
0
1.20231e-181
2.81436e-210
0
2.22985e-24
2.49548e-22
0
3.28849e-24
0
2.03263e-40
4.40192e-166
1.34932e-21
0
0
0
9.69339e-119
0
5.92603e-10
1.60516e-64
0
5.44655e-17
1.26498e-187
2.46961e-123
4.7738e-52
0
3.87487e-96
3.60844e-191
0
0
7.10968e-173
0
4.49246e-157
0
0
0
2.33826e-151
2.34395e-73
0
1.31777e-138
1.14631e-74
1.33371e-94
0
6.11638e-153
9.72806e-26
0
4.24287e-32
1.05907e-12
5.04993e-57
0
0
1.19689e-52
0
6.45759e-167
0
2.37656e-25
0
0
132.117
5.54633e-56
0
2.57804e-72
5.2724e-116
0
1.51686e-175
1.09047e-132
0
0.0201143
4.73713e-199
4.05595e-05
1.25862e-121
0
5.25945e-198
0
4.78335e-55
2.36897e-201
0
2.00213e-115
1.20999e-156
0
2.04315e-18
1.37e-109
1.33041e-46
0
0
5.07341e-107
5.94861e-82
1.42866e-110
1.48433e-143
0
1.79531e-38
0
8.90918e-89
1.02367e-54
2.28673e-41
0
3.40449e-69
1.29885e-59
0
4.73308e-46
8.42165e-74
8.14013e-108
3.74992e-161
3.25375e-15
3.46833e-61
1.25255e-58
1.47562e-76
6.11218e-44
1.77128e-41
4.75719e-16
7.54646e-60
8.95165e-27
8.49903e-47
0
3.73815e-139
0
0
0
1.61269e-61
1.14654e-20
7.86015e-56
1.99296e-88
1.0119e-37
0
1.84327e-178
1.72113e-19
1.35114e-73
0
7.21955e-97
1.88047e-182
0
1.99328e-137
0
4.33662e-39
0
2.65439e-128
6.1532e-24
0
0
0
1.67456e-18
0
0
1.55892e-163
0
0
1.3994e-140
3.89948e-45
4.48658e-39
1.38092e-107
0
6.10486e-115
1.96524e-95
2.22728e-59
2.70551e-86
7.95483e-190
1.35507e-122
6.11767e-21
8.42589e-82
3.91551e-122
0
0
2.93194e-184
3.77621e-72
5.81476e-45
7.23725e-23
1.45692e-58
0
2.49463e-61
2.54476e-176
0
4.51291e-25
1.02331e-39
0
8.03508e-206
7.20077e-71
1.76546e-203
9.74785e-102
0
0.0023478
0
0
0
0
0
1.53254e-65
0
0
2.4183e-65
8.15296e-85
28177.3
0
2.18035e-157
1.17834e-37
5.88841
1.6374e-127
0
8.04286e-28
0
1.13075e-60
5.59287e-52
0
0
0
0
0
1.40051e-134
5.14541e-202
3.2636e-117
1.23618e-09
0
0
535747
1.11024e-32
3.48883e-08
4.38465e-131
0
2.0504e-143
1.76032e-145
7.5921e-08
5.3679e-46
2.41076e-97
5.62386e-06
298.517
1.60425e-27
0
4.2127e-54
1.2813e-06
3.36079e-19
0.358228
7.52857e-40
8.66453e-130
348.781
0
3.94808e-146
0
0
4.88317e-21
0
2.22719e-97
0
0
4.39738e-127
5.98286e-38
0
0
35.6343
0.0335675
1.73234e-89
2023.92
60.8773
0
0
4.94431e-05
1.36813e-77
0
0
0
0
1.42746e-148
1.76954e-211
10785
0
317.107
6.40756e-28
3.17794e-107
3.63563e-77
3.59099e-134
1.09064e-198
0
9.38616e-07
0
9.69875e-173
0
0.000206427
0
0
1.73406
8.08318e-28
5.18373e-26
0
0
33.4718
2.77657e-188
0
6.81533e-35
2.22452e-30
3.63504e-26
0
9.03992e-144
0
0
0
0.136413
0
1.53747e-10
3.29967
0
2.90218e-114
0.0026178
0
0
8.28504
5.20605e-42
3.81457e-35
3.53495e-191
186.928
0
3.15011e-05
2.60545e-37
8.27806e-210
4.50075e-85
0
4.70927e-182
0
6.68605e-38
0
7.0582e-16
2.37374e-60
5.11145e-38
7.21815e-26
2.53164e-09
4.2178e-38
0
0
6.13369e-73
0.347003
4.22519e-20
0
2.32251e-37
1.41651e-100
9.86431e-103
0
1.30937e-35
0
5.60057e-106
7.27845e-112
0
6.78126e-42
0
0
0
0
3.71828e-162
4.30096e-190
0
1.52331e-181
1.45946e-95
0
0
1.11955e-106
1.88656e-90
2.52288e-25
0
1.74128e-33
1.05354e-126
0
0.000402032
0
2.81791e-191
4.90841e-45
1.03715e-134
0
0
0
7.60862e-71
6.86671e-15
4.79974e-104
2.20063e-104
0
0
7.39496e-193
8.42971e-15
7.11386e-124
4.63539e-188
1.54613e-63
3.03734e-197
8.58201e-141
0
3.25381e-100
1.28416e-67
0
0
9.10296e-116
2.72411e-51
1.88426e-191
8.17731e-123
0
0
2.73064e-186
5.27094e-70
0
5.79705e-16
8.34646e-53
0
0
7.99577e-93
1.9347e-105
0
3.08556e-158
2.49653e-214
0
5.02598e-185
8.26325e-133
0
0
1.53509e-34
1.53502e-70
0
3.02711e-40
3.10429e-19
1.61575e-99
3.62565e-143
0
0
0
5.03754e-63
6.41101e-49
1.74352e-162
5.28629e-206
2.4228e-107
0
2.89298e-183
2.98287e-198
5.66167e-109
7.63208e-27
0
9.11542e-169
0
1.39755e-118
0
2.3991e-45
3.84858e-184
5.60757e-146
0
9.84859e-20
0
8.04698e-29
5.64591e-139
0
6.55273e-107
1.16731e-108
3.49191e-33
0
3.1e-102
0
1.55401e-147
0
3.87763e-129
0
3.96882e-75
7.96876e-112
0
1.77459e-23
9.90328e-114
4.03736
4.49228e-23
3.13895e-66
3.45644e-19
2.18702e-128
1045.77
5.20911e-178
0
2.02852e-33
142.538
8.06012e-35
5.94313e-100
0
0
0
0
2.94816e-175
4.26631
0
0
0
6.55719e-147
5.11483e-188
1.35646e-86
4.34616e-05
0
0
4.22671e-99
0
6.73996e-125
7.00306e-129
0.000601221
276672
1.35789e-29
0
0
0
1.62795e-153
0
1.95649e-111
2.14146e-96
0
0
0
4.59128e-27
5.72378e-114
3.0985e-205
3.10579e-190
0
2.03394e-08
0
0
0.263523
0
0
2.22469e-142
0
0
3.14682e-174
0
1.14175e-196
0
4.2368e-130
1.69945e-173
0
6.80971e-179
1.27212e-136
0
8.09125e-199
0
5.95722e-78
1.76598e-143
3.62503e-189
8.64903e-205
0
0
8.02237e-49
2.28711e-13
5.31944e-25
3.80082e-202
0
5.99881e-213
0
1.01001e-50
0
0
0
3.15244e-213
0
5.05716e-210
5.08402e-115
1.32637e-155
0
0
5.08908e-207
0
1.08447e-31
3.06745e-180
0
9.72996e-27
3.87603e-71
0
0
5.20155e-27
0
1.98166e-184
9.86931e-214
0
2.17146e-180
0
0
0
0
0
0
9.252e-49
0
8.55483e-99
1.55513e-161
0
1.01738e-215
0
5.08368e-192
0
0
1.2928e-14
0
1.60876e-13
0
0
2.93757e-11
1.10305e-09
0
0
5.67949e-45
0
0
5.49503e-193
3.88522e-100
6.19906e-187
5.31703e-12
5.84103e-156
8.26767e-11
2.57883e-209
1.73615e-207
8.51497e-171
1.2816e-25
3.08978e-24
4.50033e-28
0
0
3.87818e-114
0
4.38777e-201
4.36766e-141
0
0
8.14154e-165
3.06929e-166
2.77388e-21
0
0
0
4.86569e-189
0
5.54942e-189
0
2.76974e-92
1.15509e-23
6.06039e-115
0
0
0
0
1.98063e-127
0
0
0
4.06956e-24
3.02843e-133
0
1.45365e-110
1.50679e-60
1.95245e-178
1.68869e-45
0
0
1.60877e-22
1.46505e-120
1.05056e-20
0
5.0822e-86
3.19936e-59
8.50552e-221
8.30116e-20
6.25656e-89
1.2776e-114
2.49448e-198
0
0
1.34238e-20
0