/*--------------------------------*- C++ -*----------------------------------*\
| =========                 |                                                 |
| \\      /  F ield         | OpenFOAM: The Open Source CFD Toolbox           |
|  \\    /   O peration     | Version:  v2012                                 |
|   \\  /    A nd           | Website:  www.openfoam.com                      |
|    \\/     M anipulation  |                                                 |
\*---------------------------------------------------------------------------*/
FoamFile
{
    version     2.0;
    format      ascii;
    class       volScalarField;
    location    "1.5";
    object      qin;
}
// * * * * * * * * * * * * * * * * * * * * * * * * * * * * * * * * * * * * * //

dimensions      [1 0 -3 0 0 0 0];


internalField   uniform 0;

boundaryField
{
    fire_inlet
    {
        type            calculated;
        value           nonuniform List<scalar> 
41
(
5484.75
8654.35
2986.87
4630.97
4623.35
6186.21
8905.39
9211.02
13807.5
8231.6
9871.22
8435.99
8471.33
8124.58
9813.33
9676.21
3509.23
6076.56
6695.13
6460.07
12795.3
8258.83
9796.94
6033.61
13155.4
18496.6
17222.4
15135.6
8913.08
4632.66
14860
12095.2
16950.2
6178.73
9079.67
16192.7
15141
18313.8
13950.7
15443.6
16029.4
)
;
    }
    outlet
    {
        type            calculated;
        value           nonuniform List<scalar> 
400
(
459.752
461.078
463.309
473.814
476.447
481.17
488.647
495.67
467.788
473.577
475.764
471.147
476.847
474.812
483.05
477.996
467.673
459.793
459.888
459.852
460.474
460.061
461.547
460.619
462.418
461.766
464.076
464.925
462.401
475.52
493.26
461.707
466.926
478.418
483.942
462.938
500.587
461.289
480.422
478.42
459.902
466.184
481.686
489.366
473.745
480.976
470.246
475.248
476.964
470.897
469.915
460.24
472.506
469.972
463.183
462.14
462.111
470.424
467.291
473.572
467.557
466.532
461.32
461.325
461.985
462.192
463.309
460.996
464.834
487.513
479.148
485.478
480.383
484.397
462.945
460.7
461.599
469.247
472.809
466.973
469.694
466.414
466.202
461.893
462.738
463.551
462.883
463.062
465.239
470.228
479.423
469.883
463.51
465.776
472.669
470.795
466.39
465.11
466.77
466.954
459.304
459.304
459.304
459.304
459.304
459.304
459.304
459.304
459.304
459.304
459.304
459.304
459.304
459.304
459.304
459.304
459.304
459.304
459.304
459.304
459.304
459.304
459.304
459.304
459.304
459.304
459.304
459.304
459.304
459.304
459.304
459.304
459.304
459.304
459.304
459.304
459.304
459.304
459.304
459.304
459.304
459.304
459.304
459.304
459.304
459.304
459.304
459.304
459.304
459.304
459.304
459.304
459.304
459.304
459.304
459.304
459.304
459.304
459.304
459.304
459.304
459.304
459.304
459.304
459.304
459.304
459.304
459.304
459.304
459.304
459.304
459.304
459.304
459.304
459.304
459.304
459.304
459.304
459.304
459.304
459.304
459.304
459.304
459.304
459.304
459.304
459.304
459.304
459.304
459.304
459.304
459.304
459.304
459.304
459.304
459.304
459.304
459.304
459.304
459.304
459.304
459.304
459.304
459.304
459.304
459.304
459.304
459.304
459.304
459.304
459.339
459.346
459.364
459.353
459.398
459.368
459.411
459.4
459.442
459.414
459.464
459.444
459.461
459.437
459.444
459.435
459.461
459.46
459.549
459.547
459.675
459.601
459.725
459.694
459.843
459.795
459.907
459.864
459.94
459.944
459.922
459.922
459.94
459.567
459.656
459.783
459.922
459.965
459.928
459.972
459.339
459.334
459.373
459.443
459.557
459.568
459.34
459.335
459.635
459.732
459.739
459.862
459.842
459.446
459.34
459.354
459.413
459.507
459.34
459.413
459.497
459.348
459.9
459.528
459.439
459.355
459.435
459.349
459.375
459.397
459.365
459.405
459.397
459.439
459.419
459.435
459.341
459.449
459.521
459.495
459.617
459.539
459.708
459.635
459.779
459.711
459.855
459.843
459.963
459.89
459.977
459.344
459.724
459.587
459.881
459.521
459.56
459.361
459.375
459.351
459.359
459.364
459.468
459.521
459.555
459.346
459.355
459.429
459.6
459.351
459.661
459.435
459.91
459.441
459.802
459.822
459.361
459.683
459.467
459.824
459.942
459.954
459.399
459.413
459.458
459.405
459.366
459.486
459.445
459.361
459.534
459.494
459.61
459.562
459.693
459.657
459.822
459.733
459.845
459.878
459.839
459.369
459.542
459.791
459.828
459.415
459.623
459.59
459.651
459.513
459.474
459.537
459.374
459.376
459.366
459.714
459.779
459.389
459.396
459.423
459.441
459.409
459.466
459.448
459.557
459.493
459.639
459.593
459.795
459.746
459.707
459.693
459.619
459.688
459.385
459.39
459.671
459.593
459.488
459.41
459.408
459.662
459.554
459.57
459.474
459.584
459.427
459.509
459.473
459.425
)
;
    }
    base
    {
        type            calculated;
        value           nonuniform List<scalar> 
14237
(
944.147
1044.83
1047.18
696.429
857.459
955.512
1002.42
999.859
582.852
536.667
500.44
789.284
789.935
819.62
777.36
807.393
961.46
772.18
777.1
674.458
624.946
563.767
535.872
520.606
508.754
509.925
503.109
782.489
713.664
930.211
760.02
807.387
636.723
590.986
553.554
517.58
506.015
803.76
502.044
742.931
675.522
633.426
512.585
796.025
496.749
497.744
503.116
615.046
656.592
754.139
495.562
786.419
765.891
776.467
927.862
679.536
788.635
753.614
517.209
551.16
588.627
620.409
667.296
602.556
608.032
554.289
582.295
622.961
651.668
530.896
529.931
459.305
459.305
459.305
459.305
459.305
459.305
459.305
459.305
459.305
459.305
459.305
459.305
459.305
459.305
459.305
459.305
459.305
459.305
459.304
459.304
459.304
459.304
459.304
459.304
459.304
459.304
459.304
459.304
459.304
459.304
459.304
459.304
459.304
459.304
459.304
459.304
459.304
459.304
459.304
459.304
459.304
459.304
459.304
459.304
459.304
459.304
459.304
459.305
459.304
459.305
459.304
459.305
459.305
459.305
459.305
459.305
459.305
459.305
459.305
459.305
459.305
459.306
459.306
459.307
459.423
459.459
459.405
459.343
459.328
459.319
459.312
459.311
459.307
459.305
459.305
459.305
459.306
459.307
459.307
459.308
459.309
459.311
459.328
459.338
459.386
459.307
459.31
459.309
459.315
459.313
459.321
459.318
459.326
459.324
459.328
459.331
459.332
459.335
459.334
459.338
459.339
459.341
459.345
459.343
459.35
459.351
459.351
459.354
459.365
459.372
459.363
459.377
459.378
459.386
459.382
459.398
459.39
459.41
459.4
459.419
459.418
459.432
459.416
459.429
459.43
459.429
459.423
459.419
459.414
459.41
459.404
459.397
459.404
459.386
459.386
459.369
459.371
459.364
459.364
459.349
459.356
459.352
459.354
459.355
459.349
459.376
459.378
459.438
459.429
459.53
459.518
459.705
459.602
459.976
459.789
460.34
460.29
460.861
459.312
459.314
459.327
459.354
459.404
459.526
459.772
460.315
461.302
461.728
462.173
477.196
502.064
515.418
502.452
479.418
466.993
462.732
461.652
461.332
459.313
459.305
459.306
459.306
459.307
459.306
459.306
459.306
459.305
459.305
459.305
459.306
459.31
459.31
459.304
459.307
459.561
459.672
459.478
459.38
459.331
459.324
459.32
459.313
459.308
459.306
459.305
459.305
459.306
459.306
459.307
459.307
459.307
459.309
459.31
459.312
459.328
459.347
460.872
459.352
459.372
459.314
459.313
459.319
459.319
459.339
459.377
459.45
459.6
459.991
460.828
461.619
461.601
466.542
490.726
511.989
510.504
490.617
471.527
463.987
462.169
461.35
461.134
459.305
459.306
459.306
459.307
459.306
459.306
459.305
459.305
459.305
459.306
459.308
459.305
459.632
459.527
459.362
459.339
459.32
459.313
459.311
459.308
459.306
459.307
459.308
459.308
459.313
459.316
459.321
459.336
459.357
459.408
459.307
459.534
459.829
460.447
461.393
461.82
464.247
485.443
510.875
517.266
493.3
473.292
464.664
462.168
461.413
461.019
459.306
459.306
459.307
459.306
459.306
459.306
459.305
459.305
459.306
459.308
459.618
459.749
459.565
459.406
459.364
459.325
459.315
459.313
459.309
459.308
459.31
459.313
459.32
459.325
459.345
459.391
460.97
461.756
461.757
472.342
501.966
520.736
506.822
482.678
468.043
462.974
461.607
461.236
460.959
459.306
459.306
459.306
459.306
459.306
459.306
459.305
459.305
459.305
459.306
459.605
459.307
459.306
459.411
459.328
460.046
459.342
459.466
459.305
460.588
459.308
459.305
459.305
459.305
459.305
459.305
459.305
459.305
459.305
459.305
459.305
459.305
459.305
459.305
459.304
459.305
459.304
459.304
459.307
459.307
459.307
459.304
459.304
459.304
459.304
459.304
459.304
459.304
459.304
459.305
459.304
459.305
459.305
459.305
459.305
459.305
459.305
459.305
459.305
459.305
459.305
459.305
459.305
459.305
459.305
459.305
459.306
459.306
459.306
459.306
459.306
459.307
459.307
459.308
459.307
459.307
459.307
459.311
459.967
460.789
459.806
459.795
459.423
459.577
459.439
459.362
459.377
459.326
459.316
459.317
459.309
459.313
459.477
459.309
459.312
459.307
459.308
459.309
459.375
459.31
459.312
459.317
459.309
459.31
459.311
459.319
459.323
459.335
459.354
459.366
459.388
459.406
460.775
459.306
459.346
459.312
459.32
459.316
459.324
459.325
459.331
459.33
459.336
459.338
459.339
459.346
459.341
459.345
459.345
459.342
459.346
459.346
459.345
459.349
459.356
459.376
459.36
459.324
459.379
459.372
459.388
459.379
459.395
459.389
459.408
459.4
459.418
459.404
459.427
459.413
459.422
459.423
459.416
459.412
459.407
459.401
459.405
459.405
459.389
459.398
459.375
459.38
459.359
459.364
459.358
459.35
459.352
459.349
459.352
459.359
459.361
459.364
459.44
459.42
459.519
459.494
459.588
459.59
459.83
459.674
460.325
460.81
460.185
460.01
459.317
459.318
459.429
459.384
459.425
459.359
459.365
459.313
459.695
459.76
460.893
460.372
460.488
459.333
459.325
459.335
461.705
461.782
473.664
504.012
517.998
507.589
481.373
466.703
462.491
461.318
460.677
460.798
460.682
460.729
459.304
459.306
459.307
459.307
459.306
459.306
459.305
459.305
459.305
459.306
461.184
461.781
459.576
459.556
459.309
459.305
460.038
461.305
459.305
459.305
459.305
459.309
459.304
459.309
459.307
459.309
459.311
459.304
459.304
460.615
460.306
459.528
459.45
459.354
459.327
459.34
459.334
459.317
459.31
459.311
459.343
459.31
459.331
459.317
459.323
459.317
459.341
459.372
459.376
459.404
459.422
459.304
459.475
459.305
461.96
460.115
461.287
461.607
463.578
486.123
515.67
517.712
493.747
474.186
464.427
461.823
460.983
460.981
459.306
459.415
459.306
459.306
459.306
459.306
459.306
459.305
459.305
459.305
459.305
462.87
467.068
459.925
485.683
459.306
459.305
459.305
459.305
459.306
459.306
460.717
461.381
459.308
459.305
459.305
459.305
459.306
459.306
459.306
460.792
461.578
464.845
474.574
495.446
516.065
508.693
459.31
459.306
459.407
459.421
459.383
459.305
459.357
459.304
459.344
459.388
459.352
510.037
459.675
459.42
459.327
459.323
459.321
459.355
459.393
519.798
492.721
466.621
461.433
461.447
461.584
462.308
482.129
459.306
459.306
459.306
459.306
459.305
459.305
459.305
459.305
459.305
459.306
459.305
459.305
459.305
459.305
459.305
459.305
459.304
459.304
459.305
459.384
459.431
459.373
459.384
459.304
459.305
459.305
459.305
459.305
459.305
459.305
459.305
459.306
459.306
459.306
459.306
459.306
459.306
459.306
459.306
459.306
459.306
459.307
459.306
459.307
459.306
459.307
459.307
459.307
459.307
459.308
459.308
459.308
464.565
463.272
459.886
459.712
505.808
459.306
459.398
459.304
459.336
459.318
459.338
459.324
459.334
459.53
459.509
459.332
459.339
459.331
459.337
459.448
516.479
459.419
459.448
459.382
459.454
459.362
461.499
459.304
459.305
459.304
459.327
459.334
459.334
459.345
459.342
459.349
459.35
459.349
459.352
459.348
459.35
459.355
459.356
459.356
459.358
459.365
459.374
459.362
462.525
459.379
459.379
459.389
459.38
459.397
459.397
459.399
459.399
459.415
459.407
459.425
459.416
459.409
459.411
459.402
459.405
459.405
459.391
459.385
459.39
459.38
459.38
459.365
459.372
459.35
459.352
459.351
459.353
459.353
459.358
459.365
459.362
459.423
459.413
459.515
459.47
459.596
459.571
460.198
459.315
459.351
459.376
460.291
459.679
479.629
461.125
461.261
461.348
461.15
467.686
472.239
509.375
511.753
459.564
515.205
512.291
507.799
459.419
473.337
463.614
459.308
461.244
460.653
460.783
459.644
459.7
459.307
459.83
459.892
460.461
459.306
459.306
459.307
459.306
459.307
459.306
459.306
459.305
459.305
459.305
462.086
462.254
461.169
459.305
459.311
459.512
459.529
461.541
465.914
466.58
480.526
472.796
459.306
466.144
467.056
466.394
459.311
459.401
459.418
459.484
459.314
459.306
459.306
459.305
459.306
459.305
463.338
462.303
459.427
459.305
459.305
459.32
459.315
470.032
459.308
459.308
459.772
459.83
459.305
460.221
460.284
459.706
459.34
459.35
461.459
460.681
460.754
459.313
459.31
459.311
459.313
459.327
459.333
459.319
459.318
459.33
459.387
459.693
459.408
459.344
459.446
459.392
463.793
459.344
459.705
459.316
459.321
459.362
460.311
459.382
459.382
459.405
459.394
459.306
461.725
459.315
459.316
459.317
459.314
459.326
459.329
459.306
459.311
491.43
460.018
459.306
491.627
459.309
466.277
459.307
460.301
460.553
460.289
459.306
459.306
459.306
459.306
459.306
459.305
459.305
459.309
466.086
480.491
459.306
459.307
459.305
459.313
460.361
459.431
459.447
464.699
459.306
500.551
490.851
494.267
467.612
459.307
459.306
459.306
459.306
459.306
459.305
459.306
459.316
459.316
459.306
459.306
459.306
459.305
459.305
459.305
459.305
459.305
459.429
460.221
459.369
459.305
459.305
459.305
459.305
459.306
459.306
459.307
459.307
459.307
459.307
459.307
459.307
459.308
459.308
459.307
459.308
459.308
459.307
459.309
459.309
459.309
459.309
459.309
459.308
459.309
459.309
466.187
464.855
460.265
460.169
496.64
459.436
459.435
465.004
459.77
459.306
460.167
459.309
459.71
459.363
460.822
459.356
459.358
490.426
459.338
459.604
459.631
460.015
460.1
459.426
459.391
459.338
459.461
459.458
459.375
459.346
459.348
459.354
459.355
459.355
459.358
459.354
459.353
459.362
459.357
459.358
459.365
459.367
459.374
459.362
459.375
459.391
459.382
459.38
459.396
459.388
459.401
459.393
459.412
459.406
459.412
459.408
459.415
459.405
459.407
459.398
459.393
459.398
459.384
459.384
459.384
459.377
459.365
459.364
459.356
459.356
459.346
459.346
459.348
459.35
459.366
459.369
459.396
459.4
459.481
459.463
459.327
464.733
459.307
459.313
489.198
488.654
459.35
459.75
459.806
459.551
459.305
460.366
460.181
460.841
470.953
475.08
460.042
460.198
459.945
459.801
459.307
470.649
459.307
459.309
463.774
467.344
459.352
459.418
459.44
459.307
459.307
459.307
459.455
459.453
459.459
459.305
459.306
459.305
459.306
459.306
459.306
459.306
459.305
459.305
459.323
459.316
468.734
465.452
459.451
459.446
476.918
471.335
459.305
459.305
474.007
459.306
459.307
459.305
459.358
459.332
459.306
459.409
459.305
459.418
459.412
459.307
459.307
459.329
459.308
459.308
470.456
459.976
500.058
501.156
462.631
462.247
459.781
459.311
461.69
459.328
459.348
459.358
459.307
459.309
459.307
479.376
459.347
459.379
459.502
459.472
459.676
459.481
459.308
459.408
459.305
459.31
469.47
459.319
459.327
459.346
459.41
463.318
459.322
459.331
459.306
460.704
463.145
459.376
459.35
459.314
459.322
459.321
459.327
459.852
459.32
459.323
459.306
459.306
459.398
461.073
459.305
481.104
502.316
459.305
459.738
459.923
459.87
459.306
459.305
459.307
459.306
459.349
459.338
459.345
459.305
459.306
459.321
460.506
460.135
475.802
459.605
459.305
470.007
483.702
472.889
459.305
459.306
459.424
460.655
459.306
459.306
459.306
459.305
459.306
459.307
459.384
473.514
499.083
459.306
459.307
459.306
459.307
459.307
459.307
459.307
459.308
459.308
459.308
459.308
459.308
459.308
459.309
459.309
459.309
459.309
459.309
459.309
459.308
459.308
471.448
461.514
460.467
459.308
459.555
459.485
460.444
474.7
459.319
493.245
459.333
459.336
459.346
460.24
501.979
459.307
459.307
459.554
459.417
459.754
459.351
459.361
459.361
459.364
459.365
459.361
459.363
459.363
459.372
459.366
459.366
459.369
459.378
459.375
468.089
459.423
462.157
459.38
459.378
459.389
459.38
459.402
459.396
459.415
459.401
459.416
459.41
459.394
459.397
459.399
459.388
459.386
459.393
459.37
459.373
459.365
459.37
459.357
459.352
459.348
459.346
459.345
459.35
459.363
459.357
459.411
459.414
459.469
459.453
459.305
459.313
459.388
459.422
459.332
459.348
459.328
459.846
459.444
474.73
459.457
461.834
459.312
459.309
459.315
459.306
459.306
459.444
459.306
459.306
459.306
459.374
462.094
461.609
459.307
459.307
459.458
459.448
459.306
459.306
459.306
459.307
459.306
459.8
459.305
459.305
463.747
461.995
459.436
459.436
459.452
459.306
459.305
459.306
459.602
466.643
459.306
459.306
459.321
483.381
460.226
460.33
469.819
463.575
463.215
460.651
459.331
459.307
459.392
459.46
459.465
459.307
488.702
459.607
459.333
459.308
459.308
488.49
500.867
460.433
459.373
459.38
459.572
459.506
459.477
460.087
459.307
459.438
459.423
459.439
459.342
459.31
459.309
459.803
462.353
460.747
461.304
459.591
459.444
459.306
459.306
459.306
459.306
460.275
488.942
459.307
459.307
459.681
459.305
459.306
459.314
459.319
459.306
502.696
459.319
459.318
459.314
459.913
461.006
460.752
459.478
459.468
482.469
459.743
459.746
459.641
459.473
459.472
459.476
459.307
459.307
459.307
459.306
459.307
459.305
460.027
459.763
459.321
459.326
459.339
459.345
459.306
460.329
459.306
459.306
459.493
459.339
459.306
459.308
459.307
459.308
459.308
459.308
459.308
459.308
459.307
459.307
459.308
459.308
459.309
459.308
459.309
459.309
459.308
459.308
459.915
459.307
459.306
459.364
459.425
459.307
459.307
459.307
460.283
459.306
459.863
459.369
459.368
459.379
459.379
459.38
459.375
459.37
459.376
459.372
459.37
459.372
459.387
459.378
459.395
459.396
459.404
459.395
459.396
459.404
459.391
459.393
459.39
459.394
459.391
459.397
459.375
459.385
459.369
459.366
459.353
459.364
459.348
459.355
459.351
459.34
459.352
459.357
459.393
459.382
459.332
459.317
459.315
459.846
459.31
459.311
459.306
459.306
459.306
459.307
459.307
459.307
459.309
459.43
459.412
459.338
460.218
459.358
459.363
459.376
459.306
459.306
459.331
459.409
459.425
459.382
459.307
459.307
459.474
459.443
459.45
459.364
459.985
459.308
459.308
459.306
459.665
459.631
459.307
459.389
459.408
459.306
459.306
459.496
459.338
460.232
459.352
459.309
459.306
459.365
459.487
459.536
459.452
459.306
459.306
459.307
459.307
459.306
459.405
459.426
459.434
459.606
459.431
459.307
459.31
459.311
459.315
459.313
459.307
459.307
459.308
459.308
459.306
459.306
459.363
459.306
459.307
459.306
459.307
459.307
459.306
459.467
459.474
459.575
459.472
459.474
459.306
459.306
459.548
459.607
459.307
459.307
459.308
459.308
459.308
459.308
459.308
459.308
459.308
459.308
459.308
459.308
459.308
459.308
459.308
459.414
459.307
459.307
459.308
459.445
459.306
459.312
459.464
459.461
459.455
459.535
459.307
459.382
459.385
459.383
459.386
459.385
459.387
459.384
459.386
459.379
459.391
459.396
459.384
459.406
459.404
459.401
459.408
459.386
459.398
459.398
459.389
459.386
459.387
459.369
459.377
459.356
459.365
459.35
459.35
459.34
459.346
459.357
459.341
459.393
459.405
459.372
459.306
459.376
459.382
459.375
459.308
459.308
459.308
459.307
459.311
459.307
459.458
459.308
459.307
459.308
459.361
459.353
459.309
459.307
459.307
459.407
459.436
459.374
459.374
459.396
459.563
459.422
459.592
459.307
459.307
459.306
459.307
459.454
459.307
459.307
459.308
459.307
459.307
459.307
459.437
459.518
459.51
459.307
459.308
459.308
459.506
459.308
459.386
459.378
459.405
459.308
459.307
459.306
459.306
459.306
459.307
459.311
459.306
459.306
459.307
459.461
459.434
459.308
459.307
459.462
459.454
459.452
459.456
459.378
459.383
459.306
459.306
459.307
459.421
459.423
459.451
459.424
459.396
459.478
459.42
459.443
459.308
459.307
459.307
459.308
459.308
459.397
459.424
459.307
459.308
459.394
459.307
459.397
459.394
459.385
459.394
459.394
459.409
459.398
459.409
459.412
459.393
459.403
459.396
459.393
459.384
459.388
459.376
459.377
459.358
459.355
459.353
459.354
459.341
459.347
459.348
459.347
459.367
459.307
459.389
459.399
459.39
459.307
459.393
459.39
459.417
459.421
459.473
459.453
459.368
459.307
459.307
459.437
459.308
459.307
459.307
459.307
459.373
459.306
459.308
459.411
459.366
459.441
459.308
459.391
459.39
459.427
459.444
459.358
459.371
459.36
459.444
459.423
459.453
459.446
459.307
459.417
459.426
459.379
459.367
459.397
459.377
459.437
459.441
459.394
459.398
459.404
459.356
459.39
459.365
459.37
459.347
459.41
459.417
459.41
459.402
459.404
459.399
459.399
459.379
459.392
459.37
459.376
459.35
459.366
459.349
459.347
459.438
459.416
459.402
459.403
459.431
459.442
459.358
459.404
459.427
459.405
459.404
459.352
459.407
459.423
459.356
459.387
459.4
459.378
459.353
459.423
459.437
459.435
459.41
459.409
459.432
459.435
459.412
459.351
459.4
459.417
459.407
459.393
459.375
459.353
459.422
459.428
459.423
459.355
459.345
459.41
459.346
459.418
459.413
459.409
459.367
459.37
459.417
459.414
459.408
459.419
459.373
459.374
459.41
459.378
459.416
459.403
459.4
459.411
459.375
459.415
459.406
459.395
459.305
459.305
459.305
459.305
459.304
459.304
459.304
459.304
459.304
459.304
459.304
459.304
459.304
459.304
459.304
459.304
459.304
459.304
459.304
459.304
459.304
459.304
459.304
459.304
459.304
459.304
459.304
459.304
459.304
459.304
459.304
459.304
459.304
459.304
459.304
459.304
459.304
459.304
459.304
459.304
459.304
459.304
459.304
459.304
459.304
459.304
459.304
459.304
459.304
459.304
459.304
459.304
459.304
459.304
459.304
459.304
459.304
459.304
459.304
459.304
459.304
459.304
459.304
459.304
459.304
459.304
459.304
459.304
459.304
459.304
459.304
459.304
459.304
459.304
459.304
459.304
459.305
459.305
459.304
459.304
459.304
459.304
459.304
459.304
459.304
459.304
459.304
459.304
459.304
459.304
459.304
459.304
459.304
459.304
459.304
459.304
459.304
459.304
459.304
459.304
459.304
459.304
459.304
459.304
459.305
459.305
459.305
459.304
459.304
459.304
459.304
459.305
459.304
459.304
459.304
459.304
459.304
459.304
459.304
459.304
459.304
459.304
459.304
459.305
459.304
459.304
459.304
459.304
459.304
459.304
459.304
459.304
459.304
459.304
459.304
459.304
459.304
459.304
459.304
459.305
459.304
459.304
459.304
459.304
459.304
459.304
459.304
459.305
459.304
459.304
459.304
459.304
459.304
459.304
459.304
459.304
459.304
459.304
459.304
459.304
459.305
459.304
459.304
459.304
459.304
459.304
459.304
459.304
459.304
459.304
459.304
459.304
459.304
459.304
459.304
459.304
459.304
459.304
459.304
459.304
459.305
459.304
459.304
459.304
459.304
459.304
459.305
459.304
459.304
459.304
459.304
459.304
459.304
459.304
459.304
459.304
459.304
459.304
459.304
459.304
459.304
459.304
459.304
459.304
459.304
459.304
459.304
459.304
459.304
459.304
459.304
459.304
459.304
459.304
459.304
459.304
459.304
459.304
459.304
459.304
459.304
459.304
459.304
459.304
459.304
459.304
459.304
459.304
459.304
459.304
459.304
459.304
459.304
459.304
459.304
459.304
459.304
459.304
459.304
459.304
459.304
459.304
459.304
459.304
459.305
459.304
459.304
459.304
459.304
459.304
459.304
459.304
459.304
459.304
459.304
459.304
459.304
459.304
459.304
459.304
459.304
459.304
459.304
459.304
459.304
459.304
459.304
459.304
459.304
459.304
459.304
459.304
459.304
459.304
459.304
459.304
459.304
459.304
459.304
459.304
459.305
459.304
459.304
459.304
459.304
459.304
459.304
459.304
459.304
459.304
459.304
459.304
459.304
459.304
459.304
459.304
459.304
459.304
459.304
459.304
459.304
459.304
459.304
459.304
459.304
459.304
459.304
459.304
459.304
459.304
459.304
459.304
459.304
459.304
459.304
459.304
459.304
459.304
459.304
459.304
459.304
459.304
459.304
459.304
459.304
459.304
459.304
459.304
459.304
459.304
459.304
459.304
459.304
459.304
459.304
459.304
459.304
459.304
459.304
459.304
459.304
459.304
459.304
459.304
459.304
459.304
459.304
459.304
459.304
459.304
459.304
459.304
459.304
459.304
459.304
459.304
459.304
459.304
459.304
459.304
459.304
459.304
459.304
459.304
459.304
459.304
459.304
459.304
459.304
459.304
459.304
459.304
459.304
459.304
459.304
459.304
459.304
459.304
459.304
459.304
459.304
459.304
459.304
459.304
459.304
459.304
459.304
459.304
459.304
459.304
459.304
459.304
459.304
459.304
459.304
459.304
459.304
459.304
459.304
459.304
459.304
459.304
459.304
459.304
459.304
459.304
459.304
459.304
459.304
459.304
459.304
459.304
459.304
459.304
459.304
459.304
459.304
459.305
459.306
459.308
459.31
459.308
459.31
459.31
459.312
459.317
459.328
459.331
459.326
459.328
459.32
459.316
459.305
459.305
459.305
459.305
459.306
459.306
459.306
459.306
459.306
459.306
459.306
459.306
459.307
459.307
459.307
459.307
459.307
459.307
459.307
459.307
459.307
459.307
459.307
459.307
459.306
459.306
459.306
459.306
459.306
459.306
459.305
459.306
459.305
459.305
459.305
459.305
459.306
459.305
459.307
459.306
459.308
459.307
459.31
459.31
459.313
459.311
459.305
459.304
459.304
459.304
459.304
459.304
459.304
459.304
459.304
459.304
459.304
459.304
459.304
459.304
459.305
459.304
459.305
459.305
459.304
459.305
459.305
459.305
459.305
459.305
459.305
459.305
459.305
459.305
459.305
459.305
459.305
459.314
459.304
459.304
459.304
459.304
459.304
459.304
459.304
459.304
459.305
459.305
459.306
459.325
459.33
459.309
459.309
459.309
459.311
459.313
459.314
459.32
459.328
459.33
459.329
459.325
459.304
459.318
459.304
459.304
459.304
459.304
459.304
459.304
459.304
459.304
459.304
459.304
459.304
459.304
459.305
459.306
459.318
459.329
459.324
459.326
459.317
459.304
459.304
459.304
459.304
459.304
459.305
459.305
459.306
459.321
459.324
459.321
459.325
459.304
459.304
459.304
459.304
459.304
459.304
459.304
459.304
459.304
459.304
459.305
459.305
459.306
459.307
459.315
459.316
459.324
459.323
459.313
459.313
459.324
459.322
459.304
459.317
459.316
459.321
459.316
459.317
459.322
459.316
459.316
459.304
459.304
459.305
459.305
459.306
459.306
459.306
459.306
459.306
459.306
459.307
459.306
459.307
459.307
459.307
459.307
459.307
459.307
459.307
459.307
459.307
459.307
459.307
459.307
459.306
459.307
459.306
459.307
459.306
459.306
459.305
459.306
459.305
459.305
459.305
459.305
459.306
459.305
459.306
459.306
459.307
459.307
459.309
459.309
459.311
459.315
459.311
459.304
459.304
459.304
459.304
459.304
459.304
459.304
459.304
459.304
459.304
459.304
459.304
459.304
459.304
459.304
459.304
459.305
459.305
459.305
459.305
459.305
459.305
459.305
459.305
459.305
459.305
459.311
459.311
459.323
459.322
459.304
459.304
459.304
459.304
459.304
459.304
459.304
459.304
459.304
459.305
459.306
459.304
459.309
459.307
459.309
459.304
459.304
459.322
459.305
459.304
459.319
459.304
459.316
459.304
459.304
459.304
459.305
459.306
459.305
459.32
459.313
459.305
459.305
459.304
459.304
459.304
459.304
459.319
459.305
459.304
459.315
459.305
459.304
459.305
459.304
459.304
459.304
459.305
459.304
459.304
459.304
459.304
459.317
459.314
459.305
459.305
459.305
459.304
459.315
459.304
459.304
459.304
459.304
459.319
459.315
459.305
459.305
459.304
459.304
459.306
459.305
459.304
459.304
459.306
459.306
459.306
459.306
459.307
459.306
459.307
459.307
459.307
459.307
459.307
459.307
459.308
459.308
459.307
459.307
459.307
459.307
459.307
459.307
459.307
459.306
459.306
459.306
459.306
459.306
459.305
459.306
459.305
459.305
459.306
459.306
459.306
459.306
459.307
459.307
459.309
459.308
459.304
459.304
459.304
459.316
459.314
459.304
459.305
459.304
459.304
459.304
459.304
459.304
459.305
459.304
459.305
459.305
459.305
459.305
459.305
459.305
459.305
459.305
459.305
459.305
459.305
459.306
459.305
459.31
459.306
459.306
459.307
459.314
459.314
459.313
459.304
459.304
459.304
459.304
459.305
459.304
459.304
459.305
459.305
459.305
459.314
459.308
459.307
459.308
459.305
459.312
459.316
459.316
459.311
459.312
459.312
459.313
459.312
459.31
459.304
459.305
459.305
459.312
459.305
459.305
459.305
459.305
459.305
459.305
459.305
459.305
459.314
459.307
459.304
459.305
459.313
459.305
459.305
459.304
459.304
459.305
459.305
459.306
459.305
459.306
459.306
459.306
459.306
459.307
459.306
459.307
459.307
459.307
459.307
459.307
459.307
459.307
459.307
459.307
459.307
459.307
459.307
459.307
459.307
459.306
459.306
459.306
459.306
459.306
459.306
459.305
459.306
459.305
459.306
459.306
459.306
459.307
459.308
459.307
459.304
459.304
459.304
459.313
459.311
459.305
459.305
459.304
459.304
459.304
459.304
459.304
459.304
459.305
459.305
459.305
459.305
459.305
459.305
459.305
459.305
459.305
459.305
459.304
459.304
459.304
459.311
459.305
459.304
459.305
459.304
459.309
459.307
459.307
459.305
459.309
459.309
459.311
459.313
459.311
459.305
459.304
459.305
459.308
459.305
459.306
459.306
459.311
459.31
459.307
459.31
459.305
459.312
459.31
459.31
459.31
459.309
459.305
459.305
459.304
459.304
459.308
459.309
459.307
459.305
459.305
459.304
459.305
459.308
459.305
459.305
459.305
459.305
459.305
459.306
459.306
459.307
459.306
459.307
459.307
459.307
459.307
459.307
459.307
459.307
459.307
459.308
459.307
459.307
459.307
459.307
459.307
459.307
459.307
459.306
459.307
459.306
459.306
459.306
459.306
459.305
459.305
459.306
459.306
459.306
459.306
459.31
459.304
459.304
459.304
459.307
459.305
459.305
459.305
459.305
459.304
459.304
459.305
459.305
459.305
459.305
459.305
459.305
459.305
459.305
459.305
459.305
459.305
459.305
459.306
459.306
459.306
459.304
459.305
459.305
459.311
459.305
459.305
459.309
459.305
459.306
459.306
459.306
459.307
459.308
459.305
459.304
459.308
459.305
459.305
459.31
459.308
459.309
459.309
459.308
459.305
459.307
459.305
459.307
459.305
459.305
459.307
459.307
459.306
459.306
459.307
459.305
459.305
459.308
459.305
459.305
459.305
459.305
459.305
459.306
459.307
459.307
459.307
459.307
459.307
459.307
459.308
459.307
459.307
459.308
459.307
459.307
459.307
459.307
459.307
459.307
459.306
459.307
459.306
459.306
459.306
459.306
459.305
459.306
459.305
459.305
459.306
459.307
459.306
459.306
459.305
459.305
459.305
459.304
459.304
459.305
459.305
459.305
459.305
459.305
459.306
459.306
459.306
459.306
459.306
459.305
459.305
459.305
459.305
459.305
459.305
459.305
459.308
459.305
459.306
459.307
459.306
459.306
459.307
459.307
459.305
459.306
459.305
459.304
459.304
459.304
459.305
459.305
459.305
459.305
459.305
459.305
459.305
459.305
459.305
459.308
459.306
459.306
459.307
459.307
459.306
459.305
459.305
459.305
459.305
459.305
459.305