/*--------------------------------*- C++ -*----------------------------------*\
| =========                 |                                                 |
| \\      /  F ield         | OpenFOAM: The Open Source CFD Toolbox           |
|  \\    /   O peration     | Version:  v2012                                 |
|   \\  /    A nd           | Website:  www.openfoam.com                      |
|    \\/     M anipulation  |                                                 |
\*---------------------------------------------------------------------------*/
FoamFile
{
    version     2.0;
    format      ascii;
    class       volScalarField;
    location    "1.5";
    object      qr;
}
// * * * * * * * * * * * * * * * * * * * * * * * * * * * * * * * * * * * * * //

dimensions      [1 0 -3 0 0 0 0];


internalField   uniform 0;

boundaryField
{
    fire_inlet
    {
        type            calculated;
        value           nonuniform List<scalar> 
41
(
5025.45
8195.05
2527.57
4171.67
4164.05
5726.9
8446.09
8751.72
13348.2
7772.3
9411.92
7976.69
8012.02
7665.27
9354.03
9216.9
3049.92
5617.25
6235.83
6000.77
12336
7799.52
9337.64
5574.3
12696.1
18037.3
16763.1
14676.3
8453.77
4173.35
14400.7
11635.9
16490.9
5719.43
8620.37
15733.4
14681.7
17854.5
13491.3
14984.3
15570.1
)
;
    }
    outlet
    {
        type            calculated;
        value           nonuniform List<scalar> 
400
(
0.448013
1.77445
4.00411
14.5078
17.1409
21.8639
29.3401
36.3629
8.48336
14.2713
16.458
11.8422
17.5409
15.5064
23.744
18.6902
8.36864
0.489461
0.584575
0.548516
1.17044
0.757345
2.24354
1.31526
3.11365
2.46259
4.77153
5.62036
3.09747
16.2144
33.9535
2.40245
7.62142
19.1119
24.6351
3.6339
41.2801
1.98571
21.1158
19.114
0.598865
6.87931
22.3802
30.0596
14.4396
21.6705
10.9415
15.9423
17.6586
11.5921
10.6096
0.936306
13.2006
10.6668
3.87897
2.83636
2.80744
11.1187
7.98644
14.2672
8.25256
7.22787
2.01575
2.02123
2.68123
2.88774
4.00484
1.69271
5.53
28.2063
19.8419
26.1714
21.0767
25.0903
3.64148
1.39648
2.29575
9.94219
13.5039
7.66836
10.3894
7.1096
6.89747
2.58894
3.4344
4.24662
3.57899
3.75826
5.93435
10.9227
20.1168
10.5779
4.20571
6.47157
13.3642
11.4896
7.08523
5.80581
7.46569
7.64914
0.000555466
0.000639526
0.000713202
0.000710689
0.000664615
0.000628974
0.00059902
0.000517212
0.00049049
0.000510912
0.00053281
0.000541454
0.000550578
0.000556576
0.000563131
0.000576544
0.000537915
0.000576751
0.000553105
0.000571899
0.000552586
0.000576838
0.000544231
0.000571199
0.000542402
0.000574026
0.000535568
0.000558524
0.000563835
0.000717623
0.000582203
0.000685134
0.000704606
0.000696715
0.000622544
0.000646534
0.000604041
0.000733666
0.000582664
0.000678371
0.000631098
0.000611961
0.000667418
0.000609519
0.000624843
0.00063362
0.000608494
0.00069489
0.000669294
0.000648954
0.000667274
0.000635878
0.000679639
0.00066257
0.000668477
0.000569583
0.000580253
0.000573819
0.000573539
0.000628334
0.00061011
0.000601157
0.000612983
0.000589058
0.000602314
0.000682977
0.000622222
0.000617544
0.000662941
0.000564492
0.000628327
0.000616129
0.000618685
0.000581585
0.000685952
0.000630062
0.00058727
0.000584501
0.000586499
0.000591489
0.00063965
0.000629253
0.000588493
0.000615801
0.000587884
0.000589345
0.000626993
0.000615362
0.000592538
0.000664898
0.000605449
0.000658909
0.00064489
0.00061608
0.000597965
0.000591877
0.000605309
0.000626445
0.00064476
0.00063035
0.000604229
0.000590823
0.000609097
0.000596636
0.000595333
0.000646432
0.000631422
0.000607166
0.000634159
0.000609057
0.0354546
0.0430636
0.0606159
0.0494704
0.0948517
0.0647141
0.107926
0.0965888
0.138522
0.110886
0.160767
0.140501
0.158243
0.133359
0.140372
0.13178
0.157667
0.157134
0.245323
0.243495
0.371992
0.297685
0.422249
0.390739
0.539525
0.491346
0.603909
0.56058
0.637211
0.641102
0.618327
0.618915
0.637041
0.263914
0.353132
0.479682
0.618728
0.661261
0.625178
0.668964
0.0359555
0.0311496
0.0696812
0.140159
0.253504
0.265239
0.0365279
0.0313759
0.331479
0.428795
0.435945
0.558292
0.538423
0.14267
0.0370499
0.0507215
0.109351
0.203472
0.0371209
0.110355
0.19342
0.0449802
0.596754
0.225235
0.13619
0.0520423
0.131705
0.0455562
0.0722705
0.0936469
0.0615409
0.101571
0.0939586
0.135931
0.116009
0.131939
0.0379756
0.146083
0.217614
0.191506
0.313945
0.236227
0.404496
0.332203
0.476028
0.407872
0.552101
0.539572
0.659323
0.587091
0.673369
0.0407006
0.421144
0.283985
0.577747
0.217518
0.2566
0.0579988
0.0714876
0.0476711
0.0555823
0.0604463
0.164901
0.217786
0.251511
0.0430416
0.0520028
0.125676
0.296621
0.0481542
0.357608
0.132167
0.606959
0.137905
0.498729
0.518975
0.0577081
0.379984
0.163642
0.52126
0.639197
0.650667
0.0956189
0.109887
0.154824
0.10196
0.0629891
0.182541
0.141636
0.0583142
0.231013
0.19106
0.307212
0.258956
0.390234
0.35403
0.519322
0.42934
0.542279
0.575229
0.53595
0.0660397
0.238552
0.487888
0.524838
0.111729
0.319599
0.287214
0.347777
0.209671
0.170612
0.233492
0.0707584
0.0728142
0.0631378
0.410554
0.475924
0.0861152
0.0927083
0.120259
0.137469
0.105544
0.163057
0.144924
0.253935
0.19027
0.336158
0.290056
0.491796
0.442857
0.403946
0.389381
0.315424
0.384577
0.0821013
0.0866375
0.367819
0.28953
0.184394
0.10666
0.105194
0.358963
0.250525
0.266673
0.170409
0.28098
0.123661
0.206007
0.169888
0.122094
)
;
    }
    base
    {
        type            calculated;
        value           nonuniform List<scalar> 
14237
(
484.814
585.494
587.851
237.107
398.13
496.18
543.082
540.527
123.539
77.3539
41.1296
329.96
330.61
360.292
318.034
348.066
502.13
312.859
317.779
215.141
165.631
104.453
76.5591
61.2938
49.4425
50.6135
43.7978
323.165
254.341
470.882
300.694
348.059
177.407
131.673
94.2413
58.2687
46.7039
344.432
42.733
283.611
216.205
174.111
53.274
336.697
37.4387
38.4328
43.8051
155.731
197.275
294.819
36.2512
327.095
306.57
317.146
468.536
220.219
329.315
294.291
57.8982
91.8484
129.314
161.095
207.98
143.243
148.718
94.9768
122.982
163.647
192.352
71.584
70.6195
0.00128911
0.00139444
0.00133809
0.00144718
0.00132198
0.00143616
0.0013578
0.00148768
0.00134195
0.00136642
0.00124691
0.0014436
0.0011748
0.00134068
0.000973078
0.00116179
0.000795051
0.000969062
0.000664625
0.000783857
0.000352616
0.000591424
0.00019056
0.000178705
0.000227341
0.000209966
0.000274945
0.000249985
0.000239519
0.00025942
0.000275586
0.000284234
0.000318645
0.000320395
0.000304686
0.0003412
0.000300485
0.000295732
0.000408522
0.0003912
0.000338145
0.000368066
0.000307102
0.000383192
0.000318979
0.000468111
0.000282653
0.000436182
0.00030825
0.000502977
0.000265921
0.000565605
0.000349735
0.000557511
0.000527503
0.000893766
0.000298851
0.00110873
0.000369347
0.000990772
0.000987214
0.0011871
0.00184666
0.00234256
0.118513
0.153858
0.100219
0.0381097
0.022539
0.0133895
0.00662525
0.00635465
0.00261123
0.000932379
0.00104926
0.00122439
0.00196783
0.00274815
0.0033965
0.00399916
0.00462192
0.00659724
0.0232738
0.033459
0.0813333
0.00347038
0.00589574
0.00502925
0.0107746
0.00888326
0.0168394
0.0139373
0.0217118
0.0204272
0.0241684
0.0270923
0.0278525
0.0308421
0.0302056
0.0337723
0.0352111
0.0370247
0.0413572
0.0396958
0.0460566
0.0472299
0.0471201
0.0503439
0.0609137
0.0684343
0.05957
0.0731356
0.0740369
0.0818564
0.0779362
0.0940231
0.086363
0.105792
0.0967485
0.11499
0.113896
0.128082
0.111839
0.12558
0.126324
0.125235
0.118947
0.115185
0.109948
0.105844
0.0996111
0.0925859
0.0998661
0.0820153
0.081908
0.0651543
0.0670929
0.0594638
0.06027
0.0452343
0.0513967
0.0476852
0.04958
0.0503126
0.0447847
0.0716837
0.0736769
0.133945
0.124247
0.225161
0.213622
0.400107
0.29779
0.671577
0.484575
1.03506
0.985545
1.55637
0.00736556
0.00963737
0.0220211
0.049352
0.0993403
0.221718
0.466713
1.00959
1.99699
2.42305
2.86775
17.8896
42.7565
56.1106
43.145
20.1116
7.688
3.42725
2.34739
2.02682
0.00807132
0.00148257
0.00219391
0.00239855
0.00267037
0.00213263
0.00196549
0.00134923
0.000913909
0.000593483
0.000743603
0.00204935
0.00551958
0.00587312
0.000190596
0.0026905
0.25576
0.366483
0.172856
0.0746478
0.0260334
0.0192243
0.0146382
0.00756465
0.00356982
0.00187299
0.00152851
0.00148042
0.00185499
0.00162677
0.00260875
0.0031584
0.00324226
0.00450345
0.00604493
0.00731683
0.0238643
0.0428136
1.56715
0.0479207
0.0671534
0.00995447
0.00859943
0.0141203
0.0144723
0.034501
0.0719797
0.144963
0.295511
0.685752
1.52256
2.31397
2.29533
7.23637
31.4195
52.6816
51.1971
31.3103
12.2219
4.68143
2.86395
2.04483
1.82947
0.0017093
0.00229368
0.00243508
0.00256836
0.00216968
0.00178958
0.00115442
0.000696555
0.00056486
0.0013035
0.00353827
0.00148906
0.327109
0.221457
0.0569109
0.0337166
0.0146569
0.00787234
0.00652982
0.00355163
0.00181151
0.00299403
0.00359023
0.00431392
0.00861303
0.0119189
0.0163894
0.0311296
0.0522264
0.103467
0.00330223
0.229377
0.524263
1.1415
2.08794
2.51455
4.9411
26.1368
51.5672
57.9582
33.9931
13.9861
5.35865
2.86262
2.10847
1.71471
0.0021202
0.00235073
0.00262735
0.00230113
0.0020002
0.0013165
0.000856551
0.000585848
0.00126384
0.00347219
0.313578
0.444005
0.259893
0.100794
0.0590135
0.0195981
0.00968852
0.00756014
0.00458232
0.00353894
0.00589986
0.00884028
0.0157146
0.0203442
0.0400233
0.0860638
1.66504
2.45075
2.4515
13.0357
42.6585
61.4286
47.515
23.3719
8.7372
3.66892
2.30178
1.93168
1.65432
0.00203301
0.00234899
0.00251536
0.00247926
0.00218583
0.00168465
0.00125513
0.000720155
0.000584251
0.00196621
0.299576
0.0033737
0.00218643
0.105915
0.0233397
0.741444
0.0379122
0.161139
0.00163927
1.28241
0.00293681
0.00141291
0.00143531
0.00144228
0.00138213
0.00146442
0.00141811
0.00149049
0.00142689
0.00150595
0.00106003
0.00137869
0.00085065
0.00104013
0.000762101
0.000846053
0.000518414
0.000566935
0.00331667
0.00360547
0.00354792
0.000392643
0.000346525
0.000432896
0.000393547
0.000406249
0.000486158
0.000561645
0.000567853
0.000676834
0.000532747
0.000793942
0.000894058
0.00101628
0.000930619
0.00109667
0.000808917
0.000912521
0.000756776
0.00107535
0.000989601
0.000923817
0.00111282
0.00119584
0.00113117
0.000979937
0.00155901
0.00141696
0.00205776
0.00200253
0.00196446
0.00250619
0.00241624
0.00309826
0.00240544
0.0025687
0.00273494
0.00663049
0.662083
1.48384
0.50071
0.489364
0.117902
0.271623
0.133354
0.0571532
0.0720097
0.0214538
0.0113782
0.0121523
0.00403142
0.00929644
0.172545
0.00529409
0.0083074
0.00350344
0.00418849
0.00505448
0.0706304
0.00645726
0.00824502
0.0125458
0.00486659
0.00568692
0.0074699
0.0145052
0.0189099
0.0303977
0.0498058
0.0614496
0.0835126
0.101446
1.47029
0.00194223
0.0411086
0.0076713
0.0161858
0.0125501
0.0198711
0.0207733
0.0270296
0.026624
0.0320986
0.0345626
0.0354703
0.0422978
0.0376405
0.0410592
0.0415237
0.0379467
0.0424268
0.0421982
0.0415046
0.0453915
0.0523018
0.0726318
0.05628
0.0196665
0.0757873
0.0681381
0.0838631
0.0752279
0.0917129
0.084815
0.104638
0.0958558
0.113969
0.100668
0.122958
0.108929
0.118528
0.118886
0.111904
0.1083
0.10265
0.096709
0.100486
0.100852
0.0853309
0.0943052
0.0707823
0.0754443
0.0546134
0.0597971
0.0537385
0.0455921
0.0474625
0.0448227
0.0478004
0.0544373
0.0564473
0.0592796
0.135411
0.115652
0.21442
0.189829
0.283401
0.285972
0.525356
0.369395
1.02069
1.50503
0.880217
0.704808
0.012038
0.0131952
0.124631
0.0794745
0.120411
0.054511
0.0599398
0.00822033
0.390435
0.454913
1.58817
1.06711
1.18295
0.0281292
0.0204768
0.0309718
2.39986
2.47655
14.3584
44.7053
58.6906
48.2821
22.0669
7.39792
3.18574
2.01286
1.37274
1.49335
1.37679
1.42399
0.000260086
0.0025762
0.00266769
0.00255328
0.00202936
0.00164155
0.0011988
0.000686678
0.000636634
0.00169651
1.87898
2.47581
0.271332
0.251669
0.00447334
0.00141921
0.733292
1.99981
0.00134444
0.00151127
0.00143657
0.00465278
0.000316252
0.00499283
0.00227296
0.00433686
0.00648299
0.000283155
0.000280553
1.30996
1.00087
0.222807
0.144899
0.0491825
0.021913
0.0354195
0.029111
0.0121485
0.00503813
0.00583737
0.0387764
0.00487376
0.0263828
0.013375
0.0186313
0.0125593
0.0365101
0.0672313
0.0710743
0.0993279
0.117545
0.000293334
0.170061
0.00163634
2.65496
0.80991
1.98196
2.30143
4.27241
26.8162
56.3629
58.404
34.4403
14.88
5.12183
2.51832
1.67839
1.67553
0.00224379
0.110083
0.00225058
0.00250418
0.00234103
0.00241721
0.00170867
0.00123354
0.000741995
0.000643031
0.00107995
3.56465
7.76296
0.619618
26.377
0.00190888
0.00068912
0.000762552
0.00128257
0.00190849
0.00207137
1.41211
2.07619
0.00349764
0.000995245
0.000755592
0.00109591
0.00149831
0.00197742
0.00233521
1.48771
2.27345
5.53981
15.2687
36.1389
56.7572
49.3856
0.00563429
0.00179952
0.10189
0.116606
0.0785875
0.00163284
0.0518291
0.000368907
0.0398923
0.0829063
0.0464271
50.7293
0.370493
0.115695
0.0227276
0.0190694
0.0172513
0.0502853
0.0890117
60.4901
33.4144
7.3153
2.12812
2.14226
2.27901
3.00307
22.8229
0.00223586
0.00231095
0.00220417
0.00234582
0.00110365
0.00173552
0.00152386
0.00165159
0.00157305
0.00178991
0.00154103
0.0016892
0.00125008
0.00146077
0.00102778
0.00128323
0.000620261
0.000380101
0.00102258
0.0801556
0.126255
0.0684991
0.079565
0.000602349
0.00071624
0.000837459
0.000752434
0.00073336
0.0010111
0.00130906
0.00152076
0.00161261
0.00178598
0.00181859
0.00159877
0.00202684
0.00161168
0.00246573
0.00168544
0.00191307
0.0021316
0.00279995
0.00187624
0.00246366
0.00216702
0.00254133
0.00269729
0.00280351
0.00308893
0.00328095
0.00402593
0.00410902
5.25928
3.96666
0.580334
0.406993
46.501
0.00207084
0.0924352
0.000462899
0.0317244
0.0127813
0.0343763
0.0191101
0.0293618
0.224907
0.204252
0.0277603
0.0351935
0.0273776
0.0331245
0.143256
57.1718
0.114352
0.143529
0.07672
0.148503
0.0570192
2.19404
0.000535356
0.000815036
0.000700825
0.0230673
0.0302259
0.0302822
0.0416645
0.0383493
0.0450009
0.0460136
0.0448511
0.0486472
0.043956
0.0466455
0.0509664
0.0526631
0.0526348
0.0542576
0.0610894
0.0698587
0.0578833
3.21973
0.0750736
0.0757253
0.0852156
0.0763229
0.0934055
0.0933004
0.0952755
0.0956735
0.110723
0.103603
0.120985
0.112325
0.105496
0.10709
0.0978057
0.101212
0.100765
0.0873951
0.0812602
0.0855582
0.0754508
0.0763656
0.0607861
0.068165
0.0458203
0.0482057
0.0464233
0.0491898
0.0491377
0.0539335
0.0606223
0.0575997
0.118278
0.108204
0.210185
0.165083
0.291554
0.266607
0.893543
0.0100383
0.0465951
0.0719507
0.985672
0.374143
20.3229
1.81976
1.95563
2.04252
1.84482
8.38033
12.9327
50.068
52.4461
0.25908
55.8977
52.9838
48.4914
0.114142
14.0312
4.30875
0.00388934
1.93962
1.34833
1.47753
0.339037
0.394472
0.00257975
0.525359
0.587171
1.15646
0.00217683
0.00242474
0.00261856
0.0025224
0.00255371
0.00226875
0.00159019
0.000819836
0.000746888
0.00103844
2.78093
2.94891
1.86441
0.00172603
0.00661509
0.207305
0.224002
2.2357
6.60839
7.27432
21.2199
13.4908
0.00172814
6.8385
7.75016
7.08831
0.00673469
0.0962009
0.113325
0.179297
0.0103706
0.00198758
0.00195456
0.00172917
0.00178952
0.00171978
4.03231
2.99734
0.122625
0.00118046
0.00120156
0.016524
0.0109398
10.7265
0.00322594
0.00372612
0.46718
0.524869
0.00158435
0.916679
0.979534
0.401065
0.0351454
0.0456064
2.15331
1.37626
1.44906
0.00879877
0.00592413
0.00730396
0.00865793
0.0225774
0.0289296
0.0154364
0.0140229
0.0257674
0.0826741
0.38769
0.103835
0.0402727
0.14104
0.0878809
4.48735
0.0399661
0.399968
0.0110325
0.0163067
0.0578397
1.00552
0.0769351
0.0772163
0.100766
0.0895063
0.00231184
2.42002
0.0112133
0.0124166
0.0132922
0.00935035
0.021829
0.0239839
0.00209859
0.007527
32.1229
0.713183
0.00190604
32.32
0.0044948
6.9713
0.00285435
0.995855
1.24836
0.984481
0.00241121
0.00244444
0.00175072
0.0020998
0.00166511
0.000959437
0.00076836
0.00461008
6.78108
21.185
0.00195142
0.00229963
0.000811339
0.00880378
1.05603
0.126423
0.14222
5.39393
0.00225559
41.2436
31.5445
34.9605
8.30636
0.0026621
0.0023624
0.00159649
0.00186682
0.0020411
0.000862698
0.00242797
0.0124578
0.0117146
0.00192264
0.00178149
0.00186074
0.00159874
0.00173971
0.00131826
0.00133576
0.00100939
0.124371
0.916176
0.0638475
0.000873765
0.00125642
0.00156808
0.00163803
0.00205828
0.00197805
0.00262154
0.00259527
0.00282461
0.00296804
0.00305385
0.0030175
0.00355859
0.00357987
0.00323223
0.00348081
0.00347889
0.0032786
0.0046799
0.00462032
0.00430792
0.00431831
0.0045255
0.00382672
0.00446359
0.00436718
6.88188
5.54979
0.959785
0.864104
37.3334
0.131135
0.130511
5.69912
0.464925
0.00157137
0.861617
0.00503296
0.405355
0.0587927
1.51726
0.052101
0.0542777
31.1195
0.0329349
0.299204
0.32643
0.709549
0.795319
0.121879
0.0872474
0.0345565
0.1565
0.153913
0.0704942
0.0421975
0.0439659
0.05024
0.0508751
0.0511227
0.0545712
0.0504074
0.0494291
0.0578672
0.0535731
0.0545163
0.0607437
0.0629879
0.0700834
0.0585542
0.0707631
0.0872338
0.0779368
0.0763048
0.0920197
0.0847129
0.0968488
0.088798
0.1086
0.102395
0.10809
0.104041
0.110809
0.1013
0.103472
0.0943067
0.0886096
0.094467
0.0798719
0.0797145
0.080285
0.072785
0.0604914
0.0595522
0.0516151
0.052064
0.0420075
0.0415848
0.0439438
0.0452851
0.061814
0.0643085
0.0915879
0.0952878
0.17618
0.158965
0.0223397
5.42729
0.00217576
0.00874922
29.8913
29.3471
0.0456115
0.445813
0.50177
0.246641
0.0015367
1.06152
0.875912
1.53597
11.6468
15.7735
0.736864
0.893243
0.640535
0.49648
0.00277424
11.3434
0.00270818
0.00411785
4.46891
8.03823
0.0474016
0.113794
0.136124
0.00263621
0.00282978
0.00279697
0.150497
0.148913
0.15434
0.00159061
0.00175318
0.00172072
0.00196296
0.0021228
0.00215414
0.00216261
0.001149
0.000974663
0.0187343
0.0115171
9.42888
6.14687
0.146563
0.140816
17.6123
12.0296
0.00124142
0.0012293
14.7006
0.00115135
0.00214557
0.00170597
0.0532429
0.0275199
0.00240968
0.104116
0.00118959
0.113246
0.107278
0.00281773
0.00318627
0.0250613
0.00377738
0.00362641
11.1507
0.671107
40.7508
41.849
3.3264
2.94217
0.476215
0.00627229
2.38415
0.0240115
0.0439987
0.0535911
0.00300042
0.00465027
0.00240323
20.0697
0.0419063
0.0746346
0.196724
0.167155
0.370866
0.17585
0.00317615
0.102929
0.00138389
0.0059235
10.1641
0.0140344
0.022217
0.0410772
0.105484
4.01279
0.0183008
0.0269754
0.00178942
1.39883
3.83981
0.0716487
0.045743
0.00923369
0.0177112
0.0170595
0.0228121
0.547259
0.0159774
0.0183803
0.00151755
0.00190498
0.0939381
1.76802
0.00133073
21.7974
43.0094
0.00165462
0.432865
0.617471
0.564722
0.00234778
0.00148556
0.00274958
0.0024856
0.0438719
0.0331168
0.0407752
0.000712162
0.00220904
0.0162455
1.20094
0.83027
16.4959
0.300148
0.000894998
10.7009
24.3961
13.5829
0.000835262
0.00237113
0.119299
1.35014
0.00223195
0.00184613
0.00185362
0.00162295
0.00178628
0.00281947
0.0798963
14.2078
39.7759
0.0022462
0.0028068
0.00259796
0.00285619
0.00285029
0.00332764
0.00277364
0.00374521
0.00384439
0.00374928
0.00396089
0.00374336
0.00356393
0.00458524
0.00448685
0.00506657
0.00493471
0.00506612
0.00492034
0.0040927
0.00405471
12.1422
2.20922
1.16178
0.00355539
0.250023
0.180477
1.13919
15.3946
0.0145755
33.9379
0.0292627
0.0316387
0.0424706
0.934694
42.6721
0.00293501
0.00289679
0.2494
0.111814
0.449013
0.0474216
0.0570403
0.0570472
0.0603034
0.0608456
0.0567273
0.0588915
0.0595254
0.068374
0.062678
0.0626009
0.0656365
0.0740853
0.0714491
8.78395
0.118436
2.8515
0.076447
0.074158
0.0853004
0.0757545
0.0977374
0.0923413
0.110926
0.0966676
0.111598
0.10598
0.0898473
0.0928046
0.0948766
0.0840059
0.0819404
0.0887459
0.0658165
0.0692941
0.0603713
0.066222
0.0529101
0.0477521
0.044016
0.0420641
0.0409871
0.0459816
0.0583724
0.0521788
0.106785
0.109628
0.164294
0.148569
0.000722521
0.00850024
0.0834235
0.117647
0.0284708
0.0441773
0.0240589
0.541403
0.139096
15.4243
0.153025
2.52891
0.00705431
0.00492253
0.0103062
0.00212251
0.00175023
0.139744
0.00181017
0.00215864
0.00248044
0.0692573
2.7885
2.30385
0.00222632
0.00248191
0.15371
0.143642
0.00216337
0.00206947
0.00241008
0.00247124
0.0023353
0.495196
0.0011505
0.000926884
4.44196
2.68987
0.131882
0.132158
0.14826
0.00231082
0.00168786
0.00239664
0.29678
7.33767
0.00130913
0.00137176
0.0165078
24.0746
0.920855
1.02454
10.5136
4.26971
3.91012
1.34635
0.0266922
0.00284288
0.0875878
0.155237
0.160289
0.00291758
29.3953
0.302103
0.0278007
0.00342666
0.00384552
29.1837
41.5604
1.12804
0.0692183
0.0759868
0.267119
0.200672
0.172091
0.78236
0.00293327
0.133
0.117943
0.134
0.0383627
0.00585872
0.00485291
0.497794
3.04824
1.44241
1.99945
0.286181
0.139576
0.00203952
0.00187199
0.00162402
0.00172451
0.970464
29.6359
0.0029407
0.00317605
0.376847
0.00103496
0.001264
0.00962405
0.0148957
0.00222839
43.3886
0.0144483
0.0132338
0.00973954
0.60821
1.70102
1.44708
0.173455
0.163394
23.1626
0.437917
0.440907
0.335979
0.168856
0.167744
0.17196
0.00297679
0.00306899
0.00284587
0.00260771
0.00301583
0.00163689
0.722575
0.458749
0.0160913
0.0211184
0.0346424
0.0412544
0.00185257
1.02416
0.00209951
0.00194678
0.188117
0.0344355
0.00111975
0.00374372
0.00330491
0.00392751
0.00352322
0.00362434
0.00396875
0.00351899
0.00325951
0.00318216
0.00383333
0.00381628
0.0047766
0.00406583
0.0045752
0.00434903
0.00387435
0.00374278
0.609961
0.00281609
0.00206118
0.060309
0.119971
0.00305946
0.00298643
0.0029137
0.978031
0.00191035
0.558688
0.065514
0.0639314
0.075116
0.0756108
0.0763346
0.0711558
0.0663584
0.0721387
0.0679794
0.066569
0.068562
0.0828003
0.0744018
0.0913685
0.0924456
0.0997226
0.0911063
0.0917445
0.0997259
0.087137
0.0885916
0.0862407
0.089503
0.0872584
0.0926898
0.0704246
0.0806014
0.0651937
0.0615298
0.0492198
0.0601193
0.0439194
0.0502964
0.0471278
0.0352664
0.0474558
0.0528203
0.0881968
0.077327
0.0281051
0.0119872
0.00997706
0.541465
0.00552757
0.0065208
0.0012696
0.00142607
0.00260041
0.00264174
0.0025734
0.00238264
0.0046508
0.125395
0.108059
0.0336794
0.912819
0.0537028
0.0589333
0.0717668
0.00150875
0.00158196
0.0260231
0.104933
0.120954
0.0773685
0.00286893
0.00290667
0.169472
0.138986
0.145283
0.0598263
0.680227
0.00359846
0.00357259
0.00199089
0.360003
0.326056
0.0034136
0.0851579
0.104082
0.00237284
0.00219127
0.191731
0.0339364
0.927303
0.0479957
0.00419057
0.00193301
0.0607974
0.182761
0.231812
0.147559
0.00200797
0.00175687
0.00351221
0.00320575
0.00234464
0.100492
0.122429
0.129848
0.301441
0.126279
0.00228716
0.00591899
0.00616317
0.0103645
0.00886613
0.00330054
0.00354768
0.00355889
0.00362479
0.00228873
0.0022439
0.0589988
0.0023673
0.00300581
0.00231842
0.0031258
0.00248339
0.001752
0.163239
0.169925
0.270001
0.167336
0.16995
0.00245861
0.00220869
0.243501
0.302174
0.00278716
0.00278968
0.00382703
0.00390424
0.00415729
0.00395618
0.00436925
0.00417444
0.00412706
0.00398184
0.00359568
0.00365348
0.00373461
0.00331334
0.00376005
0.109533
0.00285254
0.00300494
0.00342041
0.141148
0.00188001
0.00766829
0.15961
0.156618
0.151094
0.230004
0.00287308
0.0785648
0.0812022
0.0787538
0.0823052
0.0811512
0.0830703
0.0799565
0.0823426
0.0748681
0.0874467
0.0923253
0.0804285
0.101688
0.0999443
0.0968031
0.103877
0.0816211
0.094035
0.0934434
0.0853762
0.0822028
0.082993
0.0644107
0.0727013
0.0516384
0.0606902
0.0456991
0.0460511
0.0352879
0.0421442
0.0529911
0.0370767
0.0887091
0.10084
0.0676754
0.00237243
0.072052
0.0783421
0.0706545
0.00384316
0.00391432
0.00361151
0.00237337
0.00649338
0.00335218
0.153842
0.00364619
0.00263237
0.00346479
0.0571796
0.0485875
0.00477141
0.00298523
0.00313437
0.102505
0.13202
0.0698329
0.0698586
0.092451
0.258167
0.117629
0.286979
0.00325176
0.00299886
0.00189875
0.00227186
0.149538
0.00293813
0.0035282
0.00331358
0.00282222
0.00330252
0.00302242
0.133167
0.213802
0.204968
0.00348495
0.00363438
0.00382145
0.20139
0.0037868
0.0825318
0.0742076
0.100059
0.0039347
0.00353175
0.00233319
0.00248873
0.00259741
0.00238365
0.00638924
0.00155093
0.00210736
0.00245346
0.1571
0.130132
0.00357293
0.00286524
0.157344
0.149758
0.147671
0.151837
0.0738325
0.0781519
0.00163299
0.00192097
0.00284051
0.116886
0.118782
0.146451
0.120071
0.0917028
0.173031
0.115435
0.138539
0.00353676
0.00324266
0.00255749
0.00399264
0.0041212
0.092301
0.119353
0.00305814
0.00324025
0.0903922
0.00308649
0.0931665
0.0905982
0.0808094
0.0901873
0.0898604
0.105444
0.0940013
0.105358
0.108313
0.0891736
0.0993232
0.0916975
0.0886661
0.079842
0.0836027
0.071544
0.0725338
0.0539216
0.0508326
0.0489613
0.0495205
0.0367185
0.0424829
0.0438679
0.0430082
0.0625633
0.00273324
0.0855621
0.0955621
0.0862853
0.00218504
0.0886157
0.0857964
0.112863
0.117203
0.168114
0.149244
0.0636307
0.00221946
0.00257892
0.132149
0.00372401
0.00219196
0.00240345
0.00343311
0.0682956
0.00204568
0.00407464
0.106221
0.0619431
0.136789
0.00418947
0.0871217
0.0864914
0.123063
0.139515
0.0534147
0.066806
0.0558178
0.139889
0.118668
0.148692
0.141838
0.00298805
0.113076
0.122098
0.0742509
0.06236
0.0921871
0.0723765
0.133308
0.13674
0.0902813
0.093633
0.100123
0.0514829
0.0863241
0.0601256
0.0656571
0.0427293
0.105928
0.112514
0.106393
0.0980319
0.0999756
0.0944734
0.0946998
0.0745955
0.0873807
0.0656908
0.0720736
0.0456111
0.0616285
0.0443646
0.042514
0.133774
0.111838
0.0971608
0.0987584
0.126495
0.137758
0.0538254
0.100074
0.123052
0.100789
0.100435
0.048008
0.102635
0.119033
0.0512853
0.08285
0.095606
0.0740479
0.048428
0.119194
0.132907
0.130625
0.106533
0.105161
0.127357
0.130566
0.107784
0.0469581
0.0962729
0.112866
0.103369
0.0885298
0.0703547
0.0483437
0.117769
0.124016
0.11866
0.0506215
0.0407796
0.10548
0.0418236
0.114255
0.109048
0.105176
0.062193
0.0661108
0.113446
0.110142
0.104068
0.115317
0.0689617
0.0696916
0.105844
0.0736448
0.111812
0.0994324
0.0962178
0.106964
0.071111
0.110711
0.101474
0.0903739
0.0012646
0.000995659
0.000916901
0.000892702
0.000669946
0.000548175
0.000198654
0.000142038
8.18826e-05
8.58527e-05
9.59959e-05
9.10904e-05
0.000109628
0.000104011
0.000129886
0.000122243
0.000147835
0.000145025
0.000162464
0.000162229
0.000172047
0.00017581
0.00018252
0.000185553
0.000184239
0.00019257
0.000183145
0.00019199
0.000173823
0.000186759
0.000162742
0.000175364
0.000151852
0.000166252
0.000140009
0.00015326
0.000135636
0.000143866
0.000123149
0.000138647
0.000122266
0.000133046
0.000115387
0.000127259
0.000122293
0.000131073
8.22662e-05
0.000151982
0.000146135
0.000145704
0.000140007
0.000137124
0.00014413
0.000129985
0.000135216
0.000130194
0.000133742
0.000123137
0.000133306
0.000117516
0.000125925
0.000117655
0.0001243
0.000108619
0.000118909
9.83416e-05
0.000106711
8.85485e-05
8.62939e-05
9.51232e-05
0.000181429
0.000288853
0.000420458
0.000544251
0.000586521
0.000726851
0.000886155
0.000903015
0.000423178
0.000539444
0.000619534
0.000565766
0.00049332
0.000493266
0.000516901
0.000440655
0.00046821
0.000440802
0.000453617
0.000414796
0.000430001
0.000417258
0.000403998
0.000384539
0.000347471
0.000331011
0.000379926
0.000378446
0.00039888
0.000354119
0.000307653
0.000359647
0.000365602
0.000160163
0.00100008
0.000974695
0.000881753
0.00076589
0.000681589
0.000611486
0.000433964
0.000803143
0.000151501
0.000175091
0.000199683
0.000127427
0.000171434
0.000211109
0.000316071
0.000532433
0.000670757
0.000647351
0.000803726
0.000898366
0.000481815
0.000591942
0.000321674
0.000568636
0.000273653
0.000347819
0.000400511
0.000336908
0.000386314
0.000376584
0.000229702
0.000311415
0.000327456
0.000371557
0.000308593
0.000950538
0.000736008
0.000580167
0.000450738
0.000561683
0.000553448
0.000671767
0.000761266
0.00101176
0.000345072
0.000505273
0.000584734
0.000542022
0.000342242
0.000348897
0.000273339
0.000281906
0.0003275
0.000303551
0.000561098
0.000288489
0.000942765
0.000432888
0.000580831
0.000573681
0.000250072
0.000316005
0.00033325
0.00026254
0.000699446
0.000726443
0.000721519
0.000278012
0.000684842
0.00062279
0.000483374
0.000399928
0.000513833
0.000558905
0.000327722
0.000354252
0.00085361
0.000745227
0.000555185
0.000678512
0.000438223
0.000576816
0.000866315
0.000780039
0.000653315
9.94353e-05
9.91041e-05
0.000110395
0.000122038
0.000132114
0.000168575
0.00019333
0.00020701
0.000209707
0.000230053
0.000232624
0.000227319
0.000205045
0.000201455
0.000186457
0.000165339
0.000188697
0.000158671
0.000162455
0.000138416
0.00014991
0.000159035
0.000150655
0.000160513
0.000550113
0.000153428
0.000171561
0.000148002
0.000164629
0.000152995
0.00016342
0.000146541
0.000166668
0.000141022
0.00015641
0.000138767
0.000151716
0.00013366
0.000147912
0.000116173
0.000133669
0.000580909
0.000135756
0.000187697
0.000461403
0.000375308
0.000582704
0.000530837
0.000679397
0.00068597
0.000688619
0.000581941
0.000767905
0.000730745
0.000307003
0.000842361
0.000403045
0.000576288
0.000568402
0.000623431
0.000572751
0.000575329
0.000194869
0.00048498
0.000684425
0.000516209
0.000271695
0.000394504
0.000396233
0.000372648
0.000378978
0.000418326
0.000374147
0.000390603
0.000329267
0.000331077
0.000309524
0.000305116
0.000228357
0.000274776
0.000241027
0.000214494
0.000247212
0.000244429
0.000228571
0.000204639
0.000474612
0.000426009
0.000185655
0.000328451
0.000245352
0.000811391
0.000252466
0.000221309
0.000269869
0.000252895
0.000483567
0.000465057
0.000528139
0.000264921
0.000235324
0.000239194
0.000263098
0.000233176
0.000233165
0.000174458
0.000227778
0.000254885
0.000189922
0.000231749
0.000798109
0.000792145
0.000146467
0.000148134
0.00047333
0.000172656
0.000758075
0.000280531
0.000106643
0.000106429
0.000119249
0.000187611
0.000591919
0.000670655
0.000597101
0.000191859
0.000253396
0.000234208
0.000233808
0.000539857
0.000600232
0.000127047
0.000552916
0.000249296
0.000387237
0.000354889
0.000316041
0.000332499
0.000168816
0.000195037
0.000233349
0.000299154
0.00023379
0.000190729
0.000193255
0.000191805
0.000187139
0.000186017
0.000174062
0.000159035
0.000189013
0.000207236
0.000714032
0.00072835
0.00050941
0.000572143
0.000157048
0.000414427
0.000193778
0.000208823
0.000416256
0.000412017
0.00037334
0.000365116
0.000367913
0.000363
0.000316662
0.000326682
0.000300701
0.000337851
0.000142369
0.000204332
0.000631208
0.000178488
0.000479236
0.000417764
0.000200468
0.000503175
0.000241105
0.000226661
0.000612687
0.000434991
0.00015682
0.000272252
0.000142356
0.000567807
0.000399496
0.000433309
0.000562622
0.000420154
0.000551718
0.000357713
0.000326057
0.000305705
0.000270362
0.000397716
0.000280522
0.000364154
0.000326676
0.000460983
0.000420786
0.000396751
0.000360533
0.000344805
0.000312278
0.000333601
0.000357604
0.00047048
0.000440911
0.000591814
0.000376137
0.000338935
0.000353452
0.0004834
0.000265927
0.000318034
0.000574019
0.000468319
0.000191436
0.000232822
0.000242085