/*--------------------------------*- C++ -*----------------------------------*\
| =========                 |                                                 |
| \\      /  F ield         | OpenFOAM: The Open Source CFD Toolbox           |
|  \\    /   O peration     | Version:  v2012                                 |
|   \\  /    A nd           | Website:  www.openfoam.com                      |
|    \\/     M anipulation  |                                                 |
\*---------------------------------------------------------------------------*/
FoamFile
{
    version     2.0;
    format      ascii;
    class       volVectorField;
    location    "1.5";
    object      U;
}
// * * * * * * * * * * * * * * * * * * * * * * * * * * * * * * * * * * * * * //

dimensions      [0 1 -1 0 0 0 0];


internalField   nonuniform List<vector> 
108993
(
(-0.0109289 0.000504794 -0.0161751)
(0.0101627 0.00176221 -0.0242782)
(-0.000669607 0.000168804 -0.0295584)
(0.0128806 -0.0230198 -0.0179246)
(0.00124332 -0.00887129 -0.0103855)
(0.00063568 -0.000338274 -0.0018709)
(0.0142948 -0.000513135 -0.0206517)
(0.000793621 -0.00208509 -3.45998e-05)
(-0.00106852 0.0039358 -0.029791)
(-0.0129352 0.000661434 -0.00211303)
(-0.00360242 -0.000330261 -0.0131936)
(-0.00236358 5.20879e-05 -0.013694)
(0.00822222 -0.0206061 -0.0145742)
(-0.00399127 0.00069654 -0.000523769)
(-0.000819474 3.13597e-05 -0.0125167)
(-0.0597461 -0.00013259 0.00397692)
(-0.0174499 0.000212988 -0.000353095)
(-0.00254096 2.07039e-05 -0.00550763)
(0.00647535 -0.0243125 -0.0216318)
(0.0136432 -0.00829013 -0.0275746)
(0.000139301 -0.00092672 -0.0158578)
(0.00754132 -0.00365121 -0.0449224)
(0.00850498 0.000133267 -0.0125861)
(-0.00132711 -9.99857e-05 -0.0168521)
(0.00789074 -0.0222988 -0.0143168)
(0.00543915 -0.00237421 -0.0058099)
(-0.00574761 0.0342905 -0.00278426)
(0.00850916 -0.00525488 -0.0292602)
(0.0111458 -0.00681278 -0.0207848)
(-0.000181074 -0.000607137 -0.0175524)
(-0.00435148 0.0164919 -0.0145611)
(-0.00262076 0.000576325 -0.0043218)
(-0.00624611 0.036318 0.000608901)
(-0.0182877 0.001218 -0.0194576)
(0.0210501 -0.017353 -0.0467377)
(-0.00029621 -0.00180529 -0.0139622)
(-0.00362454 0.0248115 -0.00769104)
(1.27325e-05 -0.00259854 -0.0182687)
(0.0143332 0.0697189 -0.07159)
(0.0120824 0.00494874 -0.0370431)
(0.00849026 -0.000805247 -0.0218181)
(-0.00029099 0.000749826 -0.0210055)
(-6.95514e-06 0.00079859 -0.00167185)
(0.0223434 -0.0319392 -0.000108079)
(-0.0124859 0.00210278 0.0186191)
(0.00206651 0.00970684 -0.0331536)
(-0.00288986 0.0296906 -0.000241967)
(0.0135879 1.71897e-05 -0.0144965)
(0.00895062 -0.00135853 -0.0156457)
(0.0197825 -0.00108121 -0.0386816)
(0.00284153 0.0197318 -0.0171656)
(0.0395553 0.0104129 0.00922111)
(0.00999088 0.00170929 -0.0250669)
(0.00292826 0.0136995 -0.00566498)
(-0.00521485 0.000205181 -0.00501574)
(-0.00350585 0.000335243 -0.0157214)
(0.00518726 0.0367317 -0.0144634)
(-0.00209685 -0.00794301 -0.00815191)
(0.00144938 -0.00448005 -0.0231951)
(-0.0025609 -0.0106279 -0.00983929)
(-0.00211711 -0.0100294 -0.0122229)
(-0.00385167 -0.0186807 -0.0154497)
(-0.000472854 -0.000704439 -0.0166025)
(0.00881941 -0.0005414 0.000106375)
(0.00223755 -0.0352612 -0.00890833)
(0.00786738 -0.00328991 -0.0107296)
(0.00497844 -0.0239666 -1.76392e-05)
(0.00140442 -0.0119812 -0.018464)
(-0.00726112 0.00121724 -0.0048342)
(-0.00747602 0.00774751 0.00281302)
(-1.67812e-05 -0.000252319 -0.0169698)
(0.00454845 -0.0135614 -0.0194919)
(0.00100091 -0.00547485 -0.0187093)
(0.00214939 -0.0120143 -0.0179536)
(0.00844564 0.00017745 -0.0162018)
(-0.0021889 0.00883971 -0.0205112)
(0.00824241 -0.000129314 4.65614e-05)
(-0.0181834 0.000759358 -0.00664236)
(0.0103021 0.0314945 -0.0254921)
(0.006978 -0.0253047 0.000523549)
(-0.000850133 -0.00176411 -0.0195998)
(-0.00766077 0.000887993 -0.00613048)
(0.00384619 -0.000898299 -0.0255335)
(-1.39316e-05 -0.000219185 -0.0183937)
(-0.00225708 0.000837202 -0.00662454)
(-0.00205061 0.000224229 -0.00261705)
(-0.000749725 0.000687284 -0.0199365)
(-0.00346872 8.21794e-05 -0.0129103)
(0.00100198 -0.0105905 -0.00743667)
(0.00138478 -0.021337 -0.0029235)
(-0.00125736 -0.0189943 -0.00736478)
(-0.000788873 0.0107185 -0.0179906)
(-0.000967945 -0.0161437 -0.00201613)
(0.000102622 -0.0122474 -0.00316741)
(-0.00351187 -0.015933 -0.00336335)
(-0.00836545 0.000608722 -0.00413565)
(0.000399343 0.0120402 -0.0199448)
(-0.000405919 -0.00139065 -0.0197299)
(-0.00315873 0.0133042 -0.0182865)
(0.000344763 0.00156297 -0.0160269)
(-0.00325327 -0.0145576 -0.00695748)
(0.00393122 -0.0125484 -0.0353301)
(-0.000599821 -0.000115413 -0.0151982)
(-0.00643703 0.00122565 -0.00884103)
(-0.000550155 -0.00279119 -0.0193554)
(-0.00211213 -0.0187541 -8.22625e-05)
(-0.00131558 -0.00155096 -0.0183976)
(0.00839822 -0.0220218 -0.0608725)
(0.00974676 0.00408298 -0.0188826)
(0.0116625 0.00336785 -0.0533547)
(0.0322544 -0.00111058 0.0011089)
(-0.00174084 -0.0209274 -0.00438093)
(0.0263042 0.00624348 1.53976e-05)
(0.0511041 0.00322009 0.00326274)
(-4.61845e-06 6.92097e-05 -0.0210525)
(0.00190428 0.013029 -0.0832532)
(0.000725848 -0.00776766 -0.0119565)
(-0.00349859 0.000576187 -0.0199713)
(-0.0448504 0.0130887 0.00592715)
(-0.00121163 0.0101031 -0.0217709)
(-0.00530689 0.00044079 -0.00203835)
(-0.00632106 -0.015649 -0.0337964)
(0.0378447 0.0528353 -0.093801)
(-0.00811364 -0.000950466 -0.0216554)
(0.000100274 -0.00314824 -0.0176416)
(-0.0406594 0.000439868 0.00148502)
(0.0113107 -0.000651533 -0.0208286)
(-0.00383434 -0.000150143 -0.020515)
(-0.00669084 -0.0152209 -0.0387029)
(-0.0011266 -0.0209247 -0.041266)
(-0.0105059 0.00079422 -0.00798754)
(-0.00523429 -0.020661 -0.0381707)
(-0.000628859 -0.00312094 -0.0242353)
(0.101379 -0.0246965 0.198244)
(0.000884305 0.00142752 -0.0220887)
(-0.00343644 -0.000510636 -0.0258131)
(-0.00329278 -0.0116871 -0.0360007)
(-0.000401319 -0.00216963 -0.0228555)
(0.000329263 -0.00222374 -0.0173063)
(-0.00442257 0.00104535 -0.00192377)
(-0.00764466 0.00117028 -0.0222975)
(-0.000396556 0.001331 -0.0190668)
(-0.0227967 0.0114348 0.0032885)
(-0.00503977 -0.0152707 -0.0386141)
(-0.00262546 -0.0155219 -0.0399244)
(0.000772074 -0.00496885 -0.0188789)
(-0.000969835 -0.00185826 -0.0196233)
(0.00546242 -0.00050132 -0.052504)
(-0.00753865 -0.000140195 -0.0216896)
(0.0387376 -0.0200928 -0.0965813)
(0.0455812 -0.0339969 -0.0943796)
(0.00515328 -0.00239575 -0.00158177)
(0.00606833 0.00479122 -0.00343537)
(0.0634164 -0.0310152 -0.111007)
(4.30228e-06 -0.000543458 -0.0239373)
(0.0307276 0.00209942 -0.0125966)
(-0.00489732 0.00102356 -0.0156819)
(0.00113408 0.00153074 -0.0603609)
(-0.00587271 0.0620159 -0.0389519)
(0.0219888 0.0184783 0.00912897)
(0.0662396 -0.0381713 -0.0991156)
(0.00220129 0.0453951 -0.123128)
(-0.00251194 0.00686404 -0.0120651)
(-0.000421492 0.000630621 -0.0174576)
(-0.00108538 0.000447003 -0.00650194)
(0.0393999 0.00858553 -0.00477372)
(-0.00101487 -0.00578201 -0.00190346)
(0.00659675 -0.00063804 -2.80558e-05)
(0.00738015 -0.00187203 -1.82689e-05)
(-0.000176288 1.86536e-05 -0.0204766)
(0.00386545 -0.00846343 -0.023129)
(-0.00215895 -1.07416e-05 -0.0166768)
(0.0327824 0.0102696 0.00824827)
(-0.000247001 0.000338689 -0.0184781)
(0.0117797 -0.0323285 -0.022949)
(0.0115189 -0.0044171 -0.0080463)
(0.0721536 0.0138531 -0.0796964)
(0.00541971 -0.0015709 0.000661568)
(-0.00190887 2.17226e-05 -0.021062)
(0.000789722 0.00336384 -0.0201031)
(-0.0158627 0.00236561 -0.00464258)
(0.00242382 0.000352899 -0.0258287)
(0.013404 0.0114297 -0.0661356)
(-0.00773251 -0.00166168 -0.0190562)
(-0.00596633 0.00123198 -0.00462262)
(-0.000361771 -0.000949353 -0.0181157)
(0.0190949 0.00323305 -0.0582509)
(-0.00278136 0.000638378 -0.00856157)
(-0.00380862 0.000523192 -0.00996468)
(-0.00882729 0.000264975 -0.0199247)
(-0.00137398 -0.000147957 -0.0171301)
(0.0136604 0.0141134 -0.0520677)
(-0.000552647 -0.000354012 -0.0172084)
(0.036549 0.0134409 -0.0602152)
(-0.000241891 -6.08735e-05 -0.0215004)
(-0.00680909 0.000831729 -0.0279299)
(0.0098159 -0.00116429 -0.0230473)
(-0.000779386 -0.00112383 -0.0187297)
(-1.81414e-05 -0.00235925 -0.0199454)
(-0.00592046 0.00143111 -0.0193021)
(-0.00134389 -0.00565131 -0.00354099)
(0.0502472 0.010053 -0.0365661)
(-1.18391e-05 -0.000762966 -0.0185482)
(-0.000695524 -0.00299166 -0.0672288)
(0.018058 0.0017922 -0.0102871)
(-0.00111657 -0.000740722 -0.10903)
(-0.000323382 -0.000366749 -0.0235103)
(0.0102102 -0.0341046 -0.0780078)
(-0.000915706 -0.00219458 -0.0222999)
(0.297177 0.202927 0.741344)
(0.0240449 0.0103622 -0.00108583)
(4.58776e-05 -0.000993988 -0.0196858)
(0.0957199 0.0181377 -0.113043)
(-0.0186078 -0.102867 -0.357362)
(0.00282888 0.154943 -0.00475013)
(-0.000413143 -0.00250768 -0.0191528)
(-0.00298517 2.23455e-05 -0.0125271)
(-0.000865858 -3.19017e-05 -0.0232837)
(0.00407314 0.0100656 -0.0623242)
(-0.010503 0.0102368 -0.0198772)
(0.0283246 -0.00826967 -0.00695581)
(0.0440931 -0.0287639 -0.105342)
(-0.027985 0.00221646 -0.0344386)
(0.023771 0.0177632 -0.0768814)
(0.0142742 -0.00160971 0.000148847)
(0.00452202 -0.00156539 0.000662814)
(0.00278816 0.00692257 -0.0630705)
(-0.00207853 7.66983e-05 -0.0235721)
(0.0614419 0.00877485 0.0872059)
(0.00204929 -0.00211363 -0.00958285)
(-3.69514e-06 -0.0364092 0.00979642)
(-0.00177873 -0.000513852 -0.0166283)
(0.00491836 -0.00185287 2.74098e-05)
(0.00102252 -0.00157134 -0.0180368)
(0.00110991 0.00382505 -0.020809)
(-9.93583e-05 0.00948643 -0.00565198)
(-0.00110857 0.00733343 -0.0387857)
(-0.00865495 -0.0154093 -0.0174252)
(0.0185077 0.00433347 -0.00263517)
(0.000196233 0.00481938 -0.063036)
(-0.000101441 0.00249488 -0.0109254)
(-0.00142498 -0.000845217 -0.0228677)
(3.17171e-07 -0.000517765 -0.000578373)
(-0.000541475 0.00291512 -0.0637115)
(7.28339e-05 -0.00268672 -0.0580878)
(-0.0610621 -3.26039e-05 0.000188871)
(-0.026085 -0.242332 -0.35989)
(0.0278719 0.0474781 -0.0898245)
(-0.000729047 0.00239024 -0.0659859)
(0.00582416 -0.0017911 -0.0319848)
(-0.00140226 -0.000103016 -0.0148616)
(0.00459956 -0.0353445 -0.0252323)
(-0.00155386 -0.000663689 -0.0261893)
(-0.00030287 -0.000375734 -0.0209887)
(0.00219446 -0.0017737 -0.0579392)
(0.000368225 7.09101e-05 -0.0675385)
(0.00308045 -0.00303126 -0.0586901)
(-0.00795018 0.000450255 -0.0169343)
(-0.00402411 0.0127344 -0.0301817)
(0.000923213 -0.000515655 -0.000398307)
(-0.00104118 0.000640565 -0.0238612)
(0.0081911 -5.39675e-05 -0.0153296)
(-0.0327866 0.0055688 -0.00133209)
(-0.040806 0.00146563 0.00531785)
(0.0448031 0.0463611 -0.0292584)
(0.00320982 -0.00118393 -0.012805)
(-0.00100824 0.000392855 -0.0230349)
(0.0101939 -0.0049707 -0.0153704)
(0.00145787 -0.000706924 -0.0008083)
(-0.00231224 -0.00158467 -0.0237318)
(0.000578054 -0.00272565 -0.00168125)
(-0.000182434 0.0016326 -0.0282707)
(0.0197404 -0.0781742 -0.0125152)
(0.105863 -0.14702 -0.179616)
(0.00838984 -0.00159605 -0.0517661)
(-0.00098478 -0.000633488 -0.0210616)
(1.61809e-05 0.00870971 -0.0136391)
(0.095422 0.0655536 -0.229039)
(-0.00685192 0.00107458 -0.0182248)
(0.0150125 -0.00408475 -0.0178685)
(0.0163484 -0.00392971 -0.0190065)
(0.0042829 0.0139126 -0.00507321)
(0.00413098 0.0143704 -0.00566572)
(0.00377676 -0.00370446 -0.00130329)
(-0.00625941 -0.00252222 -0.0271446)
(-0.0284593 0.00133545 -0.00629356)
(0.00425004 -0.0184779 -0.019524)
(0.0230425 -0.00620525 -0.0224375)
(-0.0108752 0.000617157 -0.0162161)
(0.000477762 0.00128088 -0.0514123)
(-0.00658953 0.000464076 -0.00191504)
(-0.000167237 0.000303244 -0.0225553)
(0.0216232 -0.00586158 -0.021932)
(-0.000572924 -0.000177686 -0.022394)
(0.00611921 -0.0113123 -0.00467099)
(-0.000731018 0.000356484 -0.0238617)
(-0.00224371 0.01186 -0.0226084)
(-0.000750844 0.000566407 -0.0223588)
(-0.0198717 0.00286477 6.49353e-05)
(-0.00028098 -0.000946593 -0.00295009)
(-0.000924921 0.0233122 -0.108723)
(0.0262525 -0.024351 -0.0958322)
(-0.000923299 -0.00277586 -0.0182694)
(-0.000526068 -3.6694e-05 -0.00194952)
(-0.000630816 4.14129e-05 -0.025353)
(0.00092588 0.000369933 -0.00874221)
(0.00534436 -0.00194847 0.000128424)
(0.00398807 0.00018154 -0.0173915)
(0.00163415 -2.40449e-05 -0.00804328)
(0.043921 -0.137 -0.0400087)
(-0.000419739 -0.00294306 -0.00661786)
(-0.00288789 -0.0138586 -0.0129504)
(-0.0239737 0.00444414 -0.00213599)
(-0.000319524 -0.00193882 -0.0154298)
(0.00170579 0.000125853 -0.0091051)
(0.0249388 -0.00391755 -0.10889)
(0.00901043 -4.70407e-05 -9.25404e-05)
(-0.024208 0.00384012 -0.00169464)
(0.0044816 0.0335794 -0.0647817)
(-0.000649288 0.000629063 -0.0238141)
(0.0139107 0.000229696 -0.0237991)
(0.00952328 -0.000349548 -0.000363131)
(0.000634318 -0.00124332 -0.0211844)
(0.000754654 -0.00138623 -0.0193107)
(-0.000809574 -0.000879743 -0.019297)
(0.121386 0.0184487 0.061413)
(-0.309818 -0.228359 -0.533674)
(0.00745896 -0.0148078 -0.143047)
(0.00124274 0.00906232 -0.0293817)
(-0.00547274 0.00130222 -0.0292272)
(0.019537 -0.00133524 -0.0104814)
(0.0168904 0.018364 -0.131123)
(-0.17287 -0.064969 0.0458975)
(-0.000164414 0.000768119 -0.0247391)
(-0.000673848 0.00989667 -0.0948863)
(-0.000786006 1.4745e-05 -0.0172702)
(-6.14365e-05 0.000777775 -0.0190672)
(-0.00184041 -0.0124891 -0.0136178)
(-0.00025352 -0.000827457 -0.021275)
(-0.00521796 -0.00060781 -0.0246376)
(0.00159737 0.00287104 -0.0217218)
(0.0117872 -0.00128382 -0.0676242)
(0.0285326 -0.00437399 -0.0312207)
(-0.00159191 -0.00214284 -0.0191056)
(-0.0028792 -4.16796e-05 -0.0133392)
(-0.00216611 -9.48621e-05 -0.00933466)
(0.000467038 0.000318127 -0.0244088)
(-0.000996034 -0.00363851 -0.0136264)
(0.00209573 6.20978e-06 -0.00426203)
(0.00123575 0.000873025 -0.0254173)
(-0.000379998 0.000702225 -0.0212936)
(0.000670106 -0.000411684 -5.96293e-06)
(-8.74106e-05 0.00417375 -1.24175e-05)
(0.00429431 -0.0135449 -0.00592608)
(0.0138571 -0.00700878 0.00416976)
(-0.00161944 -0.00328682 -0.0194154)
(-0.00140777 -0.00167486 -0.0213426)
(-0.00185152 -0.000111838 -0.0463069)
(-0.00194792 -1.76527e-05 -0.0153892)
(4.51625e-06 -0.00172459 0.000381247)
(-0.0277792 -0.000677058 -0.0161401)
(0.0325341 -0.00479847 -0.0314074)
(-0.000760079 0.00067272 -0.0258151)
(-0.00190096 8.48226e-05 -0.0243476)
(0.00808937 -0.00220588 -0.0159675)
(0.0184744 -0.00486791 -0.0347225)
(-0.000497019 -0.000325289 -0.023268)
(-0.000844345 -0.0023823 -0.0335783)
(2.70262e-05 0.000202359 -0.0115799)
(-0.529697 -0.131924 -0.122982)
(0.00525359 0.010357 -0.0352846)
(-0.0223854 0.000970226 -0.00890204)
(-0.000384982 0.000158557 -0.0256892)
(-0.0546878 -0.293548 0.010137)
(0.0206275 -0.00278453 -0.0322641)
(-0.00260186 -0.050201 -0.207932)
(-0.0119498 0.000992093 -0.0118421)
(-0.00148097 -0.000309866 -0.0220779)
(-0.0034559 -0.0305522 -0.138677)
(-0.000993135 -0.000164168 -0.0169195)
(0.003484 -0.021957 -0.16695)
(0.00422217 -0.0333557 -0.153253)
(0.0214253 -0.0060435 -0.0325004)
(-0.07776 0.00188364 0.00929426)
(-0.00322724 0.000259657 -0.0101139)
(0.00169277 0.00106908 -0.00213341)
(-0.0182898 0.00301567 -0.00281236)
(0.0650052 -0.0172788 -0.00109181)
(0.0100296 -0.00320642 -0.0167136)
(0.00735985 -0.0103111 -0.0500054)
(-0.00307069 -0.0262802 -0.159841)
(0.000432811 0.000860479 -0.00149947)
(-0.00117229 -0.0272103 -0.17897)
(-0.00858373 0.00109258 -0.00113168)
(0.00464826 -0.035961 -1.2929e-05)
(0.0239376 -0.00503471 -0.0268605)
(0.282024 1.25672 0.357286)
(0.0028552 0.0101684 -0.0181989)
(-0.039003 0.00109602 0.00620892)
(-0.00110942 0.00292386 -0.0287441)
(0.0215493 -0.00392428 -0.0285726)
(0.20303 0.0308538 -0.193203)
(0.0455705 -0.00253783 -0.0925853)
(0.000909344 0.00101923 -0.0202805)
(0.0263895 -0.00673862 -0.00336763)
(2.00181e-05 0.000538817 -0.000952724)
(0.00185253 0.000891088 -0.00283171)
(-0.000522274 -0.0017834 -0.0187116)
(-0.00417101 0.00101585 -0.0321169)
(0.480382 -0.0126331 0.23674)
(-9.88269e-06 0.000856942 -0.000801274)
(0.011407 0.000502946 -0.0296068)
(0.000673691 0.273287 -0.13099)
(-0.00129875 -7.01268e-05 -0.0170855)
(-0.00382281 -0.000180845 -0.0102778)
(6.63776e-05 0.00335788 -0.0263512)
(0.107665 -0.177771 -0.329565)
(-0.0137293 0.00647528 0.0010876)
(-0.00835544 -0.0626189 -0.0138067)
(-0.000825493 2.26908e-05 -0.00703997)
(0.580752 -0.0669265 0.454326)
(0.0126919 0.00078591 -0.0240335)
(0.267227 -0.164583 0.388271)
(0.00349141 -2.21792e-05 0.000510315)
(-0.000785016 -0.00784605 -0.00353016)
(0.149988 -0.132248 0.166967)
(-0.000214668 -0.00131677 -0.0166599)
(0.00941711 0.026246 -0.124494)
(0.162826 -0.381083 0.0176669)
(0.000179329 -0.00161079 -0.000416784)
(0.418323 2.23009 0.787056)
(0.00890434 0.0305581 -0.0510004)
(0.169066 0.0978372 0.242802)
(-0.0157259 -0.00866216 -0.0228514)
(0.000295949 0.000994184 -0.0202787)
(-0.013571 0.000987224 -0.00164411)
(0.0108904 0.000464464 0.0216949)
(0.0170574 -0.00800886 -0.0076711)
(0.00548568 -0.00541454 4.6814e-07)
(-0.000449258 0.0020751 -0.0205636)
(-0.00272756 0.000286545 -0.010139)
(-0.00209321 0.00155402 -0.0227037)
(-0.00245555 0.000391485 -0.0231341)
(0.00128542 -0.00342707 -0.00533062)
(0.00587505 0.00955684 0.00269229)
(0.0238663 0.00541996 -0.0312723)
(0.0193969 0.00353452 -0.0267111)
(0.0309235 0.00954514 0.00529034)
(-0.00184127 0.000113643 -0.0237797)
(0.000295532 -0.00287793 -0.0049803)
(-0.00827159 0.000177254 -0.00651096)
(-0.000413416 -0.0112027 -0.00337616)
(-0.00226256 -4.55058e-05 -0.0242723)
(-0.016098 0.00142921 -0.0154747)
(0.00497516 -0.00582548 0.000272406)
(-0.00063207 -0.000352849 -0.0139241)
(-0.00281603 0.000609572 -0.00933505)
(0.000778682 -0.00465334 -0.00447099)
(-0.00263775 -0.00012875 -0.0199251)
(0.000356084 0.00277012 -0.0155717)
(0.0320431 0.0581493 -0.00544143)
(-0.00726175 0.00128587 -0.0300202)
(0.0450632 0.0699732 -0.0253774)
(0.0213437 -0.00221405 -0.0919899)
(-0.0210185 0.0101731 0.00151822)
(-0.0020142 0.00200105 -0.0267612)
(0.0052924 6.484e-05 -0.0115664)
(0.0565393 0.072418 -0.0339374)
(-0.000377831 0.00210681 -0.0274956)
(-0.00405628 -7.31771e-05 -0.028963)
(-0.0171516 -0.000499303 -0.000147232)
(0.00059805 -0.00629958 -0.0125531)
(-0.000888901 0.00390638 -0.0214598)
(0.00913303 0.00317921 -0.0189058)
(0.00866469 -0.000149219 1.26873e-05)
(-0.0321547 0.000779375 0.00018839)
(-0.000662939 0.00036831 -0.0202425)
(0.0220228 0.0081202 -0.00112082)
(-0.000911256 -0.0153656 -2.82909e-05)
(-0.0471674 0.0104517 0.0130779)
(-0.00107297 -0.00332808 -0.0195669)
(-0.0029056 0.00341657 -0.0237284)
(-0.00109167 0.00337709 -0.0245238)
(-0.000542332 0.000740252 -0.0241194)
(-0.00428851 0.00010953 -0.0547266)
(-0.00559546 0.000308476 -0.0267333)
(-0.00181472 0.000372472 -0.0277968)
(-0.00265514 3.65228e-06 -0.0271476)
(0.0288387 0.0112331 0.00604874)
(-0.0123605 0.000249555 -0.0252004)
(-0.00297785 0.000421597 -0.00889727)
(-0.00309555 0.000420909 -0.0218018)
(-0.039419 -0.0002495 0.00878749)
(-0.00528328 0.000348107 -0.0292065)
(-0.0385935 0.00335148 0.0223207)
(-0.000892808 -0.00147176 -0.0167085)
(-0.0158481 -0.00254467 -0.0569054)
(-0.00240148 0.000701769 -0.0230423)
(-0.000607067 0.000339514 -0.0245905)
(0.010976 -0.00104957 -0.0219105)
(-0.000168487 -0.0111109 -0.00872386)
(-0.000726498 0.00286727 -0.0215516)
(-0.00123275 0.00130069 -0.021896)
(-0.00182524 -0.000566336 -0.0259969)
(-0.0160541 -0.0015998 0.00812195)
(0.0207886 0.00454419 -0.094945)
(-0.00135522 0.000290626 -0.0253586)
(-0.00104688 0.00120424 -0.020528)
(0.0417366 -0.0454124 0.0048559)
(0.000211499 0.00087145 -0.0251879)
(-0.0525495 0.00612162 0.000671055)
(0.0224058 0.00328248 -0.0271376)
(-0.00239627 0.00447008 -0.0210552)
(-0.0178493 0.00127423 -0.00536555)
(-0.000669871 0.000804927 -0.024706)
(0.000107615 -0.0067307 -0.0636822)
(0.000924655 -0.00163565 -0.0045811)
(-0.00114482 -0.000196111 -0.0241023)
(0.00874642 -0.000255936 -0.0190619)
(0.00418003 -0.000254739 -0.0164117)
(0.0896868 -0.00391783 -0.034212)
(0.0966922 0.00261147 -0.0104382)
(0.0196126 0.00471553 -0.0262012)
(0.00995971 0.0012848 -0.0130443)
(0.0128937 -0.00626991 -0.0166291)
(-0.0398156 0.0220716 0.0381921)
(2.33918e-05 0.000959025 -0.0036106)
(-0.00324083 0.000209925 -0.02184)
(-0.0367417 0.0203845 0.0369716)
(0.00871382 0.00165299 -0.0107212)
(-0.00074054 -0.00449109 -0.0184115)
(-0.000776897 -0.00291828 -0.015443)
(-0.0331347 0.0140534 0.033684)
(-0.00744453 0.00122113 -0.000292852)
(-7.03692e-05 -0.00194953 -0.01901)
(-0.00018663 -0.000181859 -0.0211888)
(0.021606 0.00299689 -0.00185836)
(-0.00160936 0.000574809 -0.00801029)
(-0.0225509 0.0037766 -0.00772018)
(0.00688183 -0.0221541 2.11487e-05)
(-0.00107262 1.52716e-05 -0.0176648)
(0.00506759 -0.000144585 -0.0314151)
(0.000382799 -5.08569e-05 -0.00419307)
(-0.000756417 -0.00195413 -0.0169043)
(-0.00152823 0.000558174 -0.0161669)
(-0.0016087 -0.00041552 -0.0236362)
(-0.000934702 -0.00341909 -0.0158826)
(-0.0308121 0.0116937 0.0317746)
(-0.0012871 -0.000165653 -0.0201268)
(0.00169195 0.00513315 -0.01572)
(0.00556085 0.0333258 -0.101316)
(4.75281e-05 -0.00515604 -0.0182401)
(0.000159577 0.0624123 -0.00783355)
(-0.000635034 -0.00120604 -0.0174461)
(-0.0019506 0.000309286 -0.00944412)
(-0.00015564 8.72873e-05 -0.0170459)
(-0.00194065 8.12671e-05 -0.00620203)
(0.0213388 0.00108541 -0.0292146)
(-0.366211 0.485703 0.749375)
(0.0108995 -0.00279693 -0.0207268)
(-0.0185294 0.00140341 -0.0164494)
(-0.00137739 0.00178994 -0.0205365)
(-0.00529604 0.000181218 -0.0238061)
(0.0175815 0.00310616 -0.0201946)
(0.00744954 0.00102547 0.000764451)
(0.00812083 0.013723 -0.146042)
(-0.00375793 0.000150617 -0.0142218)
(-0.00116176 0.00125551 -0.021102)
(0.0132029 0.000143161 -0.0253839)
(0.00782892 -0.000491572 -0.0230383)
(-0.00787208 0.000873662 -0.0222286)
(0.0050096 0.00371842 -0.0288869)
(1.76374 0.216091 0.375187)
(0.00852621 0.00169948 0.000179934)
(0.0244725 0.0235118 -0.137704)
(0.0240423 0.00163305 -0.021993)
(-0.00125757 -0.000151929 -0.0135473)
(0.00923955 -3.61694e-05 -0.000862233)
(0.0202023 -0.653275 -0.181709)
(0.02506 0.00710445 -0.0251286)
(-0.0202463 0.000347524 -0.0131742)
(-0.00466649 -0.000297656 -0.0175701)
(0.000324788 -0.000374724 -0.0245555)
(0.00276246 -0.016656 -0.0311137)
(-0.00327419 0.000354111 -0.0180289)
(-0.0336505 0.00181219 0.0159913)
(-0.000148929 0.0124006 -0.0252662)
(0.00937066 0.00419446 0.000367189)
(-0.00564655 0.000555806 -0.00342417)
(0.0036529 -0.00188773 -9.7417e-07)
(0.0145911 0.000638345 -0.0227564)
(-0.000791259 -9.28622e-05 -0.0174321)
(0.00919323 0.000431956 -0.0199108)
(-0.0019695 0.000403165 -0.0245838)
(-0.0586285 -0.358801 -0.246652)
(-0.00379562 -0.00608185 -0.027569)
(-0.000387348 0.00194696 -0.028088)
(-0.000469923 0.000214126 -0.0177283)
(0.00648472 0.00147508 -0.0253866)
(-0.0242676 0.0101201 0.00116507)
(-0.0029312 0.00044474 -0.0261151)
(-0.00585426 -0.00037279 -0.0132553)
(0.449792 -0.168098 -0.163985)
(-0.0310608 0.00402159 -0.000529023)
(-0.00387355 0.000818477 -0.000418465)
(7.54226e-05 0.000124072 -0.0174066)
(0.378656 -0.144096 -0.377066)
(-1.405e-05 -0.000142384 -0.0171215)
(-0.0286506 0.00547543 -0.0035106)
(-0.00890541 0.000101726 -0.0199121)
(0.129301 -0.0788451 0.20645)
(-0.0122681 0.000119604 -0.0221646)
(-0.0120809 0.0170876 0.0179404)
(-0.00943453 -0.000435347 -0.022604)
(0.0163909 0.00191803 -0.0209975)
(-0.00336005 0.000323179 -0.0238721)
(-0.0530432 0.00228049 -0.0059777)
(-0.000289674 0.000116072 -0.0169422)
(-0.0101093 -0.0120038 -0.110356)
(0.00180466 0.0030082 -0.0135595)
(0.0662741 0.00985313 0.0168485)
(0.000857954 0.00388142 -0.0148966)
(-0.00417598 -9.0113e-05 -0.0202429)
(0.000438838 -0.0102726 -0.047136)
(0.0105663 -0.000828754 -0.0207094)
(-0.0016766 -0.0101988 -0.0178204)
(-0.00291916 0.00227751 -0.0237199)
(0.00735844 0.0228031 -0.0378994)
(0.0164278 0.0119432 -0.00141391)
(-0.0416962 0.000350756 -0.00455569)
(0.0428458 -0.0168652 -0.146527)
(0.0112063 -0.00227132 -0.0198927)
(0.00592314 0.0268948 -0.07323)
(0.0292675 -0.0170088 0.0483213)
(-0.0451831 -0.00143591 -0.00906516)
(0.00131181 -0.00110797 -0.00321483)
(-0.000383653 0.000305815 -0.0177534)
(0.033059 0.0910922 -0.131011)
(-0.0381515 0.00418351 0.0341434)
(0.0347119 0.00659791 0.0027131)
(-0.00511661 0.00094473 -0.00152793)
(0.0358433 0.00590134 0.00226822)
(-0.00199755 -0.000233284 -0.0218685)
(0.0142104 0.00522425 -0.0422114)
(-0.000379617 0.00181549 -0.0208676)
(-0.0521827 0.00118381 -0.000631631)
(-0.0189402 0.00043321 -0.00889127)
(0.0325202 0.0114883 -0.00115434)
(-0.0177507 0.00487036 0.00633353)
(-0.0433144 0.000677294 -0.00334028)
(-0.0429011 0.00144525 -0.00710362)
(-0.0423283 0.000418827 0.0240427)
(-0.000490671 -0.0489684 -0.0393934)
(0.0015578 -5.10708e-05 -0.004567)
(-0.0102456 0.000853125 0.000639608)
(0.00893592 9.25391e-05 -0.0196207)
(-0.112539 0.0310164 0.0247711)
(0.00104245 -0.000842161 -0.00212518)
(0.00259999 0.00294385 0.00205713)
(0.00344638 -0.000321305 -0.0045199)
(5.39563e-05 -7.19942e-05 -0.00314197)
(0.00687783 -0.00284725 -0.00365027)
(-0.0270033 0.00466935 -0.00592533)
(-5.42084e-05 0.000738674 -0.021995)
(3.29712e-05 -0.00420835 -0.00263551)
(0.0211654 -9.79915e-05 -0.0310712)
(0.00424165 -0.000425004 -4.42389e-05)
(-0.0340057 -0.00027399 -0.00119953)
(-0.0126051 -0.0759747 -0.0499329)
(-0.00171952 -0.049801 -0.00275864)
(-0.0319907 0.00226967 0.000546081)
(0.014539 0.00197939 -0.0124687)
(0.0398639 0.00538296 -0.00289573)
(0.0025874 0.00101497 -0.0036283)
(0.0028062 -0.000899815 -0.00514525)
(-0.00523863 -0.0206762 -0.00990335)
(0.00701053 0.005876 -0.0679989)
(-0.0185958 0.000482121 -0.000792113)
(0.0091791 -0.00422138 -0.00169539)
(0.00602697 0.00341919 -0.0576115)
(0.0111057 0.000510745 -0.0245905)
(0.0173451 0.0061945 -0.000737695)
(-0.0220677 0.0107608 0.00206487)
(-0.0392876 0.000720095 -0.00383095)
(0.00225503 -0.00183794 -0.052243)
(-0.0377185 0.00226041 -0.0013846)
(0.00153134 0.0275559 0.00548025)
(-0.0171905 0.000685906 -0.000853826)
(-0.0185889 0.00114005 -0.000857476)
(0.626557 0.795003 -0.546168)
(-0.036673 -0.000141183 -0.0156116)
(-0.00379343 7.59387e-05 -0.023585)
(0.0331164 0.00614523 0.00175175)
(-0.0103395 0.000287911 -0.000444417)
(-2.04475e-05 -0.000731185 -0.0206753)
(0.160174 0.197595 -0.00717164)
(-0.0195153 0.000117784 -0.000775296)
(0.00479573 -0.0041074 -0.097629)
(-0.0186727 0.00158994 -0.00159717)
(0.0866492 0.08269 0.00145898)
(0.0524855 0.000707785 -0.0140086)
(0.00162726 7.20847e-05 -0.0218283)
(0.011266 -0.00190679 0.0002261)
(0.0117212 -0.000956255 -0.000155492)
(-0.0306254 0.00790135 0.00340284)
(-7.54832e-05 -0.000389207 -0.0086171)
(-0.0111669 0.00329394 0.00915186)
(0.00442259 0.00064852 -0.016074)
(-0.000567465 0.00179573 -0.0204872)
(0.011657 -0.00194702 0.000103312)
(0.0367026 0.00361935 -0.0259498)
(-0.00114866 -0.0181936 -0.0286828)
(0.027042 0.0577745 -0.027155)
(-0.00147928 -0.00132078 -0.0204554)
(0.053667 0.0800955 -0.0614281)
(-0.000159538 -0.000172543 -0.0245438)
(0.0329271 0.00766395 0.000159065)
(-0.0325769 0.0139358 0.00805995)
(-0.000305061 -0.000465907 -0.00161966)
(0.0351855 0.00561553 0.00177064)
(0.00862934 -0.00045139 -0.0193455)
(-0.0550118 -0.000375166 -0.00352788)
(0.0323195 0.00737766 -0.0122722)
(-0.060981 0.00170677 0.0051764)
(-0.00807777 0.000846203 -0.00682235)
(-0.0485498 6.99924e-05 0.0021102)
(0.0354414 0.00957408 -0.0224523)
(0.036466 0.00109003 0.00200111)
(0.0147607 0.00805041 -0.0674543)
(-0.000133884 -0.00756467 -0.0133218)
(0.0336662 0.00856856 0.00261187)
(-0.0552089 0.00134081 -0.00179171)
(-0.0617499 0.000122027 0.00554355)
(-0.0528196 0.0027761 0.00309982)
(-0.013372 0.000926495 -0.00899206)
(-0.000190866 -0.00173028 -0.0030223)
(0.0204676 0.00287567 -0.00478833)
(0.00738746 -0.00165706 -0.000678876)
(-0.00289868 0.00101635 -0.0263987)
(0.0112369 6.15062e-05 -0.0179445)
(-0.00612881 -0.000517174 -0.0137881)
(-0.0585901 0.0046768 0.00801549)
(0.0187446 0.0238926 -0.0349367)
(0.00742213 0.00457883 -0.0941896)
(-0.0311596 0.0039663 -0.0157879)
(0.0271363 0.00258758 -0.0195986)
(-0.0434892 0.00467532 -0.0113874)
(-0.0401842 0.00297359 -0.00789224)
(-0.0347437 0.00471098 -0.012763)
(-0.033796 0.0109592 0.00252319)
(-0.00415549 0.000873587 -0.0133907)
(0.00625756 -0.00191189 0.000205152)
(0.00800177 -0.00126381 -0.000557341)
(-0.0344143 0.00376272 -0.0181698)
(0.00666333 -0.000888255 0.000306281)
(0.0308447 0.00713249 -0.0283389)
(0.00820654 -0.00113384 -0.00083704)
(-0.0554737 0.000711355 -6.48054e-05)
(-0.0327447 0.00766728 0.0117918)
(0.00529959 -0.000251559 -0.0132484)
(-0.0680117 -0.000214803 0.0012678)
(0.00697291 -0.00244399 0.000676958)
(-0.0403685 0.00722945 -0.0229993)
(-0.0173474 0.00184826 -0.0216427)
(-0.0126105 0.00208447 0.000771684)
(0.00341757 -0.0026115 -0.0290962)
(0.0103594 -0.000603816 -0.0173836)
(0.0065434 -0.0367807 -0.00541621)
(0.00257645 -0.0163366 -0.00905895)
(-0.00133468 0.000211423 -0.0245017)
(-0.0195962 0.00176802 -0.0210055)
(0.03791 0.0160576 -0.01975)
(0.000406899 0.00187739 -0.0211768)
(0.0100701 0.0513288 -0.110659)
(0.0191726 0.00460866 -0.11411)
(-0.0115402 0.0015977 -0.00380317)
(-0.0206819 0.00170888 -0.0200085)
(0.354262 0.15746 -0.210527)
(0.0186274 0.029065 -0.131523)
(-0.017289 0.00305001 -0.00644514)
(-0.000108244 -5.09492e-05 -0.0261344)
(-0.140302 -0.0118061 0.0418548)
(-0.0229023 6.05621e-05 -0.0192027)
(-0.0200622 0.00213619 -0.0187994)
(0.0233743 0.0027237 -0.0192314)
(0.0225916 0.000468599 -0.0392495)
(0.0252275 0.00721406 -0.0279485)
(0.000199076 -0.000989113 -0.00737807)
(0.000381213 -0.000973327 -0.0238375)
(-0.011368 0.0011287 -9.41553e-05)
(0.00148921 0.00539873 -0.0160716)
(0.00366679 0.0138012 -0.0559962)
(-0.000944701 -0.000212634 -0.0204115)
(-0.00431214 0.00103167 -0.0202459)
(0.0169047 0.00535904 -0.0430349)
(-0.0377486 0.00206129 -0.000967601)
(0.0104405 0.0341823 -0.169605)
(0.0131431 0.00154956 -0.00649384)
(0.00419154 -0.110174 -0.0910947)
(-0.000522798 -0.000728371 -0.0166431)
(0.0256742 0.00672773 -0.0276348)
(-0.0377918 0.00118173 0.00214937)
(0.000197488 -0.0215876 -0.00752486)
(-0.019433 -0.000797039 -0.0187776)
(-0.0367788 0.00240512 -0.00183689)
(-0.00133761 0.00222399 -0.0207122)
(-0.00355048 -0.000176148 -0.0155027)
(-0.00172737 0.000805442 -2.47472e-05)
(-0.00191531 -0.00110404 -0.0225009)
(-0.0026024 -0.000172213 -0.022968)
(-0.0137409 0.000220087 -0.0295248)
(0.00693324 -0.000831329 -0.0241658)
(0.000815825 0.00310502 -0.0152674)
(-0.0105171 0.00415705 0.000562607)
(-0.00164662 -0.000100316 -0.0200197)
(-0.0426531 -0.0116899 0.192668)