/*--------------------------------*- C++ -*----------------------------------*\
| =========                 |                                                 |
| \\      /  F ield         | OpenFOAM: The Open Source CFD Toolbox           |
|  \\    /   O peration     | Version:  v2012                                 |
|   \\  /    A nd           | Website:  www.openfoam.com                      |
|    \\/     M anipulation  |                                                 |
\*---------------------------------------------------------------------------*/
FoamFile
{
    version     2.0;
    format      ascii;
    class       volScalarField;
    location    "0";
    object      ph_rgh;
}
// * * * * * * * * * * * * * * * * * * * * * * * * * * * * * * * * * * * * * //

dimensions      [1 -1 -2 0 0 0 0];


internalField   nonuniform List<scalar> 
108993
(
-0.0029518
-0.00113816
0.000410001
-0.000386594
-0.00144668
-0.00314561
-0.00284443
-0.00292225
0.000332784
-0.00211817
0.000426523
0.000289622
-0.000642346
0.00048698
-0.00258486
-8.13845e-05
-0.0024009
-0.00234856
-0.00050432
-0.000544951
-0.00307639
0.000173474
7.16114e-06
-0.00297538
-0.000602859
-0.00104929
0.000129435
-0.000405443
-0.00153404
-0.00287898
9.2025e-05
0.000526211
0.000127993
-0.00217813
-0.000101672
-0.00237592
8.96395e-05
-0.000850464
-0.000765576
-0.00252887
0.000359684
0.000249145
0.000512876
-0.0003155
0.000108219
-0.00302444
0.000112161
-0.00313242
-0.00296935
0.0001567
0.000107957
0.000418703
-0.000573138
3.04657e-06
-0.00277414
-0.00214554
0.000134327
-0.00154158
9.53454e-06
-0.00146028
-0.00129724
-0.000692188
-0.00259869
-0.000151142
-0.000678332
-0.000746605
-0.000873498
-0.000759062
-4.03315e-06
-0.00213981
-0.00281517
-0.000784162
-0.000787213
-0.00088853
-0.00291783
0.000133918
-0.000178385
-0.00226372
0.00015832
-0.000846844
-0.00119667
-0.000932597
0.00026744
0.000225494
-0.00232765
0.00038006
0.00020791
0.000237986
-0.00183193
-0.00109119
-0.00116643
9.28364e-05
-0.00129112
-0.00114985
-0.00127457
0.000533
9.60821e-05
-3.17226e-05
0.000108727
-0.000276722
-0.0011808
-8.82697e-05
-0.00163168
0.000269918
-0.000691501
-0.00119466
-0.00210632
-5.66212e-05
0.000277398
-0.0022297
7.16606e-05
-0.00107527
0.000133317
0.000240072
0.000399987
5.96269e-05
-0.00162555
0.000486329
0.00030542
0.000151681
-0.000631566
-0.000114542
0.000181218
0.000347863
-0.00116375
-3.30326e-05
0.000398708
-0.000827248
-7.85373e-05
-0.000118996
0.000432116
-0.00016235
0.000133449
0.000191152
0.00024609
5.4106e-07
-6.58376e-05
0.000187821
-0.00235464
0.000445816
0.000302551
-0.000235512
0.000426983
-9.02871e-05
-7.67525e-05
-0.00062284
-0.000457744
-0.00332556
0.000314387
-6.34863e-05
-8.87766e-05
-0.00110087
3.33512e-05
-2.38418e-05
0.000313532
0.000323881
-0.000475147
8.95686e-05
0.000125692
-8.82085e-05
-4.23433e-05
5.50865e-05
-2.62289e-05
-0.00296182
0.000535672
0.000459253
-0.00231412
-0.000175268
-0.000123941
0.000444525
-6.71198e-05
-0.00186568
0.00042435
5.84131e-05
-0.000888931
-9.13853e-05
0.000300126
-0.000137513
0.000431182
0.000324864
-0.000694694
0.000291953
0.000151363
0.00035264
0.000403201
-0.000877315
0.000167594
-0.000893813
-0.00116098
0.000362622
0.000468948
0.000188411
0.000415222
0.000158697
0.000397643
0.00045106
0.000374245
-0.000157938
-0.000266323
0.000347762
-0.00224501
0.000367973
-0.00307204
1.9765e-05
-0.00193401
-0.000325721
0.000407712
-0.000950519
0.000219308
0.00269025
-0.00086298
-0.000322203
0.000261226
-3.49929e-05
-0.000395136
-0.000484066
-0.00172379
0.000420007
0.000140208
0.000275957
0.000285226
-0.000131797
0.000225253
0.000353177
-7.61407e-05
-0.000136013
9.06541e-05
0.000317976
0.000425815
0.00048281
-0.000878857
-0.00221174
-0.000119909
-0.0010114
0.000247903
0.000175402
0.00026151
-0.000200475
-0.00237858
9.02921e-05
-0.000238138
0.000390037
-0.00309024
6.27796e-05
0.000124127
0.000217683
-0.00012312
0.000114572
9.21446e-05
0.000241325
-0.000308052
-0.000520548
0.000361805
0.000434976
0.000110664
6.50006e-05
9.52672e-05
0.000123307
0.000264692
-0.00277484
0.000268656
-0.0031396
0.0005174
-5.86881e-05
0.000185401
0.000435987
3.81106e-05
-0.00207632
-0.00273878
0.000227669
-0.00287051
6.01637e-05
-0.00101717
0.000667981
-0.0031939
0.000402988
-2.85885e-05
0.000143278
0.000500751
1.8855e-05
0.000144773
-0.00286038
-0.00283881
0.000102343
0.000203595
9.81983e-05
-0.000537346
0.000300235
0.000502106
-0.00315522
-0.000473476
0.000114362
0.000313054
8.52691e-05
0.000447497
0.000338558
0.00019158
0.000193913
-0.00228288
-0.00313885
4.71049e-05
-0.000515337
-0.00135052
-0.00321044
0.000368159
-0.00295002
0.000174928
-0.00287203
-0.00280926
-0.000633409
-0.00260586
-0.000708022
0.000366921
-0.00224855
-0.00261224
-0.000233882
-0.000234989
0.00044816
-0.00149827
0.000406154
-0.000283719
-0.000205884
-0.00282657
-0.00298924
-0.000251019
0.00026545
-0.000214793
-0.000107006
0.000289197
0.000410982
-0.000117755
7.01113e-05
-0.00244868
0.000380449
-0.000565383
-0.00315659
-5.31321e-05
-0.00111247
0.000403216
0.000232506
0.000334911
-0.000408595
0.000363791
-0.000991294
-0.000205692
-0.00293662
0.000241957
-0.00227619
-0.000343759
0.000248351
0.000111688
-0.00308027
-0.00325085
-0.00275355
0.000284625
-0.000700341
-0.0002385
-0.00304511
-0.000125935
-0.000156017
0.000326932
0.00035598
0.000195522
8.75141e-06
-0.00289556
0.000397518
0.000160359
0.000235071
-0.000425594
0.000568862
0.000483558
0.000284095
9.48668e-05
-0.000245489
0.000424045
-0.000169447
0.00020645
0.00043176
-0.000293043
0.000490745
-7.41624e-05
-0.000269722
0.000331064
0.000415715
-0.00296063
0.000470762
-1.1874e-05
-0.000787309
0.000120484
-0.00227589
-0.000124873
0.00046984
-9.53543e-05
0.000180729
-0.0016654
0.000395249
-4.16407e-05
0.000214924
2.64074e-05
0.00033757
0.000400151
8.86522e-05
3.5067e-05
0.000174232
0.000342363
0.000478127
0.000479863
-0.000507758
0.000470359
-0.00343464
-0.000191125
-0.000104956
0.00013723
-0.00303526
0.000246033
0.000350383
3.72995e-05
-0.00194337
-0.0010943
-0.00316088
-0.00430778
-0.000701875
-0.00341824
-0.000218985
-0.00188522
-0.00290055
-0.00195974
0.00022898
-0.00176547
-0.0030142
-0.000911624
-0.00180326
-0.00260444
6.9166e-05
0.000197813
-0.0014991
6.14462e-05
-3.21189e-05
0.00016977
8.34269e-05
-0.000984172
0.000442495
0.00041739
-0.00278377
-0.00190271
0.000340084
0.000338166
0.00045153
0.000443016
-0.00295841
2.47092e-06
-0.00174612
0.000432564
-0.000890274
0.000215433
-0.00228702
-0.000631828
-0.00259221
0.000495082
-7.45523e-05
0.000185762
0.000288881
0.000184687
-8.65525e-08
-0.00074178
8.72284e-05
-0.0031426
0.000181911
5.07151e-05
-5.71372e-05
-0.00305516
-0.00160406
0.000330012
-7.35911e-05
-0.000144269
-8.38372e-05
-0.000184651
-0.00124433
-0.00265804
0.00047599
-0.000745539
0.000340458
0.0003483
0.000122489
-0.000157587
-0.000107417
0.000205894
-0.000127633
0.000446681
-0.00222661
-0.000751909
-0.00179094
-0.000157439
-0.000122765
0.000253503
-0.00279641
-0.000102649
0.000163121
0.000351732
-0.000779921
-5.48044e-05
0.000339647
-2.02726e-05
0.00019434
-0.000108237
-0.000317276
1.21185e-05
-7.08369e-05
-0.000731631
0.00021862
0.000496793
0.000148596
0.000203927
0.000490956
0.000309227
2.91063e-05
-0.00163397
0.000333944
-0.00283248
-0.00191821
-7.45417e-05
-5.66124e-05
6.73794e-05
-0.000193327
-0.00110185
0.000382307
-0.00102507
0.00042945
0.000365633
-0.000285912
-0.00292684
-0.00229271
0.000402942
6.2925e-05
-0.000335622
0.000342534
0.000484156
0.000515261
-0.00153823
-0.0023517
-0.00317647
-0.00331231
-0.00315589
-0.0020813
0.000454219
0.000299565
-0.00187104
0.000387067
0.000405447
-5.69994e-05
9.01106e-05
-0.00276929
-0.00147246
-0.00211989
-0.0010156
-0.00317773
-0.000338302
0.000457731
0.00102502
-0.00108135
-0.00114413
-6.38654e-05
-0.000162673
-1.04642e-05
-0.0031049
0.000158315
-0.00087576
-6.62792e-05
0.000429779
0.000384272
0.000124144
-3.48756e-05
0.0103663
-0.00291507
0.000208686
0.000421789
-0.000362699
-0.00317153
-0.00102014
-0.00129675
0.000454796
-0.00102534
0.000327143
-0.000259892
-0.00277875
-0.000119879
-0.00277355
-0.00282338
0.000419031
-2.14874e-05
0.000454273
-0.00296124
-0.00300115
0.000389763
0.000571679
1.38423e-05
0.000356846
-0.00312667
-0.00277002
-0.000103265
0.000426803
0.000525907
0.0037337
0.000418018
0.000238714
-0.00313512
0.00159889
-0.00320867
0.000424549
-2.7294e-05
-0.000271264
-2.5487e-05
0.000177899
-3.61294e-05
0.000191149
-0.000120619
0.00044645
-0.0032108
2.67536e-05
-0.000126046
0.000431456
-6.6631e-05
-0.00111583
-0.00241742
-0.00238167
-0.000915784
0.000356047
-0.000314542
-0.00282226
0.00016492
1.44667e-05
-0.000486851
-0.000172367
-3.96097e-05
0.000141444
-0.00197414
-0.00288849
-5.67606e-05
0.000417957
0.000488069
-0.00245694
0.000488582
-0.00015765
0.000213137
0.000153408
0.000175142
0.000216348
0.000189232
0.000418209
0.000227075
0.000258054
0.000225938
-0.0010246
-0.00315547
-0.00288271
-0.00312601
0.000258457
-0.0029487
-0.00294552
-0.00292917
-0.00316023
-0.00152242
0.000280737
0.000255621
0.000401396
-0.000201925
-0.00258067
-4.45708e-05
-0.000470312
-0.0017359
0.000371315
-0.000669879
0.000490695
-0.00326643
-0.00300716
-0.000904546
0.00046781
-0.0029296
-0.00157978
-0.00256908
-0.00189622
-0.00225014
-0.000732573
0.000173896
-0.00293221
0.000270847
-0.00143336
-0.00309343
-0.0028545
0.000181742
0.000206761
0.000469427
0.000470685
-0.00251085
-0.00259045
3.20841e-05
-0.00312597
-0.000477225
-0.00265931
-0.000392103
-0.00016129
-0.000260703
-0.000145376
-0.000173102
0.000479624
-0.00309114
7.94597e-05
0.000317587
8.49296e-05
-8.94457e-05
0.000370472
-0.00212416
-0.00135024
-0.00153247
-0.000402845
-0.000744272
0.00048716
-1.16283e-05
-0.0031292
0.000458371
-0.00295336
0.000233382
0.000236465
0.000185056
-0.00189243
0.000196281
0.000366853
1.92417e-05
-0.000382627
-0.00134343
0.00047887
0.000276262
-8.23105e-05
0.000160034
0.000190519
-0.00295058
-0.00240163
-0.000144035
0.00040994
-0.00277235
-8.91805e-05
0.000342068
-0.00211922
-0.000668686
0.000516899
0.000408654
0.000468705
0.000519648
0.000483907
-0.000513038
-0.00059099
-9.28795e-05
-0.000154825
0.000504574
-0.000192395
0.000322152
-0.000104186
-0.000131415
0.000492788
-0.00301867
0.000505506
-3.67984e-05
0.000484136
0.000498112
-0.0029323
0.000288537
-0.00295746
-0.00174853
-0.000227061
0.000443785
0.000515049
-0.000729248
0.000342398
5.2075e-05
-0.000136697
4.00843e-05
0.000516386
0.0004535
0.000188659
-0.000661557
-0.000142853
-5.54961e-05
0.000495419
0.000510164
0.000443494
-0.000242216
0.000240921
-0.00302766
0.000375069
-0.00309901
-2.45355e-05
-0.00217281
-0.00018668
0.000493118
-0.00277652
0.000186105
0.000165359
0.000465768
-0.000873042
-0.00286188
0.000335261
-3.76474e-05
-0.00113396
-7.14666e-05
1.07113e-05
0.000190291
-0.000619598
-3.11306e-05
-2.25276e-05
0.00043928
-0.000142505
0.000371409
-4.10603e-05
-0.00282649
0.000467407
0.000253057
-0.00296181
0.000478326
-7.91232e-06
-0.00281913
-0.000935112
-0.000432831
9.42028e-05
0.000500162
0.000362805
0.000437604
-0.00289858
-0.00235633
-0.00156055
-0.00255221
-0.00296739
-0.000917802
-0.001451
0.000432678
0.000452861
-0.00303641
0.000420005
-0.00257161
-0.0026006
0.000447328
-0.00292473
0.000515936
-0.00252556
0.000488678
-0.00262028
-0.00173069
0.000505859
0.000187154
0.0040868
0.000514901
0.00439755
0.000349446
0.00399462
0.000513981
0.000279317
0.00016416
0.000473179
-0.000745447
0.000543705
0.000177505
0.000134655
-0.00141815
0.000476871
-0.00316541
0.000227189
0.000101121
-3.89234e-05
0.000433606
0.000291817
0.000437856
-0.000497413
0.000455183
-8.01492e-05
-0.00330238
-1.09595e-05
0.000378853
0.000128864
-0.00203379
-0.00131606
-0.00162816
-0.00258477
-0.0030898
0.000140618
-9.08453e-05
-0.000162028
-0.00226774
-0.00198267
-0.00353323
-0.00285007
5.12058e-05
-0.000469206
0.000293386
0.000439919
0.000349745
-0.000161077
-0.00013725
-0.00118849
2.49016e-05
-0.000303501
-0.0011258
0.000351263
0.000381073
-0.0026089
-0.00174409
0.000294589
-0.0020764
-0.00451155
6.78478e-05
-0.00303349
-0.00241814
-0.00290472
-4.07899e-05
0.000511249
0.000469605
-0.0028564
1.53431e-05
-0.00242962
-0.00045955
0.000510344
-0.0031246
0.000194021
0.000517082
8.59802e-05
-0.00256218
7.98472e-05
0.000507155
-0.000421823
0.000476292
-0.00191441
0.000436507
-0.000352729
0.00042756
0.000438366
-4.18637e-05
0.000519465
0.000496573
7.82493e-05
-0.00018195
-0.00235873
-0.000635138
-0.00313851
-0.000924385
5.90488e-05
-0.000161465
0.0003768
0.000445987
-0.00291443
-0.00150019
0.000361308
-0.000324519
-0.00160564
0.000525126
-0.000385493
-0.000537686
1.4346e-05
-0.00118563
-0.000192276
0.000516839
-0.00307616
0.000521467
0.00031061
1.96236e-05
-0.00319043
0.000391622
0.000288485
0.000313963
-0.00159653
0.000480134
0.000174124
0.000340913
0.00029839
-5.27442e-05
-0.0028028
0.000151826
-0.00299661
0.000268359
-0.000156715
-0.00177284
0.000253512
0.000294386
0.000396721
0.000126295
0.000389758
-0.00283035
0.000511114
0.000383506
-0.00287012
-0.000191613
0.000281481
-0.000110308
-0.00126406
-0.000291095
-0.00248404
-0.000129188
-0.00200836
-0.00307694
-0.00309611
-0.00277831
-0.000639697
-0.000947139
0.000195538
0.000411433
-0.00206827
-0.000163434
0.000294927
0.000398371
2.77585e-05
0.000411025
0.00021592
7.18512e-05
-0.000738805
0.000434423
-0.0017344
-0.00304344
0.000390291
0.000392859
-0.00139189
-0.000116377
0.000464267
-8.0026e-05
-0.00297943
0.000472892
0.000344448
0.000227799
0.000454326
0.000473838
-1.08203e-05
0.000418173
0.000339178
0.000395576
-0.000276209
0.000455505
0.000419466
0.000247995
0.000409677
0.000333091
0.000279489
0.000137715
0.000292506
4.34582e-05
6.75234e-05
0.000291751
0.000325919
-0.000700397
0.000146484
0.000177694
-0.00309065
-0.000158957
0.00046746
-7.74384e-05
-0.00160709
0.000518536
0.000428394
0.000418027
-0.00338277
-0.00176312
-0.00115449
-0.00116063
0.000373972
-0.000311485
0.000879174
0.00031096
9.48993e-05
0.000483894
0.000384325
-0.000197642
0.000163222
-0.000207016
0.000487593
-6.31698e-05
-0.00165144
-0.000219754
0.000475695
0.000448925
0.000432267
-0.000121483
4.17036e-05
0.000345425
-0.000172449
-0.000843776
-0.00171154
0.000335698
-0.00112502
-0.00186311
-0.00136659
0.000507549
-0.000149473
0.000474484
-0.000166462
-0.000204767
-0.00149611
-0.000660531
0.000528967
9.86115e-06
0.000524612
0.00010095
-0.000206447
3.04561e-05
6.83672e-05
-0.00245814
-0.000261693
-9.32489e-05
5.80675e-05
-0.000206308
0.000362192
0.00400353
-0.000136728
-0.00047774
-0.000220458
6.62952e-05
0.000464027
0.000402644
-3.14624e-05
-0.00302672
-0.000762
-0.000650408
0.000148126
0.000209341
0.000271837
-0.00119747
0.00046262
-2.69046e-05
-7.59458e-05
-0.000616655
-0.00317106
0.000424383
-0.00145183
1.13942e-05
0.000190061
-0.00188785
0.000473073
-0.000918078
-2.11418e-05
-0.00242318
-0.00309467
0.000443967
-0.00296177
4.41795e-05
0.000508651
0.000444899
0.000258133
0.000477245
-0.00307389
-0.00312909
0.000425928
0.000190276
3.24132e-06
-0.000158774
-0.000402035
-0.0010309
0.000343397
0.000296459
-0.000178065
-2.31505e-05
-0.00334794
-0.000217659
0.000335857
-0.000228111
0.000168871
-0.000175556
-0.00302356
-0.00150916
-0.00314393
-0.00308696
0.000475972
0.000466815
0.00048308
-0.000499259
-6.27669e-05
-0.00121156
-0.00106125
-0.00104832
-0.000197858
-0.00280518
0.000335319
0.000476774
0.000476385
0.000479936
0.000185302
0.000240884
-0.000158847
-0.000158436
-0.000292911
-0.00017563
-0.000320658
0.000480333
-0.00230132
0.00050366
0.000355202
0.000505994
0.000212664
-0.000178778
-0.000114269
-0.00104689
-0.000505147
-8.04386e-05
-0.000239687
-0.000645495
-0.00299291
0.000121604
-0.00287799
-0.00303439
-0.00264969
0.000224871
-0.000720086
-2.97163e-05
0.000348715
0.000328635
-0.00125868
-0.00157173
-0.000307569
0.000371615
0.000323061
-0.000426405
0.000488607
-0.00180205
-0.000180711
-0.00282076
0.000389433
0.000376053
-0.00252791
-0.00103898
-0.00110384
-0.00302114
0.0437766
0.000140104
-0.00287152
-0.000675769
9.29314e-05
0.00040241
-5.33385e-05
0.000378112
-0.000129367
-0.000411797
-0.000176416
0.000367828
0.000464236
-0.00105801
-0.00302617
-0.00189763
-0.00156117
-0.00181247
0.000403795
-0.000342214
-0.000448042
-0.000776351
-0.00232468
-0.000616441
-0.0018244
0.000198526
0.000346085
0.000486196
-0.00295489
3.69225e-07
0.000482989
4.0082e-05
-0.0010382
-0.00215269
-0.000176246
-0.000761992
-0.000165909
-0.00158169
-0.000140795
-0.000243883
-0.000144229
-0.000219405
-0.000193178
0.000179073
-0.000249981
-0.000194333
0.000415531
0.000410791
-0.00297867
0.000117221
-0.00147999
0.000358373
-0.000174354
0.000374766
0.000253085
0.000505495
0.000506241
0.00026407
-0.000933147
-0.000610852
-9.14843e-05
-0.000790382
-7.78826e-05
-3.65467e-05
0.000285557
0.000364225
0.000348369
-2.55724e-05
-0.000209767
-6.41471e-05
0.000459029
-0.00299257
-0.00248825
0.000455071
0.000158679
0.000466372
-0.000329656
-4.42716e-05
-0.000660361
-0.000814506
-9.48218e-05
-0.000710953
-7.76169e-05
-0.000725637
4.03e-05
-4.52113e-05
0.000339326
-0.000191394
-0.000765908
0.000170063
-0.00299244
0.000150715
-0.000855421
2.6331e-05
0.000124305
0.000436277
-0.00283279
0.000309342
0.000120464
-7.0019e-05
-0.000748176
-0.000280167
-0.000979484
-0.00209455
0.000113487
0.000285555
-0.0025653
-0.0029234
-7.16849e-05
0.00044903
-0.00282321
-8.20231e-05
0.000430632
-0.00104436
-0.000157266
-0.000350099
-0.00135429
-0.00278422
-0.00143325
-0.00112917
-0.000703932
0.00017766
-0.000148445
0.000234797
0.000196263
2.67607e-05
-0.00171354
-0.00307156
-0.000105608
-5.29737e-05
-0.00244745
-0.00247304
-0.0019965
0.000239558
-0.000337736
-0.00123785
0.000481458
-0.000191376
-2.49388e-05
0.000371465
-0.000150927
0.000478696
0.000359639
-0.00171252
-0.000559821
0.000488015
-0.00171468
-0.000387867
-0.000255084
0.00047917
0.000293662
-6.16958e-05
0.000479701
0.000462211
-0.00285449
0.000404188
3.51119e-05
-6.20983e-05
-0.00273789
0.000333878
-0.000361896
-0.00113584
-0.00302742
-0.00302564
-0.000930096
-0.00307509
-0.00182381
-0.00125729
-0.00291099
2.66425e-05
-0.00314317
0.000176906
-0.00259224
-0.0022234
-0.001902
0.000356621
-0.00273798
-0.00291584
-0.00314297
-0.00249257
-0.00297743
-5.50754e-06
-0.00297097
-0.0028232
-5.76441e-05
-0.00257518
-0.00191053
0.000162433
3.3348e-05
-0.00234899
-0.00028859
-0.00223391
-0.00174133
0.000359371
-0.00137585
0.000128216
-0.00165972
-0.00104748
-0.00120816
-8.56727e-05
-0.00183852
-0.000957148
-0.00286649
6.11856e-05
0.000426545
-0.0028613
-0.002952
-0.000332402
0.000297924
0.00015904
-0.000163092
-0.00289168
0.00010282
-0.000149279
-0.000428976
-0.00242157
-0.00291097
0.000174298
-0.00262807
-0.00304683
-0.00261204
6.3011e-05
-0.000210682
-0.00140669
-0.000206636
0.000421593
0.000440716
0.000395635
-0.00115038
-0.00178437
0.000491651
0.000323487
-0.00248263
-0.00207078
-0.00287536
-0.00305351
-0.000971808
-0.000563007
0.000108874
-0.00232137
-0.0023192
-0.000110697
-0.00287978
-0.00176982
-0.00289182
-0.00315421
-0.00273742
-0.00294999
-0.00072035
-0.00231882
-0.00234193
0.000106363
-0.00211563
-0.00301388
-7.43401e-05
-0.00182052
0.00048339
-0.00195978
-0.00299713
-0.000825296
-0.00294971
-0.000240484
0.000123246
-0.00307456
-0.000158936
0.000150352
-0.00212746
0.000463514
0.000454052
-0.00252697
-0.00191741
-0.000159414
-0.000157168
0.000270699
0.000289302
-0.00163697
4.26673e-05
0.000275648
-0.0005147
0.000157817
-0.00277635
0.000318506
-0.0017399
-0.000203116
0.000188638
0.000185008
-0.000440147
-0.00245204
-0.00283566
-0.00108361
-0.00139726
0.000128118
-0.000492949
-0.0001052
-0.00178546
0.000152438
0.000479115
-2.1418e-05
-0.00304167
-0.00280382
-0.000194327
0.000417538
-0.00150405
-0.00300829
-0.000117281
-0.00316803
0.000136098
-0.00316768
-0.00311311
-0.00102148
-0.00293254
9.17847e-05
-0.000120913
-0.00169402
-0.00156836
0.000355568
0.000194214
-0.000969242
-0.00271575
-0.00239697
-0.000333737
0.000211758
0.000179565
-0.00318964
-0.00297758
-0.00234044
-0.00284508
-0.00287038
-0.00319084
0.000186633
-0.00160513
8.48469e-05
0.000159557
-0.00108388
0.000121141
-0.00286508
0.000395762
0.000467135
0.000241844
-0.00308661
-0.00296816
0.00021068
-0.00245902
-0.000112798
-0.0025447
-0.00281263
0.000124007
-0.000221807
-0.00304432
-4.60081e-05
-0.00200456
0.000366426
-0.00306806
-0.00151731
-0.00279344
-0.00227337
-0.00287202
-0.00311735
3.66615e-05
-0.00195198
-0.000100777
7.57261e-05
-0.000175989
0.00029922
-0.00163463
-3.82426e-06
-0.00240578
-0.00311765
-0.000126785
0.000398862
0.000115081
0.000308761
0.000375927
-0.000273834
-0.000131694
0.000412333
-0.00208234
0.000483424
0.00028892
-0.00286211
-0.0016379
-0.000935928
-0.000684838
-0.00296547
-9.11437e-05
0.000253106
-0.000158504
-0.00313376
6.85543e-05
-0.00150657
-0.000195173
-0.000591842
5.01638e-05
-0.00127865
-2.12359e-05
-0.000996805
-0.00141767
0.000475743
-0.000392091
-1.21944e-05
-0.0031845
-0.000189983
-0.00299653
0.000170031
-0.00224509
-0.00318308
-0.000964976
-7.29661e-05
-0.00284615
-0.00203895
-0.000999563
0.000317005
0.000470703
-0.000268209
-0.000807354
-0.0019359
-0.00278464
0.000484561
-0.000293741
0.000363266
-0.000189548
-0.00144668
-0.00154417
-0.00127506
-0.000415137
-0.00248346
0.000404425
-8.4145e-05
-0.000246163
0.000463293
-4.63465e-05
-0.00295171
-0.00155433
0.000238857
-0.000198564
4.54366e-06
-0.00296085
-0.00282903
-0.000104559
-5.71952e-05
-0.00274229
0.000342605
0.000395931
-5.6178e-05
0.000233432
-0.000370427
2.01577e-05
-0.000131833
-0.001486
-0.00161502
0.00048983
0.000518099
0.0109918
-7.00755e-05
0.0002978
9.47258e-05
-9.91724e-05
-0.00129662
-0.00156041
-5.36158e-05
-0.00245612
-0.0029562
-0.00310576
0.000465795
-0.000155669
-0.00301056
-0.00012631
-5.16371e-05
5.41684e-05
0.000245447
-0.00102823
9.25543e-06
-0.000314002
0.000360353
-0.000330617
0.000494558
0.000416439
-0.000510093
0.000200936
0.000457829
0.000461847
-0.000395332
-2.49781e-05
-0.0015578
-1.5868e-05
0.00012543
-0.00222346
0.000139023
-0.000355105
-0.00256901
-0.000133692
-0.000731591
-0.00123279
-0.00179983
-0.000203968
-0.00300184
3.24912e-05
9.75907e-05
0.000250922
0.00048015
0.000255774
8.40123e-05
-0.000164211
0.000428119
-3.11958e-05
0.000469529
-0.00118285
0.000201673
0.000198143
0.000203471
0.000271909
0.00029765
0.000215356
-0.00012684
-0.000135646
-0.000174677
-9.2435e-05
-0.0029007
0.000139042
-0.00293044
-0.00307546
-0.00127364
0.000481575
0.000447973
-0.00280787
0.000448214
2.26303e-05
-0.00143466
0.000102522
1.88889e-05
0.000377164
-0.000403135
-0.000232167
-0.00142753
0.00039899
0.000218835
-0.00214846
0.00034701
-0.00142994
-0.000949372
0.000219062
-0.0011206
-0.000914782
0.000295039
-0.00320265
-0.00097846
-0.000506499
-0.00115015
-0.00105778
0.00015462
-0.00329414
-0.00233664
0.000179363
-0.000172091
-0.000772782
-0.000789627
-0.00118984
-0.000126491
-0.00198394
-0.000780951
-0.000391829
4.99061e-05
0.000382272
-0.00191662
8.79368e-05
-0.0005061
-0.00329244
-0.000696056
-0.00270509
-0.00336887
0.000329438
0.000176874
0.000198411
-0.000251386
0.000399934
0.000419023
-0.00249656
-0.00259849
-0.00111575
-0.000105141
-0.0030706
-0.00291459
6.85592e-05
3.83802e-05
-0.00153437
-3.91259e-05
-0.000259308
-0.00336878
-0.000512376
-0.00245036
0.000380195
-0.00245376
0.000194082
-1.31699e-05
0.000158136
-0.000644427
-0.00275633
-0.000971273
0.000227148
-0.00263719
-0.00272237
-0.00200952
7.77808e-05
-9.5683e-06
-0.00116059
-0.00299505
-0.00234815
-0.00311042
-0.00312316
-0.00300212
-0.00179459
-0.00111189
-0.0019201
0.00033156
4.8377e-05
-0.00243874
-0.00177578
-0.00239902
-0.00303779
-0.00250504
0.00011177
-0.000789456
-0.00110051
0.000398079
-9.47618e-05
0.000181839
-4.52772e-05
4.7185e-06
-0.00141071
0.000474657
-0.00303495
-0.00285803
-0.00226321
0.000477813
0.000319272
-0.00328814
-0.000195241
-0.00130602
8.65201e-05
0.000268698
-0.000155743
-0.000148871
0.000228905
-1.43212e-05
-0.00314962
-0.0020026
-0.00306652
5.89157e-05
2.835e-05
1.46271e-05
9.46017e-05
-0.000117653
0.000432479
0.000226811
0.00014374
0.000365173
-0.0030147
0.000193303
0.000326682
0.000178943
-0.000481079
0.000505856
-0.00315532
-0.00312136
6.211e-05
-0.00270685
-0.00308128
0.000115423
-0.0019716
-0.00188752
0.000278044
-0.000732552
3.4647e-05
0.000426163
-3.24748e-06
-0.0015403
-8.88914e-08
-0.00323194
-0.00151601
-0.000929266
-0.00247554
-0.00111352
-0.000806338
-0.00297987
-0.00291346
-0.000331213
-0.000134329
-0.00292299
-0.00231031
-4.66447e-05
-0.00236742
-0.00322142
-0.0029657
-0.00256145
-0.00199794
-0.00279776
-0.00330634
0.000337885
-0.00214948
8.50844e-05
-0.00179812
-0.0030011
-0.00313249
0.000124279
-0.00293272
-0.00137137
-0.00227532
-0.000603601
0.000472572
6.10394e-05
-0.000511729
-0.000679541
-0.00226497
0.000111262
-0.00264315
6.19112e-05
-0.000477304
7.07196e-05
0.000281577
-0.00330832
-0.00293694
0.000133618
4.49449e-05
-0.00278976
-3.30515e-05
-0.00146277
0.000145337
-0.00316353
-0.00151919
-0.00315645
-0.000895711
-0.000681779
-6.2128e-05
-0.000230749
0.000368004
-0.00314578
-0.00101742
-0.002653
-0.000123685
-2.9144e-05
-0.00233693
3.77018e-05
-0.00315083
0.000226761
-0.00332291
3.64034e-05
0.000150081
-0.00297011
-0.00271286
0.000184313
-0.00043874
-0.00323073
-0.00316281
-0.000962182
-0.00170385
-0.000159972
7.07042e-05
0.000208687
-0.000535404
-0.00142194
-0.00122112
-0.000108732
0.000155786
0.000216218
0.00019881
0.00021817
-0.00315624
0.000568181
-0.00203001
-0.000187405
-0.00323164
-0.000752279
0.000207383
-0.00304612
-0.00133295
0.000137161
-0.00285097
-0.000290948
-0.00300614
-0.0032009
0.000254396
0.000133181
-0.00114322
-0.000794054
-0.00312123
-0.00292125
-0.000461324
-0.00154485
-0.000130275
-0.000744567
-0.000222861
-0.00280317
-0.0023348
-0.00249685
-0.00234053
0.000372674
-0.00296027
-0.00277022
0.000422612
-0.00193373
-0.00297369
0.000391382
-0.000286863
-0.00249652
0.000442001
-0.00034429
0.000495301
-0.00119194
-0.00215023
-0.00214447
0.000371199
0.000299365
-0.00286621
-0.000701399
-0.00075957
0.000187107
0.0003981
6.57576e-05
2.42183e-05
-0.00245891
0.000391302
8.19828e-05
0.000362213
0.000437382
-8.94987e-05
6.25811e-05
-0.000728909
0.000103068
0.000237484
0.000305863
0.000449955
0.000435623
-4.84333e-05
-0.00285242
9.68177e-05
0.000328751
-0.000647927
-0.00230515
0.00025549
-0.000167295
-0.00304256
-0.000101933
-1.25878e-05
0.000345029
-0.000151665
0.000435545
0.000452509
0.000415575
0.000223494
-0.00112279
-0.000328751
-0.00241691
0.000306147
-0.000326182
-1.65741e-05
-0.000580348
-0.00117991
-0.00216212
0.000201372
-0.000378973
-0.00138343
-0.00143998
-0.00031817
-0.000159949
0.000411474
-0.00094762
-0.00302676
0.000165678
-0.00297014
0.00341936
-0.00135486
-0.000807643
0.00331791
0.000544074
-0.00134728
-0.000410302
-0.0020702
0.00353762
0.000117566
3.37236e-05
-0.00292772
-0.000107479
0.00336269
-0.00137106
-5.40698e-05
0.000542316
0.000385729
-0.00110477
-7.90604e-05
-0.00013018
-0.0013772
-6.39738e-05
-0.00220057
5.57207e-05
-7.21303e-05
-7.64529e-05
-4.30949e-05
0.000483295
9.74383e-05
-0.00117363
-3.0633e-05
0.000171227
0.000199743
-0.00120392
1.67351e-05
0.000135001
-0.00171896
-0.00134688
0.000363937
0.000467836
0.000100607
-0.000681468
-0.00137936
-0.00122775
-0.00108802
0.000155006
0.000445378
0.000475298
0.000279866
-0.00114032
0.00014423
-0.000664943
0.000429574
0.000304848
1.02193e-05
0.000336556
-0.00105651
8.09351e-05
-0.00174485
-7.40461e-05
6.69107e-05
-0.00100819
0.000175062
0.000114416
0.000334596
-0.00267235
0.000119387
-0.00292977
0.000134486
0.000250874
-0.00310061
0.000175082
4.03908e-05
0.000337487
-0.000273694
-0.00305581
-0.00282785
7.58735e-05
0.000156158
-0.00318471
0.000156196
0.000357124
0.000180486
-0.00318362
-0.00286415
-0.000721017
0.0002772
-0.00107458
0.000365254
0.000452429
0.000290757
-0.00299641
-0.000103823
0.000513078
0.000466117
-0.000784439
-0.000721425
-0.000115913
0.000483148
-0.00310425
1.26506e-06
0.000191646
-0.00227509
-0.000151685
-0.00260582
-5.88307e-06
3.02641e-05
0.000245986
0.000424985
0.000305027
7.59658e-05
-0.000349349
6.70793e-06
0.000104919
4.57972e-05
-5.82688e-05
-0.00280479
0.00023528
0.000107321
-0.00307892
0.0001905
3.03987e-05
-0.00180595
-0.00175862
0.000172749
-0.00112334
-0.00295653
-0.00119656
-7.96495e-05
-0.00100725
-0.000132612
0.000475269
0.000268718
0.000468816
0.000222646
-7.98974e-05
0.000231174
0.000435805
-0.000240109
-0.000987479
0.000141496
-0.000186392
-0.00137959
-0.000197465
-0.000752468
-0.00165283
-0.00115207
-0.00168321
-0.000125259
-2.92003e-05
-0.00154278
-0.00324423
-0.000542272
-0.00145558
-0.000128545
-0.000748068
-0.000152598
0.000448275
-0.00157388
0.000362292
-0.00100698
-0.00219435
-0.00279639
0.000362866
0.000345513
-0.00315788
-0.00212862
-2.03722e-05
-0.00329739
-0.00034916
-0.00141208
0.000453898
0.000467306
1.63659e-05
0.000297822
-7.83026e-05
0.000134669
0.000479428
-0.00309322
-0.00336354
0.000476863
0.000487646
-0.00336624
-0.000109025
-0.00322364
0.000467549
-0.000602659
0.000364658
-0.000248046
-0.0030387
0.000496194
-0.00299332
0.000245567
9.28605e-05
-0.00318177
-0.00215501
0.000192451
-0.000741089
-0.00304351
0.000314707
0.000489411
-0.00324643
0.000321893
0.000407285
-0.00296798
0.000187188
0.000488475
-0.00145303
0.000185155
-0.000542929
0.0001843
-0.000644312
0.000218571
-0.00230594
-4.03701e-05
-0.00015293
-9.25663e-05
-0.00310006
-0.00023701
-0.0023071
-0.00179475
-0.00295753
-0.00206953
-1.6856e-05
0.000265289
-0.002979
-0.00249464
0.000106069
-0.00310696
-0.00128138
-0.00241779
-0.00262589
-0.00289016
-0.00119938
-0.00281875
0.00035746
-0.00126037
0.000288686
-0.00316828
5.77984e-05
-0.000158363
-0.00150648
-0.00297177
-0.000223968
-0.000283554
-0.00103159
-0.000316729
-0.000174183
-0.00293748
-0.00307732
-0.00148248
-0.000519458
0.000160865
-0.00192274
-0.00301599
0.000201987
-0.00173704
-6.97404e-05
-0.00135853
0.000344676
-0.00218278
0.000303946
2.87186e-06
-0.00178144
-0.00315836
0.000480142
-3.58381e-05
-0.00293324
-0.001104
-0.00297724
0.000334679
-0.00017896
-0.00279491
0.000462851
-0.00246138
-0.000109048
-0.00152787
-5.0691e-05
-0.00293489
-0.000348286
0.000326536
-0.00310561
-0.00182603
0.000333961
0.000334158
-0.00284126
-0.000468789
0.000318851
-3.01149e-05
-0.00200001
0.000443043
-0.00064425
-0.00234982
0.000140177
-0.00296539
4.532e-05
-0.00123373
-0.0023155
-0.00207056
0.0001587
4.78155e-05
-0.000704168
-0.00259763
-0.001492
-0.0018615