/*--------------------------------*- C++ -*----------------------------------*\
| =========                 |                                                 |
| \\      /  F ield         | OpenFOAM: The Open Source CFD Toolbox           |
|  \\    /   O peration     | Version:  v2012                                 |
|   \\  /    A nd           | Website:  www.openfoam.com                      |
|    \\/     M anipulation  |                                                 |
\*---------------------------------------------------------------------------*/
FoamFile
{
    version     2.0;
    format      ascii;
    class       volScalarField;
    location    "3.5";
    object      alphat;
}
// * * * * * * * * * * * * * * * * * * * * * * * * * * * * * * * * * * * * * //

dimensions      [1 -1 -1 0 0 0 0];


internalField   nonuniform List<scalar> 
108993
(
0.00010613
9.79603e-05
8.4595e-05
0.000109704
0.000107163
5.68948e-05
9.56383e-05
8.45336e-05
0.000106992
9.83523e-05
0.000112763
0.000111651
8.89221e-05
8.85433e-05
9.4457e-05
8.05808e-05
8.86695e-05
9.5593e-05
9.02299e-05
9.6083e-05
9.21524e-05
0.000104394
8.46787e-05
0.000107545
0.000106573
9.56091e-05
0.000106248
0.000102919
0.000115413
6.69947e-05
0.000118679
0.000110574
0.000125322
0.00010933
0.000255902
0.000107222
9.6311e-05
0.000112176
0.00314577
0.00208443
0.000121517
0.000114788
9.74077e-05
0.00015526
9.64856e-05
0.00273044
0.000125529
0.000138714
0.000127323
0.000105108
0.000109509
0.000145877
0.000100252
0.000104699
0.000109998
0.00011363
0.000104885
9.98942e-05
8.33994e-05
0.000116221
0.000102613
0.000104789
0.000101074
9.0107e-05
0.000106166
0.000115621
9.91755e-05
0.000111097
0.000120461
0.000146953
9.90279e-05
9.60279e-05
0.000105745
0.000102908
9.36638e-05
0.000113891
8.98961e-05
0.000123075
0.000113437
0.000104996
9.65186e-05
9.15066e-05
8.87488e-05
9.99078e-05
0.000114906
9.53531e-05
0.000115438
9.25873e-05
9.77406e-05
0.00011495
0.000100062
8.5737e-05
0.000112679
8.64973e-05
0.000108668
0.0001054
8.48915e-05
7.35278e-05
8.32312e-05
8.92325e-05
0.000109657
0.000124988
0.000120078
0.000114805
7.95705e-05
0.00011542
0.000114778
0.000220304
0.00011429
0.00306749
9.51743e-05
0.000101027
0.000189427
0.000105216
0.000105709
0.00138304
9.08254e-05
8.45695e-05
0.000125058
0.00010258
0.00010011
9.61175e-05
0.00106293
6.80237e-05
0.000102999
0.000101955
0.000106372
9.1905e-05
8.84348e-05
0.000116438
9.30603e-05
0.000113083
0.000117169
0.00039811
0.000101949
8.5381e-05
9.70334e-05
9.03043e-05
9.01739e-05
9.6789e-05
8.79858e-05
8.35229e-05
0.000126146
9.92211e-05
0.000109732
0.000105832
8.42988e-05
0.00700511
9.70638e-05
0.000309177
0.000284195
8.29671e-05
8.3731e-05
0.000315986
0.000103643
9.94229e-05
0.000122264
0.000113049
0.000255872
0.000628269
0.000315215
0.000142291
0.000116975
9.67104e-05
9.76934e-05
0.000114098
9.84631e-05
8.72424e-05
8.68188e-05
0.000118404
0.000109149
0.000108568
0.00012523
9.18722e-05
0.000103832
9.60496e-05
0.00097481
9.05026e-05
0.000110488
9.18694e-05
9.14589e-05
8.51282e-05
0.000108459
3.04113e-05
0.000120493
0.000104677
0.000109275
0.000104499
0.000104375
3.44265e-05
0.000104385
0.000117242
9.06407e-05
0.000149129
0.000110933
9.88677e-05
0.00011717
0.000105816
0.000113198
3.85158e-05
0.00011064
0.000172766
9.97154e-05
9.35842e-05
0.000113175
0.00218864
9.42855e-05
0.00236577
9.91593e-05
0.00204666
0.000181544
0.000105629
0.000666982
0.00361071
0.00409857
7.13754e-05
9.133e-05
0.000103061
0.000103786
0.000127203
0.00010312
0.000261663
0.000171317
0.000296765
9.25124e-05
7.9064e-05
0.000102231
0.000115045
0.000289075
8.39618e-05
0.00362211
0.000104468
8.61415e-05
8.79023e-05
9.56351e-05
8.2123e-05
0.000108767
9.49984e-05
0.00325253
0.000104106
7.2348e-05
0.000109863
6.64898e-05
0.000111387
0.000120299
0.000100443
0.00438602
0.000457453
0.000115176
0.00011422
9.5981e-05
0.000107592
9.86766e-05
0.000109571
0.000109701
0.000116794
0.000106821
9.96929e-05
0.000120858
6.60002e-05
0.000102398
9.66673e-05
0.000115603
8.58739e-05
0.000213853
0.000102039
0.000113859
0.000120418
6.5557e-05
0.000100146
7.25325e-05
8.47987e-05
0.00400125
0.00243666
0.00702595
9.59705e-05
0.000110301
0.0011028
0.000113371
0.000101479
0.000109282
0.002932
0.00211422
9.26574e-05
0.000108706
0.000103616
8.01971e-05
0.000110013
0.000117658
0.00260994
9.9119e-05
8.55548e-05
0.000113916
0.00010797
0.000104354
8.49399e-05
0.00011898
0.000100282
0.000128739
5.86506e-05
0.00137948
0.000802611
0.000110824
7.97484e-05
0.000105936
8.38588e-05
7.89851e-05
8.92095e-05
7.75926e-05
0.00443271
0.000111515
0.000111501
8.80137e-05
9.69384e-05
0.000113044
0.000226616
7.81855e-05
9.1538e-05
0.00553449
0.00012111
9.60998e-05
7.44453e-05
7.37026e-05
8.05306e-05
8.17898e-05
0.00103922
0.00256141
0.000473609
9.53662e-05
0.000116835
0.000124551
0.000743217
0.000841628
9.80264e-05
0.00646234
0.000103662
0.000103316
0.000107915
0.000105616
9.32497e-05
9.91096e-05
0.000480899
9.36042e-05
0.000109034
9.35659e-05
9.74326e-05
9.17785e-05
9.14132e-05
9.00051e-05
8.78588e-05
0.000106567
7.03195e-05
0.00245879
0.0011183
9.77641e-05
0.000101158
9.16078e-05
0.00215222
9.96944e-05
5.82418e-05
0.00012483
9.25886e-05
8.32788e-05
9.67861e-05
0.000106647
0.000111777
0.000109636
9.19251e-05
0.000102632
0.00227084
8.56636e-05
0.000109783
8.89842e-05
0.000275804
0.000127212
0.00193587
0.000113877
0.000138651
0.00232599
0.000109392
0.00174954
0.000903262
0.00011473
9.04449e-05
9.75473e-05
6.76116e-05
9.34504e-05
0.00505857
9.64075e-05
0.00295875
0.00380705
7.15167e-05
0.00178083
8.84403e-05
0.00219889
0.000142765
0.000878436
0.00010367
9.6316e-05
0.000100847
0.000139717
0.00347945
0.00280889
0.000103483
0.000107546
7.57148e-05
9.16212e-05
6.33656e-05
9.50506e-05
0.00255255
9.42543e-05
9.14024e-05
0.00332099
9.06922e-05
0.00010456
0.000115213
0.000675174
0.000104196
0.00155653
9.65506e-05
0.00192204
9.90588e-05
0.000505578
7.80027e-05
0.00011059
0.00131316
0.000108087
0.000316447
0.00203745
6.68555e-05
0.000882603
0.00528144
0.000828746
9.90002e-05
9.48819e-05
0.000103172
9.82643e-05
0.000106979
0.000114589
9.14984e-05
9.67379e-05
9.50148e-05
0.000118171
6.80798e-05
0.00320205
0.000115662
9.02616e-05
0.000122439
9.66432e-05
7.42224e-05
9.96048e-05
0.000102207
0.000111686
0.00013297
0.000123938
0.000100433
0.000100591
9.6343e-05
0.000122179
8.92816e-05
0.00133154
0.000100144
0.00142464
0.000295223
0.000101293
7.66747e-05
9.0458e-05
0.00131845
7.22257e-05
8.92573e-05
0.000216577
0.000108119
0.000108479
9.74633e-05
0.000120153
0.000114218
8.5697e-05
0.000142851
0.00117202
0.000113816
9.14004e-05
0.000120059
0.000114857
0.000108959
0.000175993
9.04158e-05
8.84871e-05
8.59019e-05
0.000111096
0.000116188
0.000101598
0.000111955
0.000109901
9.08176e-05
9.95117e-05
6.907e-05
0.000165436
0.000109684
7.73855e-05
9.89351e-05
8.7051e-05
0.000102077
7.96159e-05
0.000102286
0.000111798
0.000495895
9.69107e-05
8.82446e-05
0.0039373
9.98733e-05
0.000109905
9.56912e-05
0.000109913
0.000116416
0.000101108
0.000104344
8.60703e-05
0.000100701
0.000118509
0.000122814
0.000200468
0.000234341
0.000105183
0.000107859
0.000118197
0.000132374
9.83032e-05
0.00010704
0.000120733
0.000115621
8.75348e-05
9.42734e-05
0.000106048
9.28454e-05
0.000106923
0.000116443
9.33707e-05
0.000107269
0.000112342
0.00177396
9.14812e-05
0.00429871
9.94389e-05
0.000116412
0.000115795
9.77597e-05
8.05358e-05
0.000121924
0.000113967
7.99585e-05
0.00141917
8.48684e-05
0.00556184
0.000123214
0.000113237
9.20511e-05
0.000111482
0.000118398
0.00232402
8.64839e-05
0.000106036
0.000102849
9.64522e-05
0.000108818
0.000862908
0.0033737
0.00010755
8.4799e-05
0.000136066
0.000113224
0.000107456
7.7364e-05
0.000741605
0.000515965
0.000558713
0.000102269
0.000119842
0.00160841
0.00248567
0.000124792
0.000116691
9.32122e-05
0.000117798
0.000127284
0.000107841
9.31268e-05
0.00460387
0.00101924
0.000114728
7.37683e-05
0.000122148
7.60614e-05
9.89167e-05
9.97135e-05
0.00244979
9.26383e-05
0.000126176
8.24465e-05
0.000118877
0.000104426
0.00010615
0.000115867
0.00471059
8.98344e-05
8.70999e-05
7.59004e-05
0.00297698
9.30636e-05
0.000100087
0.000107161
0.000401651
0.000106513
0.000187053
9.81656e-05
0.000126306
9.7166e-05
0.000109737
9.60332e-05
0.00385555
8.92755e-05
0.000133471
0.000100679
0.000108073
0.00263574
0.000115731
0.000114466
0.000122773
0.000159921
0.00318894
0.00010569
0.000570223
0.000100215
0.000200038
0.000395945
9.8458e-05
8.61017e-05
7.69245e-05
0.00430823
9.97012e-05
0.000112256
9.58414e-05
0.000110741
9.76495e-05
9.09135e-05
8.5595e-05
9.24169e-05
0.000101632
0.000128033
9.35703e-05
9.82318e-05
0.000104689
8.87666e-05
0.0070797
0.00159564
0.000163339
0.000111933
0.000269263
0.00163428
0.00228348
0.00210309
0.00121437
0.000103019
7.77589e-05
9.88184e-05
8.89394e-05
0.000166495
8.23823e-05
0.000113284
0.00502162
0.00191006
0.000121472
0.000123941
0.000119342
0.00241458
0.00238852
0.000121856
0.000148599
7.42097e-05
0.000103127
0.00373686
9.53879e-05
0.00461029
0.000102299
0.000105926
0.00275609
0.000141167
0.00326775
0.000167697
6.79496e-05
0.000900606
0.000112704
0.000100807
0.000125682
8.22507e-05
0.000112935
0.00118883
0.000146779
0.00305409
8.09505e-05
0.00132935
0.000158298
0.000105749
5.8883e-05
6.58035e-05
0.000129119
6.8699e-05
0.00010764
8.83811e-05
0.000106903
8.97609e-05
0.00010538
0.00179216
0.0060634
0.000113011
0.00186141
7.97015e-05
0.000155693
0.00011047
7.5658e-05
0.000111155
0.000117668
0.000107691
0.000136451
8.89272e-05
9.00127e-05
0.000107291
0.000119514
8.30153e-05
0.00019182
0.000108389
0.000101631
0.000103435
8.28319e-05
9.13978e-05
0.000109458
8.13499e-05
0.000255149
8.36787e-05
0.000106741
0.000125121
9.11423e-05
7.76433e-05
0.00409863
0.0014768
0.000112516
0.000116462
0.000123706
0.000134492
0.00010972
0.000148827
0.000110852
7.44897e-05
8.64211e-05
0.000128294
7.7072e-05
9.36154e-05
8.06303e-05
0.000120919
0.000127005
9.32875e-05
0.000104834
9.81128e-05
0.000133049
9.88932e-05
0.000127271
0.000112315
0.000115524
0.00168495
0.000111475
0.000107077
9.32921e-05
0.000732522
0.000106088
0.000462032
0.000235424
0.000124514
9.97434e-05
0.00127512
0.00253232
9.34998e-05
7.51631e-05
0.000474911
0.000108212
9.84497e-05
0.00010086
0.000155222
0.000105064
8.02929e-05
0.000106802
0.000456397
0.000101927
0.0032475
0.000100241
9.87532e-05
0.0044211
0.000129298
0.00258456
0.000114008
0.00192652
0.000111973
9.20948e-05
9.39115e-05
0.000113636
9.86568e-05
0.000107628
0.000111869
0.000107224
9.73784e-05
8.62431e-05
9.04099e-05
0.000111883
0.000104249
0.000104216
0.000112494
8.29653e-05
0.000795815
8.07416e-05
0.000101207
8.59618e-05
8.04671e-05
0.00152517
8.8213e-05
0.000100197
0.000108237
0.0010302
9.70576e-05
8.43815e-05
0.000159419
8.57721e-05
0.000125251
0.000113934
0.00308926
0.000102683
0.000129548
9.59033e-05
8.60248e-05
0.000108152
0.000434153
0.00488464
0.000132067
8.17631e-05
0.000117154
0.000104857
0.000127754
0.000103112
8.8966e-05
0.000100296
0.000111668
0.00181591
0.000104117
0.00155122
0.000105164
0.00244295
0.000109424
0.000106072
5.98804e-05
0.000104335
0.000103312
0.00013067
6.11388e-05
6.94603e-05
0.000468346
0.000101454
0.00313327
9.52447e-05
0.000111649
0.000100857
8.08846e-05
0.000113263
0.000111454
8.63935e-05
9.4433e-05
8.96484e-05
0.00289316
9.64402e-05
0.000101345
0.000112474
0.000538367
9.4484e-05
0.000158169
0.00274091
0.00306831
8.60587e-05
0.000105094
0.000107185
0.000684959
9.72256e-05
0.000929694
0.00469369
0.0048472
0.000100042
9.62216e-05
0.000155879
9.30305e-05
0.000131127
8.99851e-05
9.69894e-05
0.000106222
0.000174128
0.000129646
0.000160978
9.63502e-05
9.33611e-05
0.000596342
0.000116179
0.000102715
0.00107416
0.00248955
8.14847e-05
0.000114032
0.000101175
0.000105308
0.000136671
0.000136387
0.000694238
8.35608e-05
0.000839885
0.000129941
0.000120972
0.000107945
8.02487e-05
0.000113905
9.39136e-05
0.000115488
0.000141376
0.000116528
8.00353e-05
0.000147084
0.000100741
7.39341e-05
0.000123425
8.13099e-05
8.63311e-05
0.000112008
0.000133242
8.81837e-05
9.43032e-05
0.000511186
0.000109202
0.00320289
8.96645e-05
9.5435e-05
9.39634e-05
0.000126436
0.000112495
8.28296e-05
7.44845e-05
0.000514872
0.000117101
0.000166411
0.000103946
0.00010839
7.04074e-05
0.00126286
9.42511e-05
0.000345059
0.00466984
9.58074e-05
8.57908e-05
0.00010775
9.18367e-05
9.15328e-05
0.00547207
0.000119926
0.00012883
0.000157261
0.000111554
0.000105894
0.000100029
9.55008e-05
0.00012981
0.000298767
7.45113e-05
9.99178e-05
7.7363e-05
0.000215734
9.51071e-05
0.000107737
0.000108954
0.000203762
9.07448e-05
8.89979e-05
9.21353e-05
7.80603e-05
9.44777e-05
0.00010504
0.000104888
0.000177885
0.000114738
0.000104171
8.89046e-05
0.000112804
0.00261866
8.4199e-05
8.98379e-05
9.27146e-05
9.59243e-05
7.54104e-05
0.00365049
0.000216475
0.000120782
8.37992e-05
9.54904e-05
0.000116829
0.00016149
0.000138356
9.87299e-05
8.90988e-05
0.00219477
9.05445e-05
0.000240374
0.000125165
0.00159247
5.43504e-05
0.000103799
0.000104091
9.08372e-05
0.000102544
0.000103566
7.27033e-05
7.59252e-05
9.36076e-05
9.94132e-05
0.000435326
0.000112381
0.000115505
0.00017158
9.73634e-05
0.000122529
0.000129506
0.000116978
0.000112395
0.000109577
0.000111415
0.000120419
0.000149382
0.000108311
0.000125855
0.000114912
0.00365621
8.39956e-05
0.000109513
0.000105166
0.000197235
0.000122237
9.97479e-05
0.00329927
0.000112208
0.000136649
9.26783e-05
0.00212957
9.40802e-05
0.000114321
0.000103302
0.00230187
0.000103308
0.000100196
9.0309e-05
7.50933e-05
0.000125346
0.00264868
0.000108587
9.9585e-05
0.000122169
0.000128101
0.000145288
9.37259e-05
0.000104887
0.0001415
0.000415888
0.000123233
0.000496217
0.000159608
0.000136786
0.000123639
7.69823e-05
6.45537e-05
9.62627e-05
8.06363e-05
9.28793e-05
0.000110233
0.00158115
8.35854e-05
0.00434435
0.000110828
0.000111456
8.30092e-05
0.000114637
0.000199632
8.37302e-05
0.000101116
0.000113301
0.000109618
6.80234e-05
0.000129554
0.00187912
0.000115553
0.000102825
0.000506857
0.000102722
0.000148043
0.000132696
0.000168077
0.000116062
0.000119453
0.000786582
7.93281e-05
8.66771e-05
0.000112146
8.21415e-05
0.000116147
9.6151e-05
6.35651e-05
0.000230286
0.00011848
0.000138871
7.57666e-05
0.000105215
0.000117967
9.51995e-05
9.32851e-05
0.000100179
6.7438e-05
9.19025e-05
0.000307158
0.000110262
0.00233806
9.10425e-05
0.000108411
0.00578628
9.99443e-05
9.81368e-05
9.78394e-05
0.00010786
9.32752e-05
0.000110483
6.97987e-05
0.000103772
0.000119187
0.000128972
0.000109193
0.00011192
0.00010844
7.47591e-05
0.0001068
0.000124488
0.00211138
0.00193807
0.000108907
0.000104516
0.000110776
0.000122561
8.58523e-05
0.000100613
0.000555905
9.84661e-05
8.84119e-05
6.59483e-05
0.000112273
7.46533e-05
8.85468e-05
0.000124532
0.000111842
0.000549668
9.18527e-05
9.49633e-05
9.64584e-05
0.00270342
0.000120766
9.81822e-05
6.94575e-05
8.29225e-05
0.000191433
0.000111678
0.000171949
7.4179e-05
7.12964e-05
7.56958e-05
0.0012117
0.000117463
9.74695e-05
0.000194262
0.000123731
0.000390648
0.000201097
8.86913e-05
0.000106686
7.52371e-05
8.99718e-05
7.50048e-05
0.000121803
9.53891e-05
0.000238852
0.00138289
0.000134821
0.000100156
9.52226e-05
0.000156564
7.58429e-05
0.000108819
6.85281e-05
8.7172e-05
9.68566e-05
0.000681925
0.000181222
0.000680048
0.000109162
8.62552e-05
0.000104016
0.000158176
0.000107211
9.9559e-05
9.40956e-05
5.1418e-05
0.000110026
0.00286534
0.000530202
9.22968e-05
0.000965213
0.000106994
9.83967e-05
0.000100231
0.00011821
0.000129155
0.00117886
0.000110692
8.91525e-05
0.000108128
0.00559999
0.000131158
9.91394e-05
9.46746e-05
0.000126286
0.000336948
0.00192579
0.000128875
0.000120642
0.00010322
0.000101793
0.000100816
0.000130778
0.000120554
0.000121238
0.000109941
0.00144183
0.000107341
9.58121e-05
0.00576899
8.69328e-05
0.000107821
0.000113021
0.000111105
0.00207504
0.000109061
0.000104384
7.11203e-05
0.00133203
0.000107877
0.000107912
9.89928e-05
0.00011363
0.000112691
0.00286383
0.00419335
0.00371338
0.000182457
0.00479231
0.000116503
0.0029634
0.00349885
6.86572e-05
7.60572e-05
9.65826e-05
9.12162e-05
0.000119495
0.0001094
9.05544e-05
8.35587e-05
9.13422e-05
0.000100098
9.53074e-05
0.000125123
0.000118723
0.000123808
0.000314578
0.000124848
0.000328885
0.000202398
0.000103683
0.000105997
0.00102299
0.000167641
0.00254897
0.000100094
0.000106623
9.13883e-05
0.000102598
0.000104335
0.000102088
8.18552e-05
0.000100824
0.000289146
0.000103227
0.000114001
0.000175915
0.00012986
0.000482641
0.000116057
0.00010567
0.000129909
9.63605e-05
0.000104993
0.000115428
0.000101884
8.17572e-05
0.000102316
0.000114217
9.50915e-05
9.99954e-05
0.000123403
7.80476e-05
9.80227e-05
0.000101273
0.000328001
0.000135041
0.000525486
0.00233414
0.000106999
0.00118195
9.79556e-05
0.000112964
0.000104413
8.51709e-05
0.000110884
0.00583771
0.000810185
0.000199838
9.40073e-05
0.00350753
0.000153573
0.000100535
0.000112211
0.000105473
0.000120252
0.000121044
0.000129257
0.000252869
0.00011646
0.000100282
9.03846e-05
0.000111807
0.000104821
0.000216744
0.000196845
0.00426655
0.0051997
0.000122854
0.000107316
0.000406985
9.56163e-05
8.06549e-05
0.000112513
0.000116031
0.000101702
0.000104943
8.92816e-05
0.000127171
0.000110765
0.00161313
9.69295e-05
9.49035e-05
0.000154344
0.000206121
8.86629e-05
0.000116641
0.000661657
9.23904e-05
0.000101215
0.000114923
9.62785e-05
8.42891e-05
8.94947e-05
0.000112149
9.52781e-05
0.000123114
0.00299705
0.000137564
0.000123566
0.00212406
7.49284e-05
0.000104431
0.00306255
7.88842e-05
9.93438e-05
8.38377e-05
0.000134192
0.00387389
0.00011518
0.000105772
0.000819202
9.09793e-05
0.0039101
8.32678e-05
0.00272612
7.76857e-05
6.29602e-05
0.00526598
0.000110805
7.11814e-05
0.00212887
0.000105867
0.000107636
0.000104191
6.67736e-05
0.000110622
0.000118293
0.00277852
0.000101677
9.23877e-05
0.000929264
9.25539e-05
0.00065866
0.00326001
0.000424581
0.000115264
0.00387482
8.92249e-05
0.00121932
0.000120471
9.05787e-05
9.22384e-05
8.62912e-05
9.64978e-05
0.000113573
0.000103625
8.35314e-05
0.00100531
0.00183429
0.000157517
0.000160663
7.73722e-05
9.30768e-05
0.000100208
7.67438e-05
8.78524e-05
0.000116473
0.00274595
0.000615225
0.00011835
9.26245e-05
0.000126277
0.000111736
0.000124139
9.23016e-05
9.18821e-05
9.6941e-05
9.73069e-05
0.000100598
0.000101751
0.00357063
9.51833e-05
0.000875028
0.000560214
0.000109862
9.44216e-05
0.00245555
9.10509e-05
9.42978e-05
8.94601e-05
0.001143
0.00146456
0.00315682
0.00103354
9.63658e-05
0.000111513
0.00320843
9.9684e-05
0.000251066
0.000105985
8.6135e-05
0.000100294
9.81289e-05
0.00017271
0.000102529
0.000275773
0.00164392
0.00011549
0.000265148
0.000176165
9.66082e-05
9.10257e-05
0.000149888
0.000114271
0.000109355
0.000119659
9.00895e-05
9.77929e-05
0.000103202
0.000129904
0.000121064
0.000108486
0.00114432
0.000396399
0.000614141
0.000114579
0.000117731
0.0076616
0.00135214
0.000112248
0.00210886
9.44835e-05
0.000118867
0.000175014
0.00163051
0.00506721
0.000792702
8.66303e-05
0.0023004
0.00435162
0.000784761
0.000100657
0.000153151
0.000410232
0.000110119
0.000348628
8.30961e-05
0.00385295
0.000127024
0.000158563
0.000636027
0.00153322
0.00055613
0.000101865
0.000803754
6.55446e-05
9.74808e-05
0.00360251
0.00473935
0.00453542
0.000128948
0.000104577
0.00546201
7.86905e-05
9.9694e-05
0.00157378
0.000119653
0.00251324
0.000137192
9.04647e-05
0.000102169
6.62825e-05
6.41053e-05
0.000150958
0.000886556
0.00225929
0.000858538
0.00290094
0.000100274
0.000268905
7.03178e-05
0.000104657
7.17195e-05
9.94869e-05
0.000109041
9.45074e-05
0.000121643
9.69056e-05
0.000103641
9.38601e-05
6.79187e-05
0.000118056
0.00260549
7.59751e-05
0.00015122
0.00262264
7.60541e-05
7.37322e-05
0.000900673
6.44062e-05
9.48054e-05
8.59534e-05
9.77563e-05
0.000122462
0.000103438
0.000394502
0.000530816
0.000152102
0.00139379
0.00170738
0.00022934
9.97816e-05
0.00101304
0.000328253
9.9809e-05
0.00207492
0.00012952
0.000164694
0.000107964
0.000291806
0.000109092
0.00048418
7.24351e-05
0.000120555
0.000101813
9.65848e-05
0.000851042
0.000107606
0.00151247
9.23205e-05
0.00202934
0.000381672
6.67252e-05
0.000173173
0.0033509
0.000455501
0.00158325
0.000466302
5.79438e-05
0.00142258
0.00530229
0.000109459
0.000122677
9.90216e-05
0.000109532
0.0013893
9.78697e-05
0.00155848
0.000462328
0.00236739
0.000613589
0.00350129
0.00293765
0.00173449
9.49106e-05
0.0033605
0.0037081
0.000120111
0.00216497
8.05859e-05
0.000141511
0.000760458
9.91581e-05
0.00229923
9.62975e-05
9.72015e-05
0.000104389
9.20214e-05
0.000635447
8.98725e-05
0.000110957
0.000102894
6.64395e-05
7.94841e-05
7.99048e-05
9.60494e-05
9.41147e-05
0.00364692
0.00277825
9.40043e-05
0.00178217
0.000152635
0.000106528
8.9065e-05
0.000636525
0.0024354
0.000165873
0.000123179
0.00237902
0.000749394
0.00520686
0.000289718
8.01034e-05
0.00448456
0.000114171
0.000100458
8.43307e-05
0.00314291
7.41155e-05
0.00211329
0.000230505
0.00016966
0.000687212
0.00313404
6.60628e-05
0.00183573
9.7424e-05
7.24598e-05
8.9188e-05
0.000117359
7.32e-05
9.79432e-05
8.99996e-05
0.000994058
0.00122827
0.00276715
7.66027e-05
0.00580504
8.98793e-05
0.00406937
0.000132276
0.000330559
0.000299642
0.000551675
8.68974e-05
0.000179284
0.000102483
9.89144e-05
0.000121732
0.000116715
0.000250737
0.000137952
9.82797e-05
0.00272913
0.00108378
9.9066e-05
0.00299291
0.00405533
0.00285499
0.00177685
0.000100866
0.000382887
0.00091757
0.000101488
7.92465e-05
0.000491442
0.00699092
8.10298e-05
9.62562e-05
8.0968e-05
0.000119054
8.39387e-05
0.00125967
0.00106884
0.00113866
0.00167501
0.000107967
0.00223626
0.000125037
9.1051e-05
0.00010024
6.9057e-05
7.1353e-05
0.00183079
0.000157204
9.1944e-05
0.00131691
0.000113509
0.00011429
7.1357e-05
0.000124764
0.000191332
0.000111057
0.000533733
8.51733e-05
0.000104703
0.000654181
0.000299274
0.00314086
9.53151e-05
0.000125086
9.80071e-05
0.000107136
0.000105791
0.000111022
0.000721939
0.00624831
0.000108648
9.64227e-05
0.0052228
0.000100568
9.73497e-05
9.80414e-05
0.000102147
0.00081153
0.00293686
0.00399886
0.000447893
0.0019247
0.000105538
0.00145184
0.00010474
0.00622144
0.00280146
0.000106212
0.00420226
9.99943e-05
0.000106577
0.00329506
0.000115698
9.51869e-05
0.00237335
0.00507958
0.00422965
0.00388307
0.000100534
0.000563402
0.00255351
0.00653744
0.000110984
0.000129117
0.00204293
0.00436973
0.00195625
0.00165622
0.000122187
0.000103875
0.000464459
0.00489285
0.000207585
0.000818031
0.000133999
0.00308649
0.000106851
0.000126129
0.00280634
0.0048032
0.000346318
0.000207
0.000350372
0.000419213
0.00401702
0.000105057
0.00135264
0.000103431
0.00455471
0.000107104
0.00119183
0.00129235
9.98167e-05
0.00362174
9.62292e-05
0.00146901
0.0028532
9.02315e-05
0.000103736
0.00215433
9.9744e-05
9.57157e-05
0.000106465
5.59739e-05
0.00242873
0.000103651
0.00330745
0.00233566
0.000125287
8.26083e-05
0.00384244
0.000125789
6.54624e-05
0.0030309
6.36882e-05
8.47604e-05
0.000115121
0.00011162
0.000662858
0.000136479
0.00252164
0.000128877
0.000110276
0.00680814
0.000115326
0.00155045
0.00393815
0.000132692
6.50136e-05
0.000129682
0.000174816
0.00229795
7.81176e-05
9.33624e-05
7.19688e-05
0.000221647
0.000109389
0.00635724
0.00301535
0.000113384
9.20772e-05
0.00193364
0.00011041
9.85036e-05
7.40349e-05
0.00104903
9.0676e-05
0.00255617
0.00853532
9.9598e-05
0.000103621
0.000109222
7.79129e-05
0.0044987
7.70014e-05
0.000618495
0.000126242
0.000120358
0.000100759
0.000240177
9.54779e-05
0.000121096
9.72465e-05
0.00268738
9.68779e-05
7.43153e-05
9.19417e-05
0.000101816
9.20796e-05
0.00185915
0.002738
8.47065e-05
8.91431e-05
0.0062282
7.41585e-05
0.00151453
0.000134035
7.22773e-05
0.00356914
0.0043124
0.000438415
0.000111558
0.00011131
0.000117863
0.00737206
9.53983e-05
0.004549
8.57794e-05
0.00379031
0.00134244
9.16396e-05
0.00251055
0.0052359
0.00517505
0.00349866
0.00607842
9.39617e-05
0.000107017
8.11241e-05
0.000134313
0.000228352
0.000105357
0.00239476
9.9127e-05
0.000114926
9.81403e-05
0.000231198
0.00620576
0.00637186
0.000109735
9.41646e-05
0.00139566
8.21464e-05
0.00277899
0.000120064
8.92564e-05
9.52085e-05
0.00506305
0.00162478
0.00137942
0.000100404
0.000116034
0.000125214
0.00372383
9.35637e-05
0.00413656
8.10263e-05
9.18703e-05
0.00318602
0.0022942
7.57201e-05
0.00010668
0.00513653
9.55959e-05
0.00011082
0.000131311
0.00670396
9.23627e-05
0.000538999
8.79567e-05
0.00340502
0.0039351
0.000843868
0.000197895
9.21429e-05
0.000900747
0.000279009
0.00016763
0.00474291
0.00247113
0.00104216
0.000885812
0.000826065
0.000803221
7.51168e-05
0.00134667
0.00271777
0.00276587
8.90621e-05
0.000169833
0.0024727
7.88181e-05
0.000596903
0.000917104
0.000102171
0.00133011
7.52946e-05
0.00444249
0.00238691
0.00071321
0.00171442
0.00157609
9.89815e-05
7.88758e-05
0.000113879
0.000115665
0.00697731
9.61355e-05
0.000382707
0.0046974
8.67481e-05
8.94771e-05
8.40135e-05
9.93438e-05
6.87482e-05
0.000121339
0.000167069
0.000102
0.00417697
0.000100142
0.00239452
8.24941e-05
0.00022581
9.52474e-05
9.72704e-05
0.000425327
7.61407e-05
8.19033e-05
0.000124505
8.23502e-05
7.45747e-05
0.00312897
0.00346274
0.00140656
8.84154e-05
0.00010066
9.93986e-05
9.71278e-05
8.93248e-05
0.000116641
9.76023e-05
0.000117812
9.79074e-05
0.000100034
0.00472185
8.78711e-05
0.000102887
9.93052e-05
0.000105401
0.000134197
0.000134114
9.83342e-05
9.8856e-05
0.000113313
0.00489404
9.13539e-05
0.00151883
0.000149038
0.000106104
0.000248646
0.000280816
0.000126767
0.000118779
0.00011497
0.000111082
0.000107477
9.33553e-05
0.000106554
9.27012e-05
0.00012652
0.000115343
0.000105942
9.11182e-05
0.000218905
0.000117578
0.000239833
0.000108861
9.29154e-05
0.000105385
0.000111145
0.00010826
0.000311549
0.000154455
0.000128247
8.88127e-05
8.92851e-05
0.0012635
0.00155695
0.000106764
0.00251233
0.00171249
8.51199e-05
8.64426e-05
0.00015552
0.000108604
0.00137991
9.54225e-05
0.000119374
0.000123873
0.000108328
0.00119451
9.35534e-05
9.98335e-05
0.000109496
8.36936e-05
0.000137984
8.49211e-05
9.49311e-05
0.000110239
6.97619e-05
0.000291208
7.88509e-05
8.00801e-05
0.00011015
7.59845e-05
0.000104153
0.00058343
0.000124333
0.000144324
0.00355482
0.00285374
0.000104929
6.45537e-05
7.67374e-05
9.42691e-05
0.000104455
0.000107212
0.00011543
0.000141101
0.000134299
9.67257e-05
0.000105625
0.000108465
9.31658e-05
9.52949e-05
0.000111176
8.98304e-05
0.00361156
0.000106008
0.00592093
9.97221e-05
0.000237755
7.05024e-05
0.000107363
0.00357976
7.05458e-05
9.18944e-05
0.00328384
6.83631e-05
0.00221925
8.86743e-05
7.08978e-05
0.00010934
0.000182263
0.000430018
8.94156e-05
0.000834271
0.000100919
0.000253246
0.000613964
0.000103255
0.000191576
0.000112325
0.000168516
7.96288e-05
0.000111919
0.000489277
0.000366859
0.000243123
0.000109486
0.000310193
0.000312693
0.000116488
0.000102802
0.000226778
0.00010685
0.000100756
0.000100085
0.000113907
0.000100065
0.000125709
0.000109841
8.64553e-05
0.000116923
0.000124582
0.000116828
0.000108402
0.00498306
0.000109366
0.000134856
0.000128617
8.06053e-05
9.45969e-05
0.00010162
0.00010217
0.000102941
0.000102941
0.000111362
0.000104137
7.93598e-05
0.000109816
0.000125339
0.000140114
0.000101968
8.9758e-05
0.000110845
0.000601042
8.94219e-05
0.000119629
0.00250777
7.0069e-05
0.000102231
0.000125202
9.03819e-05
0.000100061
0.000112099
6.07052e-05
9.35871e-05
0.000107837
0.00011421
9.97503e-05
0.00012899
0.000124784
6.31848e-05
0.000135612
0.000364783
6.12354e-05
9.16808e-05
0.000379213
6.59145e-05
0.000100113
0.000121862
0.000114754
0.00019881
0.000245049
9.27332e-05
7.13107e-05
0.000168288
0.00148726
0.000835376
0.00012202
0.000104639
6.34746e-05
0.000107929
0.000109587
0.000127747
9.81718e-05
9.97448e-05
0.000101679
0.00182862
6.85215e-05
0.000107419
0.000100268
0.00335387
0.00245478
0.000136551
0.00281294
0.000165792
9.26577e-05
9.87545e-05
9.88844e-05
0.000150144
9.5481e-05
0.000603682
9.09989e-05
0.00010723
0.000512856
0.00194238
0.000122044
0.000100854
0.0026587
8.8749e-05
0.00320343
0.000122537
9.13007e-05
0.000121766
9.97363e-05
0.00198804
0.0001146
0.00208946
0.0001095
9.4159e-05
0.00228297
0.000106433
0.000100798
0.00011673
0.00248932
0.000111076
0.000105645
0.00214676
8.58112e-05
0.000105242
0.00232997
0.00146123
0.000102744
0.000123501
0.00131575
0.000259821
0.00107948
0.00325404
0.000128949
0.000114149
7.09491e-05
0.000129411
9.53804e-05
0.000232032
0.000115428
9.99611e-05
0.000111096
0.000194745
0.000106226
0.00010669
0.000103465
0.000115394
0.000101584
0.00015719
0.000163712
0.0013467
0.00012401
0.000471153
0.000260453
0.00149905
9.30713e-05
0.000106647
0.00565032
0.000154781
0.000351528
0.000110346
0.000127194
9.91823e-05
0.000241501
5.5264e-05
6.16514e-05
9.8296e-05
7.52676e-05
0.00328878
6.88417e-05
0.000132673
0.00143189
0.00158726
0.000104422
0.000101654
8.40509e-05
0.000113808
0.000104467
0.00011139
0.000124039
9.41709e-05
0.00016254
0.000126903
0.0001219
0.00177924
0.000232138
0.000120319
0.00341749
0.00402199
0.000110591
9.46282e-05
0.000388918
0.000107928
0.00146374
9.15691e-05
0.000503993
8.71539e-05
0.00011107
0.00689275
0.000382534
8.9353e-05
8.94384e-05
0.00100392
0.00388476
9.15537e-05
9.94913e-05
0.000339517
9.33533e-05
0.000102451
9.45639e-05
0.00389024
0.000105505
9.54402e-05
0.00377605
0.000109948
0.000108044
0.0019071
0.000123188
0.00245893
9.63008e-05
0.000495019
0.00628756
0.00288781
0.000101626
9.28274e-05
9.12841e-05
0.00536899
9.68929e-05
0.000458619
0.000114978
0.00402946
0.00235114
0.000102688
7.50679e-05
0.000827994
0.00273082
0.00371642
0.00121769
0.00287909
0.000100523
0.00010547
0.000104136
0.000129157
0.000122814
8.24629e-05
9.35454e-05
0.000108966
8.50127e-05
7.53907e-05
0.000110799
0.00548444
0.000126805
8.73903e-05
0.000102274
0.000116858
9.23794e-05
9.56617e-05
0.00334135
0.000102327
0.000107993
0.000110629
7.56627e-05
0.000119216
0.00010913
0.000125409
6.60995e-05
0.00010071
0.000137372
0.00218496
6.87967e-05
0.000889535
0.000261622
0.00537353
6.61e-05
0.000103188
0.00240163
6.30429e-05
0.000103046
0.00348264
9.01056e-05
0.000129461
6.86668e-05
9.30734e-05
0.000106165
0.000105173
6.43735e-05
0.000110547
9.2896e-05
9.40047e-05
7.54892e-05
0.00226647
6.25038e-05
0.000130419
6.45884e-05
0.000124825
0.000105717
9.21328e-05
8.55214e-05
0.00326468
0.000111055
7.53931e-05
7.69559e-05
8.50544e-05
8.07988e-05
0.000103629
6.63996e-05
0.00321048
0.00679035
9.21306e-05
0.000468534
9.56748e-05
0.000109019