/*--------------------------------*- C++ -*----------------------------------*\
| =========                 |                                                 |
| \\      /  F ield         | OpenFOAM: The Open Source CFD Toolbox           |
|  \\    /   O peration     | Version:  v2012                                 |
|   \\  /    A nd           | Website:  www.openfoam.com                      |
|    \\/     M anipulation  |                                                 |
\*---------------------------------------------------------------------------*/
FoamFile
{
    version     2.0;
    format      ascii;
    class       volScalarField;
    location    "3.5";
    object      CH4;
}
// * * * * * * * * * * * * * * * * * * * * * * * * * * * * * * * * * * * * * //

dimensions      [0 0 0 0 0 0 0];


internalField   nonuniform List<scalar> 
108993
(
3.83361e-64
1.18931e-38
5.85038e-55
1.10223e-150
5.41933e-145
2.70722e-127
2.56345e-30
0
8.48107e-116
2.15108e-71
3.26437e-91
1.1605e-96
0
0
1.05307e-106
3.38491e-24
1.89878e-66
1.01523e-103
2.14832e-147
1.01305e-74
5.26763e-144
0
1.06221e-79
0
6.74708e-155
0
1.14585e-132
5.66703e-78
1.19226e-79
0
1.12072e-125
0
5.74986e-134
4.93688e-49
2.27275e-148
0
2.07801e-133
0
0.000131828
1.23473e-05
0
6.95555e-113
0
3.3323e-154
5.29847e-32
6.23208e-06
0
3.58828e-37
0
1.43725e-76
0
6.73544e-14
0
1.30693e-145
3.99503e-95
1.67279e-90
5.61638e-139
3.55274e-129
1.79147e-126
0
4.22549e-124
4.05406e-121
0
8.83753e-138
4.63371e-143
5.291e-85
2.61297e-145
1.09971e-135
0
3.06754e-12
1.75794e-115
2.0761e-140
1.50961e-135
4.66422e-139
7.1817e-73
4.35719e-119
0
9.46899e-53
1.44064e-143
0
3.04062e-87
0
0
8.75771e-109
1.62811e-103
2.45768e-102
1.45836e-97
0
1.83896e-140
2.72535e-145
3.3008e-136
1.18758e-126
0
1.66893e-165
1.51749e-137
1.75639e-83
0
1.77437e-106
0
1.71715e-132
0
4.29397e-131
1.65167e-108
2.2291e-81
8.58711e-118
6.23772e-137
5.48256e-100
2.87521e-139
0
1.82733e-05
1.6298e-42
5.77291e-135
0
3.37883e-29
0
3.18328e-16
3.31009e-141
2.08801e-79
2.18235e-21
0
1.05931e-91
3.36307e-122
1.02875e-13
6.16072e-66
4.7674e-135
0
1.23813e-59
2.12781e-76
0
3.44518e-127
1.92017e-77
0
0
2.3284e-15
4.29161e-122
1.10993e-69
3.60674e-121
3.74077e-116
4.88343e-107
6.22422e-94
1.09572e-68
1.52728e-121
1.14951e-24
3.62683e-124
0
4.87449e-134
1.34569e-110
2.15553e-05
9.00463e-65
1.33955e-10
8.28227e-11
0
7.56343e-53
4.70319e-10
0
0
0
1.21539e-139
2.38127e-135
1.01918e-08
1.17073e-11
2.28486e-139
1.2081e-126
0
0
3.03907e-21
3.09722e-141
0
4.26845e-137
6.08693e-113
5.58376e-146
0
6.54258e-19
7.63178e-108
0
2.40878e-93
0
6.3893e-138
0
5.68131e-134
0
0
8.19271e-141
0
1.76849e-87
0
4.18505e-142
0
1.37403e-88
1.2517e-68
0
6.20059e-139
9.15831e-106
0
0
2.37762e-52
6.76844e-60
0
4.3492e-116
1.11937e-70
1.57249e-139
3.50283e-15
7.47955e-138
3.54242e-136
1.96758e-21
1.03734e-14
0
8.90442e-06
2.30173e-101
0
1.96105e-10
0
1.73077e-11
8.24584e-11
0
0
7.28331e-93
2.25278e-91
0
4.33e-124
7.66541e-93
6.49672e-11
7.96834e-36
1.89622e-15
0
4.2478e-138
0
2.48352e-77
0
5.6062e-95
2.74137e-08
5.30398e-104
8.19092e-137
0
2.32413e-125
0
7.43142e-129
1.27277e-125
8.72878e-08
1.22298e-138
4.00575e-130
1.53305e-91
0
6.74556e-140
0
5.98727e-24
5.31072e-11
2.48214e-12
1.32287e-135
2.87073e-133
8.88175e-120
2.45104e-139
5.15709e-110
5.53585e-116
1.93746e-138
8.04285e-137
2.26119e-136
2.30953e-75
1.18501e-118
6.8109e-129
1.34118e-82
0
1.37154e-37
7.9176e-35
1.0367e-149
1.05178e-79
0
2.54564e-87
0
2.243e-102
1.17465e-153
1.09077e-59
7.55583e-14
8.90399e-05
1.61346e-05
3.10017e-101
3.50157e-133
3.37071e-12
0
6.66361e-66
1.73185e-64
4.24673e-07
1.17824e-06
0
0
0
3.50211e-147
1.92184e-70
1.31185e-65
3.04264e-08
5.26815e-92
0
0
4.1072e-89
1.72804e-109
3.33552e-81
1.43012e-122
6.11336e-86
7.49539e-39
6.09642e-148
0
2.86718e-15
8.26746e-112
2.72903e-150
8.82034e-110
0
1.10955e-127
0
0
1.82432e-13
0
3.32196e-122
2.99431e-49
7.87852e-124
1.30659e-76
4.68495e-12
2.34493e-141
7.51809e-52
8.02311e-08
0
7.69757e-49
1.03192e-139
1.88573e-91
0
0
1.12849e-07
9.58579e-09
3.70705e-11
1.42496e-122
4.99696e-49
3.74414e-96
4.78285e-09
0
0
4.05234e-09
3.4499e-118
0
1.3612e-122
4.88872e-109
0
0
1.45374e-23
6.87206e-76
0
2.07693e-94
0
0
0
5.37511e-156
6.6539e-71
1.63668e-103
0
2.03874e-07
0
0
0
4.58943e-95
6.17994e-06
9.3251e-104
1.22618e-136
2.60532e-50
0
2.57102e-73
8.10802e-73
0
1.21781e-68
1.41137e-74
3.08008e-121
3.58617e-106
0.00111601
4.21853e-35
7.8807e-57
9.65218e-70
2.05827e-09
1.40652e-66
4.88066e-09
0
0
3.46826e-12
0
1.34114e-09
1.10316e-10
9.3957e-70
1.57403e-19
0
0
3.38747e-61
4.88513e-06
5.6083e-72
1.07232e-05
1.94199e-10
0
1.12934e-09
1.62598e-88
1.43168e-14
2.74619e-67
7.57082e-05
0
1.81956e-35
3.66974e-116
5.94607e-66
2.14418e-14
9.24534e-16
9.31673e-124
2.77306e-99
0
2.46267e-86
5.29711e-114
2.21732e-49
0.000497051
0
1.88218e-80
2.01686e-06
0
3.33983e-94
1.86113e-113
8.95089e-08
1.31362e-20
1.04095e-12
5.06714e-139
0.00352855
2.44518e-42
1.60578e-06
2.17688e-142
6.21442e-139
0
7.09424e-129
2.67472e-10
2.25264e-11
1.01086e-155
7.39117e-05
0.000160526
9.00222e-06
3.7044e-130
1.57973e-120
5.26609e-71
9.48201e-114
3.43135e-91
1.20739e-127
0
9.0584e-95
1.86471e-80
1.76911e-75
6.45986e-132
2.03826e-07
2.95617e-25
1.02084e-32
2.80567e-22
4.36049e-79
5.51905e-135
0
7.28966e-140
3.78914e-77
1.17991e-51
1.78867e-125
1.06321e-107
0
0
9.38709e-90
0
6.40189e-20
3.38135e-52
3.43031e-17
0
4.08646e-25
2.7031e-61
0
0
1.38613e-59
1.28094e-57
1.65358e-34
0
1.12507e-117
4.43343e-48
1.29268e-129
0
0
5.23047e-13
0
2.31421e-20
0
0
3.06453e-108
1.49169e-75
1.21776e-41
6.72332e-63
1.61856e-57
2.50656e-62
1.69309e-22
0
0
3.51173e-73
0
2.79784e-59
2.61749e-28
0
4.39381e-42
1.29444e-90
1.61928e-70
1.64431e-52
2.02165e-132
8.88376e-108
1.29633e-104
1.87596e-65
5.96458e-36
2.48025e-18
0
0
9.87885e-07
2.5741e-71
5.17812e-26
5.46755e-31
3.71991e-111
0
4.46649e-73
2.96406e-135
0
1.15264e-74
7.94501e-64
7.58035e-69
9.79903e-93
1.54299e-94
2.49177e-33
0
9.11219e-77
3.97562e-11
5.08371e-80
0
0
1.65396e-57
0
1.91363e-126
6.61565e-13
1.26863e-90
1.31114e-126
0
5.00698e-51
2.19301e-100
1.31505e-46
1.10483e-11
5.85389e-107
4.33042e-08
1.46233e-149
0
0
3.88402e-94
0
0
5.38218e-103
0
1.06788e-13
0
1.69711e-07
3.04394e-109
5.15593e-96
0
0
4.18819e-53
0
6.47688e-62
1.53623e-50
0
9.45988e-65
1.09271e-38
4.33595e-11
4.13347e-10
0
4.76004e-109
9.34775e-59
0
1.51459e-64
1.03229e-38
0.0760323
1.49337e-09
1.90569e-08
5.55251e-45
4.51522e-97
1.03751e-10
9.58228e-10
2.02709e-14
1.45452e-51
0
0
0
5.07482e-91
0
1.18865e-06
9.38654e-09
5.26548e-91
2.44427e-135
0
3.45197e-125
9.68467e-64
1.7998e-72
9.02216e-05
1.34066e-109
3.08694e-112
0
0
1.18354e-29
2.19329e-67
0
0
4.9603e-53
0
0
0
3.92651e-126
1.0797e-42
0
2.88101e-10
2.9077e-63
2.72344e-13
7.55035e-64
3.73871e-44
1.62528e-76
1.67084e-33
5.38021e-129
3.3705e-08
1.41942e-135
5.75892e-19
4.1119e-133
0
1.75361e-05
9.61731e-51
3.17055e-117
4.33333e-106
1.94337e-21
1.61161e-06
0
5.50106e-09
4.12649e-63
7.82084e-19
0
3.39054e-36
1.06044e-111
1.14604e-122
3.10722e-06
6.55629e-22
7.06262e-26
0
1.056e-24
0
3.27458e-32
5.14074e-109
1.10793e-36
0
0
2.38682e-33
2.82504e-36
0
3.71425e-25
5.2094e-09
9.93622e-08
4.78052e-19
2.71699e-61
2.59859e-10
4.80262e-07
8.4624e-08
1.14923e-06
1.83562e-08
3.56753e-110
0
7.87101e-92
6.10491e-110
1.65748e-67
5.64211e-73
4.62331e-45
4.386e-11
9.05297e-10
3.38234e-41
5.8262e-42
6.37876e-24
3.5513e-07
4.60311e-07
0
0
3.9817e-32
0
1.40084e-05
1.00079e-33
2.71733e-07
7.34194e-25
2.17294e-39
1.01608e-06
4.36076e-40
7.85179e-07
1.91085e-34
3.2635e-32
2.23248e-07
1.14817e-132
6.98014e-69
0
1.12847e-86
7.20731e-88
8.15677e-07
1.51664e-49
1.85222e-09
3.40035e-45
2.02487e-06
0
4.97667e-102
3.32763e-131
0
3.28975e-31
0
3.6397e-37
1.11216e-65
7.56041e-112
0
2.91468e-30
3.32205e-08
0.000122201
4.04385e-79
3.65779e-06
2.01084e-64
1.78237e-31
1.46917e-17
0
0
0
8.29194e-31
1.31247e-19
4.81742e-26
0
1.98838e-30
2.13191e-23
4.85457e-46
2.58104e-23
1.77881e-146
4.16649e-24
4.72811e-30
3.77377e-23
8.72808e-28
4.00459e-72
3.45044e-147
1.08918e-10
2.42085e-139
0
0
7.16816e-85
1.83794e-26
0.000850159
9.2176e-08
3.94509e-41
4.97913e-30
5.85744e-34
3.14677e-34
2.38472e-39
4.95254e-23
0
2.53659e-137
3.74934e-139
1.02206e-40
3.60419e-141
0
2.74448e-137
4.56631e-31
1.8487e-27
0
1.20796e-33
8.36622e-136
4.71905e-39
1.891e-54
3.2104e-19
0
0
4.02393e-14
1.72175e-157
1.30787e-75
0
9.22723e-09
0
4.9605e-13
0
0
3.22764e-49
0.000367618
0
1.45451e-55
0
2.35896e-11
1.18261e-48
0
9.67047e-36
3.48984e-80
4.17647e-25
0
2.44535e-108
1.23761e-20
0
1.67059e-05
2.60381e-113
6.5653e-84
6.01312e-05
3.18485e-39
7.8919e-07
2.07724e-58
3.53249e-14
2.71911e-106
1.14098e-26
2.81219e-39
1.14659e-134
4.65672e-57
6.12732e-42
0
3.3984e-85
0
0
0
0
3.42538e-66
5.02701e-138
5.48706e-19
9.80967e-90
7.56625e-09
0
2.84554e-90
7.06297e-06
7.19328e-82
0.000661512
7.99582e-71
1.55514e-86
0
0
1.08042e-23
1.04354e-83
9.01809e-20
4.51041e-23
6.99064e-44
1.8712e-38
5.51861e-06
0
6.11038e-48
3.41638e-22
0
7.32462e-44
0
3.21527e-05
4.90728e-43
1.78268e-78
1.09669e-45
1.14492e-17
5.42947e-40
1.30559e-79
1.76388e-12
3.67824e-58
0
2.2423e-05
0
0.000190368
4.78928e-45
3.73973e-07
0
0
6.12585e-98
0
0
4.1808e-91
2.18288e-99
1.85382e-101
2.69002e-08
3.86239e-43
5.15086e-06
0
2.70556e-113
0
0
0
2.23773e-16
2.27145e-146
8.18121e-78
7.29927e-26
3.22668e-06
0
1.72075e-16
4.71284e-32
0
9.76513e-83
1.36306e-27
1.36522e-07
5.92325e-06
1.88041e-38
3.69422e-28
1.42042e-62
2.11418e-10
2.82611e-134
0
9.68832e-05
5.39178e-07
0
1.58951e-119
3.39153e-20
0
2.45042e-45
2.13248e-110
7.185e-148
2.18841e-33
8.68916e-17
0
0
8.03949e-28
0
2.08173e-10
0
9.64408e-108
1.67501e-08
6.91066e-07
2.46901e-67
3.44848e-33
2.25937e-167
2.79793e-109
0
8.49941e-17
0
3.92842e-68
4.05229e-10
0
2.11727e-33
3.78737e-57
0
3.49343e-33
1.00869e-93
3.27684e-91
4.98652e-144
3.80624e-37
2.91156e-66
0
1.22621e-115
1.04912e-119
3.58878e-26
0
0
3.42027e-40
4.04648e-37
1.9649e-39
2.74716e-106
2.02211e-10
7.49087e-105
1.64744e-07
0
1.84101e-55
4.14381e-134
0
4.7591e-16
0
3.28597e-66
1.46812e-09
1.02531e-23
1.55702e-25
4.84697e-111
9.67514e-44
2.3981e-22
1.11454e-13
0
0
1.18199e-09
6.74249e-42
1.09727e-70
9.74038e-41
0
1.37902e-51
9.37196e-05
1.55569e-19
9.11803e-12
7.6554e-13
2.3728e-50
1.64589e-25
2.27516e-52
3.31789e-41
0
2.54262e-11
0
0
0
1.6352e-09
2.61376e-131
0
0
1.42724e-09
0
7.56766e-57
9.3416e-62
1.10412e-116
0
0
2.09685e-79
6.64669e-22
0
1.16016e-67
0
0
5.6474e-05
0
9.48327e-81
1.44249e-118
0
2.47946e-115
9.62952e-07
7.94923e-14
6.89083e-91
8.20975e-59
5.09271e-133
1.69367e-47
1.38727e-19
6.67245e-33
6.25413e-88
0
5.84625e-18
1.85783e-105
5.34928e-13
0
1.49768e-08
1.63729e-125
0
0
0
0
1.70155e-33
8.32152e-115
3.36384e-128
2.75984e-59
3.1244e-105
2.54235e-09
2.57566e-62
1.26718e-33
2.82344e-136
1.03268e-60
2.62786e-38
0
2.9624e-66
0
7.68254e-62
3.57106e-89
2.72037e-46
0
1.8062e-99
1.99262e-149
2.55617e-110
1.02742e-05
2.43388e-70
0
5.23178e-116
3.92213e-21
1.23533e-27
0
1.06476e-07
4.66228e-50
5.23389e-31
3.18579e-34
4.84617e-06
7.29301e-46
1.04535e-23
8.60905e-28
4.24873e-07
0
1.53684e-112
2.93668e-104
0
0
0.000469273
0
1.3526e-91
2.11366e-39
0
7.44256e-15
0
4.45281e-15
1.34625e-39
2.89285e-17
6.34933e-38
7.5997e-11
3.59952e-17
0
1.16864e-88
0
4.08718e-133
2.82511e-79
0
4.34211e-144
4.06872e-40
7.2443e-08
2.23491e-87
8.49266e-05
0
3.00883e-71
0
1.14029e-21
7.6184e-19
0
1.92027e-33
3.83155e-58
3.70503e-58
2.97247e-134
6.81964e-41
0
1.95002e-22
1.78935e-112
5.19284e-22
0
0
1.82301e-60
7.33634e-135
0
0
0.100925
6.57539e-38
1.36079e-147
0
0
8.84751e-77
7.17753e-92
8.36426e-135
1.83604e-51
0
9.29235e-64
0
5.85255e-62
5.39477e-63
0
0
8.08115e-112
0
0
0
1.10242e-56
7.4731e-08
0
2.98324e-43
8.61034e-08
6.50233e-57
2.92577e-149
0
0
1.137e-96
2.87142e-56
0
2.58902e-51
6.12053e-73
0
9.46597e-74
0
8.71067e-94
2.63028e-95
7.55924e-59
3.44243e-78
0
1.35655e-08
1.99814e-104
6.77345e-99
6.45122e-91
3.31678e-52
4.48647e-47
9.77178e-105
9.97909e-16
0
0
0
1.04418e-116
0
0
3.92377e-29
9.77628e-64
1.07182e-14
1.72637e-42
9.07145e-41
8.00091e-35
8.79225e-14
7.58743e-27
8.0582e-30
2.40555e-90
7.19992e-49
1.38943e-11
8.34466e-153
0
2.20297e-89
7.32612e-92
1.3101e-91
4.09746e-07
1.71154e-18
0
0
1.33663e-119
8.07671e-09
6.58668e-12
6.3443e-88
1.09034e-72
2.96159e-58
0
1.64378e-56
1.09286e-43
2.93695e-141
1.50199e-15
7.5893e-06
0
1.43545e-92
8.75254e-151
1.97503e-17
4.52057e-133
0
8.19483e-130
2.64375e-125
8.79338e-128
8.51905e-08
6.69777e-14
8.91042e-09
3.67247e-99
0
8.74204e-99
3.58032e-19
3.3275e-27
1.54217e-70
0
8.1325e-12
5.71898e-32
5.74807e-08
0
0
8.61425e-10
5.9479e-67
1.41897e-80
1.31455e-46
4.44033e-115
5.05472e-57
0.203976
2.37005e-98
0
0
1.98312e-08
6.03302e-80
1.88085e-95
1.77524e-31
1.40253e-47
0
2.66527e-06
2.46047e-96
1.96892e-35
7.12898e-51
9.67402e-36
7.0569e-113
4.17791e-49
8.18548e-121
9.46455e-32
5.36813e-140
7.01898e-21
1.61274e-36
0
2.42419e-08
5.55413e-103
1.08174e-115
1.69391e-116
6.78215e-43
1.09563e-08
3.08091e-83
5.33428e-23
5.92873e-44
0
0
0
1.95818e-107
1.11638e-28
1.32385e-71
2.52975e-13
2.34459e-14
1.35184e-15
2.51012e-27
9.605e-15
5.64631e-134
2.97484e-13
6.53133e-13
0
5.42665e-88
0
4.95715e-43
8.3632e-69
2.14593e-107
3.36474e-101
6.10054e-80
5.81313e-133
4.28176e-59
0
1.10604e-22
3.11555e-115
1.72587e-68
0
4.79631e-41
0
2.48773e-97
0
0
1.43812e-10
1.14788e-95
4.59769e-08
2.57739e-32
0
0
1.95373e-89
0
5.14525e-102
7.70467e-53
4.37318e-30
0
1.42977e-45
2.1435e-42
5.4114e-113
1.95378e-42
0
6.48416e-44
0
1.13138e-42
4.67358e-24
1.32336e-30
3.04534e-39
0
6.7689e-115
0
1.25111e-38
1.46055e-105
7.37158e-128
4.93254e-40
3.25375e-113
0
6.78921e-48
7.85248e-11
1.01063e-40
0
1.17496e-06
1.10979e-110
6.04261e-13
4.70278e-128
0
0
3.81002e-75
3.544e-98
3.02007e-06
0
0
2.04989e-31
5.79516e-06
1.42905e-20
0
0
0
0
3.98373e-36
0
6.63286e-10
4.47014e-130
2.44705e-125
3.67234e-49
5.25165e-37
0
2.39122e-41
1.66851e-39
1.17673e-05
5.94342e-05
6.34554e-37
3.6177e-121
3.21974e-21
5.68288e-100
0
2.29434e-23
2.77358e-42
1.16777e-37
2.02768e-93
8.6103e-56
0
2.5042e-38
3.22795e-06
2.55739e-28
4.68235e-52
6.98854e-19
1.7681e-10
0
1.63065e-30
1.00574e-13
8.22804e-59
2.55103e-46
3.2867e-49
0
1.49122e-43
6.46158e-133
1.20462e-52
3.7985e-33
2.24315e-26
1.33469e-06
3.89053e-51
1.00704e-50
1.79016e-07
0
9.59402e-114
7.82283e-06
0
1.58234e-130
0
7.85764e-60
0.000192896
6.90142e-109
2.34331e-100
1.98379e-11
0
2.29036e-05
0
3.67302e-05
0
1.42499e-66
2.44197e-06
1.30764e-30
0
1.17474e-06
0
1.1282e-50
6.11866e-26
3.93225e-124
1.79313e-120
1.21096e-108
1.94009e-06
6.67739e-30
3.74078e-69
4.01996e-16
1.45158e-100
2.06875e-08
3.39496e-07
4.84813e-09
0
7.29044e-07
0
7.13986e-07
0
1.34458e-79
0
1.09946e-126
1.6103e-128
4.65364e-134
0
8.92538e-138
1.30547e-14
0
1.38512e-28
5.97035e-12
0
1.94478e-92
0
0
2.33458e-134
9.28844e-113
3.04657e-08
2.39288e-08
8.93203e-98
4.30365e-83
7.23769e-74
1.52842e-24
4.94298e-34
1.29081e-73
8.60345e-39
0
5.7594e-80
5.07061e-85
5.51294e-24
1.33687e-05
1.92788e-29
5.17426e-08
6.55492e-09
1.10004e-77
8.60035e-40
1.04708e-16
4.88991e-89
4.81579e-94
3.9678e-97
5.69314e-14
5.48251e-05
4.72779e-08
1.16799e-06
1.00043e-104
2.64877e-135
0.00248917
0
2.32871e-25
8.4787e-67
4.29807e-96
4.18867e-37
5.53509e-104
3.81279e-30
4.77949e-105
2.82718e-28
3.01751e-06
1.0445e-14
4.49032e-27
1.2088e-19
1.17363e-24
4.8837e-136
1.02973e-13
0
0
0
3.35242e-88
3.96359e-122
1.06653e-86
6.34768e-48
8.91389e-123
2.60898e-25
2.34994e-08
0
1.33554e-09
5.81146e-126
1.56687e-91
0.000150993
0
7.06621e-100
3.24251e-15
0
5.00207e-95
3.0493e-15
7.11766e-07
1.65104e-05
6.47297e-10
0
7.68415e-07
0.000538417
3.56952e-08
3.96717e-91
2.52589e-10
3.18055e-15
1.40604e-16
3.91178e-08
0
1.64135e-08
4.6688e-18
3.45554e-89
3.71437e-18
0
1.11833e-16
1.07864e-41
8.91695e-09
2.3131e-43
1.11832e-81
2.37646e-07
0.000132974
7.84034e-07
0
1.15395e-123
0.000931185
7.51129e-152
1.41067e-41
5.68197e-21
0
1.57157e-06
5.85568e-44
8.86192e-68
4.33441e-57
5.34298e-61
7.86794e-66
5.45145e-46
1.48748e-09
1.35633e-05
5.51162e-12
2.69577e-07
1.0468e-91
1.36139e-12
0
1.9094e-55
2.22392e-80
7.16496e-66
1.75556e-57
8.87386e-65
0
6.319e-55
2.39903e-47
8.7218e-59
0
7.40397e-40
2.37729e-09
0
0
1.11782e-06
0
1.20361e-122
1.33289e-09
1.78445e-67
3.35997e-61
9.36628e-73
0
6.99213e-113
0
5.36474e-11
0
1.86695e-32
1.98045e-08
7.55368e-06
2.09191e-23
0
1.48892e-09
2.46774e-10
0
2.99128e-07
0
0
0
3.0822e-10
1.21245e-54
4.39622e-09
5.81943e-80
0
2.3663e-134
1.15321e-132
2.15542e-13
1.7519e-125
1.18675e-08
0
1.88918e-07
4.4853e-10
0
5.54896e-110
2.08144e-06
1.52254e-09
8.64561e-07
9.03589e-09
0
3.59304e-16
0.000945758
0
2.42634e-69
2.69809e-33
0
6.13327e-10
3.56033e-73
1.0641e-08
6.07887e-09
5.96586e-11
8.73216e-11
1.19541e-05
3.681e-17
3.56589e-08
4.36255e-52
1.19965e-07
0.000573247
4.11068e-23
2.42095e-07
0
2.44189e-19
8.23935e-10
8.01458e-60
4.34121e-07
5.31633e-25
1.81369e-38
0
1.23934e-34
6.72302e-10
0
3.99051e-104
0
1.84324e-38
1.31875e-135
3.70919e-78
8.18391e-40
1.13802e-71
3.30144e-06
8.33258e-08
1.31451e-49
2.60226e-06
1.06599e-31
8.74984e-140
1.46761e-36
2.57092e-09
3.87867e-05
2.88643e-15
1.31157e-15
2.11172e-09
1.47951e-07
0.00215209
5.61788e-14
6.36704e-40
2.55974e-05
4.78035e-62
2.06509e-47
0
0
2.3308e-35
1.47069e-07
9.34976e-13
1.62465e-22
0
4.52733e-07
1.27552e-37
2.46731e-08
3.54615e-37
0
2.10218e-103
5.66132e-39
1.13367e-82
0
8.29332e-50
2.50408e-07
7.01573e-07
0
4.72709e-48
3.18846e-05
5.05762e-50
5.4471e-06
0
3.34058e-09
1.58826e-13
0
0
0
1.52685e-82
0
1.65667e-137
0
2.16321e-20
3.76489e-11
0
5.69786e-07
6.27804e-09
5.59193e-38
7.21873e-06
5.82471e-08
9.72879e-07
2.42436e-07
4.66973e-135
3.51405e-08
6.65183e-21
4.07842e-121
2.469e-76
2.09983e-08
1.57229e-08
0
1.28217e-103
0
7.5124e-63
0
4.16946e-07
2.1969e-07
3.4375e-07
7.70038e-08
9.58067e-114
2.8064e-05
3.46341e-28
8.07403e-136
0
1.39286e-76
0
6.24748e-07
0
8.99364e-65
0.00348104
2.94008e-61
1.37924e-45
0
1.37688e-51
0
7.06289e-84
1.7613e-12
1.28384e-32
0
4.95076e-17
1.08644e-16
3.88978e-06
2.48262e-49
4.90285e-46
6.63598e-78
1.01727e-47
5.93518e-44
8.56249e-54
1.38405e-13
4.65459e-09
8.06535e-54
8.19175e-131
5.5098e-05
7.09984e-44
1.18809e-129
1.40442e-44
1.71931e-42
3.14078e-08
2.01423e-07
1.73599e-06
0
1.09054e-20
0
1.80746e-07
3.33071e-41
0
5.87014e-10
1.06051e-103
0
4.40939e-100
1.4264e-89
2.10753e-06
3.96163e-146
0
4.12073e-09
1.50791e-12
1.59022e-07
8.79137e-08
0
2.89448e-09
0
9.17343e-11
1.50202e-69
3.87089e-18
9.64564e-10
4.89677e-08
3.67876e-09
5.72544e-07
5.2025e-33
4.8536e-68
1.51665e-14
1.70572e-08
6.34281e-14
8.67711e-09
2.36987e-19
1.58364e-08
3.63941e-102
3.55403e-127
0.00882793
5.20406e-07
1.92819e-09
0
1.95529e-09
5.61104e-10
3.77879e-05
0
3.07064e-13
1.74234e-120
5.74828e-07
3.08376e-67
0
2.97562e-18
7.83164e-80
5.19265e-05
0
2.81977e-12
1.19526e-07
7.41591e-101
1.00473e-64
1.04332e-10
1.77637e-68
4.59684e-75
0
1.16822e-123
3.30467e-16
3.3322e-121
2.73135e-07
1.34153e-06
0
2.25757e-122
8.96775e-07
1.28039e-70
0
8.35047e-16
3.88658e-110
6.31487e-106
0
2.08949e-72
6.66237e-12
1.02485e-10
2.98071e-05
1.10111e-67
0
2.87709e-06
1.01793e-90
4.29289e-07
3.30386e-06
1.40857e-117
0
5.3164e-37
0
1.86239e-06
0
1.42259e-81
1.07756e-150
0
0
1.47457e-06
1.01777e-06
2.08543e-37
1.81908e-66
0
1.01939e-52
4.4931e-29
5.36463e-154
2.03721e-09
0
2.24769e-06
7.24836e-11
1.88567e-98
1.03761e-121
0
1.0685e-30
5.86149e-07
0
4.87005e-12
1.06508e-26
0
1.04206e-27
4.23022e-19
9.28335e-90
5.71473e-35
0
5.09975e-06
9.28029e-84
3.27526e-160
1.45846e-103
0
0
5.22285e-07
7.46924e-07
1.90429e-156
1.05531e-153
4.24198e-07
0
1.22682e-08
0
0
2.54062e-06
0.000170545
4.98501e-12
3.73023e-61
0
1.24486e-18
9.07167e-05
0
1.34705e-06
7.58191e-69
5.25973e-05
4.42392e-12
2.5768e-85
1.25764e-06
7.07154e-07
9.46353e-06
1.66138e-06
3.11749e-06
8.29507e-35
0
7.44952e-111
2.1492e-12
0
4.45627e-17
5.04408e-06
1.36013e-53
1.60503e-14
1.23783e-71
2.75071e-10
1.07158e-06
9.95737e-06
8.95958e-74
9.16751e-26
3.87226e-09
3.03757e-137
5.62121e-08
0
3.04375e-116
5.1973e-117
3.56054e-06
5.95067e-07
1.85927e-07
2.79354e-86
1.68811e-103
0
1.97827e-05
3.15383e-23
0.000315035
5.52115e-140
0
1.57197e-06
2.97542e-13
0
2.98702e-61
3.18479e-05
2.81194e-56
3.88819e-56
1.02572e-25
1.03087e-06
4.54986e-24
2.8771e-22
5.07393e-142
2.96353e-06
6.87245e-06
2.15454e-08
0
5.61229e-63
6.77391e-07
1.26419e-97
1.62301e-12
1.07809e-05
7.38051e-07
9.41443e-07
6.12647e-07
3.92342e-07
2.25344e-07
0
0.0498233
1.79692e-05
2.28674e-19
4.66347e-145
0
0.00113582
6.12414e-138
8.62091e-11
5.16832e-07
0
3.07886e-06
2.17652e-143
0.000252935
1.0074e-11
1.13424e-13
4.90245e-09
1.183e-07
2.52262e-92
1.60785e-143
4.65288e-50
4.65753e-37
0
0
2.01002e-08
3.51913e-07
3.56195e-141
2.86865e-145
0
1.02259e-59
2.37054e-45
0
1.80446e-24
0
1.68747e-06
5.01015e-61
3.00589e-07
5.62029e-143
2.0952e-18
0
0
1.88553e-09
0
0
2.12102e-69
6.25483e-44
8.19808e-49
0.000197621
0.000234756
4.26015e-07
2.97499e-22
1.18926e-39
2.93675e-41
0
0
0
6.10109e-36
0
6.55561e-33
1.41594e-30
0.000180602
0
3.46786e-40
1.56447e-65
3.361e-34
1.23627e-25
4.54126e-109
1.9247e-33
0
0
9.02473e-05
6.49415e-59
3.19292e-07
3.59026e-87
6.31566e-53
4.50213e-11
4.98888e-11
1.24702e-100
4.04611e-54
3.3188e-66
0
2.63017e-58
1.74024e-74
2.67968e-51
3.33148e-27
1.88371e-60
3.8637e-69
2.51284e-86
1.01627e-73
4.13413e-13
1.33229e-72
0
9.83705e-73
9.78765e-29
4.05533e-73
0
3.44481e-26
7.70453e-08
6.28677e-11
4.38881e-67
0
3.11492e-101
1.21328e-07
1.05451e-06
0
7.60904e-08
0
1.01544e-90
1.01915e-44
3.85412e-17
3.35525e-22
1.79332e-06
0
4.29172e-62
7.02833e-35
0
1.13123e-05
0
1.28648e-107
1.40827e-79
0
3.77007e-65
5.51561e-106
0
6.61948e-72
3.42393e-102
2.22765e-14
3.05263e-65
7.12155e-105
7.10483e-43
1.09136e-104
2.44616e-46
7.97554e-11
1.26709e-70
0
4.02721e-10
6.13002e-10
0
5.04973e-99
0
1.15778e-48
5.5081e-23
0
4.46839e-71
9.06543e-15
2.32265e-69
5.82295e-56
0
0
2.27375e-61
0
0
9.79161e-24
3.02777e-06
1.27927e-19
1.27097e-08
5.26918e-32
3.17289e-11
5.36666e-97
1.57178e-65
9.09615e-08
1.05262e-98
0
1.66874e-10
4.04659e-95
1.21789e-06
0
3.24558e-97
1.80742e-30
4.49457e-18
2.27336e-11
5.70884e-25
5.4596e-11
4.42202e-55
5.79232e-24
7.12945e-10
3.04127e-101
0
9.38324e-81
2.50328e-28
2.96077e-26
1.69296e-36
1.01949e-09
2.5394e-27
5.56566e-12
1.44435e-29
6.13231e-09
8.04997e-26
3.1529e-44
0
1.40774e-11
3.73883e-38
2.74392e-32
6.87695e-54
1.85669e-102
8.81805e-28
0
0
1.5065e-25
1.50176e-95
1.43694e-99
0
5.42946e-30
1.6502e-07
0
1.64162e-47
6.04585e-43
7.80073e-81
1.20687e-40
7.90235e-81
3.45191e-45
0
7.65231e-56
1.1638e-80
1.15066e-83
2.82425e-82
1.07129e-79
0
9.48982e-73
0
1.85646e-112
1.58915e-95
1.15292e-13
0
0
2.25576e-06
2.76842e-116
3.184e-54
0
1.98814e-86
2.1858e-92
1.18086e-57
1.23342e-135
3.50438e-87
1.44594e-29
7.57123e-19
1.48175e-47
7.08724e-74
6.83333e-35
5.03583e-138
8.42059e-39
1.43664e-09
9.60673e-137
0
9.6844e-10
2.6761e-137
2.36788e-87
2.61128e-25
6.06996e-91
2.20366e-22
0
2.56859e-56
6.53986e-140
0
3.59904e-06
1.22577e-08
2.75395e-50
3.48081e-102
1.50501e-134
1.25991e-93
0
0
4.52361e-104
8.45762e-104
7.49996e-64
1.4944e-11
5.52551e-78
0
2.73002e-102
6.18468e-06
6.80579e-08
4.57015e-13
3.28908e-06
1.03278e-14
2.38213e-73
8.26391e-22
2.42909e-62
1.24749e-91
4.53785e-75
6.09661e-10
7.61936e-71
9.01942e-75
3.90227e-14
1.55436e-06
5.68311e-67
0
2.70237e-06
1.40249e-66
5.22239e-06
0
1.57525e-39
0
0
2.90835e-06
0
2.65865e-06
3.36533e-74
0
1.10135e-06
6.11058e-76
0
9.42369e-15
2.4304e-06
3.40438e-71
9.56123e-23
1.0132e-06
8.98521e-92
2.81012e-17
4.75637e-06
1.68048e-18
4.47334e-26
1.10132e-88
0
0
5.79374e-20
3.54671e-07
0
1.86998e-77
3.10784e-47
0
7.21129e-49
6.61673e-13
0
8.04303e-47
0
1.41357e-11
5.84248e-44
7.67449e-50
2.63337e-43
0
4.03506e-28
6.15151e-107
2.64908e-12
7.83004e-06
0
1.55553e-15
1.07091e-10
7.53775e-06
1.06721e-101
2.75794e-55
0.000193567
0
7.14894e-13
5.03063e-42
4.17185e-25
5.47953e-90
6.07827e-11
3.4434e-117
8.56897e-116
0
0
2.53411e-07
1.47178e-35
2.11229e-37
8.85352e-06
4.95666e-08
3.612e-104
5.32995e-66
0
5.05245e-61
1.94141e-109
2.60204e-70
0
0
2.55431e-14
0
2.72021e-25
8.87741e-06
8.29511e-36
0
1.41805e-06
3.3326e-07
0
7.6466e-41
4.17614e-13
2.62911e-35
8.97321e-09
0
8.50122e-10
3.91766e-22
1.05348e-14
1.5153e-06
1.32609e-10
1.02216e-14
6.70056e-22
3.22854e-12
1.7518e-07
2.35e-92
1.09973e-54
2.85934e-10
1.45018e-40
0
1.60779e-20
2.58934e-05
1.1085e-31
5.04664e-59
2.51109e-07
6.09627e-49
0
1.60371e-07
2.04441e-72
4.92783e-07
5.86378e-84
2.88374e-09
6.70503e-07
9.08426e-07
0
1.33226e-88
0
1.68686e-07
1.51857e-54
1.60668e-09
2.61057e-46
3.03644e-07
6.28857e-07
0
0
2.05884e-07
2.60046e-08
8.04511e-08
7.4112e-06
4.24844e-07
0
0
4.40261e-76
0
2.38709e-112
5.76901e-95
5.55667e-76
1.63534e-53
1.6676e-95
0
0
0.00291886
1.05099e-53
7.06918e-53
6.18733e-95
2.44024e-29
1.25959e-45
0
3.96042e-08
3.2837e-80
0
3.17819e-53
0
7.27359e-49
0
0
3.61252e-76
5.24068e-31
3.32596e-42
2.1152e-05
0
0
6.89723e-17
0.000169401
0
0
5.57496e-15
1.55468e-118
0
0.00267073
5.64622e-70
1.01046e-43
7.64427e-117
4.26696e-93
0
1.38907e-63
6.90444e-119
0
0
0
1.57849e-32
6.87248e-07
1.17178e-117
5.23271e-14
5.92833e-116
7.73171e-24
0
0
0
8.26596e-05
0
2.20962e-84
2.76953e-133
3.51853e-41
0
0
0
2.25791e-05
0.00017631
4.69367e-118
1.71325e-09
2.12032e-91
8.08126e-128
0
4.62083e-31
0
1.07148e-43
0
5.72163e-56
4.37904e-90
4.50524e-16
0
2.11532e-07
7.38833e-09
1.56234e-76
0
0
1.36634e-06
0
0
8.69534e-77
2.88379e-79
0
1.93043e-87
0
5.21339e-08
2.07713e-89
1.04208e-45
4.16748e-43
5.30938e-06
4.5266e-06
4.27041e-80
2.74586e-09
2.28964e-07
9.49393e-94
0
0.0168524
0
5.82526e-08
8.6417e-19
0
4.96117e-61
5.39546e-92
3.53867e-11
0
2.87461e-97
1.35552e-100
1.20235e-65
2.11811e-86
1.78913e-98
2.3264e-16
9.5427e-08
6.98975e-21
1.97462e-29
0
5.74128e-20
1.25349e-06
0
2.68736e-47
0
3.24722e-07
1.79477e-06
1.44579e-94
0
3.69091e-126
8.14999e-43
1.63041e-13
9.36062e-06
0
1.80346e-34
3.64671e-28
1.95217e-08
1.43327e-140
2.31375e-96
6.35676e-06
1.33482e-95
0
6.277e-112
2.27449e-99
1.4163e-27
2.39191e-30
0
3.41455e-39
0
5.32523e-79
0
3.77705e-114
2.50438e-05
3.49881e-12
6.54201e-120
3.06587e-28
5.46538e-116
0
7.11017e-101
0.000108026
4.45671e-17
6.45012e-07
1.62039e-47
1.26739e-112
0
0
5.32349e-12
3.72084e-31
9.30103e-07
0
1.86569e-110
3.34773e-84
1.28781e-05
0.000524785
1.89208e-13
0
0
0
1.38331e-07
1.43895e-07
3.12035e-06
2.25961e-30
1.19302e-06
7.52552e-11
0
6.66252e-93
1.241e-132
5.54016e-77
2.15267e-115
2.26927e-62
8.58118e-06
8.54976e-05
3.78511e-07
6.33155e-10
2.5534e-06
2.97236e-47
9.77727e-22
4.15122e-21
0
0
9.02919e-07
0
2.8847e-06
1.64614e-07
0
7.76351e-08
4.29979e-07
1.22548e-74
2.53938e-103
2.10502e-05
0
2.73082e-131
3.73769e-06
1.58542e-06
3.28628e-148
4.35015e-108
2.32838e-92
2.26994e-117
0
0
1.72389e-115
8.54136e-09
6.04488e-06
2.48513e-101
7.57796e-42
0
1.86966e-06
6.82652e-07
6.00965e-53
8.3334e-134
2.293e-123
1.84107e-06
1.81921e-82
1.52576e-68
1.55129e-19
0
1.04344e-41
1.69813e-106
1.20209e-84
8.73834e-06
1.22777e-11
1.07757e-79
5.21106e-169
4.96225e-81
1.80294e-74
0
2.10778e-14
0
1.31691e-24
3.05781e-60
0
0
0
2.18526e-113
0
2.05503e-83
6.91985e-99
1.38722e-77
4.27606e-76
2.89933e-86
2.20499e-77
1.50682e-12
2.31926e-93
9.77533e-08
1.11324e-70
1.87969e-138
6.97577e-92
0
0
4.67043e-69
4.49642e-07
1.81132e-07
2.50026e-05
4.63107e-08
2.01615e-63
1.46444e-07
0
1.42187e-08
1.59866e-07
1.56912e-08
1.28148e-10
4.16096e-64
7.24672e-69
0
6.11157e-62
2.74251e-124
2.01094e-86
8.33534e-47
6.26917e-07
0
5.35066e-06
6.55871e-77
1.08982e-34
1.24438e-70
0
0
2.76101e-91
6.41836e-41
7.42154e-06
1.29077e-09
7.17549e-89
0
2.6763e-30
6.0237e-11
8.78004e-40
7.09056e-38
4.76304e-06
9.47347e-69
6.42154e-06
5.08288e-146
4.05782e-133
1.29608e-25
9.79751e-06
3.19215e-06
4.95125e-06
1.2733e-05
1.26442e-07
9.349e-08
5.29575e-06
6.35416e-11
7.4099e-06
5.27859e-105
0
2.4704e-93
0
6.5094e-09
1.47074e-06
2.39712e-08
1.42249e-12
9.46992e-07
4.64325e-07
0
1.57277e-06
6.2427e-10
4.71353e-122
0
1.25262e-114
2.32859e-10
6.77988e-07
0
1.3526e-113
8.5581e-10
1.37417e-05
0
0.000100422
3.74104e-10
3.87408e-14
7.6218e-08
1.36714e-129
0
2.10181e-07
1.66111e-14
3.9365e-124
0
0
3.68012e-110
1.87566e-105
0
1.56248e-128
1.15157e-90
5.48395e-07
3.9366e-100
2.37142e-08
1.59145e-07
1.75069e-96
1.29123e-13
1.10524e-08
8.03382e-08
6.82127e-15
4.0146e-08
1.06715e-24
7.60345e-07
0
5.89067e-142
5.1769e-08
0
7.791e-08
3.10069e-08
6.09194e-35
6.54391e-46
7.58638e-27
3.01201e-07
2.56021e-06
0
2.78313e-50
3.36961e-11
0
5.79372e-07
2.28224e-123
0
0
5.77794e-12
6.53503e-79
1.12132e-15
2.72027e-112
4.08065e-76
1.37385e-40
2.25176e-09
4.09315e-09
0
0
0
1.58061e-06
5.26478e-06
0
0
0.00170714
3.64867e-08
1.27844e-06
2.98123e-71
1.47186e-07
1.29689e-95
5.25507e-45
7.6245e-104
0
4.88776e-100
1.49102e-82
2.47313e-101
1.41148e-06
1.75175e-143
1.49776e-36
9.48151e-101
0
3.26856e-102
1.86994e-132
5.44017e-77
1.94238e-08
1.8773e-07
0
0
3.46472e-07
0
1.03759e-06
0
0
2.87104e-05
2.50905e-70
0
0
3.37744e-07
6.71058e-34
5.82718e-105
5.60405e-27
3.44256e-58
4.84591e-85
4.66417e-101
6.55388e-30
0
5.71103e-145
4.83446e-106
3.92097e-147
8.9469e-111
0
0
4.30085e-12
1.45722e-129
2.27439e-36
0
5.64631e-19
8.71963e-98
1.73649e-31
0
0
0
4.04505e-87
8.03785e-89
3.47743e-93
3.91358e-22
1.46855e-62
0
2.78429e-110
0
0
4.12454e-06
6.18219e-101
0
3.48074e-98
3.16447e-83
0
5.29809e-07
1.06721e-111
0
1.06908e-83
0
0
0
5.09008e-91
4.95314e-50
0
0
1.71963e-51
7.32517e-09
1.33113e-109
6.08398e-107
0
1.71731e-77
4.67436e-66
3.20627e-75
0.000131361
0
2.78198e-79
1.44283e-50
4.10992e-103
5.87621e-12
3.53937e-98
8.21013e-10
2.37447e-08
3.73445e-25
2.53455e-36
2.72955e-112
9.96319e-60
3.29779e-126
7.85263e-90
2.15186e-06
2.45142e-53
3.75875e-140
2.56927e-06
7.70611e-78
0
0
0
1.13595e-58
7.34963e-68
4.50478e-06
1.52065e-87
8.45426e-136
0
3.25697e-06
1.98948e-07
5.65781e-07
1.0047e-17
1.0763e-07
1.57334e-07
1.54649e-41
0
0
3.68459e-06
5.05669e-75
0
2.87938e-70
2.49584e-58
5.44882e-08
7.55354e-95
0
5.33126e-71
0
0
0
3.48725e-14
1.24458e-126
0
6.58296e-07
0
5.3008e-10
6.48858e-105
2.50892e-77
5.84183e-129
6.43884e-69
1.2993e-70
3.00907e-23
0
3.085e-08
1.61037e-07
0
5.41331e-10
2.36812e-06
3.44378e-22
5.55876e-122
6.55545e-109
8.29522e-103
4.50368e-94
0
2.61452e-122
5.0514e-125
1.55175e-100
9.84822e-07
7.91013e-14
1.50877e-12
2.76155e-07
2.70177e-88
8.57986e-07
2.61277e-27
8.62269e-10
1.06169e-28