/*--------------------------------*- C++ -*----------------------------------*\
| =========                 |                                                 |
| \\      /  F ield         | OpenFOAM: The Open Source CFD Toolbox           |
|  \\    /   O peration     | Version:  v2012                                 |
|   \\  /    A nd           | Website:  www.openfoam.com                      |
|    \\/     M anipulation  |                                                 |
\*---------------------------------------------------------------------------*/
FoamFile
{
    version     2.0;
    format      ascii;
    class       volScalarField;
    location    "3.5";
    object      CO2;
}
// * * * * * * * * * * * * * * * * * * * * * * * * * * * * * * * * * * * * * //

dimensions      [0 0 0 0 0 0 0];


internalField   nonuniform List<scalar> 
108993
(
1.05582e-62
6.52179e-36
2.18724e-54
4.5758e-150
8.2396e-144
6.9079e-126
1.72345e-26
0
3.14347e-115
6.03397e-70
3.72119e-91
1.39397e-96
0
0
1.89877e-105
5.27301e-24
5.42827e-65
2.31221e-102
2.04818e-146
8.74428e-74
9.91945e-143
0
2.61988e-78
0
5.32816e-154
0
1.59019e-132
2.71598e-76
3.16684e-78
0
1.53898e-125
0
8.03012e-134
1.47074e-47
5.73774e-147
0
2.88096e-133
0
0.0113441
0.018709
0
2.76004e-112
0
1.74089e-153
0
0.0194881
0
3.73112e-33
0
6.79224e-76
0
9.48683e-12
0
2.00541e-145
1.05959e-93
3.70706e-89
8.29662e-139
3.05729e-128
1.27615e-125
0
5.38569e-123
3.62349e-120
0
5.81052e-137
4.00084e-142
1.40515e-83
2.26087e-144
1.62094e-134
0
1.8623e-08
3.75241e-114
2.96888e-139
1.41826e-134
6.62135e-138
1.01336e-69
6.36681e-119
0
3.59497e-51
2.22041e-143
0
6.31067e-86
0
0
8.66046e-109
3.71018e-102
1.3529e-101
2.97934e-97
0
2.82368e-139
2.3278e-144
2.87697e-135
1.76677e-126
0
1.74535e-164
1.28367e-136
1.18037e-82
0
2.00209e-105
0
2.52465e-132
0
4.53516e-130
0
4.63681e-80
9.25325e-117
5.40748e-136
1.06429e-98
2.4637e-138
0
0.0114819
2.20337e-41
5.03699e-134
0
4.8834e-28
0
2.68708e-13
4.90683e-140
7.25689e-79
6.02495e-20
0
2.01303e-90
2.92645e-121
2.63313e-11
1.10159e-65
5.59251e-134
0
5.59681e-58
5.30656e-75
0
2.12782e-126
5.46782e-77
0
0
1.11867e-13
7.60025e-122
1.61199e-69
2.99961e-120
2.47042e-115
1.10872e-105
8.56501e-93
7.07083e-69
2.25425e-121
4.88302e-23
2.38054e-123
0
4.5472e-133
1.72141e-109
0.0249543
1.62253e-64
4.59265e-09
2.74761e-09
0
5.16405e-52
1.84393e-08
0
0
0
2.26525e-139
3.3695e-135
9.0715e-05
2.31531e-10
3.29073e-139
1.63716e-126
0
0
5.66676e-19
2.66496e-140
0
3.00167e-136
1.43675e-112
4.15868e-145
0
1.83709e-16
9.73991e-108
0
5.49435e-92
0
6.25864e-137
0
9.124e-134
0
0
1.04874e-140
0
4.10964e-86
0
2.83079e-142
0
2.64607e-87
2.38103e-68
0
8.01113e-139
9.90053e-105
0
0
3.26561e-51
3.32525e-58
0
4.64145e-115
2.02851e-70
2.88803e-138
4.27431e-13
9.23689e-137
3.11511e-137
2.38983e-17
1.98813e-12
0
0.0118564
2.01429e-100
0
3.16198e-06
0
9.22734e-09
4.57364e-08
0
0
1.55753e-91
2.6602e-90
0
3.47976e-123
1.4614e-91
2.12371e-09
1.9105e-34
5.92595e-13
0
4.13826e-137
0
3.97286e-77
0
6.71605e-94
0.000486452
1.11459e-102
8.03732e-136
1.41676e-82
3.60308e-125
0
2.56528e-128
1.39688e-124
0.00302093
1.82592e-138
5.49804e-130
1.37707e-90
0
9.57548e-140
0
1.19143e-23
4.3389e-08
4.16345e-10
2.04858e-135
2.61578e-132
1.32081e-119
2.15345e-138
4.28979e-109
1.01782e-115
2.01432e-137
1.22591e-136
2.51471e-135
3.40568e-75
1.6047e-118
1.60619e-127
1.95718e-82
0
1.91021e-36
1.25533e-34
1.88778e-149
1.39811e-78
0
8.92046e-86
0
1.88464e-101
1.57219e-152
1.66107e-59
1.24467e-10
0.000372585
0.0248902
3.29166e-100
5.39468e-133
6.79092e-10
0
1.62983e-64
4.27084e-63
0.00810451
0.0200519
0
0
0
3.28187e-146
4.60857e-69
1.03391e-64
0.000538339
9.9594e-91
0
0
6.08193e-89
1.96002e-108
5.25941e-81
1.94334e-122
9.11946e-86
1.67838e-35
1.12642e-146
0
1.73506e-13
2.10407e-110
5.03459e-149
7.43829e-109
0
2.53998e-127
0
0
2.12326e-10
3.96911e-137
3.59427e-121
8.24455e-48
1.48718e-122
6.21431e-73
5.21187e-10
1.50274e-140
1.03337e-50
0.00814261
0
1.33632e-47
6.97817e-139
4.75836e-90
0
0
4.09975e-05
1.02978e-06
9.9133e-09
1.70086e-122
7.05554e-48
7.31386e-96
1.2602e-06
3.0626e-09
0
1.17913e-05
1.39408e-116
0
1.21372e-121
4.94943e-107
0
0
5.50229e-22
1.46484e-74
0
4.40974e-93
0
0
0
7.93626e-156
1.08949e-70
1.96598e-103
0
0.00310308
0
0
0
7.26352e-94
0.0236406
1.24064e-103
1.28948e-135
6.02899e-50
0
4.18427e-73
1.13418e-72
0
2.69844e-67
2.18067e-74
2.28657e-120
1.11812e-104
0.00410268
7.8009e-34
1.30767e-56
1.40684e-69
4.13705e-08
3.16551e-65
1.51975e-06
0
0
8.19623e-10
0
1.18025e-06
2.5789e-08
2.70781e-68
8.57926e-19
0
0
8.03906e-60
0.00403904
1.33293e-70
0.0155131
1.33224e-07
0
7.09528e-07
1.88351e-87
3.50533e-11
5.94452e-66
0.000204203
0
2.6724e-35
1.36115e-115
1.29492e-64
4.61392e-12
2.57881e-13
9.55571e-124
4.13295e-98
0
1.72544e-84
6.43482e-113
2.57899e-48
0.000855461
0
3.36823e-80
0.00118739
0
3.79234e-94
6.26974e-113
9.97731e-06
4.85731e-17
1.24245e-09
9.39331e-138
0.00211163
1.08606e-40
1.27374e-06
2.29104e-141
5.09727e-138
0
9.814e-128
5.34463e-08
3.23019e-09
1.35948e-154
0.000229715
0.0233716
2.22158e-05
6.25758e-130
3.92652e-120
1.35182e-69
3.08282e-113
7.54934e-90
1.31586e-126
0
2.14627e-93
7.93849e-80
1.34791e-74
1.54894e-130
0.00287557
1.32641e-23
3.9723e-31
1.48712e-18
6.09454e-78
1.32021e-133
0
6.28819e-139
1.85213e-76
1.68556e-50
1.95729e-124
2.32558e-106
0
0
3.22544e-89
0
1.5594e-17
6.00191e-52
9.34883e-15
0
5.5538e-22
3.99898e-61
0
0
2.06938e-59
1.65359e-57
3.83078e-30
0
2.67588e-117
8.73833e-47
3.03393e-129
0
0
5.02911e-09
0
4.73192e-19
0
0
5.09798e-108
2.08719e-75
2.79853e-41
1.03192e-62
2.44104e-57
3.72361e-62
1.89435e-19
0
0
6.95748e-72
0
8.94657e-59
1.7869e-27
0
1.05699e-41
2.10586e-90
2.66624e-70
5.23739e-51
2.13074e-131
1.13136e-107
3.28527e-104
2.79634e-65
8.7785e-36
5.84493e-17
0
0
0.00781578
3.82443e-71
7.55999e-25
2.28879e-29
5.49225e-111
0
6.85157e-73
1.66826e-135
0
1.51847e-74
2.14379e-60
2.84789e-65
3.70807e-92
5.60929e-94
9.88428e-32
0
2.2392e-75
2.58777e-09
0
2.18121e-78
0
4.57562e-55
0
3.61521e-125
4.22231e-11
2.86356e-89
1.11869e-125
0
3.88752e-49
2.53642e-99
4.01881e-45
1.39844e-08
1.4025e-105
0.000239763
1.95396e-148
0
0
3.41059e-93
0
0
3.37193e-102
0
2.46632e-11
0
0.00287462
5.81049e-108
1.15888e-94
0
0
1.08924e-51
0
5.61541e-62
4.35983e-49
0
1.45519e-64
6.75341e-37
1.03591e-06
4.64643e-07
0
4.86354e-109
0
0
2.19036e-64
3.99221e-37
0.0658938
3.71781e-05
3.10203e-06
1.24479e-43
9.17839e-96
2.74253e-06
2.51118e-07
9.03842e-11
3.15786e-50
0
0
0
1.17202e-89
0
0.0131482
0.00025062
2.97913e-90
2.61167e-134
0
7.55132e-124
3.23897e-60
3.47703e-72
0.000455259
2.3961e-108
1.21561e-111
0
0
6.84647e-28
2.18214e-67
0
0
1.83316e-52
0
0
3.41821e-05
9.7717e-125
1.57262e-41
0
1.73152e-09
3.87423e-63
2.27395e-11
1.09537e-63
1.32556e-42
2.35716e-76
1.2577e-32
1.32783e-127
6.65913e-05
2.15973e-135
1.28763e-17
6.25827e-133
0
0.0229223
8.19921e-48
3.00876e-116
3.86762e-105
9.6087e-20
0.0192303
0
6.27579e-07
9.11286e-62
2.71465e-17
0
4.51343e-36
2.79849e-110
2.37935e-121
0.00474304
1.08251e-20
1.17602e-23
0
1.81836e-22
0
2.96176e-31
7.66264e-109
1.58232e-36
0
0
3.65656e-32
4.61701e-36
0
9.27017e-25
1.10364e-05
0.000489817
7.30961e-15
8.26898e-58
1.86775e-08
0.00324249
0.00202465
0.00865814
7.96896e-05
6.20321e-109
0
1.15206e-91
6.9317e-109
2.52181e-67
2.72483e-69
6.62837e-45
6.37518e-08
1.02586e-06
1.94158e-40
4.0886e-39
1.20974e-21
0.00213677
0.00283627
0
0
1.42951e-28
0
0.0169246
1.9749e-30
0.00769345
2.02494e-21
2.76852e-39
0.0142879
6.81608e-40
0.00487231
8.51396e-31
9.01657e-29
1.68037e-05
5.91762e-132
1.19162e-67
0
3.28538e-85
1.20468e-86
0.000100562
3.16106e-46
3.25929e-06
7.2204e-42
0.000435143
0
7.04115e-102
1.10093e-130
0
1.2855e-29
0
7.41706e-37
6.32625e-64
1.16913e-111
0
7.84364e-29
9.33067e-05
0.0276051
7.95968e-78
0.00338073
4.19775e-63
1.66651e-29
7.38482e-16
0
0
4.15523e-59
1.44245e-30
1.39334e-17
9.17378e-26
0
2.78812e-30
3.70018e-21
7.79265e-45
9.92757e-22
2.11843e-145
8.025e-22
8.72518e-30
6.32988e-23
1.31791e-27
3.42687e-72
6.36461e-146
2.55603e-06
2.60301e-138
0
0
8.91057e-85
5.22576e-26
0.0595399
0.000180559
3.74262e-40
5.95965e-28
8.91855e-33
3.81359e-33
8.24976e-38
1.8452e-21
0
2.77646e-136
2.73e-138
1.43067e-39
3.89866e-140
0
1.9533e-136
1.52773e-30
2.28576e-26
0
9.67765e-33
9.04776e-135
7.04655e-38
4.87887e-52
4.1377e-16
0
0
1.04626e-10
1.3292e-156
9.91918e-75
0
0
0
2.51565e-11
0
0
4.90045e-48
0.00126849
0
4.43644e-54
0
3.38643e-10
7.99184e-48
0
1.02843e-33
1.65497e-79
2.54916e-23
0
1.83166e-107
3.90881e-17
0
0.0188577
3.31003e-113
2.27095e-83
0.0275286
4.30938e-39
0.00279715
1.75084e-56
9.86644e-12
6.26465e-105
6.5219e-25
4.40844e-39
9.92068e-134
6.94103e-57
8.72862e-42
0
6.28565e-84
0
0
0
0
1.26424e-64
7.32134e-138
3.12753e-16
3.75205e-89
3.39091e-07
0
6.36666e-89
1.80585e-05
3.20851e-78
0.00104768
2.08706e-69
3.20439e-85
0
0
5.05381e-22
4.9703e-80
1.8102e-16
3.9552e-19
3.01276e-40
1.99931e-34
0.00521133
0
2.94036e-47
9.40939e-21
0
2.68042e-43
0
0.0238683
3.07532e-42
4.45427e-77
1.51164e-44
1.10902e-13
7.90922e-39
9.93627e-76
6.65049e-09
3.97688e-57
0
0.00154262
0
0.00276931
1.00127e-43
0.000866889
0
0
2.72871e-96
0
0
1.50551e-90
1.10752e-97
7.51446e-100
7.16807e-05
1.8672e-41
0.0189192
0
1.30655e-112
0
0
0
6.87852e-15
2.74611e-145
6.07277e-77
1.32413e-25
0.0196197
0
7.91513e-15
2.14263e-31
0
3.26035e-80
1.37463e-23
0.00172907
0.018584
4.8414e-37
6.65496e-28
2.79178e-62
3.49352e-08
2.42711e-133
1.14385e-06
0.035273
0.00242213
0
1.45356e-118
7.28408e-19
0
0
7.2479e-110
8.22937e-147
1.84377e-33
1.76015e-14
0
0
3.33421e-26
0
7.22352e-09
6.30437e-120
2.08901e-106
1.05668e-05
0.00112915
3.78968e-64
2.07067e-29
4.12683e-166
5.48114e-108
0
9.62857e-15
0
8.52472e-67
0
0
3.21973e-32
1.01824e-53
0
3.51382e-32
3.14604e-92
8.82662e-90
7.21864e-144
3.45496e-36
8.03893e-65
0
3.43413e-114
3.32318e-119
3.46402e-24
0
0
1.1977e-39
4.02666e-36
4.785e-38
4.46748e-105
7.6953e-08
1.64669e-103
0.00669655
0
1.32029e-53
2.26023e-134
0
1.90784e-13
0
5.31356e-65
1.7589e-08
5.15121e-21
3.0102e-23
8.80172e-110
1.29201e-42
9.76561e-21
6.00043e-12
0
0
9.42523e-07
7.21063e-41
8.81226e-68
1.28851e-39
0
3.29914e-50
0.0412158
4.65754e-17
7.63242e-10
5.10938e-11
2.42893e-48
7.37972e-24
1.78134e-51
3.76034e-40
0
1.23168e-09
0
0
0
1.57348e-07
3.59801e-131
0
0
1.31658e-07
0
1.10281e-56
1.29861e-60
2.74288e-115
0
0
0
1.27651e-21
0
1.3995e-67
0
0
0.0235466
0
9.89753e-79
3.55717e-117
0
6.16429e-114
0.0102011
4.22482e-10
3.52032e-90
1.14441e-57
6.73976e-132
2.62403e-46
2.89457e-17
2.4074e-31
3.10929e-87
0
3.36693e-15
1.87393e-105
1.17657e-09
0
0.000217617
4.34157e-124
0
0
0
0
5.80528e-32
9.80174e-115
8.83074e-127
2.68924e-58
4.60263e-105
7.68168e-07
2.96108e-61
4.92877e-32
0
1.43107e-59
8.71898e-37
0
1.3709e-63
0
1.08011e-60
5.80214e-89
9.00222e-45
0
1.6219e-98
2.79339e-149
4.55706e-110
0.00107907
4.02354e-70
0
9.5312e-116
5.58024e-19
2.47826e-27
0
0.0018129
5.79138e-49
2.27931e-29
3.78634e-32
0.0187226
9.99002e-45
9.60584e-23
5.95309e-26
0.00913044
0
3.04092e-111
5.88396e-103
0
0
0.00359331
0
3.80906e-90
3.17321e-38
0
2.35112e-13
0
2.0847e-13
1.36454e-37
1.51008e-15
1.58506e-35
5.88876e-10
2.68948e-14
0
7.87815e-88
0
4.3417e-132
4.1777e-79
0
5.41932e-143
1.22375e-38
0.000228437
8.18027e-86
0.0302043
0
2.23485e-70
0
0
2.2903e-18
0
1.69267e-32
8.17058e-57
4.06387e-57
3.14049e-133
7.39026e-40
0
4.40547e-22
2.40464e-112
1.54633e-19
0
0
3.36927e-59
3.4668e-134
0
0
0.0813933
9.90677e-38
1.30896e-146
0
0
1.20716e-76
7.74906e-92
8.86012e-134
5.32561e-50
0
1.93329e-62
0
1.2797e-60
8.44581e-62
0
0
6.84826e-111
0
0
0
0
0.000954412
0
7.3901e-42
0.00353446
7.84856e-56
3.23317e-148
0
0
3.26937e-95
2.99562e-55
0
3.72909e-51
0
0
1.60511e-73
0
2.29376e-92
0
9.16304e-58
7.022e-77
0
1.40156e-06
4.13213e-103
1.02589e-97
9.31907e-91
0
8.34436e-47
1.11873e-104
4.00457e-12
0
0
0
0
0
0
2.25743e-26
2.74417e-60
3.75777e-11
4.62782e-41
2.38055e-39
2.34995e-33
9.4853e-12
1.36108e-23
2.51817e-28
2.47634e-88
2.121e-47
4.70376e-10
1.12242e-151
0
1.46115e-87
4.73346e-90
8.36896e-90
5.87306e-05
2.22836e-16
0
0
1.01662e-116
1.3894e-06
3.78442e-10
4.22424e-86
2.6808e-71
3.18828e-57
0
2.03191e-55
2.51561e-42
2.19415e-140
5.17874e-14
0.0124441
0
2.36614e-92
1.3227e-150
3.39216e-16
1.15364e-131
0
2.06801e-128
6.73865e-124
2.11637e-126
5.23653e-06
7.35076e-11
6.36214e-06
2.27535e-98
0
1.69232e-97
1.96859e-15
5.01575e-25
3.26418e-69
0
5.03409e-10
5.56443e-31
0.00103365
0
0
2.59915e-07
7.37957e-66
3.48096e-79
3.92059e-45
3.36255e-114
7.59781e-55
0.057493
4.32993e-98
0
0
6.3249e-05
5.94991e-79
2.70226e-95
8.57869e-30
3.45006e-47
0
0.00235571
7.34498e-96
7.39038e-34
2.12898e-49
1.22767e-31
6.59254e-111
1.19213e-47
1.32288e-119
2.13226e-30
6.7809e-140
2.85828e-19
1.0886e-33
0
0.000225383
1.39407e-101
3.94139e-115
1.23695e-115
2.41711e-41
2.47674e-08
2.97327e-83
4.58403e-20
1.30589e-42
0
0
0
3.37076e-106
2.17284e-28
2.86701e-70
2.74919e-10
3.94073e-11
3.6044e-12
4.82133e-25
1.6296e-11
2.21238e-133
4.35454e-10
7.24087e-10
0
3.43263e-87
0
1.18184e-41
2.04214e-67
1.98657e-106
4.81205e-101
3.48982e-78
4.71598e-132
4.74088e-58
0
1.12932e-21
2.89481e-114
2.83028e-67
0
1.3781e-39
0
9.51426e-97
0
0
2.98123e-07
4.40143e-95
0.00035715
2.27386e-31
0
0
3.56745e-88
0
6.33938e-102
1.9863e-51
2.77946e-26
0
1.0277e-44
6.02739e-41
1.84572e-112
5.41586e-41
0
1.78451e-42
0
3.62384e-41
1.96496e-22
2.11424e-30
9.17385e-38
0
1.68421e-113
0
3.60555e-37
2.31646e-105
1.04633e-127
3.70401e-39
8.06356e-112
0
2.25688e-47
5.43738e-09
3.11739e-39
0
0.00135432
1.97892e-109
7.45898e-11
2.96704e-127
0
0
6.38844e-75
1.98886e-97
0.012481
2.45347e-12
0
6.55996e-30
0.00668059
7.45384e-19
0
0
0
0
1.14409e-34
0
2.23443e-08
3.03148e-129
3.84995e-125
2.59204e-48
1.71284e-34
0
5.29387e-41
3.20514e-39
0.0160998
0.0239789
9.19627e-34
6.28312e-121
1.06483e-19
1.07498e-98
3.35671e-54
4.27235e-23
4.24826e-42
1.05901e-35
2.52409e-93
8.3379e-55
0
4.01723e-36
0.0179151
1.09357e-26
1.41424e-50
6.58379e-17
2.33417e-07
0
1.5133e-29
1.61837e-11
1.72133e-57
2.22534e-45
1.9139e-47
0
2.3109e-43
4.66345e-132
3.6465e-51
1.06904e-31
2.32901e-24
0.00134889
0
3.5439e-49
0.000521854
0
1.73524e-112
0.00950997
0
2.17677e-130
0
9.83647e-60
0.0316698
1.86966e-107
5.09241e-99
1.25197e-07
0
0.0284347
0
0.0226458
0
1.85304e-66
0.00747565
1.37807e-26
0
0.0199289
0
1.10078e-49
1.40137e-25
1.03448e-122
3.51719e-119
2.54359e-107
0.0114706
3.38866e-28
1.36016e-67
8.17863e-14
2.42482e-99
8.0714e-05
0.00225545
4.80122e-07
1.01243e-20
0.00553246
0
9.76551e-05
0
3.3468e-78
0
1.57859e-126
1.03409e-127
6.86244e-134
0
2.12516e-136
1.10675e-12
7.51241e-15
1.18908e-26
8.398e-08
0
0
0
0
5.57442e-133
1.15425e-112
0.00347703
0.000111055
1.47172e-96
4.67713e-82
9.81256e-73
6.36545e-23
3.95567e-31
3.12818e-72
6.74482e-37
0
1.43526e-78
1.18611e-83
5.70683e-20
0.0229352
1.89775e-25
4.79418e-05
1.07105e-06
2.70809e-76
3.7924e-36
2.35376e-14
1.19391e-87
9.37356e-93
1.29304e-95
9.46698e-11
0.0189154
0.00155108
0.000895162
2.28452e-103
4.87715e-134
0.028823
0
2.42364e-21
1.21808e-66
8.27235e-95
1.04364e-35
1.02499e-102
0
8.23972e-104
0
0.00133907
2.70916e-14
1.46717e-24
1.38821e-17
1.9295e-24
1.07172e-134
5.2581e-11
3.61584e-76
0
0
4.32989e-88
7.13536e-121
9.21958e-86
2.72855e-46
1.3393e-121
1.21482e-23
2.79368e-06
0
1.04979e-07
1.39866e-124
2.38655e-91
0.0206042
0
1.14014e-98
7.27946e-13
0
9.79292e-94
6.18246e-11
0.0011044
0.00639908
1.93297e-07
0
0.0136695
0.0412708
6.35631e-06
4.79581e-90
5.23544e-08
6.79544e-11
2.72549e-12
1.76934e-05
0
0.00475398
8.72266e-14
1.39953e-88
7.41047e-14
0
2.30348e-12
1.24743e-37
0.000117986
2.07372e-39
1.61959e-80
0.000726022
0.0220511
0.0068209
0
1.7245e-123
0.059037
1.32972e-150
2.79336e-38
1.76157e-18
0
0.000803944
6.20682e-40
2.34371e-66
1.21845e-55
7.06498e-60
1.49534e-64
5.49955e-42
6.84454e-07
0.0136959
4.2876e-10
0.000855689
1.79135e-90
9.99081e-11
0
0
3.26593e-79
3.57987e-64
4.87622e-56
2.1168e-63
0
1.7769e-53
9.43423e-47
2.37398e-57
0
9.02482e-40
6.29203e-07
0
0
0.0186951
0
2.99218e-121
8.86987e-06
4.60542e-66
9.30994e-60
8.79521e-72
0
5.21424e-112
0
3.84656e-08
0
2.85271e-32
6.11315e-05
0.0173272
2.01437e-21
0
4.04742e-05
3.14234e-08
0
0.00545565
0
0
0
2.33334e-08
8.30689e-53
5.46895e-05
8.10877e-79
0
4.4379e-133
1.55156e-131
7.26059e-12
1.53174e-124
0.000338937
0
0.000939786
4.52282e-08
0
7.29458e-109
0.013092
1.89526e-07
0.00097367
1.99112e-06
0
1.72532e-13
0.0443606
0
1.94946e-67
3.07098e-31
0
1.66035e-05
5.45064e-73
0.000301139
2.39766e-06
7.37336e-08
2.25394e-06
0.00932168
1.23671e-14
0.00104696
1.26439e-50
0.00200051
0.00441816
6.81934e-22
0.00302341
0
5.98619e-16
1.4898e-05
8.49552e-59
0.00152307
6.11858e-24
7.49608e-37
0
2.18584e-31
4.18018e-06
0
8.97335e-103
0
5.5009e-38
4.32102e-135
5.90783e-77
3.49393e-38
1.39186e-68
0.0130489
0.00131524
4.29885e-48
0.00033443
2.65114e-28
1.81737e-138
6.44039e-37
1.81133e-07
0.0209616
4.00066e-14
1.46585e-14
6.62347e-07
0
0.0312891
8.34247e-13
1.59107e-39
0.0067536
5.43932e-60
1.94546e-46
0
0
3.32016e-35
0.00144755
8.55902e-12
1.17869e-21
3.53687e-11
0.00205405
5.03984e-37
0.00078701
7.15451e-34
0
2.43724e-102
1.93931e-38
2.7624e-81
0
1.01324e-49
1.08436e-05
4.32007e-05
0.00284514
3.43972e-48
0.00520864
5.44145e-48
0.0131319
0
1.6291e-06
4.95611e-12
0
0
0
2.43626e-81
0
1.69932e-136
0
5.72034e-18
2.36047e-07
0
0.00397843
0.000176714
9.35227e-38
0.00383212
0.000182985
0.0192786
0.00122254
8.80682e-134
9.00742e-07
2.23231e-18
7.21981e-121
3.43532e-75
1.74573e-05
6.95609e-05
0
7.39032e-103
0
3.797e-61
0
4.51043e-05
1.25734e-05
4.2828e-05
0.000119424
7.96776e-113
0.00144961
5.91334e-28
5.50061e-135
0
2.0642e-76
0
0.000746546
0
5.74542e-62
0.0038282
1.17071e-59
8.22212e-45
0
9.44066e-51
0
1.67807e-82
1.64441e-10
5.90905e-31
0
6.75709e-15
3.50927e-15
0.00420395
2.07282e-47
2.66137e-44
0
2.18494e-47
1.28427e-42
1.96764e-52
0
3.73462e-05
2.07864e-52
1.25946e-130
0.0290475
2.07438e-42
5.8481e-129
4.11527e-43
5.06147e-41
3.06976e-05
0.00350436
0.019109
0
3.14885e-18
0
0.000262614
9.88252e-40
0
2.44866e-06
1.77874e-102
0
6.54578e-99
3.12293e-89
0.016001
3.71079e-145
0
6.05274e-05
2.93865e-09
0.00259302
0.0015559
0
3.44735e-07
0
1.1996e-07
3.94415e-67
7.78139e-16
4.48071e-06
0.000712667
3.6768e-06
0.00719409
2.5305e-29
1.43875e-66
5.7661e-13
5.24185e-05
1.60462e-10
1.22853e-06
1.406e-17
0.000268021
8.57262e-101
6.69982e-126
0.032913
0.00303513
4.15945e-07
0
5.32591e-07
9.35624e-08
0.0251972
1.7994e-148
1.43039e-10
4.39366e-119
0.00473918
7.97243e-66
0
3.64142e-15
1.55258e-78
0.0282077
0
2.51951e-08
0.00180154
2.34619e-99
2.60741e-63
2.41876e-07
4.54114e-67
7.36792e-75
0
3.10865e-122
5.77393e-13
8.38325e-120
0.00445528
0.0215389
0
4.80487e-121
0.00778729
2.75338e-68
0
3.35069e-13
4.72914e-110
7.68497e-106
0
6.97483e-72
1.61147e-07
2.56639e-06
0.017066
7.88892e-67
0
0.0120672
1.30509e-89
0.0025858
0.00358546
2.09982e-117
0
1.67505e-36
0
0.00104979
0
4.81417e-80
1.97891e-149
0
0
0.00339316
0.000717034
6.7753e-37
4.08228e-65
0
0
1.27846e-27
7.13382e-153
6.30238e-07
1.22552e-99
0.00318716
1.3171e-07
1.05862e-97
3.61035e-120
0
1.63425e-30
0.00122879
0
9.65725e-10
1.85404e-23
0
4.72617e-26
1.5516e-16
1.27195e-89
4.49103e-33
0
0.0148917
1.24041e-83
4.29523e-159
2.69477e-102
0
0
0.00123442
0.00160957
2.51442e-155
1.40087e-152
0.00492052
0
0.000283141
6.74457e-46
0
0.0186065
0.0461423
1.04632e-07
8.09906e-58
0
5.65487e-15
0.0439783
0
0.0107199
1.05573e-68
0.0168185
1.51282e-08
4.55104e-81
0.00305796
0.00413205
0.0215469
0.0192249
0.0121343
2.2902e-33
0
1.70059e-109
4.73604e-10
0
1.15743e-14
0.0199798
3.69662e-52
7.69002e-12
1.78345e-71
1.99573e-08
0.0144361
0.0239687
1.37268e-73
2.0041e-25
0.000106754
3.20989e-136
0.000156805
0
5.87709e-115
1.41634e-115
0.0183222
0.000755636
0.000176776
8.42643e-85
2.3265e-102
0
0.0223322
5.83048e-20
0.03872
5.81058e-139
0
0.0117523
7.23841e-11
0
4.85332e-61
0.02535
4.04629e-56
6.37964e-56
1.76348e-21
0.0081987
6.40521e-23
1.00762e-19
9.53395e-141
0.0188169
0.00452468
0.00016309
1.91212e-18
1.19956e-61
2.1486e-05
2.70197e-96
1.50386e-09
0.0189355
0.0108749
0.000126245
1.82979e-05
2.14931e-05
1.60994e-05
0
0.0817667
0.0186354
1.35324e-16
8.77779e-144
3.34207e-10
0.0177234
1.17897e-136
2.98482e-07
5.11315e-05
0
0.00134155
4.07658e-142
0.0468102
7.23841e-09
1.07389e-11
5.4957e-06
0.000301761
5.95402e-91
3.00435e-142
5.81359e-48
7.97423e-34
0.00549944
0
9.36592e-06
0.00904431
8.4802e-140
6.79322e-144
0
1.31659e-58
3.64256e-42
0
2.1457e-24
0
0.00800024
6.28005e-60
0.00287629
1.33494e-141
1.62752e-16
0
0
1.4348e-05
0
0
2.45645e-68
1.18448e-43
1.58098e-45
0.0141771
0.0234689
0.00041938
2.03765e-20
9.50665e-39
1.93186e-40
0
0
0
1.5688e-34
2.18792e-70
1.21444e-32
5.10199e-30
0.0305634
0
3.52086e-39
1.17731e-64
1.36009e-32
4.75013e-24
5.1119e-108
4.46914e-29
0
0
0.0210102
3.77762e-55
0.000205675
1.42177e-85
1.4749e-49
1.87181e-10
6.543e-09
1.46006e-99
2.82623e-53
1.52433e-64
0
1.59239e-56
4.60101e-73
8.90321e-47
2.00438e-25
0
9.42489e-68
5.13317e-85
9.77637e-74
0
2.6193e-71
0
1.41049e-72
5.56701e-27
8.03615e-72
0
2.68533e-24
3.21615e-05
2.75806e-08
3.65851e-64
0
2.70816e-100
0.000906202
0.000476509
0
0.00138364
0.000826684
9.42176e-90
9.73777e-42
6.64467e-14
7.98295e-19
0.000927385
0
1.18655e-59
8.02584e-31
0
0.00144277
0
4.51251e-107
8.98619e-82
0
7.46079e-64
1.96684e-105
0
1.24883e-70
1.21448e-101
1.81694e-08
5.69801e-65
2.62218e-104
3.84441e-43
3.1549e-104
2.8195e-45
5.527e-09
2.49962e-69
0
5.3227e-07
5.4932e-07
0
1.5766e-97
0
1.25359e-45
5.82618e-19
0
1.52321e-70
5.70867e-14
3.82724e-66
1.59099e-54
0
0
3.19124e-61
0
0
0
0.00463827
5.62397e-19
6.65656e-05
3.72631e-31
2.7211e-09
1.67367e-95
3.83805e-64
0.00085426
3.23536e-97
0
1.45188e-07
1.28469e-93
0.0033578
0
9.66726e-96
1.78656e-29
8.77168e-14
1.73909e-09
8.88373e-21
4.4025e-09
3.90348e-54
9.82096e-20
6.02495e-08
6.43684e-100
0
2.01135e-79
7.18004e-25
4.63636e-22
1.75772e-36
9.26177e-08
3.81866e-23
7.93484e-10
6.07724e-29
1.00221e-06
1.27642e-21
1.71715e-41
0
3.11867e-10
1.28187e-36
7.06757e-32
3.79736e-53
3.07995e-102
1.34475e-23
0
0
6.0428e-24
2.51844e-94
1.91683e-98
0
4.76714e-29
0.00729654
0
4.80547e-46
5.10428e-41
1.02328e-80
9.45459e-37
1.44626e-79
4.61442e-44
0
3.78581e-55
1.20362e-80
2.10404e-82
8.79956e-80
1.9629e-78
0
1.74213e-71
0
5.04292e-111
2.47209e-95
1.00141e-11
0
0
0.00274998
7.34882e-115
2.35319e-50
0
2.03432e-85
3.05488e-90
5.50208e-56
1.23352e-134
5.64628e-86
2.51747e-29
1.35785e-17
8.60016e-47
2.43436e-73
1.58863e-33
4.86756e-137
5.94431e-38
1.09025e-06
9.18941e-136
0
0
2.29712e-136
4.50061e-86
4.57978e-25
1.01166e-89
6.31111e-19
0
2.14248e-53
7.91858e-139
0
0.00591665
8.46072e-05
6.65927e-49
6.39906e-101
1.40839e-133
2.99173e-92
0
0
8.22001e-103
1.43852e-103
2.30901e-62
5.8641e-08
1.37162e-76
0
5.04851e-102
0.0199558
0.00186638
3.34775e-11
0.0192882
6.57985e-11
6.44144e-72
3.21544e-20
3.46947e-62
4.37188e-91
1.11391e-73
9.88346e-09
1.9078e-69
3.13129e-74
8.38834e-10
0.016977
2.03532e-66
0
0.0199954
1.62525e-65
0.0191749
0
3.66191e-38
0
9.30734e-63
0.0169564
0
0.016619
5.20463e-74
0
0.0117066
1.70672e-74
0
3.95327e-11
0.017167
8.74507e-71
1.97529e-21
0.0131259
9.1294e-92
2.82551e-16
0.020315
4.82216e-16
6.52107e-25
2.91933e-87
0
0
1.55248e-17
0.0106835
0
4.94701e-76
6.88272e-46
0
1.5832e-47
1.20318e-08
0
1.63631e-43
0
2.73416e-07
1.10083e-40
5.92859e-49
6.19636e-42
0
4.93798e-25
2.01988e-106
3.20924e-08
0.00959563
3.92936e-92
2.0352e-11
2.19344e-06
0.00972078
2.91414e-100
5.49444e-53
0.033031
0
1.22123e-08
5.98285e-42
5.89469e-22
1.18547e-88
8.5613e-07
5.44687e-117
1.28557e-115
0
0
0.00628411
3.85918e-32
6.14482e-34
0.0116554
0.000506921
3.31152e-103
1.55767e-64
0
1.11648e-59
4.22906e-108
5.65919e-69
0
0
1.42329e-10
0
3.52393e-24
0.00912071
2.67625e-32
0
0.00355507
0.00825414
0
0
3.26777e-11
4.35592e-35
0.000228844
0
2.19366e-05
6.38397e-22
1.3408e-10
0.00314639
3.16404e-06
2.42905e-11
3.34318e-21
7.36267e-08
0.00505547
4.80818e-91
2.14266e-52
6.75168e-06
3.41504e-39
0
2.75953e-20
0.0162779
4.2444e-30
2.87853e-57
0.00614557
5.84535e-48
0
0.00169121
5.16296e-71
0.0100001
1.35441e-82
6.74322e-07
0.00424766
0.00748182
0
2.88877e-87
0
0.00449328
6.54604e-52
3.46507e-07
7.76132e-45
0.0068242
0.0127026
0
0
9.65035e-06
0.000774432
0.00236936
0.00367032
0.00229431
0
0
6.55742e-75
0
2.55907e-111
1.09297e-93
9.53372e-76
1.35018e-50
1.95776e-95
0
0
0.0721864
2.45146e-53
9.69073e-52
1.31238e-93
2.42373e-28
2.33054e-44
0
0.00133603
7.01886e-80
0
1.42394e-52
0
5.42799e-48
0
0
5.44443e-76
5.9129e-28
1.50232e-39
0.00220941
0
0
7.90891e-13
0.0482748
0
0
5.75596e-13
3.28415e-117
0
0.0505845
8.36114e-69
5.3663e-43
1.59796e-115
9.52498e-92
0
1.75605e-63
1.45583e-117
0
0
0
5.15492e-32
0.00229094
2.47076e-116
0
1.24779e-114
9.50346e-22
0
0
0
0.0244569
0
8.04186e-81
5.29703e-132
2.50986e-37
0
0
0
0.0233208
0.054271
8.90197e-117
3.80702e-05
5.24194e-90
6.93225e-127
0
3.56977e-27
0
4.53462e-42
0
8.28475e-53
1.04409e-88
6.52374e-12
0
0.00402275
0.000110623
6.61442e-75
0
0
0.00737195
0
0
2.05917e-75
4.69297e-78
0
4.97703e-86
0
0
7.28583e-86
2.02188e-42
2.92098e-39
0.00309076
0.00269984
8.73297e-79
7.85275e-05
0.00395414
1.29456e-92
0
0.100532
0
0.000248661
2.90091e-16
0
1.71835e-59
2.11747e-91
8.53312e-08
0
8.27203e-96
1.03515e-98
3.04158e-64
4.47957e-85
4.99564e-97
2.46774e-12
0
8.84889e-17
0
0
2.11055e-17
0.000474112
0
4.10351e-47
0
0.000285564
0.00317015
2.70962e-93
0
3.52485e-125
1.03175e-39
3.63954e-09
0.0150308
0
1.36661e-30
4.15064e-25
0.000248595
1.13808e-139
2.64201e-96
0.0179679
2.49833e-94
0
6.97374e-111
4.22051e-98
3.10896e-24
7.37915e-29
0
1.11972e-37
0
0
0
4.16394e-113
0.0139931
1.6613e-09
1.77196e-118
2.99143e-24
6.01107e-115
0
1.43021e-99
0.0267417
6.35823e-14
0.00877245
4.21549e-46
2.51083e-111
0
0
6.51349e-09
6.26339e-28
2.0369e-05
0
2.07611e-109
1.54735e-80
0.0214012
0.0540737
1.17952e-09
0
8.70944e-06
0
0.00261835
1.16387e-05
0.00247587
1.713e-26
0.00806262
9.63987e-09
0
1.39317e-91
2.23754e-131
1.52936e-75
3.84975e-114
5.7593e-61
0.000771649
0.0273341
0.000118663
1.7214e-07
0.00264265
1.90559e-45
1.48755e-17
6.38717e-17
2.79987e-14
0
0.0003622
0
0.014067
0.000155724
0
0.000766395
7.66189e-06
2.51548e-73
5.17662e-102
0.020699
0
9.12457e-131
0.00386038
0.00650292
5.99342e-147
1.76543e-107
3.78229e-91
7.29938e-117
0
0
2.48535e-114
0.000131515
0.0187031
4.95962e-100
1.72345e-40
0
0.00268336
0.00408925
7.69196e-53
2.7315e-133
2.34532e-122
0.00104926
3.49894e-81
2.99634e-65
8.62993e-18
0
1.57655e-38
1.9615e-105
9.31176e-84
0.0338018
2.49185e-08
7.24485e-79
7.47627e-168
3.26877e-80
3.1846e-73
0
1.09818e-10
0
1.97479e-21
1.5049e-58
0
0
0
4.80138e-112
0
3.59071e-83
1.14836e-97
2.25205e-77
6.1064e-74
9.8039e-86
1.50889e-76
6.01861e-09
4.82644e-93
5.08058e-06
3.33308e-69
1.86311e-137
1.16197e-90
0
0
1.39817e-67
0.00639162
9.61971e-06
0.0223478
1.48942e-06
1.11087e-59
0.00187898
0
1.66632e-08
8.37551e-06
2.60661e-05
4.93849e-08
3.28761e-63
2.12672e-67
0
4.93265e-61
3.73103e-124
3.91374e-85
6.83152e-45
1.61619e-06
0
0.0209691
3.41658e-76
3.74123e-33
3.72372e-69
0
0
1.81812e-89
6.84985e-37
0.0184093
3.29558e-05
2.64192e-87
0
3.40701e-27
7.44617e-07
2.51943e-36
2.38915e-36
0.00712275
2.78942e-67
0.00705863
9.51915e-145
7.63158e-132
5.62322e-23
0.00685456
0.00475453
0.006288
0.00798233
0.00445119
0.00103385
0.0196141
7.59425e-08
0.00847696
3.96412e-104
0
2.82516e-91
0
6.71133e-05
0.00710489
8.46808e-05
3.14037e-08
0.00408043
0.00200455
0
0.00827625
3.22716e-07
5.14829e-121
0
1.93161e-113
1.13304e-07
0.000750951
0
2.62116e-112
1.92821e-07
0.0129332
0
0.0301584
5.30047e-08
4.94619e-13
0.000412518
1.83002e-128
0
0.0011716
6.42285e-11
3.86504e-123
0
0
7.73833e-109
6.08886e-105
0
3.12825e-127
4.85198e-90
0.000239886
1.04429e-98
0.00011806
0.0044544
4.58076e-95
6.1865e-10
3.86147e-06
3.07969e-05
8.5134e-11
1.53096e-05
8.7003e-24
0.000752359
0
1.10224e-140
2.55449e-05
0
3.05956e-05
1.14755e-05
1.35261e-31
2.34219e-43
3.54651e-24
0.00869561
0.0193541
0
1.47147e-48
1.42657e-08
0
0.0153458
0
0
0
2.81943e-09
3.83554e-77
2.06857e-11
1.01411e-111
8.34582e-75
3.12366e-38
7.92058e-07
1.37512e-06
0
0
0
0.0224422
0.0193167
0
0
0.0467648
5.82378e-06
0.0219697
8.06645e-70
0.000172858
6.17466e-95
1.13989e-41
1.94374e-102
0
1.37542e-98
1.10063e-81
2.32741e-100
0.0220742
4.14791e-142
2.6689e-33
1.65951e-99
0
9.88422e-101
3.51603e-131
1.39351e-75
9.59227e-05
0.00370605
0
0
0.00561069
0
0.0202018
0
0
0.0228502
6.83702e-69
0
0
0.00514054
5.38771e-33
1.09936e-103
1.52404e-23
2.00685e-54
1.77414e-83
8.14691e-100
6.02353e-26
0
4.98629e-144
9.3648e-105
5.72129e-147
1.3348e-110
0
0
8.43023e-10
1.56449e-128
1.34243e-32
0
3.28199e-16
1.57885e-96
5.5563e-30
0
0
0
1.07663e-83
3.69304e-86
1.39327e-92
9.515e-20
3.31083e-61
0
5.14511e-110
0
0
0.0141113
1.05637e-99
0
6.77814e-97
0
0
0.00880513
1.96672e-111
0
2.70069e-82
0
0
0
1.98006e-89
1.33759e-48
0
0
2.33582e-51
6.18888e-05
3.33683e-108
1.09159e-105
0
1.64108e-77
8.55928e-65
3.87908e-75
0.0516641
0
7.09251e-78
4.09279e-49
9.69839e-102
3.61339e-08
7.87227e-97
4.17444e-06
0.000737325
5.0715e-22
4.87512e-35
6.94484e-111
1.27346e-58
6.27106e-125
2.09192e-88
0.0192669
1.47521e-52
1.20259e-139
0.0183884
7.3813e-78
0
0
0
1.92155e-55
3.67451e-64
0.000469681
2.84536e-86
4.53643e-135
0
0.0194652
0.00352418
0.007647
1.86001e-14
0.000769573
0.00488262
1.10327e-40
0
0
0.0202079
8.19967e-74
0
5.6925e-69
2.87757e-57
1.82965e-05
1.56913e-93
0
3.98809e-69
3.9295e-20
0
0
1.25281e-11
1.20341e-125
1.16511e-20
0.000119057
0
3.78162e-06
2.26082e-104
4.40808e-76
5.42845e-128
2.81147e-68
2.98415e-69
2.80002e-19
0
0.000911339
0.00292324
0.00138204
1.6348e-08
0.00460781
7.26812e-19
5.40876e-121
2.09688e-107
1.64831e-101
2.36649e-92
0
6.67454e-122
1.17885e-124
3.98253e-99
0.00113313
1.58311e-10
1.01084e-08
0.00568632
6.32383e-87
0.00165951
4.49857e-25
2.90425e-07
1.07025e-26
1.36287e-125
0
1.20285e-110
0
0
0.00112743
0.00128063
0.00422803
2.2427e-100
0.00187022
4.12669e-79
2.41335e-33
0
4.33211e-21
6.81674e-126
0.0400453
5.34848e-26
8.14756e-81
0
0
8.63123e-08
3.78444e-86
1.3086e-17
1.96184e-123
2.0587e-84
0.00777568
2.30412e-104
4.12857e-18
1.85312e-126
1.61912e-24
1.44e-96
0
1.6608e-97
0
0
5.04157e-96
0.0180131
2.85329e-77
7.57004e-16
7.71826e-99
6.00776e-55
4.94786e-07
0
1.36869e-97
9.9824e-96
0.00501125
0
2.05169e-09
0.00345164
3.42462e-05
2.55052e-130
0.0191684
0
4.8669e-99
3.10794e-92
0.0110733
2.951e-18