/*--------------------------------*- C++ -*----------------------------------*\
| =========                 |                                                 |
| \\      /  F ield         | OpenFOAM: The Open Source CFD Toolbox           |
|  \\    /   O peration     | Version:  v2012                                 |
|   \\  /    A nd           | Website:  www.openfoam.com                      |
|    \\/     M anipulation  |                                                 |
\*---------------------------------------------------------------------------*/
FoamFile
{
    version     2.0;
    format      ascii;
    class       volScalarField;
    location    "3.5";
    object      G;
}
// * * * * * * * * * * * * * * * * * * * * * * * * * * * * * * * * * * * * * //

dimensions      [1 0 -3 0 0 0 0];


internalField   nonuniform List<scalar> 
108993
(
1837.27
1862.21
1837.24
1837.22
1837.21
1837.22
1903.92
1837.21
1837.22
1856.97
1837.28
1837.27
1837.22
1837.22
1837.24
1837.97
1884.41
1837.16
1837.22
1886.86
1837.2
1837.22
1837.75
1837.2
1837.22
1837.22
1837.21
1877.29
1851.93
1837.22
1837.22
1837.19
1837.21
1837.76
1837.22
1837.21
1837.22
1837.35
41500.6
31124.4
1839.09
1837.37
1837.19
1837.22
2058.17
27242.3
1837.21
1846.06
1837.52
1840.33
1837.22
3907.68
1841.54
1837.22
1837.08
1837.25
1837.22
1837.21
1837.26
1837.21
1837.21
1837.21
1837.22
1837.22
1837.21
1837.23
1837.21
1837.22
1837.19
1994.3
1837.19
1837.22
1837.24
1837.22
1837.4
1837.22
1837.21
1840.24
1837.22
1837.21
1837.22
1837.06
1837.24
1837.28
1837.17
1837.19
1837.29
1837.28
1837.21
1837.21
1837.21
1837.22
1837.21
1837.21
1837.21
1837.68
1837.22
1838.32
1837.22
1837.22
1837.21
1837.22
1837.25
1837.32
1837.35
1837.21
1837.22
1837.21
1837.22
48100.6
2482.12
1837.21
2348
3532.54
1837.84
4554.09
1837.21
1838.02
1916.1
1837.22
1836.94
1837.21
5151.21
1837.33
1837.25
1867.06
1838.89
1837.62
1837.21
1837.21
1837.2
1837.21
1837.27
5883.84
1837.48
1837.3
1837.21
1837.53
1837.22
1837.18
1837.3
1837.22
1875.81
1837.21
1837.21
1837.3
1837.44
25653.9
1837.29
10192.4
10967.1
1837.22
1839.6
12338.4
1837.31
1979.22
1837.59
1837.21
1837.21
2048.88
13003.3
1837.21
1837.22
1837.19
1837.22
4523.07
1837.21
1837.21
1837.22
1838.35
1837.23
1837.27
2030.77
1837.29
1851.59
1837.24
1939.34
1837.22
1837.65
1837.31
1847.66
1837.24
1837.22
1837.33
1837.22
1837.54
1837.22
1837.24
1837.25
1837.33
1837.81
1837.22
1837.67
1973.26
1838
1837.64
1839.35
1838.38
1837.52
1837.33
1837.21
1930.73
1837.19
1837.21
1878.07
3935.35
1837.22
11900.8
1837.49
15615.9
2253.94
1837.94
1950.75
4984.65
57390.8
1837.53
1837.26
1837.22
1837.22
1837.21
1837.36
10253.1
1840.3
1907.57
1837.38
1837.22
1837.21
1837.24
6945.69
1837.23
5931.09
1837.22
1837.21
1838.87
1837.23
1837.21
1837.22
1837.21
2377.79
1837.21
1837.21
1837.23
1837.21
1837.21
1837.21
1839.44
4697.67
4080.24
1837.21
1837.22
1837.22
1837.21
1837.22
1838.29
1837.21
1837.21
1837.21
1837.27
1837.22
1837.22
1837.22
1837.39
2058.53
1887.06
1837.22
1837.25
1837.22
1838.01
1837.22
1837.25
1837.21
1837.23
4445.35
41626.8
22021.8
1837.83
1837.22
4943.7
1837.42
1837.55
1837.64
13792.6
18503.3
1837.22
1837.21
1871.36
1837.22
1838.5
1837.39
5900.91
1836.98
1837.22
1839.4
1837.22
1837.24
1837.22
1837.22
1837.22
1902.46
1837.21
3726.19
4797.11
1837.23
1837.21
1837.23
1837.6
1837.31
1837.26
1837.62
4448.92
1837.21
1837.21
1872.27
1837.21
1837.68
5123.24
1837.22
1903.47
22173.6
1837.23
1897.26
1837.22
1840.22
1840.7
1838.42
8957.78
42122.2
3902.74
1837.22
1837.61
1839.67
3450.31
9842.53
1837.22
8670.83
1837.22
1837.29
1837.21
1837.48
1837.21
1837.24
4242.16
1851.94
1837.23
1837.36
1837.23
1837.22
1837.21
1837.22
1837.22
1837.24
1837.22
10089
3021.94
1837.28
1837.23
1837.29
23273.7
1837.27
1837.21
1837.81
1849.22
1837.22
1837.25
1837.41
1860.34
1837.24
1837.22
1837.29
75594.4
1847.75
1850.96
1837.22
22500.7
1850.47
6521.61
1837.4
1837.29
4773.29
1837.51
4659.78
4827.34
1866.59
1853.79
1837.24
1846.03
1837.93
22306.6
1837.34
15548.8
5609.44
1852.01
5621.88
1837.2
4084.23
1843.2
39600.1
1837.23
1962.34
1837.22
1843.43
5132.94
5249.59
1837.28
1837.37
1855.45
1847.82
1837.71
1837.27
24603.6
1837.17
1838.11
74418.9
1837.22
1837.26
1837.22
13562.3
1945.12
3680.77
1837.21
25011.1
1883.7
21264.9
1837.22
1837.21
28139.7
1837.21
4857.08
33797.2
1837.21
30123.7
44682.8
29161.4
1837.21
1837.45
1860.28
1837.39
1837.26
1837.22
1837.22
1837.26
1837.23
1837.23
1837.43
2577.23
1905.86
1886.86
1989.84
1837.23
1837.41
1837.03
1837.21
1837.24
1837.57
1837.22
1837.24
1837.27
1837.34
1837.73
1837.23
5218.12
1837.31
5207.59
6378.23
1928.84
1837.25
1837.23
5096.69
1837.25
1837.28
1877.65
1837.21
1837.21
1843.54
1837.33
1895.25
1837.23
2158.13
3132.53
2184.87
1837.26
1837.22
1837.22
1837.22
1837.33
1837.33
1837.25
1837.28
1914
1838.66
1837.24
1837.23
1972.36
1837.3
2264.51
1837.22
1837.4
1837.26
1837.23
1842.47
1837.21
1837.22
1837.23
1837.24
2060.81
6195.57
1837.23
1837.22
12563.5
1837.23
1852.98
1881.07
1837.22
1847.21
1837.22
1837.21
1837.22
1837.23
1840.34
1838.48
1839.49
1839.36
1893.69
1839.3
1838.12
2060.84
1842.57
1837.34
2030.04
1839.05
1850.54
1837.21
2041.47
1837.13
1837.78
1837.58
3036.58
1837.25
1857.98
3362.23
1837.22
3973.39
1837.21
1837.22
1837.34
1837.28
1837.22
2012.74
1838.87
1837.22
4191.44
1846.77
19765
1837.22
1837.24
1837.22
1837.21
1846.65
33194.1
1841.8
1837.84
1837.22
1837.33
1861.63
2073.34
5417.83
1837.34
1837.22
1843.05
1839.12
1837.28
1842.99
104042
2197.84
4703.01
1840.51
1837.34
2046.01
38181.3
2018.39
1837.73
1838.06
1837.22
1837.22
1837.28
2281.9
25124
2298.81
1837.23
1837.22
1839.42
1837.19
1842.87
1837.23
40526.5
1837.21
1837.22
1837.19
1838.23
1882.42
1837.24
1837.32
37661.4
2026.79
1837.17
1837.19
36832.4
1837.19
1874.73
1837.27
9106.65
1837.29
1896.03
1837.29
1857.55
1837.29
1843
1837.19
5297.58
1837.22
5935.55
1837.22
1837.77
23589.2
1877.43
1837.21
1837.22
3176.2
25292
1859.31
5600.85
1837.68
4083.59
3303.8
1840.65
1837.22
1837.19
15173
2291.68
2647.61
1837.57
3153.66
1837.26
1850.43
1837.22
1841.06
1837.89
2066.28
1893.64
1863.46
1865.37
2271.61
5041.07
6060.49
1931.62
1842.41
2074.36
6098.73
2312.74
7654.59
4997.25
1837.22
1849.88
1837.22
1837.22
1841.16
1861.87
1878.09
4486.4
3489.24
2018.57
1842.52
4945.27
6309.56
7437.05
1837.21
1856.99
1875.53
1837.22
24959.5
1875.49
3010.02
2014.12
1859.07
8294.53
1946.75
2404.62
1870.73
1873.01
28626.1
1837.21
1837.29
1972.55
1847.03
1839.5
95150.9
1863.58
7325.9
1872.8
58102.5
2036.87
1837.22
1837.23
1837.23
1964.43
1837.21
1972.9
1838.11
1837.23
1837.23
1845.56
5353.58
73126.8
1837.22
46860.9
1837.22
2385.55
1987.91
1837.21
2419.99
1840.3
1838.64
2269.62
1840.85
1837.12
1857.62
1913.45
2501.13
3617.9
1837.22
2170.01
1838.72
1838.54
1841.95
1837.14
1837.21
2098.39
1837.22
1837.24
1864.75
1837.27
1848.35
98260
8658.37
1839.18
1861.72
1839.87
1856.49
1840.36
1909.86
1837.42
1837.22
1837.22
1837.69
1837.22
1880.08
1837.22
1837.76
2014.27
1837.25
1837.65
1837.22
1837.72
1837.35
1962.38
1842.65
1856.6
4114.19
1837.22
1837.22
1837.36
2234.34
1837.31
3919.03
3192.82
1837.11
1837.35
53494.6
5743.03
1840.66
1837.22
1987.79
1837.33
1837.31
1844.8
1840.43
1889.38
1837.21
1837.3
1919.34
1837.22
31871.2
1837.23
1837.88
78217.8
1929.77
5008.94
1918.69
14225.6
1837.22
1881.58
1889.66
1837.21
1837.29
1886.87
1837.22
1837.61
1837.17
1837.23
1837.24
1837.34
1839.08
1837.22
1962.93
1838.26
3909.17
1837.56
1837.29
41245.5
1837.58
40183.6
1847.32
1837.14
1862.82
99291.4
1932.91
1837.58
1958.61
2118.99
1887.63
1854.99
8585.03
1910.8
1837.37
2038.52
1837.54
1837.32
1980.17
38005.3
1837.29
1837.28
1837.38
1989.31
1837.59
1837.66
2019.36
1837.27
1837.23
28543.4
1837.47
34685.3
1837.98
24721.4
1837.47
1873.12
1876.38
2111.54
2110.9
1837.24
1878.64
1881.4
2002.47
1839.12
24506.3
1837.34
1837.46
1837.26
2441.77
1946.97
2110.04
1837.22
1837.25
1921.71
23538.3
1837.32
1924.29
2512.88
2079.93
1840.41
2147.09
6842.58
25008.7
1843.6
4227.21
1837.88
10921.2
1837.21
13060.8
57081.4
16636
1837.21
1837.21
1850.24
1937.42
1982.42
1837.52
1837.22
2176.17
3078.28
1837.21
4189.34
1901.2
1838.02
10609.4
1837.32
1837.23
16489.1
20258.2
1837.43
1904.61
1837.21
1837.21
2123.53
4289.11
12931
1839.4
13249.2
1887.19
2114.46
1850.28
1837.11
1960.86
1853.21
1849.42
1837.22
1849.62
1837.27
5020.78
1837.43
1837.22
2944.04
1837.22
2031.03
2156.39
1958.55
2028.83
1837.21
4290.24
1837.22
7025.69
1838
1837.25
1837.21
2020.52
4220.32
1837.23
1863.5
9326.64
2792.79
3697.25
1837.22
2032.28
3542.96
3778.15
1837.19
1940.95
7519.06
2049.66
1863.21
2045.62
1851.23
2420.18
63227.8
3827.1
1964.97
2026.5
1924.63
1948.87
1880.94
1851.86
2034.08
6219.34
1862.87
1837.22
1840.3
2105.3
1837.22
1837.26
1837.22
2130.71
1837.76
1837.26
1837.74
1840.46
1837.42
1838.04
1838.84
4471.89
1837.89
1837.28
1862.47
1837.22
61420.6
1837.25
1837.22
1842.31
1837.22
1840.88
18451
2073.15
1837.69
1837.76
1837.21
2807.24
1911.44
3641.58
1839.25
1837.92
4420.65
1837.24
2011.39
2382.64
2318.39
1837.22
1837.79
1837.94
1837.33
1838.39
1843.58
1837.06
1837.22
1837.57
1837.22
5503.06
1837.81
1843.4
1837.21
1837.82
1841.86
2283.1
1870.35
1880.52
1838.01
1837.27
1838.69
2145.68
1838.45
1837.22
1837.22
30159.3
1837.46
1863.65
1837.76
1899.18
1837.99
1837.21
11467.7
2784.94
1879.68
1848.72
24154.2
2042.76
2288.15
1864.99
11059.5
1837.45
1837.34
1837.51
2198.55
1857.7
37909.3
1947.01
1838.13
1838.36
1838.21
1913.78
1837.35
1884.31
2998.87
1873.32
1843.9
2656.65
2268
1896.7
1837.23
1837.22
1837.22
1837.22
1837.21
1837.22
1839.11
6392.48
1842.28
31559.6
1844.1
1837.67
1837.27
1880.69
4920.04
1837.21
1845.52
1837.3
1901.02
1837.21
1925.25
24808.6
1898.96
1837.27
3880.95
1837.25
1837.23
1837.26
1837.21
1837.21
1838.14
164852
2170.6
1837.22
1837.43
1837.21
1837.85
1838.25
1837.22
1838.34
1837.25
1837.29
1837.22
1839.27
1838.96
1837.45
1837.38
1837.55
1837.22
1837.88
1838.6
1838.26
2260.45
3180.56
2690.79
13171.9
1837.84
1837.22
1837.78
1837.22
1837.57
1838.35
1842.26
1837.3
1837.4
4659.28
1837.98
1840.57
1839.85
1841.96
1838.39
1837.17
55867.3
30442.4
1837.85
1837.23
1837.23
1839.12
1841.64
1837.24
3257.9
1837.23
1837.44
1837.22
1837.22
1837.22
1849.06
1853.01
1853.32
3247.86
1894.89
1883.54
1905.35
5426.63
1878.1
1850.61
1837.22
1837.47
9972.32
1837.21
1966.09
1854.62
1859.22
1848.17
24977.9
1913.4
1837.22
2022.51
1837.22
2139.85
1952.19
1846.16
1837.22
1837.67
1837.34
1837.84
1837.52
1837.25
5492.98
30357.2
1907.89
1837.25
1837.22
1912.17
1837.65
1837.22
1837.66
1837.21
1837.45
26892.9
2007.17
5192.35
1837.29
1910.04
1837.24
1983.85
3587.67
1837.94
1837.28
2004.82
1839.59
2376.51
2041.62
1895.41
3649.47
1837.22
1837.24
1885.45
1837.21
1837.34
65315.8
1837.34
1837.34
1837.28
4674.73
1838.1
1837.22
1870.8
1837.24
3963.54
9387.72
1837.22
1858.9
1837.96
1888.62
1837.25
1837.57
1837.21
1843.82
1837.22
4119.48
2012.63
1837.21
6697.5
1837.27
1837.34
1837.22
1910.58
20437.8
1837.23
1888.67
2575.11
40762.2
1959.17
1837.66
1837.24
1926.41
1837.23
4325.6
4037.3
4180.66
3283.38
4003.28
1837.21
4107.02
4359.21
1849.88
1854.56
1837.22
2449.9
1837.23
1837.22
1837.24
1862.77
1837.21
1841.2
1840.01
2289.45
1837.21
1837.23
1839.2
1843.23
1839.52
1839.16
1837.22
2227.69
4859.8
1839.55
2870.92
1841.95
1837.84
1837.76
1839.87
2078.13
1837.27
1849.86
2167.22
1839.69
1839.57
1840.7
1837.48
1843.16
7830.41
1840.59
1923.95
1840.52
1952.93
3416.5
1839.56
1837.22
1846.79
1837.27
1839.49
1837.22
1837.21
1837.78
1846.77
1978.85
1842.72
6222.46
1839.3
3152.62
7761.66
1837.22
4142.84
1837.21
1845.65
1848.72
1837.38
1837.15
7444.45
6000.33
2147.18
1850.34
15525.4
2773.8
1837.23
1837.27
1837.21
1840.01
1839.87
1838.72
11202.9
1837.22
1837.22
1854.31
1855.69
1848.87
1837.27
1837.4
32353.9
47097.4
1849.46
1837.21
4744.54
1840.52
1860.1
1838.76
1837.37
2320.28
1837.25
1858.89
1837.77
1854.99
19080.6
1892.87
1858.72
2855.82
2122.92
1857.87
2171.47
8140.07
1851.25
1837.37
1839.7
3065.36
1933.91
1837.25
1837.92
3047.59
3206.5
6979.29
1837.49
1838.41
8095.08
1840.74
1837.22
8743.19
1840.6
1837.22
1842.07
1837.28
59794.3
1837.22
1837.26
5191.44
1842.41
31793.1
1842.02
29788.9
1840.71
1915.79
8086.26
1854.61
1910.25
19561.1
1898.77
1841.2
4741.43
1837.22
1837.23
1837.22
13841.8
2571.31
1837.23
4655.48
1837.22
2047.69
10709.6
7879.26
1869.6
13098.8
1837.22
71771.1
1837.23
1837.22
1837.83
1837.22
1837.21
1837.22
1837.22
1837.33
4500.27
19789.3
2687.36
2080.84
1837.41
1837.23
1837.22
1837.36
1837.44
1837.33
5235.22
2046.12
1837.23
1837.22
1837.27
3955.74
1837.49
1837.22
3558.63
1837.25
1837.22
1837.22
1848.33
34040
2229.73
7051.28
17772
1837.22
1842.22
20144.7
1837.22
1837.22
1837.27
2915.35
35994.8
2400.84
45350.7
1837.22
1837.21
304340
1837.22
1844.4
1837.28
1837.22
1861.21
1837.22
1840.19
1837.24
1839.81
54371.6
2144.09
1840.94
3269.99
2306.89
1837.21
5183.52
1837.22
1837.23
1837.22
1837.27
1837.21
1837.25
1838.67
1837.21
1908.37
6476.67
3441.36
3817.6
1837.28
1837.25
54440.4
17100.5
1837.22
5398.77
1837.22
1837.22
2034.27
5590.79
47127.7
5748.88
1837.22
17163
60322.5
5992.78
1837.25
6271.89
2007.64
2005.37
6960.44
1859.9
46618.4
1974.79
1839.62
1955.85
5519.91
1988.91
1885.78
2330.73
1890.25
1840.83
5795.43
39711.9
47300.7
1837.22
1837.22
117476
1837.21
1837.5
6928.01
1837.21
17675.2
1885.5
1837.23
1837.56
1837.24
1837.23
1884.29
4373.37
21435.3
4342.35
5411.17
1837.22
6138.37
1894.23
1901.56
1837.48
1838.45
1837.33
1837.24
1839.91
1837.24
1859.87
1837.23
1837.23
1867.45
9034
1884.71
1956.78
25082.4
2186.11
1838.56
2123.57
1837.23
1837.29
1860.98
1837.23
1837.23
1837.29
6017.9
3510.62
2100.99
5705.37
22966.8
1945.33
1837.29
2132.39
4148.01
1865.88
7676.71
1837.33
1845.68
1837.57
5202.54
1860.32
2277.3
1837.48
1837.24
1837.21
1837.21
5954.91
1837.21
2270.26
1837.59
7532.63
4342.19
1837.22
1837.81
18850.4
4335.98
6747.1
4129.03
1837.22
13732.3
102255
1837.22
1859.16
3846.27
1978.87
2129.31
1837.23
2262.58
27056.7
2880.17
2084.26
22208.5
4805.28
2328.91
1837.25
38379.6
81560.3
2208.39
17313.8
1841.37
1927.96
2144.8
1837.25
21678.1
2151.22
1891.74
1845.28
1853.38
2169.33
1899.68
1838.07
1840.94
1838.94
1837.22
1837.48
1887.9
1837.25
24225.2
7141.32
1890.45
43223.7
1880.24
1837.21
1931.42
5488.31
42193.6
1887.62
2038.12
6844.39
20703.5
178720
5409.78
1838.38
33371.3
1837.61
1837.31
1837.37
17558.4
1839.42
2886.85
1850.93
4105.08
5477.56
9040.81
1839.24
2284.93
1838.7
1837.71
1837.24
1837.85
1837.22
1838.45
1894.14
6544.71
8549.86
45674.5
1907.68
51577
2007.98
14716.9
1837.55
6444.69
6883.26
73319.5
1850.76
1838.77
1837.23
1837.21
1837.21
1837.35
1951.8
2002.56
1947.82
5818.99
2290.09
3189.41
18864.8
7248.74
23676.8
3938.64
1837.21
56289.9
3920.51
1837.61
1837.48
13905.8
5444.32
1837.22
1837.89
1837.16
1904.22
1837.22
36813.8
49874.8
28752.9
17200.2
1837.21
33394.7
3029.64
1837.22
2474.99
1837.22
1862.62
9952.28
1871.71
1862.05
39864.2
1896.59
1837.38
1867.3
1837.36
1837.21
1837.24
3493.47
1843.16
1858.41
6542.68
2735.16
7997.9
2046.06
1838.68
1842.54
1837.28
1839.66
1837.53
4260.83
9098.01
1839.66
1837.23
33787.3
1840.77
1837.21
1841.96
1843.09
3724.16
6006.7
25760
4972.94
6211.93
1837.21
8205.48
1843.15
4414.73
5662.96
1837.22
5730.71
1837.22
1837.22
12712.6
1837.22
1839.36
4453.55
5732.56
6318.05
5208.91
1837.36
3851.78
5529.68
4802.05
1841.29
1883.6
4506.1
6029.5
4863.16
7018.5
1838.3
1837.44
4099.45
7252.31
4357.59
4975.04
2845.4
4491.03
1837.22
1837.21
179615
7434.52
4100.42
4179.35
4888.07
11501.2
54891.9
1837.21
4659.86
1837.25
8987.77
1837.22
3541.17
4798.66
1837.22
44372.9
1837.22
3952.96
5223.45
1837.22
1837.22
5987.99
1837.22
1837.22
1837.21
1837.22
4297.9
1837.26
6167.68
23593.4
1837.21
1837.21
20386
1840.18
1837.08
5536.36
1837.07
1837.09
1837.22
1837.7
2092.84
2138.52
57192.7
1837.4
1837.24
9770.48
1837.22
2174.73
14844.9
1837.21
1837.21
1840.16
1872.48
8564.02
1837.21
1837.23
1837.21
1837.21
1837.47
9722.57
20433.1
1839.24
1840.37
101651
1841.58
3130.54
1837.21
4730.36
1837.25
5314.97
4642.88
1837.44
1837.21
1837.35
4271.79
5983.1
1837.21
4892.11
1847.57
1837.21
1893.76
1906.75
1837.22
1863.5
1837.22
14416.8
1837.23
1837.21
1837.24
1837.44
1837.22
7608.93
2215.59
1837.21
1837.21
7271.33
1837.22
2051.08
1837.4
1837.22
25802.1
106063
2039.45
1848.43
1837.31
1890.79
70559.3
1837.26
16211.2
1837.24
29213.1
3736.99
1837.23
24758.9
5798.74
26175.1
25383.7
11619.5
1854.02
1837.25
1837.22
2023.1
2039.8
1916.99
22872
1837.38
1945.55
1837.23
2184.64
13399.3
17657.2
1837.25
4288.47
2191.26
1837.22
6899.14
1837.31
1837.22
1837.22
12281.5
6140.22
7204.19
1837.23
1837.23
1837.24
33969.2
1849.44
79433.9
1837.22
1837.22
9727.27
3766.64
1837.21
1837.26
33911.3
1837.27
1837.32
1864.26
18191
4904.13
3068.75
1837.21
25148.9
24455.4
2134.65
14951.1
1841.72
82627.4
1861.34
2200.06
24596.3
9098
57505.8
87461.3
61694.4
63043.7
1837.21
289528
19567.4
17737.8
1837.21
13917.8
205721
1837.21
5534.66
75868
1837.22
26845.5
1837.21
95580.3
4425.11
3153.93
4404.75
7845.12
1837.22
1837.21
1837.78
1837.43
180488
1837.22
7601.95
3212.12
1837.3
1837.3
1837.3
1837.61
1837.41
1837.22
1854.45
1837.26
15809.6
1837.32
4895.73
1837.31
1879.52
1837.11
2050.88
2130.22
1837.3
1837.3
1837.52
1837.36
1867.07
49161.7
62260.6
10159.2
1873.98
1853.78
1840.31
1837.22
1851.7
1886.21
1846.13
1837.31
4350.44
3655.75
73192.1
1840.34
1858.91
1840.27
3721.59
1881.96
1837.66
1841.51
1864.22
2123.6
53937.9
1879.72
19159.2
1878.26
1865.84
4590.36
20187.8
1837.22
1843.3
2051.17
1837.84
2181.78
1841.95
1911.16
2950.05
1863.73
1839.75
1837.3
1866.7
4252.56
1837.23
2097.73
1839.53
2940.87
1837.23
1837.21
3022.58
2002.37
4462.76
1838.79
1837.22
1837.22
5632.23
22430.6
1837.29
2400.82
26370.4
1839.07
1976.01
2031.98
1985.03
23619.2
1840.96
1879.73
1877.98
1837.27
29792.1
1891.11
1837.63
1838.14
1837.28
1837.29
1837.66
1837.26
1837.23
1837.87
2098.06
1839.38
1837.69
2380.63
1837.92
2028.48
4046.04
1837.23
1837.75
5431.85
5094.29
1837.27
1869.64
1837.31
1837.45
2008.07
1837.86
1837.58
2565.5
1846.46
1837.35
1837.29
1837.53
1837.98
1837.26
1892.9
2405.99
15640.4
5603.6
9719.71
1898.22
1892.52
1866.68
1840.86
11451.2
1857.84
1839.17
4484.14
1858.01
11656.3
1837.18
1855.41
1844.36
2000.88
3686.7
1922.41
3739.49
1844.53
1915.12
3986.24
1837.24
2540.16
1837.41
1864.82
1925.58
2113.42
3764.41
1901.49
4877.45
2057.75
4533.35
1910.72
1837.35
1837.22
3407.76
1962.94
1838.87
1837.33
1837.48
1904.29
1839.93
2036.82
1877.78
1837.22
1837.22
1853.51
1916.75
3435.77
1837.22
1857.09
1838.67
1837.28
1863.02
1837.22
1930.75
1837.65
1837.24
1837.27
1837.22
1888.67
1837.22
1837.22
1837.22
1891.38
1837.18
1837.24
3181.89
1837.12
1939.34
38575.6
1837.22
1838.59
1845.79
1837.22
1837.22
1846.58
1837.21
1837.22
2307.57
2375.79
1969.34
1837.61
1838.33
1837.21
1934.89
3808.21
1837.21
1837.22
2021.29
1837.21
1837.22
2331.95
1837.22
1967.79
2182.26
1837.27
1837.21
1966.81
31314.5
4690.32
1839.67
1837.22
1837.21
1838.1
1931.65
1838.37
1837.22
1837.22
1839.86
4622.39
1837.22
1837.22
1837.22
23727.4
2389.8
2037.33
22326.3
2083.12
1837.33
1921.93
1944.48
1843.4
1838.04
16143
1974.91
1837.69
1904.41
20792.9
1837.57
1837.87
24197.8
2366.93
24814.1
1837.53
1970.1
1838.75
1838.49
21344.4
1837.77
20444.5
1867.95
1837.28
16864.5
1849.15
1837.2
2005.23
20431.7
1837.34
2234.78
16535.1
1842.03
1901.3
21970.1
5435.82
1842.42
1845.8
5327.74
6175.76
5222.25
9433.26
1837.21
1837.26
2373.26
1859.54
2347.48
1963.85
1837.14
1837.36
1838.38
1996.1
1848.49
1852.78
1841.52
1837.21
1848.35
1837.75
1946.72
32425.2
1837.41
1993.02
2007.31
32480.5
1837.13
2549.44
44312.3
1837.22
1933.89
1983.66
2246.7
1837.27
1970.25
1837.22
1837.22
1844.29
1837.22
3401.01
1870.11
1868.26
27314.8
2558.79
1837.19
1861.03
1870.35
1837.42
1837.26
1837.92
1982.23
1839.59
1906.47
1839.72
3510.73
40654.4
1868.37
1846.78
16183.7
3516.27
1860.92
1870.44
5861.58
3614.63
2152.88
1915.86
2102.64
1869.93
1984.06
12762
2096.18
1952.78
1867.2
2032.08
2670.14
1837.26
2066.8
2109.2
1922.4
1972.41
2527.14
31786.9
2399.76
1837.3
14461.1
1856.4
1840.87
2820.42
1837.31
17620.8
1837.22
34645.2
15093.1
13315.1
1837.22
1837.28
1837.21
13972.5
1935.95
28701.9
1837.77
16153.3
17609
3976.63
1837.22
54761.4
2320.12
2492.56
39818.5
2573.6
1837.3
2191.63
1837.17
2039.08
1837.31
1837.24
1837.22
1860.74
1843.37
1837.22
1837.68
250788
1837.35
1886.76
1837.25
2713.54
2885.81
1838.99
2329.14
1837.22
1837.45
2003.2
1837.93
1837.53
1837.21
1837.9
1837.22
1971.5
1841.29
79279.7
1837.22
1859.6
2090.03
88711
1837.22
2037.01
3515.89
1837.22
1837.25
147483
1837.22
1842.2
1837.22
1837.26
1837.37
1950.89
1837.22
1837.25
1837.37
1837.23
3935.96
9444.54
1837.22
1944.05
1837.22
4831.57
2177.12
1837.23
1837.21
51371.9
1836.99
1844
1837.21
1985.81
1840.58
1837.21
1837.21
32670.3
120235
1837.26
2240.7
1837.23
1837.35
1840.95
2232.22
1837.23
1883.65
1953.53
1863.48
1837.22
1963.27
1840.92
2750.91
5279.55
1853.3
1875.68
1843.54
9679.52
1837.23
1837.31
1837.22
1837.22
1837.22
1837.22
1837.22
4364.38
1842.76
1837.39
1839.11
7466.28
8967.21
1837.22
2201.09
2459.97
1838.63
2108.48
620852
1837.43
3678.61
3845.41
1880.62
1869.4
1839.48
2628.75
2154.32
1838.79
1838.97
1849.75
1837.32
1845.52
2015.17
2020.79
2107.8
1840.61
1837.26
1880.79
7072.74
1840.24
1844.19
1837.27
8824.04
12375.9
1837.22
1837.75
1837.29
1851.92
2126.05
33793.2
1838.2
2201.8
1842.77
2344.45
1837.21
1837.22
26614.8
1837.22
1837.22
1837.22
1837.22
1895.8
1843.47
1837.43
1938.74
1861.68
1837.98
1837.58
1837.22
31680
5215.36
1837.22
2048.3
1837.22
1837.22
1837.22
55437.6
4193.7
20566.6
1841.73
1837.32
1837.22
1850.55
2061.56
1866.41
70798.8
1837.28
1837.22
1838.05
26900.4
117378
2090.41
1837.22
94373.1
90912.4
2474.99
74198.4
7485.22
1905
14654.4
4701.51
1837.23
1837.2
1837.23
1837.04
1837.25
1837.21
39194.4
74618.7
7765.64
5666.28
6767.51
1840.03
1933.51
1923.58
3523.91
2008.39
6191.75
1961.8
21413.4
7508.98
1837.22
2280.52
7615.56
1837.35
1837.34
44417.7
1838.64
1837.22
8179.3
12211.4
1837.21
1837.22
1837.8
1840.65
1838.91
1837.23
1837.22
2364.25
27247.6
1837.24
1837.8
1886.4
7726.95
2508.83
1837.33
1837.22
1837.58
8097.2
1837.24
1854.73
2067.73
1837.23
1906.13
1837.23
1837.48
41862.2
2047.9
1837.22
1837.21
1837.22
1837.36
1837.89
2060.28
1837.22
1877.9
1838.35
1837.23
2142.64
1837.22
1837.21
1837.23
1837.76
1836.95
1837.26
1852.21
1837.22
1837.24
4186.6
1837.29
42141
1851.74
1837.21
1837.22
1837.25
1837.23
1852.48
2977.95
53293.2
13065.3
57930.9
1880.22
2350.89
2210.85
50728.5
54703.8
2145.7
4823
1837.23
1853.46
1837.22
1837.25
1837.21
1837.23
2049.13
25095.2
1837.21
15099.7
1842.22
1860.21
1857.86
1837.21
1852.23
1837.25
1843.08
37055.3
2050.85
1838.23
1837.21
1845.82
1971.66
1837.39
1929.31
32444.7
1858.02
26407.6
1837.21
1837.21
1867.52
20037.9
29063.1
27017.9
21385.5
6816.56
2369.4
23115.5
3872.64
23925.1
1837.24
1872.7
1837.22
1837.26
2281.24
10081.7
2231.69
2049.26
9913.06
8913.17
1837.13
9558.67
7340.47
1838.01
1837.21
1837.21
3724.28
3889.81
3066.73
1837.22
3847.38
24591.5
2451.96
44861.9
3412.65
4402.72
5708.12
1837.2
2445.56
6146.43
2085.57
1837.25
1897.43
2671.23
1837.22
1837.29
5409.99
1837.23
1839.43
33721.8
1851.96
5650.71
23700.3
1844.71
1949.52
3665.05
3803.96
2061.24
3688.74
2461.3
3771.61
1838.01
1837.21
3734.55
1949.74
3694.78
3651.86
1928.59
3625.43
1946.14
2960.49
23201.4
1837.21
1838.54
5899.86
1837.19
14334.3
1837.2
1837.24
1837.22
5815.46
1838.04
1984.91
1837.49
1837.25
2927.86
5707.85
5746.05
2018.79
1837.21
6295.87
19380.5
19951.7
1837.21
3648.5
103483
6520.69
20532.9
1837.36
4746.82
1837.26
1837.36
1837.22
1837.22
1837.25
1842.46
1837.23
19644.2
1837.27
1846.88
1837.22
1837.22
1837.22
1837.21
1837.23
2198.78
2437.3
1837.22
1837.21
10681.3
1852.72
15291.8
2011.39
1837.21
18543.6
1839.2
1837.21
1837.22
11826.9
1871.73
1837.21
1932.7
1838.5
1837.56
1837.21
1857.51
1837.84
1837.23
1837.22
1837.22
1837.23
1837.56
1844.04
4795.65
1837.21
1855.63
1837.22
4383.95
1837.22
1852.89
1844.54
6945.8
1837.56
1837.56
1837.54
1839.19
3456.31
1837.98
1837.22
1837.93
1837.22
1837.22
24879.3
1837.22
1837.21
1837.27
1837.59
1837.77
2724.52
1838.02
1838.05
1849.79
1968.34
1837.23
1837.86
1837.22
1837.55
1837.41
1837.24
1837.28
2189.92
1837.24
1837.23
1837.23
1837.29
1837.34
1837.27
107904
1967.76
1851.39
1837.93
1837.32
2102.59
1837.23
2004.37
2225.97
1965.42
2402.51
1837.24
1837.26
1837.21
1851.32
10110.5
1837.36
1837.24
11168.4
1837.27
1837.22
1837.22
1837.21
1837.48
1837.83
74213.3
1837.08
1837.26
1837.22
13243.8
7890.97
9857.56
1919.97
8599.25
6536.49
1852.5
1837.31
1866.42
13561.8
1837.22
1841.23
1837.22
1843.86
20880.2
1837.22
1837.22
1837.32
1995.09
1949.67
2301.33
4448.85
1837.37
4419.05
3783.58
1837.38
2057.22
1837.69
1837.22
1837.37
1848.89
1837.83
1860.61
1837.37
6130.34
2656.07
5381.05
6629.83
6458.77
1908.28
1837.39
1837.28
1843.01
1901.43
1837.38
1837.31
1837.33
1841.92
38274
2014.81
2104.81
3140.83
1837.23
6097.08
3999.84
5632.94
1916.78
1837.33
5662.42
1837.69
1837.32
1837.22
7671.97
6442.37
6809.96
1837.24
6557.87
1837.22
1839.74
1837.23
1847.52
1837.22
56938
3461.38
1837.22
1837.22
3405.49
2086.73
1837.22
9498.46
1837.36
1837.22
46201.8
1837.21
1867.42
1837.35
3669.2
1838.69
1837.24
1838.61
1837.21
1926.56
1838.3
25116.3
1837.22
1963.25
1838.55
1838.57
4814.88
1837.22
1838.2
1837.23
23668.8
1845.09
5243.77
24520.8
5527.71
1837.22
17434
4280.37
1838.19
1837.69
30327.1
2802.11
1837.22
3172.99
11456.2
1858.46
1838.01
1837.28
3406.51
1837.22
1837.24
1837.22
1843
63995.6
1843.27
156250
1844.72
2903.22
1841.41
1837.26
2215.51
1842.46
1843.71
1837.26
1837.23
1876.45
9131.82
3778.25
2818.02
4179.77
6224.16
3922.27
1852.26
1837.23
1837.22
5097.33
31712.1
18459.3
1987.66
1938.25
2859.07
4286.69
101084
21179.4
1837.22
33350
72847.6
4015.9
1837.21
4349.86
5634.34
6394.62
13084.9
6910.76
5011
9008.34
1856.76
9469.81
1862.04
5352.88
1883.59
50794
16100.6
1841.98
1857.28
4033.57
6436.45
1921.59
2229.41
1837.27
1837.22
16260.6
1843.25
1837.4
1859.47
1837.23
1951.51
1837.22
600826
2166.95
1837.21
1838.03
14726.2
1933.4
26106
23213.4
18017.7
1950.14
1837.22
1837.24
11899.8
1837.22
1837.22
1846.96
1844.29
1858.57
16138.7
1864.02
1837.74
13726
6816.32
1837.23
1837.7
18671.6
1867.46
1858.14
6104.09
1837.21
1837.22
1852.19
6405.72
57658.7
10162.6
1837.3
1955.99
1837.22
3780.03
75706.1
3872.06
77059.3
1837.21
1845.95
1837.21
1849.26
1837.22
23359.9
4542.27
1837.21
16711.8
1837.21
1837.21
4349.79
1837.37
1974.1
1851.78
4691.89
39625.7
1837.21
1837.22
3091.36
59677.4
1837.23
1870.8
36325.4
1839.19
1889.3
1843.49
1837.21
1837.23
1837.22
1837.23
1837.22
1839.95
1837.25
1857.67
10311.4
1837.25
6020.34
136722
4233.15
10371
1837.22
2137.53
1853.69
1837.22
8637.96
18148.1
15936.5
9770.75
25623.8
24118.6
1837.43
2060.55
20942.1
6844.67
5815.11
3743.57
1874.88
11755.6
1837.22
1837.22
1837.21
1976.03
3660.22
1840.54
15593.9
1837.21
1841.36
1837.31
11589.2
10253.7
1837.22
9070.68
6866.1
2543.92
9299.53
8680.88
1837.21
1837.62
21032.1
1897.12
1837.89
1837.37
1837.36
1837.21
1838
1837.22
23019.1
3599.99
27415.2
2384.58
1877.17
2478.86
1838.15
1837.21
1837.21
26776.4
1837.23
1837.22
1837.23
35584
1841.87
40078.1
7057.3
3820.42
3017.31
7274.4
1895.8
7536.64
1837.49
1838.76
1996.86
10834.5
3791.39
1882.87
1846.01
1838.37
5863.2
1838.28
7427.7
6173.24
6463.13
9974.06
1837.29
1837.41
22406
2430.04
1861.4
10252.5
3100.99
2055.89
1837.22
11245.7
1942.61
19132
1837.51
1837.22
1970.17
1986.55
1837.28
1837.23
4412.84
5651.2
6683.95
1869.29
1837.49
3465.78
4816.1
1837.41
1837.22
1837.28
93827
21846.6
87196
6677.11
1837.66
6449.21
6055.9
1838.1
1837.67
1886.19
1837.59
1837.59
1839.62
11229
1837.33
1915.17
1838.5
5626.19
1837.22
1837.22
1837.25
1837.22
4323.49
11885.9
1837.4
6186.27
1929.09
1843.95
1837.23
1838.44
1837.24
7152.43
3622.56
1837.14
1837.15
3178.26
1845.58
1852.34
1853.2
1837.32
1861.78
8932.36
1844.01
1903.71
1837.28
1837.26
1837.18
8493.63
1837.24
1837.19
12735
1837.26
1838.15
1838.05
1837.5
71878.1
1838.27
2541.67
1853.77
2279.42
1837.19
1841.12
1837.3
1837.24
1837.16
1930.25
1855.15
8137.63
24574.4
1837.26
1839.35
1854.58
1837.29
1848.6
1837.23
1837.29
1839.85
1850.54
1859.42
1850.77
1837.22
2025.49
30250.9
7157.99
1891.59
3843.57
1837.93
1875.18
9081.55
1848.93
30849
1915
3354.2
1840.69
1837.22
1842.6
1837.22
1852.06
1837.55
1889.84
18758
1837.29
1837.26
1837.7
1864.09
1856.31
1857.49
1837.3
1837.93
1837.27
2371.77
1881.3
2148.3
1873.43
1837.23
1891.8
1893.28
2029.47
1877.48
1845.39
1837.5
1917.25
1837.29
1960.37
1864.49
1876.23
1887.41
3851.22
27764.7
1884.03
9440.12
6016
1839.76
35243.1
1839.96
10195.8
1837.32
8983.22
2084.27
6786.01
10201.2
1837.37
1837.45
1839.76
3820.13
55533.7
1837.23
5653.95
1839.93
17405
1837.22
1838.64
1837.23
1853.41
6371.43
1838.28
1837.9
1845.03
1837.38
1840.66
1837.28
11219.8
24002
2094.63
1837.5
1837.22
3075.15
1837.57
1837.22
2049.72
17681.5
2190.34
1837.23
1837.79
6495.09
2016.43
1837.21
1837.21
3561.79
9289.92
6960.11
1838.06
11874.7
1903.54
1837.26
1852.68
1837.22
1837.21
1843.38
1838.39
1837.21
1837.23
1837.24
1842.86
1844.97
1837.22
1837.27
1837.43
1837.21
1837.22
1838.56
1837.58
1837.22
1837.21
1837.21
1837.22
3197.8
3472.3
3030.72
1837.21
1837.22
1837.22
1837.22
4560.19
1837.23
1837.43
1842.61
1837.22
1837.27
1837.22
1851.43
1837.28
1837.21
1837.53
1837.22
1837.26
2118.3
1837.31
2180.09
2200.54
4480.14
1837.21
1837.25
2389.03
1837.38
1837.22
1837.29
1837.23
1837.22
1838.47
1837.21
1838.03
1842.58
1842.48
7134.79
7177.69
1837.64
1842.9
1837.75
1837.21
1837.22
1837.21
1837.46
1837.22
2870.29
23294
1837.22
27767.7
1837.53
1837.22
48338.6
49842.1
1837.52
2210.53
5692.52
1837.59
1837.22
1837.21
1861.14
1837.22
27430.7
1837.87
26662.5
1837.33
1837.21
1837.48
7407.73
7566.65
6574.53
1838.03
1837.28
1837.25
1837.29
1837.22
1837.22
1837.22
1837.23
1837.23
1837.22
5568.83
1837.54
1839.75
1842.75
1837.59
1837.26
1837.21
1837.25
3239.69
2889.02
2203.3
1837.51
1870.47
1837.75
1837.55
1843.89
1837.58
1838.47
1837.7
2981.09
1847.28
1837.23
1847.54
2125.65
1837.4
3642.45
1842.37
1857.09
2076.22
1837.97
2081.15
94096.6
1960.38
1879.06
1837.21
1934.5
1920.44
1841.38
1837.21
1837.31
1837.48
1931.88
1838.68
1866.95
1914.11
3075.16
7774.44
21431.2
1837.23
1837.93
3150.64
1841.37
1862.1
1837.79
1837.41
1837.41
1846.46
10349.9
75731.4
9024.31
2259.4
3616.48
1837.33
1852.08
1843.11
3082.16
2567.29
1837.33
78198.6
1837.26
3492.27
1839.5
1885.66
1900.42
1837.79