/*--------------------------------*- C++ -*----------------------------------*\
| =========                 |                                                 |
| \\      /  F ield         | OpenFOAM: The Open Source CFD Toolbox           |
|  \\    /   O peration     | Version:  v2012                                 |
|   \\  /    A nd           | Website:  www.openfoam.com                      |
|    \\/     M anipulation  |                                                 |
\*---------------------------------------------------------------------------*/
FoamFile
{
    version     2.0;
    format      ascii;
    class       volScalarField;
    location    "3.5";
    object      H2O;
}
// * * * * * * * * * * * * * * * * * * * * * * * * * * * * * * * * * * * * * //

dimensions      [0 0 0 0 0 0 0];


internalField   nonuniform List<scalar> 
108993
(
8.64393e-63
5.33933e-36
1.79067e-54
3.74616e-150
6.74569e-144
5.65543e-126
1.41098e-26
0
2.57353e-115
4.93996e-70
3.0465e-91
1.14123e-96
0
0
1.55451e-105
4.31697e-24
4.44408e-65
1.89299e-102
1.67683e-146
7.15887e-74
8.12097e-143
0
2.14487e-78
0
4.36212e-154
0
1.30187e-132
2.22355e-76
2.59266e-78
0
1.25995e-125
0
6.57419e-134
1.20409e-47
4.69743e-147
0
2.35862e-133
0
0.00928731
0.0153169
0
2.25962e-112
0
1.42525e-153
0
0.0159547
0
3.05464e-33
0
5.56075e-76
0
7.76679e-12
0
1.64181e-145
8.67474e-94
3.03494e-89
6.79237e-139
2.50298e-128
1.04477e-125
0
4.40921e-123
2.96652e-120
0
4.75702e-137
3.27545e-142
1.15038e-83
1.85095e-144
1.32705e-134
0
1.52464e-08
3.07206e-114
2.43059e-139
1.16111e-134
5.42084e-138
8.29627e-70
5.21245e-119
0
2.94317e-51
1.81783e-143
0
5.16649e-86
0
0
7.09024e-109
3.0375e-102
1.1076e-101
2.43916e-97
0
2.31172e-139
1.90575e-144
2.35535e-135
1.44644e-126
0
1.42891e-164
1.05093e-136
9.66361e-83
0
1.63909e-105
0
2.06691e-132
0
3.71289e-130
0
3.79611e-80
7.57555e-117
4.42705e-136
8.71327e-99
2.01701e-138
0
0.00940012
1.80388e-41
4.12374e-134
0
3.998e-28
0
2.19989e-13
4.01718e-140
5.94115e-79
4.93257e-20
0
1.64805e-90
2.39586e-121
2.15572e-11
9.01863e-66
4.57854e-134
0
4.58206e-58
4.34443e-75
0
1.74203e-126
4.47645e-77
0
0
9.15841e-14
6.22225e-122
1.31972e-69
2.45575e-120
2.02251e-115
9.07697e-106
7.0121e-93
5.78883e-69
1.84554e-121
3.99768e-23
1.94892e-123
0
3.72276e-133
1.40931e-109
0.0204299
1.32835e-64
3.75997e-09
2.24944e-09
0
4.22776e-52
1.50961e-08
0
0
0
1.85454e-139
2.75858e-135
7.42676e-05
1.89552e-10
2.69409e-139
1.34033e-126
0
0
4.63933e-19
2.18178e-140
0
2.45744e-136
1.17626e-112
3.40468e-145
0
1.50401e-16
7.97398e-108
0
4.49818e-92
0
5.12389e-137
0
7.46974e-134
0
0
8.58592e-141
0
3.36453e-86
0
2.31755e-142
0
2.16632e-87
1.94933e-68
0
6.55864e-139
8.10548e-105
0
0
2.67353e-51
2.72235e-58
0
3.79991e-115
1.66072e-70
2.3644e-138
3.49934e-13
7.56216e-137
2.55031e-137
1.95653e-17
1.62767e-12
0
0.00970676
1.64908e-100
0
2.58869e-06
0
7.55434e-09
3.7444e-08
0
0
1.27514e-91
2.17788e-90
0
2.84885e-123
1.19643e-91
1.73866e-09
1.56411e-34
4.85152e-13
0
3.38796e-137
0
3.25254e-77
0
5.49837e-94
0.000398254
9.12507e-103
6.58009e-136
1.15989e-82
2.94981e-125
0
2.10018e-128
1.14362e-124
0.00247321
1.49487e-138
4.5012e-130
1.12739e-90
0
7.83936e-140
0
9.75416e-24
3.55222e-08
3.40858e-10
1.67715e-135
2.14152e-132
1.08133e-119
1.76301e-138
3.51201e-109
8.3328e-116
1.6491e-137
1.00365e-136
2.05877e-135
2.7882e-75
1.31375e-118
1.31498e-127
1.60233e-82
0
1.56387e-36
1.02773e-34
1.54551e-149
1.14462e-78
0
7.3031e-86
0
1.54293e-101
1.28714e-152
1.35991e-59
1.019e-10
0.000305032
0.0203774
2.69485e-100
4.41658e-133
5.55967e-10
0
1.33433e-64
3.4965e-63
0.00663509
0.0164164
0
0
0
2.68684e-146
3.77299e-69
8.46456e-65
0.000440733
8.15368e-91
0
0
4.97922e-89
1.60466e-108
4.30583e-81
1.59099e-122
7.46602e-86
1.37407e-35
9.22193e-147
0
1.42048e-13
1.72259e-110
4.12178e-149
6.08967e-109
0
2.07946e-127
0
0
1.73829e-10
3.24948e-137
2.94259e-121
6.74974e-48
1.21754e-122
5.0876e-73
4.26692e-10
1.23028e-140
8.46015e-51
0.00666629
0
1.09403e-47
5.71297e-139
3.89562e-90
0
0
3.35643e-05
8.43069e-07
8.11593e-09
1.39248e-122
5.77631e-48
5.98779e-96
1.03172e-06
2.50733e-09
0
9.65341e-06
1.14132e-116
0
9.93663e-122
4.05205e-107
0
0
4.50468e-22
1.19925e-74
0
3.61022e-93
0
0
0
6.49735e-156
8.91953e-71
1.60953e-103
0
0.00254046
0
0
0
5.94658e-94
0.0193544
1.01571e-103
1.05568e-135
4.93588e-50
0
3.42562e-73
9.28541e-73
0
2.20919e-67
1.7853e-74
1.872e-120
9.15399e-105
0.00335882
6.38653e-34
1.07058e-56
1.15177e-69
3.38697e-08
2.59158e-65
1.2442e-06
0
0
6.71018e-10
0
9.66258e-07
2.11133e-08
2.21686e-68
7.02376e-19
0
0
6.58151e-60
0.00330672
1.09126e-70
0.0127004
1.09069e-07
0
5.80884e-07
1.54201e-87
2.86978e-11
4.86672e-66
0.000167179
0
2.18787e-35
1.11437e-115
1.06014e-64
3.77737e-12
2.11125e-13
7.82317e-124
3.38361e-98
0
1.4126e-84
5.26813e-113
2.1114e-48
0.000700359
0
2.75754e-80
0.000972103
0
3.10475e-94
5.13298e-113
8.16834e-06
3.97664e-17
1.01718e-09
7.69022e-138
0.00172877
8.89152e-41
1.0428e-06
1.87565e-141
4.17309e-138
0
8.03463e-128
4.3756e-08
2.64453e-09
1.113e-154
0.000188066
0.0191341
1.81879e-05
5.12302e-130
3.21461e-120
1.10672e-69
2.52388e-113
6.18058e-90
1.07728e-126
0
1.75713e-93
6.49917e-80
1.10352e-74
1.26811e-130
0.00235421
1.08592e-23
3.25209e-31
1.21749e-18
4.98955e-78
1.08085e-133
0
5.14808e-139
1.51632e-76
1.37995e-50
1.60242e-124
1.90393e-106
0
0
2.64064e-89
0
1.27666e-17
4.91371e-52
7.65381e-15
0
4.54684e-22
3.27393e-61
0
0
1.69418e-59
1.35378e-57
3.13622e-30
0
2.19072e-117
7.15399e-47
2.48385e-129
0
0
4.11729e-09
0
3.87398e-19
0
0
4.17367e-108
1.70876e-75
2.29113e-41
8.44825e-63
1.99846e-57
3.04848e-62
1.55088e-19
0
0
5.69603e-72
0
7.32448e-59
1.46292e-27
0
8.65352e-42
1.72405e-90
2.18283e-70
4.2878e-51
1.74442e-131
9.26238e-108
2.68962e-104
2.28934e-65
7.18688e-36
4.78519e-17
0
0
0.00639871
3.13103e-71
6.1893e-25
1.87381e-29
4.49646e-111
0
5.60932e-73
1.36579e-135
0
1.24316e-74
1.7551e-60
2.33154e-65
3.03576e-92
4.59227e-94
8.09218e-32
0
1.83322e-75
2.11858e-09
0
1.78574e-78
0
3.74602e-55
0
2.95974e-125
3.45677e-11
2.34438e-89
9.1586e-126
0
3.18268e-49
2.07654e-99
3.29016e-45
1.14489e-08
1.14821e-105
0.000196292
1.59969e-148
0
0
2.79222e-93
0
0
2.76057e-102
0
2.01915e-11
0
0.00235343
4.757e-108
9.48762e-95
0
0
8.9175e-52
0
4.59728e-62
3.56936e-49
0
1.19136e-64
5.52896e-37
8.4809e-07
3.80399e-07
0
3.98174e-109
0
0
1.79323e-64
3.26839e-37
0.0539466
3.04374e-05
2.5396e-06
1.0191e-43
7.51426e-96
2.24528e-06
2.05588e-07
7.39967e-11
2.58531e-50
0
0
0
9.59526e-90
0
0.0107643
0.00020518
2.43899e-90
2.13815e-134
0
6.1822e-124
2.65171e-60
2.84662e-72
0.000372716
1.96167e-108
9.9521e-112
0
0
5.60515e-28
1.7865e-67
0
0
1.50079e-52
0
0
2.79845e-05
8.00001e-125
1.28749e-41
0
1.41758e-09
3.1718e-63
1.86166e-11
8.96771e-64
1.08522e-42
1.92979e-76
1.02967e-32
1.08709e-127
5.45177e-05
1.76815e-135
1.05417e-17
5.12359e-133
0
0.0187663
6.71262e-48
2.46324e-116
3.16639e-105
7.86656e-20
0.0157437
0
5.13793e-07
7.46061e-62
2.22246e-17
0
3.69511e-36
2.2911e-110
1.94796e-121
0.00388309
8.86241e-21
9.62796e-24
0
1.48867e-22
0
2.42477e-31
6.27334e-109
1.29543e-36
0
0
2.99359e-32
3.7799e-36
0
7.58941e-25
9.03543e-06
0.000401009
5.98431e-15
6.76974e-58
1.52911e-08
0.0026546
0.00165756
0.00708834
6.52412e-05
5.07851e-109
0
9.43179e-92
5.67492e-109
2.06458e-67
2.23079e-69
5.42659e-45
5.2193e-08
8.39866e-07
1.58956e-40
3.3473e-39
9.90408e-22
0.00174936
0.00232203
0
0
1.17033e-28
0
0.013856
1.61684e-30
0.00629856
1.6578e-21
2.26657e-39
0.0116974
5.58027e-40
0.00398892
6.97031e-31
7.38178e-29
1.3757e-05
4.8447e-132
9.7557e-68
0
2.68971e-85
9.86259e-87
8.23291e-05
2.58793e-46
2.66835e-06
5.91128e-42
0.000356248
0
5.76453e-102
9.01324e-131
0
1.05242e-29
0
6.07228e-37
5.17924e-64
9.57153e-112
0
6.42152e-29
7.63894e-05
0.0226
6.51652e-78
0.00276777
3.43666e-63
1.36435e-29
6.04588e-16
0
0
3.40185e-59
1.18092e-30
1.14072e-17
7.51049e-26
0
2.28261e-30
3.02931e-21
6.37977e-45
8.12761e-22
1.73434e-145
6.57e-22
7.14323e-30
5.18222e-23
1.07896e-27
2.80555e-72
5.21065e-146
2.0926e-06
2.13106e-138
0
0
7.29501e-85
4.27828e-26
0.0487448
0.000147822
3.06405e-40
4.87911e-28
7.30154e-33
3.12215e-33
6.754e-38
1.51065e-21
0
2.27307e-136
2.23503e-138
1.17128e-39
3.1918e-140
0
1.59915e-136
1.25074e-30
1.87133e-26
0
7.923e-33
7.40732e-135
5.76895e-38
3.99429e-52
3.3875e-16
0
0
8.56561e-11
1.08821e-156
8.12075e-75
0
0
0
2.05954e-11
0
0
4.01196e-48
0.0010385
0
3.63207e-54
0
2.77244e-10
6.54285e-48
0
8.41969e-34
1.35491e-79
2.08697e-23
0
1.49956e-107
3.20011e-17
0
0.0154386
2.7099e-113
1.85921e-83
0.0225374
3.52805e-39
0.00229
1.43339e-56
8.07757e-12
5.12881e-105
5.33942e-25
3.60915e-39
8.12197e-134
5.68256e-57
7.14604e-42
0
5.14601e-84
0
0
0
0
1.03502e-64
5.99392e-138
2.56048e-16
3.07177e-89
2.77611e-07
0
5.21233e-89
1.47843e-05
2.62678e-78
0.000857724
1.70866e-69
2.62341e-85
0
0
4.13751e-22
4.06914e-80
1.48199e-16
3.23808e-19
2.46652e-40
1.63682e-34
0.00426647
0
2.40725e-47
7.70338e-21
0
2.19444e-43
0
0.0195407
2.51773e-42
3.64667e-77
1.23757e-44
9.07944e-14
6.47521e-39
8.13474e-76
5.4447e-09
3.25583e-57
0
0.00126293
0
0.00226721
8.19727e-44
0.000709714
0
0
2.23397e-96
0
0
1.23255e-90
9.0672e-98
6.15202e-100
5.86843e-05
1.52866e-41
0.015489
0
1.06966e-112
0
0
0
5.63138e-15
2.24822e-145
4.97172e-77
1.08406e-25
0.0160625
0
6.48005e-15
1.75415e-31
0
2.66922e-80
1.1254e-23
0.00141557
0.0152146
3.96361e-37
5.44836e-28
2.28561e-62
2.86011e-08
1.98706e-133
9.36458e-07
0.0288777
0.00198298
0
1.19002e-118
5.96341e-19
0
0
5.9338e-110
6.73731e-147
1.50948e-33
1.44102e-14
0
0
2.72969e-26
0
5.91383e-09
5.16133e-120
1.71025e-106
8.65098e-06
0.000924422
3.10258e-64
1.69524e-29
3.3786e-166
4.48736e-108
0
7.88283e-15
0
6.97912e-67
0
0
2.63597e-32
8.33624e-54
0
2.87673e-32
2.57564e-92
7.22628e-90
5.90984e-144
2.82854e-36
6.5814e-65
0
2.81149e-114
2.72066e-119
2.83596e-24
0
0
9.80543e-40
3.29659e-36
3.91744e-38
3.65748e-105
6.30007e-08
1.34813e-103
0.0054824
0
1.08091e-53
1.85043e-134
0
1.56193e-13
0
4.35016e-65
1.44e-08
4.21725e-21
2.46443e-23
7.20589e-110
1.05775e-42
7.99502e-21
4.9125e-12
0
0
7.71636e-07
5.90328e-41
7.21452e-68
1.05489e-39
0
2.70098e-50
0.0337431
3.81308e-17
6.24859e-10
4.18301e-11
1.98854e-48
6.04171e-24
1.45837e-51
3.07856e-40
0
1.00837e-09
0
0
0
1.28819e-07
2.94566e-131
0
0
1.07787e-07
0
9.02865e-57
1.06316e-60
2.24558e-115
0
0
0
1.04507e-21
0
1.14576e-67
0
0
0.0192774
0
8.10302e-79
2.91222e-117
0
5.04665e-114
0.00835154
3.45882e-10
2.88205e-90
9.36918e-58
5.51779e-132
2.14827e-46
2.36976e-17
1.97092e-31
2.54555e-87
0
2.75647e-15
1.53417e-105
9.63246e-10
0
0.000178161
3.55441e-124
0
0
0
0
4.75273e-32
8.0246e-115
7.22965e-127
2.20166e-58
3.76813e-105
6.28892e-07
2.42421e-61
4.03514e-32
0
1.17161e-59
7.13815e-37
0
1.12235e-63
0
8.84275e-61
4.75016e-89
7.37004e-45
0
1.32783e-98
2.28693e-149
3.73083e-110
0.000883425
3.29404e-70
0
7.80311e-116
4.56849e-19
2.02893e-27
0
0.00148421
4.74136e-49
1.86605e-29
3.09984e-32
0.015328
8.17874e-45
7.86422e-23
4.87375e-26
0.00747501
0
2.48957e-111
4.81714e-103
0
0
0.00294181
0
3.11844e-90
2.59788e-38
0
1.92484e-13
0
1.70673e-13
1.11714e-37
1.23629e-15
1.29768e-35
4.82108e-10
2.20186e-14
0
6.44977e-88
0
3.55451e-132
3.42025e-79
0
4.43675e-143
1.00187e-38
0.000187019
6.69712e-86
0.024728
0
1.82965e-70
0
0
1.87504e-18
0
1.38577e-32
6.68919e-57
3.32705e-57
2.57109e-133
6.05034e-40
0
3.60672e-22
1.96866e-112
1.26597e-19
0
0
2.75839e-59
2.83823e-134
0
0
0.066636
8.11059e-38
1.07163e-146
0
0
9.8829e-77
6.34409e-92
7.2537e-134
4.36003e-50
0
1.58277e-62
0
1.04768e-60
6.91451e-62
0
0
5.60661e-111
0
0
0
0
0.000781368
0
6.05021e-42
0.00289363
6.42555e-56
2.64697e-148
0
0
2.6766e-95
2.45249e-55
0
3.05297e-51
0
0
1.31409e-73
0
1.87788e-92
0
7.5017e-58
5.74885e-77
0
1.14744e-06
3.38294e-103
8.39887e-98
7.62944e-91
0
6.83145e-47
9.15892e-105
3.27851e-12
0
0
0
0
0
0
1.84814e-26
2.24663e-60
3.07645e-11
3.78876e-41
1.94893e-39
1.92389e-33
7.76553e-12
1.11431e-23
2.06161e-28
2.02736e-88
1.73644e-47
3.85092e-10
9.18913e-152
0
1.19623e-87
3.87524e-90
6.8516e-90
4.80822e-05
1.82434e-16
0
0
8.32297e-117
1.13749e-06
3.09827e-10
3.45835e-86
2.19475e-71
2.61021e-57
0
1.66351e-55
2.05951e-42
1.79633e-140
4.23979e-14
0.0101879
0
1.93713e-92
1.08288e-150
2.77713e-16
9.44477e-132
0
1.69306e-128
5.51688e-124
1.73265e-126
4.2871e-06
6.018e-11
5.20863e-06
1.86281e-98
0
1.38549e-97
1.61167e-15
4.10635e-25
2.67236e-69
0
4.12137e-10
4.55555e-31
0.000846241
0
0
2.1279e-07
6.04159e-66
2.84983e-79
3.20975e-45
2.75289e-114
6.22026e-55
0.047069
3.54488e-98
0
0
5.17814e-05
4.87114e-79
2.21232e-95
7.0233e-30
2.82453e-47
0
0.0019286
6.01327e-96
6.05044e-34
1.74298e-49
1.00508e-31
5.39725e-111
9.75984e-48
1.08303e-119
1.74566e-30
5.55146e-140
2.34005e-19
8.91228e-34
0
0.000184519
1.14131e-101
3.22678e-115
1.01268e-115
1.97887e-41
2.02769e-08
2.43419e-83
3.75291e-20
1.06912e-42
0
0
0
2.75961e-106
1.77889e-28
2.3472e-70
2.25074e-10
3.22624e-11
2.95089e-12
3.94718e-25
1.33414e-11
1.81126e-133
3.56502e-10
5.92804e-10
0
2.81026e-87
0
9.67561e-42
1.67188e-67
1.62639e-106
3.93958e-101
2.85709e-78
3.86093e-132
3.88131e-58
0
9.24562e-22
2.36996e-114
2.31713e-67
0
1.12824e-39
0
7.78924e-97
0
0
2.44071e-07
3.60341e-95
0.000292396
1.86159e-31
0
0
2.92064e-88
0
5.19e-102
1.62617e-51
2.27552e-26
0
8.41372e-45
4.93458e-41
1.51108e-112
4.43391e-41
0
1.46096e-42
0
2.96681e-41
1.60869e-22
1.73091e-30
7.51055e-38
0
1.37885e-113
0
2.95183e-37
1.89647e-105
8.56624e-128
3.03244e-39
6.60157e-112
0
1.84768e-47
4.45154e-09
2.55218e-39
0
0.00110877
1.62012e-109
6.1066e-11
2.42909e-127
0
0
5.23016e-75
1.62826e-97
0.0102181
2.00864e-12
0
5.37058e-30
0.00546934
6.10239e-19
0
0
0
0
9.36654e-35
0
1.82931e-08
2.48185e-129
3.15192e-125
2.12208e-48
1.40229e-34
0
4.33404e-41
2.62402e-39
0.0131808
0.0196313
7.5289e-34
5.14394e-121
8.71769e-20
8.8008e-99
2.74811e-54
3.49774e-23
3.47801e-42
8.67004e-36
2.06645e-93
6.82617e-55
0
3.28887e-36
0.0146669
8.95298e-27
1.15782e-50
5.39009e-17
1.91097e-07
0
1.23893e-29
1.32495e-11
1.40924e-57
1.82186e-45
1.56689e-47
0
1.89192e-43
3.81792e-132
2.98536e-51
8.7521e-32
1.90674e-24
0.00110432
0
2.90136e-49
0.000427237
0
1.42062e-112
0.00778573
0
1.78211e-130
0
8.05303e-60
0.0259278
1.53067e-107
4.16911e-99
1.02497e-07
0
0.0232793
0
0.0185399
0
1.51707e-66
0.00612025
1.12821e-26
0
0.0163156
0
9.01196e-50
1.14729e-25
8.46922e-123
2.87949e-119
2.08241e-107
0.00939086
2.77427e-28
1.11355e-67
6.69577e-14
1.98518e-99
6.60799e-05
0.00184652
3.93071e-07
8.28866e-21
0.00452937
0
7.99494e-05
0
2.74e-78
0
1.29238e-126
8.46602e-128
5.61822e-134
0
1.73985e-136
9.06088e-13
6.15035e-15
9.7349e-27
6.87537e-08
0
0
0
0
4.56373e-133
9.44972e-113
0.00284661
9.09194e-05
1.20488e-96
3.82912e-82
8.03346e-73
5.21134e-23
3.23847e-31
2.56102e-72
5.52192e-37
0
1.17504e-78
9.71057e-84
4.67213e-20
0.0187768
1.55367e-25
3.92496e-05
8.76861e-07
2.21709e-76
3.1048e-36
1.927e-14
9.77445e-88
7.67405e-93
1.0586e-95
7.75054e-11
0.0154858
0.00126985
0.000732861
1.87031e-103
3.99288e-134
0.0235971
0
1.98421e-21
9.97233e-67
6.7725e-95
8.54415e-36
8.39153e-103
0
6.74578e-104
0
0.00109629
2.21796e-14
1.20116e-24
1.13651e-17
1.57966e-24
8.77408e-135
4.30476e-11
2.96026e-76
0
0
3.54484e-88
5.84166e-121
7.54799e-86
2.23384e-46
1.09648e-121
9.94565e-24
2.28716e-06
0
8.59457e-08
1.14507e-124
1.95385e-91
0.0168685
0
9.33421e-99
5.95963e-13
0
8.01738e-94
5.06153e-11
0.00090416
0.00523887
1.5825e-07
0
0.0111911
0.0337881
5.20385e-06
3.92629e-90
4.28621e-08
5.56336e-11
2.23133e-12
1.44854e-05
0
0.00389204
7.14117e-14
1.14579e-88
6.06689e-14
0
1.88584e-12
1.02126e-37
9.6594e-05
1.69774e-39
1.32595e-80
0.000594388
0.018053
0.00558421
0
1.41183e-123
0.0483331
1.08863e-150
2.2869e-38
1.44218e-18
0
0.000658182
5.08147e-40
1.91877e-66
9.97533e-56
5.78403e-60
1.22423e-64
4.50243e-42
5.60356e-07
0.0112127
3.51022e-10
0.000700545
1.46657e-90
8.17939e-11
0
0
2.67379e-79
2.93081e-64
3.99212e-56
1.73301e-63
0
1.45473e-53
7.72372e-47
1.94356e-57
0
7.38854e-40
5.15123e-07
0
0
0.0153055
0
2.44967e-121
7.26169e-06
3.77042e-66
7.62197e-60
7.20056e-72
0
4.26885e-112
0
3.14915e-08
0
2.33549e-32
5.00479e-05
0.0141856
1.64914e-21
0
3.31359e-05
2.57261e-08
0
0.00446649
0
0
0
1.91028e-08
6.80078e-53
4.47738e-05
6.63858e-79
0
3.63327e-133
1.27025e-131
5.94418e-12
1.25402e-124
0.000277485
0
0.000769394
3.70279e-08
0
5.97201e-109
0.0107183
1.55163e-07
0.000797135
1.63011e-06
0
1.4125e-13
0.0363176
0
1.596e-67
2.51419e-31
0
1.35932e-05
4.46239e-73
0.00024654
1.96294e-06
6.03651e-08
1.84528e-06
0.00763158
1.01248e-14
0.000857136
1.03514e-50
0.0016378
0.00361711
5.58293e-22
0.00247524
0
4.90085e-16
1.21968e-05
6.95521e-59
0.00124693
5.00922e-24
6.13698e-37
0
1.78953e-31
3.42227e-06
0
7.3464e-103
0
4.50353e-38
3.53758e-135
4.83669e-77
2.86045e-38
1.13951e-68
0.010683
0.00107678
3.51943e-48
0.000273795
2.17046e-28
1.48787e-138
5.27269e-37
1.48292e-07
0.0171611
3.27531e-14
1.20007e-14
5.42258e-07
0
0.0256161
6.8299e-13
1.30259e-39
0.00552911
4.45312e-60
1.59273e-46
0
0
2.71818e-35
0.0011851
7.00719e-12
9.64986e-22
2.89561e-11
0.00168163
4.12607e-37
0.000644318
5.85734e-34
0
1.99535e-102
1.5877e-38
2.26155e-81
0
8.29533e-50
8.87757e-06
3.53681e-05
0.00232929
2.81607e-48
0.00426427
4.45487e-48
0.010751
0
1.33373e-06
4.05752e-12
0
0
0
1.99454e-81
0
1.39122e-136
0
4.68319e-18
1.9325e-07
0
0.0032571
0.000144674
7.65662e-38
0.00313732
0.000149808
0.0157832
0.00100088
7.21007e-134
7.37429e-07
1.82757e-18
5.9108e-121
2.81247e-75
1.42921e-05
5.69489e-05
0
6.05039e-103
0
3.10857e-61
0
3.69265e-05
1.02937e-05
3.50629e-05
9.77713e-05
6.52313e-113
0.00118678
4.8412e-28
4.5033e-135
0
1.68994e-76
0
0.000611191
0
4.70372e-62
0.00313411
9.58448e-60
6.73137e-45
0
7.72899e-51
0
1.37382e-82
1.34627e-10
4.83768e-31
0
5.53197e-15
2.87301e-15
0.00344174
1.697e-47
2.17884e-44
0
1.78879e-47
1.05142e-42
1.61089e-52
0
3.0575e-05
1.70176e-52
1.03111e-130
0.0237809
1.69827e-42
4.78779e-129
3.36914e-43
4.14378e-41
2.51318e-05
0.00286899
0.0156444
0
2.57794e-18
0
0.000215
8.09073e-40
0
2.0047e-06
1.45623e-102
0
5.35897e-99
2.55671e-89
0.0130999
3.03799e-145
0
4.95532e-05
2.40585e-09
0.00212288
0.00127381
0
2.82232e-07
0
9.82099e-08
3.22904e-67
6.37056e-16
3.66832e-06
0.000583455
3.01016e-06
0.00588974
2.07169e-29
1.1779e-66
4.72065e-13
4.29146e-05
1.31369e-10
1.00579e-06
1.15108e-17
0.000219426
7.01833e-101
5.48508e-126
0.0269456
0.00248483
3.4053e-07
0
4.36028e-07
7.65987e-08
0.0206287
1.47316e-148
1.17104e-10
3.59705e-119
0.00387993
6.52696e-66
0
2.9812e-15
1.27108e-78
0.0230934
0
2.0627e-08
0.0014749
1.92081e-99
2.13467e-63
1.98022e-07
3.71779e-67
6.03206e-75
0
2.54502e-122
4.72707e-13
6.86329e-120
0.0036475
0.0176337
0
3.9337e-121
0.00637538
2.25417e-68
0
2.74318e-13
3.8717e-110
6.29162e-106
0
5.71023e-72
1.3193e-07
2.10108e-06
0.0139718
6.45859e-67
0
0.00987934
1.06847e-89
0.00211697
0.00293538
1.71911e-117
0
1.37135e-36
0
0.000859454
0
3.94132e-80
1.62011e-149
0
0
0.00277795
0.000587029
5.54688e-37
3.34212e-65
0
0
1.04666e-27
5.8404e-153
5.1597e-07
1.00332e-99
0.0026093
1.0783e-07
8.66684e-98
2.95576e-120
0
1.33794e-30
0.001006
0
7.90631e-10
1.51789e-23
0
3.86928e-26
1.27028e-16
1.04133e-89
3.67676e-33
0
0.0121917
1.01551e-83
3.51647e-159
2.20619e-102
0
0
0.00101061
0.00131774
2.05853e-155
1.14688e-152
0.00402839
0
0.000231805
5.52172e-46
0
0.015233
0.0377763
8.56615e-08
6.63063e-58
0
4.62959e-15
0.0360046
0
0.0087763
8.64317e-69
0.0137691
1.23853e-08
3.7259e-81
0.00250353
0.00338288
0.0176402
0.0157393
0.00993428
1.87497e-33
0
1.39226e-109
3.87735e-10
0
9.47576e-15
0.0163573
3.02639e-52
6.29575e-12
1.46009e-71
1.63389e-08
0.0118187
0.0196229
1.1238e-73
1.64074e-25
8.73989e-05
2.62791e-136
0.000128375
0
4.81152e-115
1.15954e-115
0.0150002
0.000618632
0.000144725
6.89864e-85
1.90468e-102
0
0.0182832
4.77337e-20
0.0316997
4.75707e-139
0
0.0096215
5.92602e-11
0
3.97337e-61
0.0207538
3.31266e-56
5.22295e-56
1.44375e-21
0.0067122
5.24389e-23
8.24926e-20
7.80536e-141
0.0154053
0.00370432
0.000133521
1.56543e-18
9.82067e-62
1.75904e-05
2.21208e-96
1.2312e-09
0.0155023
0.00890322
0.000103356
1.49803e-05
1.75962e-05
1.31804e-05
0
0.0669417
0.0152567
1.10788e-16
7.1863e-144
2.73613e-10
0.01451
9.6521e-137
2.44364e-07
4.18609e-05
0
0.00109831
3.33746e-142
0.0383231
5.92603e-09
8.79182e-12
4.49928e-06
0.000247049
4.87451e-91
2.45963e-142
4.75954e-48
6.52843e-34
0.00450235
0
7.66779e-06
0.0074045
6.94267e-140
5.56155e-144
0
1.07788e-58
2.98213e-42
0
1.75666e-24
0
0.00654972
5.14143e-60
0.00235479
1.0929e-141
1.33244e-16
0
0
1.17466e-05
0
0
2.01108e-68
9.6972e-44
1.29433e-45
0.0116067
0.0192138
0.000343343
1.66821e-20
7.78301e-39
1.58159e-40
0
0
0
1.28436e-34
1.79123e-70
9.94252e-33
4.17696e-30
0.025022
0
2.8825e-39
9.63854e-65
1.11349e-32
3.88889e-24
4.18506e-108
3.65885e-29
0
0
0.0172009
3.09271e-55
0.000168384
1.16399e-85
1.20749e-49
1.53243e-10
5.35669e-09
1.19534e-99
2.31381e-53
1.24796e-64
0
1.30368e-56
3.76681e-73
7.28898e-47
1.64097e-25
0
7.71608e-68
4.20248e-85
8.00383e-74
0
2.1444e-71
0
1.15475e-72
4.55767e-27
6.57913e-72
0
2.19845e-24
2.63303e-05
2.258e-08
2.99519e-64
0
2.21715e-100
0.000741899
0.000390114
0
0.00113278
0.000676799
7.71351e-90
7.97223e-42
5.43993e-14
6.53557e-19
0.000759242
0
9.71418e-60
6.57068e-31
0
0.00118118
0
3.69435e-107
7.35691e-82
0
6.10808e-64
1.61023e-105
0
1.0224e-70
9.94286e-102
1.48751e-08
4.66491e-65
2.14676e-104
3.14739e-43
2.58289e-104
2.3083e-45
4.52491e-09
2.04642e-69
0
4.35765e-07
4.49724e-07
0
1.29075e-97
0
1.02631e-45
4.76985e-19
0
1.24704e-70
4.67364e-14
3.13333e-66
1.30253e-54
0
0
2.61264e-61
0
0
0
0.00379731
4.6043e-19
5.44967e-05
3.0507e-31
2.22774e-09
1.37022e-95
3.14217e-64
0.000699375
2.64876e-97
0
1.18864e-07
1.05176e-93
0.002749
0
7.9145e-96
1.46264e-29
7.1813e-14
1.42378e-09
7.27303e-21
3.60429e-09
3.19575e-54
8.04033e-20
4.93257e-08
5.26978e-100
0
1.64667e-79
5.87823e-25
3.79574e-22
1.43903e-36
7.58253e-08
3.12631e-23
6.49619e-10
4.97539e-29
8.20505e-07
1.04499e-21
1.40582e-41
0
2.55323e-10
1.04946e-36
5.78615e-32
3.10887e-53
2.52153e-102
1.10093e-23
0
0
4.94719e-24
2.06183e-94
1.5693e-98
0
3.90281e-29
0.00597362
0
3.93419e-46
4.17883e-41
8.37748e-81
7.74039e-37
1.18404e-79
3.77778e-44
0
3.09941e-55
9.85396e-81
1.72256e-82
7.20412e-80
1.60701e-78
0
1.42627e-71
0
4.1286e-111
2.02388e-95
8.19845e-12
0
0
0.00225139
6.01641e-115
1.92654e-50
0
1.66548e-85
2.501e-90
4.5045e-56
1.00987e-134
4.62256e-86
2.06103e-29
1.11166e-17
7.04087e-47
1.99299e-73
1.3006e-33
3.98503e-137
4.86656e-38
8.92579e-07
7.52329e-136
0
0
1.88063e-136
3.68461e-86
3.74943e-25
8.28237e-90
5.16685e-19
0
1.75403e-53
6.48288e-139
0
0.00484391
6.92672e-05
5.45188e-49
5.23885e-101
1.15304e-133
2.4493e-92
0
0
6.72965e-103
1.1777e-103
1.89037e-62
4.80089e-08
1.12293e-76
0
4.13317e-102
0.0163376
0.00152799
2.74078e-11
0.0157911
5.38687e-11
5.27355e-72
2.63245e-20
2.84043e-62
3.57922e-91
9.1195e-74
8.0915e-09
1.5619e-69
2.56356e-74
6.86746e-10
0.0138989
1.6663e-66
0
0.0163701
1.33057e-65
0.0156983
0
2.99797e-38
0
7.61984e-63
0.0138821
0
0.0136058
4.26098e-74
0
0.00958405
1.39727e-74
0
3.2365e-11
0.0140545
7.15951e-71
1.61716e-21
0.010746
7.47416e-92
2.31322e-16
0.0166317
3.94786e-16
5.33874e-25
2.39003e-87
0
0
1.271e-17
0.00874652
0
4.05008e-76
5.63482e-46
0
1.29615e-47
9.85035e-09
0
1.33964e-43
0
2.23843e-07
9.01243e-41
4.85368e-49
5.07291e-42
0
4.04268e-25
1.65365e-106
2.62738e-08
0.00785586
3.21694e-92
1.6662e-11
1.79575e-06
0.00795831
2.38578e-100
4.49825e-53
0.0270422
0
9.9981e-09
4.89811e-42
4.82593e-22
9.70534e-89
7.00906e-07
4.45931e-117
1.05248e-115
0
0
0.00514475
3.15947e-32
5.03071e-34
0.00954218
0.000415012
2.71111e-103
1.27525e-64
0
9.14052e-60
3.4623e-108
4.63313e-69
0
0
1.16523e-10
0
2.88501e-24
0.00746704
2.19102e-32
0
0.0029105
0.00675759
0
0
2.67529e-11
3.56616e-35
0.000187353
0
1.79593e-05
5.2265e-22
1.0977e-10
0.00257592
2.59037e-06
1.98864e-11
2.73703e-21
6.02775e-08
0.00413887
3.93642e-91
1.75418e-52
5.52754e-06
2.79586e-39
0
2.2592e-20
0.0133266
3.47485e-30
2.35663e-57
0.00503132
4.78554e-48
0
0.00138458
4.22687e-71
0.008187
1.10884e-82
5.52062e-07
0.00347752
0.0061253
0
2.36501e-87
0
0.00367861
5.35918e-52
2.83682e-07
6.35412e-45
0.00558691
0.0103995
0
0
7.90065e-06
0.00063402
0.00193978
0.00300486
0.00187834
0
0
5.3685e-75
0
2.09509e-111
8.94808e-94
7.80517e-76
1.10538e-50
1.6028e-95
0
0
0.0590984
2.00699e-53
7.93371e-52
1.07443e-93
1.98429e-28
1.908e-44
0
0.0010938
5.74628e-80
0
1.16577e-52
0
4.44385e-48
0
0
4.4573e-76
4.84084e-28
1.22994e-39
0.00180883
0
0
6.47495e-13
0.0395222
0
0
4.71235e-13
2.6887e-117
0
0.0414131
6.84519e-69
4.39334e-43
1.30823e-115
7.79801e-92
0
1.43766e-63
1.19188e-117
0
0
0
4.22029e-32
0.00187558
2.02279e-116
0
1.02155e-114
7.7804e-22
0
0
0
0.0200227
0
6.5838e-81
4.33663e-132
2.0548e-37
0
0
0
0.0190926
0.0444312
7.28797e-117
3.11677e-05
4.29153e-90
5.67537e-127
0
2.92254e-27
0
3.71246e-42
0
6.78265e-53
8.5479e-89
5.34093e-12
0
0.00329339
9.0566e-05
5.41517e-75
0
0
0.00603535
0
0
1.68583e-75
3.84209e-78
0
4.07465e-86
0
0
5.96484e-86
1.65529e-42
2.39138e-39
0.00253038
0.00221033
7.1496e-79
6.42898e-05
0.00323722
1.05985e-92
0
0.0823043
0
0.000203577
2.37495e-16
0
1.4068e-59
1.73355e-91
6.98599e-08
0
6.77224e-96
8.47465e-99
2.49012e-64
3.66738e-85
4.08989e-97
2.02032e-12
0
7.24451e-17
0
0
1.72789e-17
0.000388151
0
3.35951e-47
0
0.000233788
0.00259538
2.21834e-93
0
2.88576e-125
8.44682e-40
2.97966e-09
0.0123056
0
1.11883e-30
3.39809e-25
0.000203523
9.31735e-140
2.16299e-96
0.0147102
2.04536e-94
0
5.70934e-111
3.45529e-98
2.54528e-24
6.04125e-29
0
9.16704e-38
0
0
0
3.40898e-113
0.0114561
1.36009e-09
1.45069e-118
2.44906e-24
4.92121e-115
0
1.1709e-99
0.0218932
5.20543e-14
0.00718193
3.45119e-46
2.0556e-111
0
0
5.33254e-09
5.12778e-28
1.6676e-05
0
1.69969e-109
1.2668e-80
0.017521
0.0442697
9.65666e-10
0
7.13034e-06
0
0.00214362
9.5285e-06
0.00202698
1.40242e-26
0.0066008
7.89208e-09
0
1.14058e-91
1.83185e-131
1.25207e-75
3.15176e-114
4.71509e-61
0.000631742
0.0223782
9.71484e-05
1.40929e-07
0.00216351
1.56009e-45
1.21784e-17
5.22912e-17
2.29223e-14
0
0.00029653
0
0.0115166
0.00012749
0
0.00062744
6.27273e-06
2.0594e-73
4.23806e-102
0.0169461
0
7.47021e-131
0.00316046
0.00532388
4.90676e-147
1.44534e-107
3.09653e-91
5.97593e-117
0
0
2.03474e-114
0.00010767
0.0153121
4.0604e-100
1.41097e-40
0
0.00219684
0.00334783
6.29734e-53
2.23625e-133
1.92009e-122
0.000859024
2.86455e-81
2.45308e-65
7.06525e-18
0
1.2907e-38
1.60586e-105
7.62346e-84
0.0276732
2.04006e-08
5.9313e-79
6.12075e-168
2.67611e-80
2.6072e-73
0
8.99074e-11
0
1.61675e-21
1.23205e-58
0
0
0
3.93085e-112
0
2.93969e-83
9.40156e-98
1.84373e-77
4.99925e-74
8.02637e-86
1.23532e-76
4.92738e-09
3.95136e-93
4.15942e-06
2.72876e-69
1.52532e-137
9.51295e-91
0
0
1.14467e-67
0.00523276
7.87557e-06
0.0182959
1.21937e-06
9.09457e-60
0.0015383
0
1.3642e-08
6.85696e-06
2.13401e-05
4.0431e-08
2.69153e-63
1.74113e-67
0
4.03832e-61
3.05456e-124
3.20415e-85
5.59291e-45
1.32316e-06
0
0.0171672
2.79712e-76
3.06291e-33
3.04858e-69
0
0
1.48848e-89
5.60791e-37
0.0150716
2.69806e-05
2.16291e-87
0
2.78929e-27
6.09612e-07
2.06264e-36
1.95598e-36
0.00583133
2.28368e-67
0.00577884
7.79325e-145
6.24791e-132
4.60368e-23
0.00561177
0.00389249
0.00514793
0.00653507
0.00364415
0.000846402
0.0160579
6.21735e-08
0.00694001
3.24539e-104
0
2.31293e-91
0
5.49451e-05
0.00581671
6.93274e-05
2.571e-08
0.00334062
0.0016411
0
0.00677569
2.64205e-07
4.21486e-121
0
1.58139e-113
9.27609e-08
0.000614797
0
2.14592e-112
1.57861e-07
0.0105883
0
0.0246904
4.33945e-08
4.0494e-13
0.000337725
1.49822e-128
0
0.000959178
5.25833e-11
3.16428e-123
0
0
6.3353e-109
4.9849e-105
0
2.56107e-127
3.97227e-90
0.000196392
8.5495e-99
9.66545e-05
0.00364678
3.75023e-95
5.06484e-10
3.16135e-06
2.52131e-05
6.96985e-11
1.25338e-05
7.12286e-24
0.000615949
0
9.0239e-141
2.09134e-05
0
2.50483e-05
9.3949e-06
1.10737e-31
1.91753e-43
2.9035e-24
0.00711902
0.015845
0
1.20468e-48
1.16792e-08
0
0.0125635
0
0
0
2.30824e-09
3.14013e-77
1.69352e-11
8.3024e-112
6.83265e-75
2.55731e-38
6.48451e-07
1.1258e-06
0
0
0
0.0183732
0.0158144
0
0
0.038286
4.76788e-06
0.0179864
6.60393e-70
0.000141517
5.05514e-95
9.3322e-42
1.59132e-102
0
1.12604e-98
9.01077e-82
1.90543e-100
0.018072
3.39585e-142
2.185e-33
1.35862e-99
0
8.09212e-101
2.87854e-131
1.14086e-75
7.85311e-05
0.00303411
0
0
0.00459342
0
0.016539
0
0
0.0187072
5.5974e-69
0
0
0.00420852
4.41087e-33
9.00037e-104
1.24772e-23
1.64299e-54
1.45248e-83
6.6698e-100
4.93141e-26
0
4.08223e-144
7.66688e-105
4.68397e-147
1.09279e-110
0
0
6.90176e-10
1.28083e-128
1.09903e-32
0
2.68694e-16
1.29259e-96
4.54889e-30
0
0
0
8.81424e-84
3.02346e-86
1.14066e-92
7.78985e-20
2.71055e-61
0
4.21225e-110
0
0
0.0115528
8.64837e-100
0
5.5492e-97
0
0
0.00720868
1.61014e-111
0
2.21103e-82
0
0
0
1.62105e-89
1.09507e-48
0
0
1.91231e-51
5.06678e-05
2.73184e-108
8.93672e-106
0
1.34354e-77
7.0074e-65
3.17577e-75
0.0422969
0
5.80658e-78
3.35074e-49
7.93999e-102
2.95825e-08
6.44496e-97
3.41758e-06
0.000603642
4.15199e-22
3.99122e-35
5.68568e-111
1.04257e-58
5.13406e-125
1.71263e-88
0.0157737
1.20774e-52
9.84549e-140
0.0150544
6.043e-78
0
0
0
1.57316e-55
3.00829e-64
0.000384523
2.32947e-86
3.71394e-135
0
0.015936
0.00288521
0.00626053
1.52278e-14
0.000630043
0.00399736
9.03241e-41
0
0
0.016544
6.713e-74
0
4.6604e-69
2.35584e-57
1.49792e-05
1.28463e-93
0
3.26502e-69
3.21704e-20
0
0
1.02566e-11
9.85219e-126
9.53868e-21
9.74713e-05
0
3.09598e-06
1.85092e-104
3.60885e-76
4.44423e-128
2.30173e-68
2.4431e-69
2.29235e-19
0
0.000746105
0.00239323
0.00113146
1.3384e-08
0.00377238
5.95035e-19
4.42811e-121
1.7167e-107
1.34946e-101
1.93742e-92
0
5.46438e-122
9.65112e-125
3.26046e-99
0.000927682
1.29607e-10
8.27566e-09
0.00465534
5.17727e-87
0.00135863
3.68294e-25
2.37768e-07
8.76205e-27
1.11577e-125
0
9.84765e-111
0
0
0.000923015
0.00104844
0.00346145
1.83608e-100
0.00153113
3.37849e-79
1.97579e-33
0
3.54666e-21
5.5808e-126
0.0327847
4.37876e-26
6.67033e-81
0
0
7.06631e-08
3.09829e-86
1.07134e-17
1.60614e-123
1.68544e-84
0.00636588
1.88636e-104
3.38003e-18
1.51714e-126
1.32556e-24
1.17892e-96
0
1.35969e-97
0
0
4.12749e-96
0.0147472
2.33596e-77
6.19752e-16
6.31887e-99
4.9185e-55
4.05077e-07
0
1.12053e-97
8.1725e-96
0.00410267
0
1.6797e-09
0.00282583
2.80371e-05
2.08809e-130
0.015693
0
3.98449e-99
2.54444e-92
0.00906558