/*--------------------------------*- C++ -*----------------------------------*\
| =========                 |                                                 |
| \\      /  F ield         | OpenFOAM: The Open Source CFD Toolbox           |
|  \\    /   O peration     | Version:  v2012                                 |
|   \\  /    A nd           | Website:  www.openfoam.com                      |
|    \\/     M anipulation  |                                                 |
\*---------------------------------------------------------------------------*/
FoamFile
{
    version     2.0;
    format      ascii;
    class       volScalarField;
    location    "3.5";
    object      ILambda_6_0;
}
// * * * * * * * * * * * * * * * * * * * * * * * * * * * * * * * * * * * * * //

dimensions      [1 0 -3 0 0 0 0];


internalField   nonuniform List<scalar> 
108993
(
146.197
146.202
146.201
146.201
146.201
146.201
146.204
146.201
146.201
171.063
146.201
146.201
146.201
146.185
146.197
146.215
205.709
146.108
146.201
146.202
146.201
146.201
146.202
146.201
146.201
146.201
146.201
146.202
146.202
146.201
146.201
146.194
146.201
146.18
146.201
146.201
146.201
146.201
369.062
1670.97
146.202
146.201
146.199
146.201
146.747
4348.97
146.201
146.202
146.201
146.202
146.201
146.283
146.202
146.201
145.996
146.201
146.201
146.201
146.201
146.201
146.201
146.201
146.201
146.201
146.201
146.201
146.201
146.201
146.13
198.717
146.201
146.201
146.201
146.201
146.201
146.201
146.201
149.815
146.201
146.201
146.201
145.894
146.201
146.201
146.12
146.201
146.201
146.201
146.201
146.201
146.201
146.201
146.201
146.201
146.201
146.2
146.201
146.201
146.201
146.201
146.201
146.201
146.201
146.193
146.201
146.201
146.201
146.201
146.201
880.365
146.568
146.201
146.241
146.241
146.201
146.812
146.201
146.201
146.041
146.201
145.801
146.201
146.327
146.201
146.201
146.298
146.202
146.201
146.201
146.201
146.201
146.201
146.201
146.733
146.201
146.201
146.201
146.201
146.201
146.181
146.201
146.201
146.225
146.201
146.201
146.201
146.201
1963.34
146.201
147.063
147.072
146.201
146.203
147.151
146.201
146.203
146.2
146.201
146.201
147.907
147.148
146.201
146.201
146.201
146.201
146.233
146.201
146.201
146.201
146.201
146.201
146.201
146.282
146.201
146.202
146.201
146.207
146.201
146.201
146.201
159.039
146.201
146.201
146.201
146.184
146.201
146.201
146.178
146.183
146.201
146.201
146.201
146.201
146.207
146.201
146.201
146.202
146.201
146.201
146.201
146.201
146.206
146.201
146.201
146.203
146.441
146.201
254.462
146.201
131.75
146.245
146.201
146.207
146.536
17944.7
146.201
146.197
146.201
146.201
146.201
146.201
146.944
146.2
146.206
146.201
146.201
146.201
146.201
146.554
146.201
190.318
146.201
146.201
146.201
146.201
146.201
146.201
146.201
147.559
146.201
146.201
146.201
146.201
146.201
146.201
146.207
146.502
146.306
146.201
146.201
146.201
146.201
146.201
146.201
146.201
146.201
146.201
146.201
146.201
146.201
146.201
146.201
146.708
146.322
146.201
146.201
146.201
146.201
146.201
146.201
146.201
146.201
146.395
874.983
1458.05
146.201
146.201
146.402
146.201
146.201
146.201
2338.77
2401.07
146.201
146.201
146.216
146.201
146.202
146.201
440.368
145.836
146.201
146.202
146.201
146.201
146.201
146.201
146.201
212.447
146.201
146.317
146.845
146.201
146.201
146.201
146.202
146.201
146.201
146.202
146.415
146.201
146.201
146.196
146.201
146.202
146.646
146.201
146.307
455.124
146.201
146.204
146.201
146.202
146.202
146.201
149.406
147.271
146.456
146.201
146.201
146.201
146.383
147.726
146.201
147.997
146.201
146.201
146.201
146.201
146.201
146.201
146.444
146.206
146.201
146.2
146.185
146.201
146.201
146.201
146.201
146.201
146.201
2135.01
146.502
146.201
146.201
146.201
1011.69
146.201
146.201
146.203
146.206
146.201
146.201
146.201
146.205
146.201
146.201
146.199
2665.18
146.203
146.207
146.201
147.562
146.206
146.599
146.19
146.201
146.538
146.201
146.459
146.524
146.205
146.256
146.186
146.205
146.15
1030.7
146.201
922.495
146.482
146.207
146.476
146.074
146.357
146.204
226.05
146.201
146.508
146.201
146.204
146.422
146.402
146.201
146.201
146.208
146.205
146.201
146.201
191.271
146.125
146.201
150.804
146.201
146.201
146.201
146.994
200.458
146.425
146.201
206.747
146.203
144.794
146.201
146.201
146.963
146.201
146.467
147.298
146.201
226.555
1403.67
246.368
146.201
146.201
175.165
146.201
146.201
146.201
146.201
146.186
146.201
146.201
146.201
251.288
146.206
146.207
146.283
146.201
146.201
146.201
146.201
146.201
146.143
146.201
146.201
146.184
146.201
146.201
146.201
146.356
146.201
146.358
146.894
219.438
146.201
146.201
146.355
146.201
146.201
193.052
146.201
146.201
146.205
146.201
146.326
146.201
146.234
146.584
146.663
146.201
146.201
146.201
146.201
146.201
146.201
146.201
146.201
146.278
146.201
146.177
146.201
146.332
146.201
146.891
146.201
146.201
146.201
146.201
146.201
146.201
146.201
146.201
146.201
146.421
146.688
146.201
146.201
838.384
146.201
146.254
146.206
146.201
146.212
146.201
146.201
146.201
146.201
146.202
146.201
146.202
146.202
146.206
146.202
146.201
147.543
146.207
146.201
148.794
146.202
146.208
146.201
147.058
146.023
146.201
146.201
146.214
146.2
172.259
146.346
146.201
168.826
146.201
146.201
146.201
146.201
146.201
147.721
146.201
146.201
146.311
146.207
5153.45
146.201
146.181
146.201
146.201
146.204
148.829
146.201
146.147
146.201
146.201
146.204
229.358
146.453
146.199
146.201
146.203
146.202
146.201
146.202
4733.72
232.447
146.469
146.202
146.2
211.561
147.379
146.206
146.182
146.201
146.201
146.201
146.201
146.521
3693.15
231.081
146.201
146.201
146.203
146.201
146.203
146.201
870.59
146.201
146.201
146.201
146.202
168.749
146.201
146.201
2338.09
146.534
146.14
146.201
972.483
146.201
146.255
146.201
147.806
146.201
149.884
146.201
146.204
146.201
146.214
146.201
146.852
146.201
146.263
146.201
146.201
735.297
146.204
146.201
146.201
146.331
1886.98
146.295
146.572
146.201
146.382
148.292
146.235
146.201
146.201
226.177
146.679
146.272
146.615
146.273
146.201
146.204
146.201
146.25
146.202
146.254
146.527
146.29
146.281
146.898
146.953
151.805
207.266
146.203
153.044
172.807
161.71
215.806
149.439
146.201
146.115
146.201
146.201
146.202
146.206
146.244
146.507
146.61
146.692
146.202
146.25
152.797
176.129
146.201
146.203
184.664
146.201
1049.84
146.203
191.523
345.234
146.273
577.43
146.463
184.165
184.423
183.596
147.648
146.201
146.201
146.267
158.564
146.202
285.644
179.366
147.352
190.155
1057.94
146.285
146.201
146.201
146.201
146.477
146.201
146.613
146.201
146.201
146.201
146.202
151.84
5594.09
146.201
668.501
146.201
146.26
273.587
146.201
146.263
146.202
146.212
146.212
146.233
146
146.378
146.205
146.548
146.399
146.201
146.278
146.21
146.232
146.298
146.201
146.201
146.212
146.201
146.201
146.203
146.201
146.265
3194.5
148.517
146.201
146.203
146.189
146.259
146.193
231.052
146.199
146.201
146.201
146.198
146.201
146.206
146.201
146.201
146.677
146.201
146.202
146.201
146.197
146.201
146.239
146.202
146.203
146.334
146.201
146.201
146.201
146.216
146.201
146.377
146.409
145.953
146.201
1194.24
146.391
150.262
146.201
146.82
146.201
146.201
146.203
146.202
146.206
146.201
146.201
146.217
146.201
1112.37
146.201
146.201
2012.18
146.423
153.538
146.202
146.866
146.201
146.206
146.362
146.201
146.201
146.261
146.201
146.201
146.111
146.201
146.201
146.201
146.202
146.201
146.248
146.201
147.475
146.201
146.199
149.445
146.201
155.051
158.288
146.062
146.257
422.637
146.204
146.202
146.213
146.219
146.204
146.203
165.729
146.735
146.201
146.324
146.202
146.201
146.227
1754.84
146.201
146.201
146.198
146.204
146.201
146.202
145.891
146.201
146.201
1908.87
146.201
5086.64
146.201
1352.68
146.201
146.206
146.213
146.934
146.215
146.2
146.222
146.222
187.675
146.202
1630.41
146.201
146.201
146.201
146.292
146.342
146.081
146.201
146.201
146.456
1589.78
146.201
145.901
146.701
146.075
146.201
146.227
191.547
1622.87
146.202
146.856
146.202
147.603
146.201
147.851
2573.77
176.969
146.201
146.201
146.202
146.927
146.28
146.201
146.201
146.635
146.401
146.201
146.816
146.206
146.202
147.536
146.201
146.201
147.817
173.203
146.201
146.203
146.201
146.176
146.797
146.223
148.307
146.201
147.927
162.723
146.739
146.204
146.201
146.492
146.208
146.206
146.201
146.234
146.201
146.238
146.201
146.201
146.328
146.201
146.294
146.483
146.416
146.554
146.201
146.495
146.201
457.403
146.201
146.201
146.201
146.332
146.244
146.201
179.388
149.02
146.255
146.466
146.201
146.636
146.424
146.636
146.149
146.7
146.854
146.64
179.053
146.681
146.204
146.478
3094.79
146.258
148.086
148.563
256.231
146.473
146.202
146.202
149.461
146.621
178.582
146.201
146.204
154.56
146.201
146.201
146.201
154.96
146.201
146.201
146.201
146.204
146.201
146.201
146.202
146.698
146.201
146.201
177.932
146.201
1159.57
146.201
146.201
146.205
146.201
146.204
1029.49
179.405
146.201
146.201
146.201
146.62
146.305
146.229
146.202
146.201
146.41
146.201
146.207
146.753
146.274
146.201
146.201
146.201
146.201
146.202
146.202
146.201
146.201
146.201
146.201
146.434
146.201
146.202
146.201
146.201
146.202
146.288
146.203
146.202
146.201
146.201
146.202
146.206
146.201
146.201
146.201
170.449
146.202
146.205
146.201
153.83
146.202
146.201
2135.55
146.578
146.298
146.203
924.101
146.711
146.904
146.204
2287.22
146.201
146.201
146.201
146.27
154.684
2675.4
153.412
146.202
146.187
146.201
215.963
146.201
154.192
146.249
146.85
153.746
147.041
146.299
146.288
146.201
146.201
146.201
146.201
146.201
146.201
146.202
146.325
146.201
1528.69
147.09
146.201
146.201
146.283
146.605
146.201
146.97
146.201
146.355
146.201
146.375
148.443
146.384
146.201
146.401
146.201
146.201
146.201
146.201
146.201
146.201
15087.2
146.534
146.201
146.201
146.201
146.201
146.201
146.201
146.201
146.201
146.201
146.201
146.201
146.201
146.201
146.201
146.201
146.201
146.201
146.201
146.201
218.041
146.391
146.297
559.823
146.201
146.201
146.205
146.201
146.621
146.201
146.202
146.201
146.201
146.29
146.202
146.202
146.202
146.202
146.201
146.096
241.647
147.25
146.201
146.201
146.201
146.202
146.204
146.201
146.502
146.201
146.201
146.201
146.201
146.201
146.21
146.699
146.204
146.487
146.203
146.203
146.203
146.557
146.205
147.002
146.201
146.201
146.992
146.201
146.268
146.206
146.21
146.207
147.777
146.207
146.201
298.601
146.201
348.668
231.21
146.205
146.201
146.201
146.201
146.201
146.134
146.201
146.679
1043.57
172.394
146.201
146.201
163.748
146.201
146.201
146.201
146.201
146.201
149.788
275.665
146.455
146.201
146.512
146.201
197.587
146.397
146.201
146.201
268.253
146.221
147.594
257.118
146.204
146.338
146.201
146.201
206.844
146.201
146.201
3573.89
146.201
146.201
146.201
146.941
146.201
146.201
146.205
146.201
146.412
160.951
146.201
146.202
146.181
146.205
146.201
146.141
146.201
146.202
146.201
146.548
352.968
146.201
148.251
146.201
146.201
146.201
146.202
147.505
146.201
146.288
146.558
251.245
170.966
146.201
146.201
146.396
146.201
146.383
146.395
146.383
146.43
146.394
146.201
146.396
146.386
146.205
146.207
146.201
146.544
146.201
146.201
146.201
146.204
146.201
146.201
146.201
146.578
146.201
146.201
146.201
146.201
146.201
146.201
146.201
146.207
147.426
146.201
146.362
146.205
146.201
146.201
146.203
146.586
146.201
146.202
146.216
146.201
146.201
146.201
146.201
146.201
146.813
146.201
146.585
146.201
149.165
146.704
146.684
146.201
146.208
146.201
146.728
146.201
146.201
146.202
146.207
146.294
146.202
146.6
146.247
146.496
156.213
146.201
146.328
146.201
146.207
146.208
146.202
146.201
219.626
146.492
146.3
146.316
246.519
146.375
146.201
146.195
146.201
146.344
146.902
146.202
146.954
146.201
146.201
146.205
168.912
146.208
146.201
146.201
1892.14
1649.13
161.045
146.201
146.499
146.201
146.202
146.301
146.201
146.207
146.201
146.202
146.196
168.051
1524.87
146.354
173.239
146.412
146.211
146.202
146.768
149.345
146.202
146.201
149.158
146.217
146.47
146.201
146.927
146.29
146.34
148.625
146.394
147.546
153.027
150.624
146.201
254.712
150.437
146.201
152.293
146.201
2221.46
146.201
146.201
149.379
152.688
1886.8
152.24
991.48
150.548
146.218
162.544
146.204
146.219
2995.11
224.028
146.202
146.493
146.201
146.201
146.201
632.696
146.288
146.201
146.321
146.201
150.332
224.067
146.745
147.776
364.184
146.201
230.622
146.201
146.201
146.201
146.201
146.201
146.201
146.201
146.201
146.367
148.557
146.322
146.206
146.201
146.201
146.201
146.201
146.201
146.201
254.282
203.67
146.201
146.201
146.201
146.274
146.201
146.201
146.245
146.201
146.201
146.201
146.202
2247.83
146.226
147.211
149.696
146.201
146.203
148.564
146.201
146.201
146.201
146.475
1324.26
146.53
1144.2
146.201
146.201
10482
146.201
146.202
146.201
146.201
146.202
146.201
146.202
146.201
146.202
652.601
147.009
146.202
146.323
146.836
146.201
146.279
146.201
146.201
146.201
146.201
146.201
146.201
146.202
146.201
194.789
163.854
146.574
146.359
146.201
146.201
2940.1
148.382
146.201
146.347
146.201
146.201
146.208
146.916
1950.95
146.489
146.201
1245.46
2806.7
146.633
146.201
146.559
146.208
146.207
147.185
146.209
3007.64
146.206
146.203
146.206
146.393
146.207
146.205
146.237
146.205
146.204
147.046
1291.26
2283.66
146.201
146.201
7588.3
146.201
146.201
147.163
146.201
155.069
146.204
146.201
146.201
146.201
146.201
146.204
146.329
619.977
146.437
151.529
146.201
146.684
146.204
146.202
146.201
146.202
146.201
146.201
146.202
146.201
146.213
146.201
146.201
146.318
146.606
146.204
151.542
3555.58
146.628
146.202
146.354
146.201
146.201
146.206
146.201
146.201
146.169
146.523
146.609
146.357
146.6
941.481
147.971
146.201
161.942
146.528
146.205
557.346
146.201
146.174
146.201
146.621
146.202
146.232
146.201
146.201
146.201
146.201
148.769
146.201
162.853
146.201
165.494
146.556
146.201
146.201
756.896
146.616
147.338
146.437
146.201
147.68
5786.21
146.201
146.202
146.367
146.453
156.968
146.201
159.881
148.286
146.553
156.944
556.399
146.369
161.328
146.201
6613.33
155.048
146.796
851.563
151.196
146.194
195.87
146.201
918.174
146.646
194.138
146.202
146.202
146.259
146.204
146.202
146.202
146.204
146.201
146.201
146.205
146.201
1597.8
444.168
203.048
232.037
146.208
146.201
146.332
146.615
1490.11
146.4
147.076
146.672
149.759
1307.03
146.595
146.204
618.649
146.201
146.201
146.201
115.433
146.204
147.181
146.506
146.326
147.662
254.423
146.205
146.342
146.201
146.202
146.201
146.203
146.201
146.204
146.306
146.815
160.316
6394.87
146.343
760.193
146.203
1057.86
146.202
147.152
149.02
149.172
146.202
146.201
146.201
146.201
146.201
146.201
146.529
151.307
146.203
727.837
146.233
146.69
349.149
394.309
3106.53
663.103
146.201
148.217
146.421
146.201
146.201
147.602
148.334
146.201
146.2
146.201
146.202
146.201
150.888
148.33
147.61
147.986
146.201
148.231
146.328
146.201
146.472
146.201
178.191
379.961
188.526
177.555
167.989
146.202
146.201
184.154
146.201
146.201
146.201
146.307
146.202
146.203
146.791
146.557
154.023
146.203
146.202
146.202
146.201
146.201
146.201
146.673
166.789
146.201
146.201
4695.01
146.201
146.201
146.201
146.201
146.232
449.915
1546.93
146.573
147.04
146.201
151.953
146.201
146.349
153.77
146.201
146.528
146.201
146.201
538.29
146.201
146.202
241.726
147.045
289.911
431.049
146.201
146.359
146.346
146.603
146.202
146.303
151.22
172.097
146.455
444.682
146.202
146.364
146.349
147.867
146.344
146.543
146.357
244.776
146.201
146.201
6426.09
298.871
146.337
146.62
146.487
147.006
1774.39
146.201
146.441
146.201
524.158
146.201
146.512
146.815
146.201
2098.31
146.201
158.739
255.543
146.201
146.201
149.189
146.201
146.201
146.201
146.201
146.487
146.201
453.083
3129.79
146.201
146.201
528.247
146.202
146.201
146.368
146.201
146.201
146.201
146.201
146.212
146.212
904.528
146.201
146.201
286.372
146.201
159.242
189.267
146.201
146.201
146.202
146.202
151.822
146.201
146.201
146.201
146.201
146.201
175.747
155.994
146.202
146.201
146.605
146.202
146.284
146.201
146.329
146.201
160.717
146.658
146.2
146.201
146.201
146.501
147.753
146.201
146.496
147.937
146.201
148.969
154.26
146.201
146.202
146.201
582.251
146.201
146.201
146.201
146.201
146.201
154.592
225.894
146.201
146.201
241.689
146.201
146.298
146.22
146.201
1942.79
5644.84
146.205
146.202
146.198
146.35
3192.81
146.201
707.054
146.201
922.423
146.558
146.201
943.461
202.687
1114.49
1530.73
845.593
146.202
146.201
146.201
285.202
146.381
148.333
1207.57
146.201
237.075
146.201
153.064
1010.41
935.691
146.201
146.584
146.242
146.201
165.035
146.201
146.201
146.201
820.081
146.667
148.016
146.201
146.201
146.201
1897.34
146.203
3232.79
146.201
146.201
241.627
148.786
146.201
146.201
4363.59
146.201
146.201
146.203
1075.63
146.363
146.417
146.201
2042.49
1105.09
147.823
147.936
146.202
151.217
146.202
146.249
1069.68
1327.75
206.913
151.088
151.659
149.588
146.201
17018.7
595.712
148.397
146.201
149.172
389.209
146.201
150.186
174.558
146.201
1165.07
146.201
6121.42
146.614
146.644
146.532
151.502
146.201
146.201
146.201
146.201
5127.56
146.201
147.044
223.711
146.201
146.201
146.201
146.201
146.201
146.201
146.203
146.201
1313.28
146.201
823.042
146.201
146.203
146.032
146.562
146.208
146.201
146.201
146.201
146.201
183.474
403.779
661.73
382.933
146.203
146.203
146.202
146.201
146.204
146.413
146.202
146.201
146.759
146.725
1043.17
146.202
146.202
146.202
146.227
146.24
146.201
146.202
146.207
146.544
544.385
146.205
149.777
146.203
182.079
146.665
149.4
146.201
146.207
146.204
146.201
146.206
146.202
146.203
146.306
146.204
146.202
146.186
146.209
148.462
146.201
146.034
146.202
146.307
146.201
146.201
146.31
237.783
146.277
146.202
146.201
146.201
159.485
1619.11
146.201
161.813
4326.35
146.199
311.881
154.91
207.844
1384.96
146.202
146.202
146.203
146.193
4986.25
214.031
146.201
146.198
146.201
146.201
146.201
146.201
146.201
146.201
146.134
146.201
146.201
146.515
146.201
146.718
146.39
146.201
146.201
146.437
146.375
146.201
146.22
146.201
146.201
146.209
146.201
146.201
146.82
146.203
146.201
146.201
146.201
146.202
146.201
146.387
146.836
375.265
146.417
152.644
146.516
147.488
146.21
146.202
192.128
146.217
148.517
146.44
146.21
200.25
146.141
146.213
146.204
146.213
146.307
146.205
146.322
146.202
146.206
146.373
146.189
149.081
146.199
176.292
146.205
146.597
146.339
146.205
146.485
146.882
146.436
146.205
146.133
146.201
146.847
304.821
146.206
146.201
146.201
146.205
146.202
146.705
146.344
146.201
146.201
146.202
146.318
159.771
146.201
148.411
146.194
146.201
146.203
146.201
146.21
146.182
146.201
146.201
146.201
146.213
146.201
146.201
146.201
146.221
146.148
146.201
146.611
146.066
164.119
497.682
146.201
146.201
146.988
146.201
146.201
146.201
146.201
146.201
146.558
147.042
146.506
146.201
146.144
146.201
146.687
146.301
146.201
146.201
146.327
146.201
146.201
146.558
146.201
198.403
167.815
146.201
146.201
147.166
992.179
146.311
146.196
146.201
146.201
146.201
146.241
146.201
146.201
146.201
149.3
151.693
146.201
146.201
146.201
1430.65
240.768
312.794
1420.98
146.246
146.198
146.204
146.326
146.206
146.201
147.604
146.205
146.201
146.203
1423.27
146.201
146.201
1525.68
146.442
1552.33
146.201
310.355
146.201
146.201
1005.71
146.201
1014.8
146.209
146.191
779.125
161.18
146.172
146.209
1055.59
146.201
146.879
902.583
146.202
146.536
1102
146.356
146.204
146.202
146.355
147.202
146.359
892.205
146.201
146.181
146.587
146.203
146.546
146.224
146.077
146.201
146.201
146.229
146.202
146.202
146.202
146.201
158.773
146.201
146.223
975.402
146.201
146.228
146.231
993.458
146.066
146.211
1649.34
146.201
146.224
146.44
146.239
146.197
146.229
146.201
146.201
154.383
146.201
170.475
182.392
182.636
1021.8
146.375
146.166
176.152
182.56
146.189
146.201
146.201
197.287
146.077
177.649
146.201
146.262
939.867
183.106
146.203
205.835
224.533
146.202
185.021
147.111
146.693
220.313
146.318
146.207
146.41
146.204
189.165
246.537
167.511
146.423
244.954
162.27
146.194
146.204
250.063
249.845
146.203
146.954
1239.01
146.206
146.201
2818.32
146.202
146.202
147.615
146.201
2872.77
146.201
148.536
190.288
839.761
146.201
146.196
146.201
2789.62
268.842
148.394
146.183
2834.55
2922.04
146.228
146.201
156.786
146.349
254.65
1207.33
190.181
146.201
146.713
146.027
146.56
146.201
146.144
146.201
146.203
146.203
146.201
146.191
18310.4
146.201
146.256
146.186
146.214
146.604
146.202
146.583
146.201
146.146
146.417
147.092
146.201
146.172
146.189
146.201
291.197
150.939
10423.1
146.201
146.204
146.243
6528.92
146.201
146.212
146.301
146.201
146.201
5220.39
146.201
146.212
146.201
146.184
146.201
146.235
146.201
146.201
146.201
146.201
146.716
325.191
146.201
146.383
146.201
146.253
146.293
146.201
146.201
1563
145.845
146.205
146.201
146.208
146.203
146.201
146.201
4384.49
6723.88
146.201
195.618
146.201
146.201
146.206
146.23
146.201
146.205
185.389
146.202
146.201
146.208
146.205
164.709
146.931
146.203
146.202
146.205
415.486
146.201
146.201
146.201
146.201
146.201
146.201
146.201
146.319
146.207
146.201
146.201
156.314
157.637
146.201
146.33
183.494
146.201
146.329
27423.7
146.201
146.363
146.682
146.206
146.206
146.202
146.242
146.364
146.203
146.203
146.205
146.198
146.206
146.205
163.703
146.216
146.21
146.201
146.205
150.377
146.205
146.202
146.201
150.337
197.804
146.201
146.201
146.201
146.202
146.216
1058.8
146.202
146.224
151.944
189.205
146.201
146.201
2021.22
146.201
146.201
146.201
146.201
146.211
150.598
146.201
274.519
176.877
146.201
146.201
146.201
749.606
146.557
146.201
146.211
146.201
146.201
146.201
1903.61
146.348
4187.77
146.201
146.201
146.201
146.204
183.356
146.208
150.201
146.201
146.201
146.202
1619.46
5776.17
164.688
146.201
149.501
148.633
181.867
148.652
160.545
146.204
415.378
146.427
146.201
146.129
146.201
145.867
146.201
146.005
182.186
1787.95
146.886
146.437
156.249
146.201
229.371
214.215
146.571
151.49
157.618
159.292
1211.55
190.773
146.201
154.32
146.926
145.745
146.201
3024.19
146.198
146.201
171.402
475.722
146.201
146.197
146.201
146.204
146.201
146.201
146.201
146.746
2017.56
146.201
146.18
207.944
149.124
212.165
146.201
146.201
146.201
148.395
146.201
146.203
146.204
146.201
146.203
146.201
146.201
1185.5
174.762
146.201
146.201
146.201
146.187
146.201
167.407
146.201
146.204
146.201
146.201
146.211
146.201
146.201
146.201
146.197
145.82
146.201
165.095
146.201
146.201
148.668
146.201
149.552
164.467
146.201
146.201
146.201
146.201
165.386
258.119
149.121
312.317
149.175
146.205
146.924
190.855
148.96
149.21
165.256
146.402
146.201
166.634
146.201
146.201
146.201
146.201
146.204
149.194
146.201
773.562
146.201
146.204
172.289
146.201
146.202
146.201
146.202
2636.86
146.208
146.201
146.201
146.203
146.232
146.201
262.362
805.918
172.46
656.358
146.201
146.201
146.204
392.705
584.784
613.686
434.291
513.76
150.226
1205.18
146.395
723.506
146.198
146.202
146.201
146.201
146.653
250.005
146.918
146.209
216.157
198.562
145.857
266.959
147.082
146.201
146.201
146.201
146.945
147.319
146.34
146.201
147.122
660.333
146.229
5545.27
146.381
146.657
162.502
146.201
146.759
204.359
146.248
146.201
146.203
146.28
146.201
146.201
148.293
146.201
146.201
150.648
146.205
167.044
312.333
146.205
146.205
146.354
146.372
201.583
146.37
146.32
147.035
146.201
146.201
146.378
149.778
146.364
146.353
257.838
146.233
146.309
223.542
2487.74
146.201
146.202
146.436
146.201
2336.65
146.201
146.201
146.201
146.399
146.201
241.214
146.201
146.201
146.226
146.431
146.454
146.316
146.201
146.429
2673.61
1325.25
146.201
146.826
2287.79
146.682
3454.38
146.231
146.646
146.201
146.201
146.201
146.201
146.201
146.204
146.201
2924.52
146.201
146.202
146.201
146.201
146.201
146.201
146.201
146.349
151.742
146.201
146.201
157.604
146.202
2608.67
146.247
146.201
720.088
148.547
146.201
146.201
2874.68
146.203
146.201
200.804
146.201
146.201
146.201
146.202
146.201
146.201
146.201
146.201
146.201
146.201
154.644
146.482
146.201
146.202
146.201
146.402
146.201
146.298
146.202
146.368
146.201
146.201
146.201
146.202
146.224
146.201
146.201
146.201
146.201
146.201
2333.3
146.201
146.201
146.201
146.201
146.197
172.667
146.201
146.201
146.202
146.527
146.201
146.202
146.201
146.119
146.201
146.201
146.201
146.213
146.196
146.201
146.201
146.201
146.201
146.201
5434.76
146.029
164.021
146.189
146.2
146.211
146.201
146.207
146.381
275.697
146.209
146.196
146.201
146.201
146.206
728.289
146.201
146.201
851.78
146.201
146.201
146.201
146.201
146.201
146.201
148.852
145.984
146.201
146.201
990.423
836.051
1057.26
146.206
151.643
447.422
146.202
146.201
146.202
1073.3
146.201
146.204
146.201
146.203
146.951
146.201
146.201
146.201
146.208
146.206
146.216
146.426
146.201
146.805
244.79
146.201
151.763
146.201
146.201
146.201
146.202
146.201
146.203
146.201
304.105
149.093
138.859
147.853
163.84
146.204
146.201
146.201
146.201
146.212
146.201
146.201
146.201
146.204
158.834
146.207
162.354
246.253
146.201
149.981
146.369
146.399
146.205
146.201
146.492
146.201
146.201
146.201
162.201
149.834
159.109
146.186
149.063
146.201
146.205
146.201
146.263
146.201
2576.99
146.42
146.201
146.201
147.92
146.21
146.201
149.09
146.201
146.201
697.411
146.201
146.203
146.201
146.39
146.202
146.199
146.202
146.201
146.205
146.201
1768.93
146.201
146.209
146.202
146.201
147.105
146.201
146.201
146.201
366.336
146.202
146.789
190.704
146.46
146.201
1307.75
146.49
146.202
146.201
690.474
146.416
146.201
146.502
146.836
146.205
146.201
146.201
146.503
146.183
146.199
146.201
146.205
150.354
146.206
173.3
146.202
146.29
146.205
146.201
146.272
146.206
146.203
146.201
146.201
146.203
168.538
146.521
290.766
146.529
146.95
146.531
146.202
146.201
146.201
148.093
1262.26
1046.33
146.22
146.205
211.631
146.53
5353.85
1056.28
146.201
2107.32
3407.27
146.528
146.201
156.165
220.38
435.226
479.028
146.467
146.389
182.098
146.206
172.277
146.204
162.489
146.204
2152.59
255.167
146.201
146.204
146.436
480.765
146.204
181.923
146.201
146.201
258.284
146.27
146.201
146.204
146.201
146.207
146.201
8143.06
328.713
146.201
146.201
235.383
146.205
1756.57
931.523
232.158
146.205
146.201
146.201
693.453
146.201
146.201
146.232
146.204
146.202
257.932
146.203
146.201
990.368
149.572
146.201
146.201
253.196
146.202
146.202
148.887
146.201
146.201
146.232
146.728
20107.9
197.44
146.201
146.207
146.201
146.484
810.487
146.325
3716.4
146.201
146.262
146.201
146.203
146.201
148.282
146.404
146.201
760.529
146.201
146.201
146.334
146.201
146.206
146.205
179.402
1445.87
146.201
146.201
146.365
148.803
146.201
146.204
13770.7
146.201
146.204
146.228
146.201
146.201
146.201
146.201
146.201
146.203
146.201
146.202
147.737
146.201
148.368
8211.42
146.465
147.773
146.201
146.231
146.205
146.201
147.765
663.348
875.57
147.688
145.652
149.503
146.201
146.213
152.805
146.825
148.365
146.448
146.205
148.325
146.201
146.201
146.201
197.763
146.601
146.201
196.177
146.201
146.202
146.201
184.142
307.186
146.201
148.326
147.561
152.344
148.341
148.688
146.201
146.201
147.864
146.205
146.201
146.201
146.201
146.201
146.201
146.201
147.096
146.524
148.993
146.233
146.202
146.234
146.201
146.201
146.201
148.007
146.201
146.201
146.201
148.642
146.202
1050.1
147.27
146.875
146.393
146.765
146.205
147.554
146.201
146.201
146.204
1045.3
146.828
146.203
146.201
146.202
455.721
146.202
149.14
285.606
147.037
147.535
146.201
146.201
147.932
211.362
146.206
147.311
146.22
146.208
146.201
147.688
146.202
148.723
146.201
146.201
146.225
146.214
146.201
146.201
146.233
147.584
146.458
146.203
146.202
146.246
146.654
146.202
146.201
146.201
4993.34
148.797
581.129
146.69
146.201
151.733
150.996
146.202
146.201
146.205
146.201
146.201
146.202
1103.32
146.201
146.205
146.202
146.901
146.201
146.201
146.201
146.201
146.602
267.212
146.201
148.08
146.204
146.26
146.201
146.203
146.201
161.325
147.079
146.097
146.099
146.269
146.207
146.205
146.204
146.201
146.203
146.64
146.204
146.204
146.201
146.201
146.146
146.631
146.201
146.15
859.811
146.201
146.201
146.201
146.201
2243.78
146.201
147.308
146.202
146.217
146.146
146.205
146.201
146.201
146.116
146.206
146.202
146.549
1124.99
146.201
146.201
146.206
146.201
146.207
146.201
146.201
146.202
146.208
146.204
146.207
146.201
146.486
1775.06
163.084
146.204
148.308
146.201
146.203
637.34
146.207
1421.46
146.207
146.453
146.201
146.201
146.201
146.201
146.207
146.201
193.325
148.145
146.201
146.201
146.201
146.202
146.204
146.203
146.201
146.201
146.201
146.793
193.699
146.615
146.204
146.201
194.232
194.147
146.418
146.206
146.202
146.201
146.207
146.201
146.209
146.203
146.204
198.311
146.366
149.545
198.032
147.996
239.997
146.203
610.908
146.201
148.117
146.201
148.264
146.222
148.408
167.843
146.201
146.201
146.202
146.5
1602.98
146.201
147.923
146.202
850.982
146.201
146.202
146.201
146.202
146.989
146.201
146.201
146.202
146.201
146.203
146.201
147.588
149.308
146.23
146.201
146.201
147.846
146.201
146.201
225.74
843.86
237.116
146.201
146.201
146.97
203.833
146.201
146.201
146.632
146.963
165.324
146.201
147.577
146.211
146.201
146.208
146.201
146.201
146.202
146.201
146.201
146.201
146.201
146.201
146.202
146.201
146.201
146.201
146.201
146.201
146.201
146.201
146.201
146.201
146.201
146.201
146.469
147.49
146.523
146.201
146.201
146.201
146.201
146.366
146.201
146.201
146.202
146.201
146.201
146.201
146.202
146.201
146.201
146.201
146.201
146.201
146.601
146.201
146.647
146.569
146.461
146.201
146.201
146.434
146.201
146.201
146.201
146.201
146.201
146.201
146.201
146.201
146.202
146.203
153.775
148.423
146.201
146.203
146.201
146.201
146.201
146.201
146.201
146.201
146.503
276.299
146.201
242.657
146.201
146.201
271.522
208.666
146.201
146.213
146.417
146.201
146.201
146.201
146.203
146.201
243.36
146.201
204.067
146.201
146.201
146.201
146.311
146.495
146.247
146.201
146.201
146.201
146.201
146.201
146.201
146.201
146.201
146.201
146.201
146.66
146.201
146.202
146.203
146.201
146.201
146.201
146.201
146.22
174.719
146.224
146.201
146.203
146.201
146.201
146.202
146.201
146.201
146.201
189.079
146.207
146.201
146.202
146.457
146.201
146.338
146.203
146.202
146.846
146.201
146.853
4070.09
146.244
146.205
146.201
146.486
146.217
146.202
146.201
146.201
146.201
146.411
146.202
146.203
146.216
146.637
147.274
147.1
146.201
146.201