/*--------------------------------*- C++ -*----------------------------------*\
| =========                 |                                                 |
| \\      /  F ield         | OpenFOAM: The Open Source CFD Toolbox           |
|  \\    /   O peration     | Version:  v2012                                 |
|   \\  /    A nd           | Website:  www.openfoam.com                      |
|    \\/     M anipulation  |                                                 |
\*---------------------------------------------------------------------------*/
FoamFile
{
    version     2.0;
    format      ascii;
    class       volScalarField;
    location    "3.5";
    object      ILambda_1_0;
}
// * * * * * * * * * * * * * * * * * * * * * * * * * * * * * * * * * * * * * //

dimensions      [1 0 -3 0 0 0 0];


internalField   nonuniform List<scalar> 
108993
(
146.201
146.201
146.201
146.201
146.201
146.201
146.205
146.201
146.201
146.202
146.201
146.201
146.201
146.201
146.201
146.201
146.203
146.201
146.201
146.201
146.201
146.201
146.202
146.201
146.201
146.201
146.201
146.202
146.201
146.201
146.201
146.201
146.201
146.201
146.201
146.201
146.201
146.201
1586.31
1108.64
146.214
146.201
146.201
146.201
146.335
1166.97
146.201
146.282
146.201
146.201
146.201
1133.15
146.201
146.201
146.201
146.201
146.201
146.201
146.201
146.201
146.201
146.201
146.201
146.201
146.201
146.201
146.201
146.201
146.201
146.209
146.201
146.201
146.201
146.201
146.201
146.201
146.201
146.201
146.201
146.201
146.201
146.201
146.201
146.201
146.201
146.201
146.201
146.201
146.201
146.201
146.201
146.201
146.201
146.201
146.201
146.201
146.201
146.201
146.201
146.201
146.201
146.201
146.201
146.201
146.201
146.201
146.201
146.201
146.201
660.316
146.967
146.201
679.378
674.85
146.201
146.376
146.201
146.201
146.203
146.201
146.201
146.201
146.396
146.201
146.201
146.203
146.221
146.201
146.201
146.201
146.201
146.201
146.201
2449.32
146.201
146.201
146.201
146.201
146.201
146.201
146.201
146.201
146.213
146.201
146.201
146.201
146.201
661.42
146.201
146.583
146.638
146.201
146.202
146.613
146.201
167.854
146.201
146.201
146.201
161.015
146.645
146.201
146.201
146.201
146.201
1831.04
146.201
146.201
146.201
146.201
146.201
146.201
215.662
146.201
146.201
146.201
146.215
146.201
146.201
146.201
146.201
146.201
146.201
146.201
146.201
146.201
146.201
146.201
146.201
146.201
146.201
146.201
146.201
146.207
146.201
146.201
146.215
146.201
146.201
146.201
146.201
165.234
146.201
146.201
177.686
146.518
146.201
204.159
146.201
147.163
385.249
146.201
146.207
146.448
135.547
146.201
146.201
146.201
146.201
146.201
146.201
146.588
146.201
146.207
146.201
146.201
146.201
146.201
1934.51
146.201
440.605
146.201
146.201
146.215
146.201
146.201
146.201
146.201
260.029
146.201
146.201
146.201
146.201
146.201
146.201
146.202
146.5
146.396
146.201
146.201
146.201
146.201
146.201
146.201
146.201
146.201
146.201
146.201
146.201
146.201
146.201
146.201
146.207
146.206
146.201
146.201
146.201
146.201
146.201
146.201
146.201
146.201
146.335
149.28
559.926
146.201
146.201
146.366
146.201
146.201
146.201
1072.21
1409.11
146.201
146.201
146.202
146.201
146.201
146.201
138.397
146.201
146.201
146.201
146.201
146.201
146.201
146.201
146.201
146.205
146.201
146.45
146.617
146.201
146.201
146.201
146.404
146.201
146.201
146.414
146.334
146.201
146.201
146.203
146.201
146.382
146.49
146.201
146.202
445.193
146.201
146.202
146.201
146.203
146.203
146.201
147.463
149.052
146.511
146.201
146.201
146.201
146.431
749.388
146.201
148.265
146.201
146.201
146.201
146.201
146.201
146.201
146.431
146.201
146.201
146.201
146.201
146.201
146.201
146.201
146.201
146.201
146.201
687.37
146.317
146.201
146.201
146.201
2612.76
146.201
146.201
146.201
146.201
146.201
146.201
146.201
146.202
146.201
146.201
146.201
145.017
146.201
146.201
146.201
146.904
146.202
146.745
146.201
146.201
146.609
146.201
146.634
146.606
146.202
146.202
146.201
151.646
146.201
3531.3
146.201
413.139
146.684
154.884
146.689
146.201
146.365
146.201
149.302
146.201
146.209
146.201
146.201
146.352
146.402
146.201
146.201
154.688
151.202
146.201
146.201
155.253
146.201
146.202
221.141
146.201
146.201
146.201
146.668
146.208
146.572
146.201
154.001
146.202
148.268
146.201
146.201
148.712
146.201
146.348
148.629
146.201
149.878
866.291
150.258
146.201
146.201
146.202
146.201
146.201
146.201
146.201
146.201
146.201
146.201
146.201
155.926
146.205
146.205
226.172
146.201
146.201
146.201
146.201
146.201
146.201
146.201
146.201
146.201
146.201
146.201
146.201
146.363
146.201
146.365
146.496
146.209
146.201
146.201
146.366
146.201
146.201
146.204
146.201
146.201
146.202
146.201
146.225
146.201
360.258
146.597
146.207
146.201
146.201
146.201
146.201
146.201
146.201
146.201
146.201
167.791
146.201
146.201
146.201
146.241
146.201
146.209
146.201
146.201
146.201
146.201
146.201
146.201
146.201
146.201
146.201
146.394
146.64
146.201
146.201
959.811
146.201
146.202
146.205
146.201
146.201
146.201
146.201
146.201
146.201
146.201
146.227
146.202
146.202
146.203
147.215
146.201
146.215
152.428
146.201
146.215
147.071
146.201
146.201
146.214
146.201
146.201
146.201
770.092
146.201
146.202
146.302
146.201
146.606
146.201
146.201
146.201
146.201
146.201
146.215
146.201
146.201
146.439
146.201
242.65
146.201
146.201
146.201
146.201
146.203
145.755
146.201
146.201
146.201
146.201
146.2
147.426
147.111
146.201
146.201
146.206
146.209
146.201
146.201
5459.78
147.817
146.405
146.23
146.201
147.575
148.817
146.279
146.201
146.201
146.201
146.201
146.201
146.361
900.016
149.658
146.201
146.201
146.227
146.201
146.201
146.201
161.618
146.201
146.201
146.201
146.201
146.205
146.201
146.201
138.535
146.205
146.201
146.201
156.468
146.201
146.202
146.201
5695.77
146.201
146.228
146.201
146.214
146.201
146.201
146.201
146.873
146.201
2497.28
146.201
146.201
1314.12
146.202
146.201
146.201
146.326
1374.53
146.202
146.46
146.201
146.336
166.394
146.201
146.201
146.201
228.358
146.214
584.753
146.201
929.794
146.201
146.202
146.201
146.201
146.201
282.624
146.216
146.201
146.201
146.209
146.81
1867.27
146.207
146.201
146.225
1698.2
146.834
1807.19
1843.45
146.201
146.201
146.201
146.201
146.202
176.99
146.205
146.495
146.494
146.206
147.843
1933
1966.01
1822.28
146.201
146.206
146.203
146.201
616.216
146.201
253.789
146.21
146.202
214.643
146.202
156.563
146.203
146.203
147.203
146.201
146.201
186.752
146.202
146.203
596.521
146.203
147.72
146.203
567.647
149.977
146.201
146.201
146.201
146.212
146.201
146.348
146.244
146.201
146.201
146.825
146.558
8916.38
146.201
278.362
146.201
392.42
146.207
146.201
378.016
146.201
146.201
368.431
146.201
146.201
146.201
180.055
147.943
146.365
146.201
294.774
146.201
146.201
146.201
146.201
146.201
234.072
146.201
146.201
146.205
146.201
146.202
7507.71
147.974
146.201
158.859
146.201
146.201
146.201
146.203
146.201
146.201
146.201
146.201
146.201
146.755
146.201
146.201
146.209
146.201
146.201
146.201
146.201
146.201
146.213
146.203
146.206
146.365
146.201
146.201
146.201
306.868
146.201
146.336
146.425
146.201
146.201
151.001
146.637
146.201
146.201
146.297
146.201
146.201
148.255
146.202
146.212
146.201
146.201
146.212
146.201
698.319
146.201
146.201
2259.83
146.202
199.101
203.524
147.203
146.201
146.256
146.206
146.201
146.201
146.204
146.201
146.201
146.201
146.201
146.201
146.201
146.208
146.201
146.214
146.201
147.313
146.286
146.201
5795.19
146.285
1627.14
146.201
146.201
146.202
117.16
146.204
146.353
146.211
449.622
146.203
167.356
155.142
146.206
146.201
146.347
146.307
146.201
146.222
1911.13
146.201
146.201
146.201
146.232
146.201
146.418
146.219
146.201
146.201
97.7961
146.201
181.331
146.201
69.4103
146.201
146.228
146.264
146.204
479.589
146.201
146.269
146.263
146.249
146.437
2877.7
146.201
146.201
146.201
146.21
146.203
146.204
146.201
146.201
146.206
2812.89
146.201
146.204
146.514
146.508
146.21
437.654
1659.65
3424.45
146.647
152.267
146.205
2647.88
146.201
1857.43
1476.28
290.291
146.201
146.201
146.204
146.209
147.398
146.201
146.201
146.233
146.454
146.201
161.191
146.204
146.201
2444.22
146.201
146.201
5063.36
218.021
146.201
146.204
146.201
146.201
146.208
1643.69
5174.57
146.201
5441.43
146.207
146.209
146.201
146.201
146.203
146.225
146.202
146.201
146.201
146.201
2208.08
146.201
146.201
146.359
146.201
151.719
146.343
146.203
146.208
146.201
146.583
146.201
464.659
146.251
146.201
146.201
146.71
1272.11
146.201
146.202
3465.78
877.542
146.458
146.201
146.206
146.379
146.583
146.201
146.218
148.144
146.208
146.202
146.205
146.202
152.72
2632.83
1412.24
146.214
146.206
146.204
146.212
146.205
146.204
146.208
146.45
146.202
146.201
146.201
146.209
146.201
146.201
146.201
146.213
146.201
146.201
146.201
146.201
146.201
146.201
146.201
223.855
146.201
146.201
146.202
146.201
1237.76
146.201
146.201
146.201
146.201
146.201
832.15
146.221
146.202
146.201
146.201
149.218
146.218
1402.23
146.201
146.201
146.363
146.201
146.233
146.22
167.967
146.201
146.201
146.201
146.201
146.202
146.55
146.201
146.201
146.201
146.201
146.371
146.201
146.714
146.201
146.201
147.434
357.575
186.855
153.358
146.201
146.201
146.257
372.432
146.201
146.201
146.201
174.449
146.201
147.131
146.201
146.209
146.201
146.201
890.139
147.068
146.213
151.264
682.454
146.208
146.207
146.646
688.056
146.201
146.201
146.201
360.413
146.203
4212.21
146.214
146.199
146.201
146.231
146.206
146.201
146.211
656.214
146.21
146.201
146.243
262.919
155.342
146.201
146.201
146.201
146.201
146.201
146.201
146.201
978.911
146.201
2885.41
146.201
146.201
146.201
148.379
621.119
146.201
146.201
146.201
146.203
146.201
146.202
146.716
146.222
146.201
146.35
146.201
146.201
146.201
146.201
146.201
146.232
10113
146.382
146.201
146.201
146.201
146.201
146.201
146.201
146.201
146.201
146.201
146.201
146.201
146.201
146.201
146.201
146.201
146.201
146.201
146.201
146.201
147.365
188.14
209.917
212.827
146.201
146.201
146.201
146.201
146.201
146.201
146.203
146.201
146.201
1505.68
146.201
147.358
146.203
146.203
146.201
146.201
147.633
148.185
146.201
146.201
146.201
147.201
146.202
146.201
146.52
146.201
146.201
146.201
146.201
146.201
161.059
146.202
146.201
146.558
146.202
146.201
146.201
146.653
146.362
146.202
146.201
146.201
146.759
146.201
191.214
148.816
149.194
149.582
153.026
148.916
146.201
146.215
146.201
146.241
146.215
149.428
146.201
146.201
146.201
146.201
146.201
146.201
146.488
364.182
146.212
146.201
146.201
146.212
146.201
146.201
146.201
146.201
146.201
222.927
146.213
146.574
146.201
146.311
146.201
146.211
146.364
146.212
146.201
146.222
146.201
175.606
146.236
218.071
505.602
146.201
146.201
146.202
146.201
146.201
2318.41
146.201
146.201
146.201
149.652
146.201
146.201
146.208
146.201
146.393
149.797
146.201
150.318
146.201
209.189
146.201
146.201
146.201
148.487
146.201
146.503
146.208
146.201
153.3
146.201
146.201
146.201
179.418
148.059
146.201
146.272
149.677
149.437
146.21
146.201
146.201
146.224
146.201
146.451
146.386
146.375
146.362
146.376
146.201
146.46
146.469
158.3
162.471
146.201
148.437
146.201
146.201
146.201
174.351
146.201
146.201
146.201
146.381
146.201
146.201
146.202
146.201
146.202
146.202
146.201
276.644
306.101
146.202
693.343
146.202
146.205
146.261
146.201
146.213
146.201
146.201
540.845
146.202
146.201
146.201
146.201
146.201
146.677
146.201
146.357
146.201
146.211
146.654
146.201
146.201
146.201
146.201
146.201
146.201
146.201
146.201
146.201
146.203
146.204
146.437
146.201
146.405
146.888
146.201
146.347
146.201
146.201
146.201
146.201
146.201
182.102
146.48
262.735
146.202
181.023
146.366
146.201
146.201
146.201
146.201
146.201
146.715
146.565
146.201
146.201
146.202
146.201
146.201
146.201
146.201
4550.02
1773.76
146.202
146.201
146.46
146.201
146.201
146.202
146.201
534.743
146.201
146.201
146.201
146.201
765.741
146.212
146.202
146.411
213.752
146.201
146.218
147.923
146.201
146.201
146.201
798.493
146.216
146.201
146.201
428.256
146.361
146.66
146.201
146.201
147.88
146.201
146.201
156.502
146.201
146.201
146.201
146.201
1678.82
146.201
146.201
445.592
146.201
835.999
146.201
1240.44
146.201
146.208
169.173
146.203
146.211
1403.46
146.202
146.205
271.445
146.201
146.201
146.201
198.793
226.369
146.201
146.361
146.201
146.364
150.902
146.554
146.204
822.484
146.201
1613.07
146.201
146.201
146.207
146.201
146.201
146.201
146.201
146.201
146.33
147.38
146.325
146.351
146.201
146.201
146.201
146.201
146.201
146.201
358.11
146.269
146.201
146.201
146.201
820.53
146.201
146.201
1049.66
146.201
146.201
146.201
146.204
4459.13
592.816
146.382
148.869
146.201
146.202
147.079
146.201
146.201
146.201
146.413
790.449
162.572
436.67
146.201
146.201
4512.51
146.201
146.204
146.201
146.201
146.201
146.201
146.202
146.201
146.203
270.536
146.205
146.203
146.382
146.254
146.201
1819.78
146.201
146.201
146.201
146.201
146.201
146.201
146.692
146.201
146.204
149.321
146.5
146.394
146.201
146.201
970.078
147.369
146.201
146.396
146.201
146.201
253.998
147.423
1157.37
146.475
146.201
908.932
1916.56
146.523
146.201
146.467
253.93
247.883
147.211
146.839
817.601
241.745
146.201
244.507
146.379
253.236
206.964
486.041
211.656
150.249
147.62
738.082
876.375
146.201
146.201
11193.8
146.201
146.201
146.873
146.201
182.1
206.8
146.201
146.201
146.201
146.201
205.238
146.544
753.222
146.377
215.913
146.201
2750.18
216.493
208.603
146.201
146.623
146.201
146.201
146.201
146.201
146.384
146.201
146.201
146.202
146.891
205.082
146.447
925.632
146.225
146.201
148.533
146.201
146.201
146.202
146.201
146.201
146.201
146.37
670.365
151.07
630.364
730.299
146.211
146.201
181.917
146.429
147.453
200.58
146.201
146.204
146.201
146.5
169.179
153.678
146.201
146.201
146.201
146.201
688.507
146.201
185.059
146.201
155.384
146.478
146.201
146.201
634.398
146.564
148.261
146.463
146.201
146.639
11485.3
146.201
148.618
146.354
146.221
209.864
146.201
220.717
146.622
146.525
181.791
293.967
146.372
217.071
146.201
809.795
5404.53
146.21
3402.38
146.201
146.209
146.217
146.201
3750.71
146.218
146.204
146.202
146.201
147.342
146.202
146.201
148.983
146.202
146.201
146.201
146.203
146.201
5656.48
364.62
146.202
240.305
146.206
146.201
146.214
146.561
1240.27
146.205
146.204
147.592
146.922
9813.74
2300.24
146.202
441.654
146.201
146.201
146.201
117.774
146.202
500.979
146.229
442.233
1233.62
1184.46
146.202
260.571
146.201
146.201
146.201
146.202
146.201
146.202
146.217
147.784
310.104
1309.89
146.215
10016
302.862
428.652
146.201
880.775
154.991
148.156
146.201
146.201
146.201
146.201
146.201
146.201
146.216
146.211
270.898
1147.29
249.463
146.709
266.892
744.363
708.453
598.37
146.201
147.149
146.351
146.201
146.201
146.479
146.659
146.201
146.201
146.201
162.224
146.201
151.533
149.395
149.597
146.525
146.201
4625.48
164.607
146.201
146.391
146.201
146.202
928.727
146.204
146.202
1771.43
168.442
146.201
146.202
146.201
146.201
146.201
146.345
146.201
146.204
146.575
288.391
151.442
334.627
146.448
146.201
146.201
146.201
146.201
146.333
147.889
146.201
146.201
1858.07
146.201
146.201
146.201
146.201
854.058
139.796
2202.87
146.372
146.596
146.201
147.108
146.201
146.322
147.242
146.201
147.012
146.201
146.201
213.657
146.201
146.201
147.021
147.129
155.363
146.204
146.201
146.362
146.442
146.503
146.473
146.222
146.628
154.707
146.351
352.898
146.202
146.201
146.3
148.417
146.345
146.52
146.362
146.63
146.201
146.201
3210.6
149.926
146.41
146.424
146.392
147.16
2262.48
146.201
146.356
146.201
156.87
146.201
146.334
146.419
146.201
1462.21
146.201
146.976
148.465
146.201
146.201
147.047
146.201
146.201
146.201
146.201
146.528
146.201
152.871
1780.82
146.201
146.201
522.87
146.386
146.201
146.398
146.201
146.201
146.201
146.201
256.857
260.3
979.823
146.201
146.201
178.811
146.201
148.76
214.62
146.201
146.201
146.202
146.204
147.26
146.201
146.201
146.201
146.201
146.201
183.735
189.415
146.205
146.201
157.371
146.205
527.215
146.201
146.466
146.201
158.644
146.507
146.201
146.201
146.201
184.304
153.923
146.201
146.377
146.202
146.201
146.209
146.213
146.201
165.157
146.201
300.427
146.201
146.201
146.201
146.201
146.201
147.346
147.943
146.201
146.201
161.848
146.201
146.345
146.201
146.201
1281.52
5130.58
146.309
146.205
146.201
146.206
2415.3
146.201
345.716
146.201
393.149
146.862
146.201
224.256
148.658
4519.38
2589.8
258.829
146.201
146.201
146.201
146.219
146.22
146.225
1629.18
146.201
146.213
146.201
146.232
289.095
682.464
146.201
203.763
196.447
146.201
622.843
146.201
146.201
146.201
321.297
147.174
146.417
146.201
146.201
146.201
3480.64
146.201
2633.6
146.201
146.201
1870.66
148.385
146.201
146.201
2209.88
146.201
146.201
146.202
464.173
520.762
146.449
146.201
1436.88
1296.13
148.488
146.981
146.255
148.805
146.201
231.383
3565.55
315.356
167.065
147.826
151.392
1293.15
146.201
11118.6
971.527
147.111
146.201
1738.76
9734.05
146.201
146.54
418.85
146.201
224.253
146.201
3527.17
146.341
265.031
146.508
147.743
146.201
146.201
146.201
146.201
539.675
146.201
147.127
240.123
146.201
146.201
146.201
146.201
146.201
146.201
146.205
146.201
409.957
146.201
1208.89
146.201
165.188
146.201
146.204
164.432
146.201
146.201
146.201
146.201
146.202
2205.5
3329.54
1630.86
170.281
146.203
146.205
146.201
160.452
146.211
146.208
146.201
161.355
147.928
3497.41
146.221
146.202
146.204
936.397
146.213
146.201
147.729
146.203
146.252
2777.65
198.729
147.012
146.201
146.202
760.652
147.424
146.201
146.242
171.18
146.21
194.994
146.245
146.203
146.321
146.202
146.204
146.201
146.204
1041.98
146.201
146.146
146.202
146.318
146.201
146.201
146.336
146.416
1143.95
147.342
146.201
146.201
1745.89
87.6311
146.201
199.138
143.634
146.201
146.207
146.211
146.209
97.5372
146.201
198.219
195.645
146.201
143.567
146.202
146.201
146.201
146.201
146.201
146.201
146.201
146.201
146.201
146.258
146.203
146.201
146.404
146.201
146.207
146.354
146.201
146.201
147.078
146.791
146.201
146.235
146.201
146.201
348.788
146.205
146.201
146.284
156.932
146.201
146.201
146.201
146.201
146.201
146.214
146.212
171.133
895.565
148.652
146.214
146.363
146.231
146.204
153.155
146.241
146.201
146.624
146.257
151.834
146.201
146.245
146.203
243.523
146.334
228.886
146.337
146.205
228.503
146.352
146.201
146.228
146.201
146.203
236.892
146.23
146.36
221.755
146.377
146.204
146.382
228.085
146.201
146.201
152.631
146.204
146.201
146.201
146.201
219.939
146.203
146.208
146.212
146.201
146.201
146.205
146.202
169.239
146.201
146.203
146.201
146.201
177.534
146.201
149.27
146.201
146.201
146.201
146.201
210.397
146.201
146.201
146.201
146.213
146.201
146.201
329.686
146.201
146.205
219.55
146.201
146.412
146.202
146.201
146.201
146.201
146.201
146.201
146.4
146.207
146.206
146.201
146.201
146.201
146.206
826.766
146.201
146.201
212.459
146.201
146.201
146.384
146.201
146.209
146.531
146.201
146.201
146.254
592.203
2026.67
146.201
146.201
146.201
146.201
146.336
146.455
146.201
146.201
146.201
146.828
146.201
146.201
146.201
3322.42
150.418
146.209
3215.01
185.579
146.201
146.205
146.203
146.201
146.235
147.164
147.034
146.201
167.41
3011.04
146.201
146.201
3084.4
147.266
3390.8
146.201
146.205
146.201
146.266
2726.21
146.201
2412.73
146.202
146.201
2419.17
146.201
146.201
238.739
2407.45
146.201
146.208
2517.91
146.201
146.203
2349.55
146.369
146.202
146.201
146.372
2601.47
146.362
455.402
146.201
146.201
147.124
146.205
146.785
146.224
146.201
146.201
146.201
146.226
146.201
146.205
146.207
146.201
146.202
146.201
146.224
376.197
146.201
146.227
146.228
362.482
146.201
917.012
6479.9
146.201
146.224
146.254
555.634
146.201
146.227
146.201
146.201
146.201
146.201
1081.58
146.203
146.203
473.555
785.7
146.201
146.202
146.203
146.201
146.201
146.202
146.215
146.201
146.207
146.201
370.64
499.943
146.203
151.158
297.706
227.459
146.202
146.204
2180.31
146.781
146.262
146.278
171.712
146.202
185.46
282.211
146.244
146.213
146.202
146.238
272.169
146.201
368.179
146.243
146.203
267.005
146.516
1159.24
486.765
146.201
480.12
146.204
146.201
655.888
146.201
793.931
146.201
146.71
328.079
1029.05
146.201
146.201
146.201
309.406
146.205
146.627
146.201
441.009
563.402
1179.1
146.201
148.931
161.221
148.958
285.218
157.32
146.201
146.209
146.201
146.203
146.201
146.201
146.201
146.201
146.201
146.201
146.201
4605.09
146.201
146.203
146.201
541.58
148.667
146.201
267.169
146.201
146.201
146.206
146.201
146.201
146.201
146.201
146.201
146.207
146.201
1155.53
146.201
146.228
244.35
3990.29
146.201
388.912
146.312
146.201
146.201
5647.74
146.201
146.201
146.201
146.201
146.201
146.204
146.201
146.201
146.201
146.201
151.634
183.881
146.201
146.522
146.201
1891.06
192.461
146.201
146.201
1240.33
146.201
154.604
146.201
325.549
150.236
146.201
146.201
1144.87
5317.31
146.201
148.738
146.201
146.201
150.747
560.265
146.201
146.202
146.226
146.216
146.201
247.306
150.727
557.438
158.879
146.202
146.201
153.963
1321.47
146.201
146.201
146.201
146.201
146.201
146.201
146.201
1046.15
153.078
146.201
147.536
155.735
152.369
146.201
257.705
196
146.201
230.456
19690
146.201
948.071
146.488
146.205
146.202
146.202
827.08
232.781
146.2
146.202
146.203
146.201
146.204
157.768
147.132
440.181
146.201
146.201
146.206
148.905
146.204
146.204
146.201
148.004
297.061
146.201
146.292
146.201
146.271
238.477
657.73
146.643
560.801
146.201
150.602
146.201
146.201
2010.66
146.201
146.201
146.201
146.201
146.207
146.201
146.201
146.203
146.202
146.221
146.222
146.201
556.312
146.455
146.201
402.373
146.201
146.201
146.201
1187.11
146.349
489.118
146.201
146.201
146.201
146.202
146.229
146.203
154.825
146.201
146.201
147.068
2423.69
7192.14
146.226
146.201
150.867
148.491
159.581
149.3
176.218
146.203
616.594
146.346
146.201
146.201
146.201
146.201
146.201
146.201
196.82
1586.88
147.158
146.486
163.827
146.201
146.208
146.207
678.76
146.223
166.62
146.23
539.676
462.962
146.201
152.013
149.423
146.201
146.201
1569.48
146.201
146.201
211.816
813.653
146.201
146.201
146.201
146.201
146.201
146.201
146.201
146.259
1978.97
146.201
146.201
146.203
161.988
163.113
146.201
146.201
146.201
154.003
146.201
146.203
283.624
146.201
146.203
146.201
146.201
2583.75
146.219
146.201
146.201
146.201
146.201
146.251
146.216
146.201
148.527
146.29
146.201
513.678
146.201
146.201
146.201
146.201
146.201
146.201
146.202
146.201
146.201
146.58
146.201
147.218
146.202
146.201
146.201
146.201
146.201
146.202
187.101
147.203
375.575
146.947
199.673
157.162
147.349
147.308
147.187
150.291
146.598
146.201
146.202
146.201
146.201
146.201
146.201
335.746
147.429
146.201
1936.1
146.201
146.201
146.202
146.201
163.753
146.201
152.703
1450.72
155.249
146.201
146.201
146.201
146.229
146.201
146.203
276.828
146.202
266.262
146.201
146.201
157.278
228.372
243.969
252.185
274.867
385.904
171.328
3287.64
146.334
268.359
146.201
146.201
146.201
146.201
175.903
159.488
417.16
255.128
150.87
148.821
146.201
160.431
1747.36
146.201
146.201
146.201
256.135
147.001
146.354
146.201
248.921
645.883
816.607
1860.15
146.458
358.887
1389.33
146.201
146.222
1521.28
234.387
146.201
146.203
173.697
146.201
146.201
1456.96
146.201
146.201
149.073
146.202
1534.11
180.381
146.201
146.235
146.517
146.541
146.213
146.525
179.287
146.782
146.265
146.201
146.543
146.226
146.479
146.467
146.205
1056.65
146.315
234.386
1266.1
146.201
146.281
146.7
146.201
635.74
146.201
146.201
146.201
146.699
146.205
146.211
146.201
146.201
1333.09
146.644
146.644
156.625
146.201
1716
1246.5
1609.51
146.201
146.347
7586.66
146.494
1004.48
146.201
146.618
146.201
146.201
146.201
146.201
146.201
146.201
146.201
1020.71
146.201
151.39
146.201
146.201
146.201
146.201
146.201
383.699
293.591
146.201
146.201
1418.1
146.202
589.918
146.206
146.201
864.279
146.201
146.201
146.201
388.102
146.202
146.201
146.206
146.653
146.219
146.201
169.886
146.201
146.201
146.201
146.201
146.201
146.222
146.201
146.372
146.201
146.224
146.201
146.358
146.201
146.202
146.205
2134.5
146.237
146.243
146.227
146.201
1017.52
146.213
146.201
146.201
146.201
146.201
752.157
146.201
146.201
146.201
146.238
146.201
283.919
146.201
146.201
146.201
146.205
146.201
146.202
146.201
146.201
146.201
146.201
146.201
191.359
146.201
146.201
146.201
146.201
146.201
146.201
4401.19
146.203
146.202
146.201
146.201
304.176
146.201
146.369
262.307
146.209
341.379
146.201
146.201
146.201
146.202
248.167
146.201
146.201
260.573
146.201
146.201
146.201
146.201
146.201
146.231
158.712
146.201
146.201
146.201
377.943
167.972
165.866
172.119
151.152
386.925
146.204
146.201
146.201
345.566
146.201
146.201
146.201
146.204
147.416
146.201
146.201
146.201
270.742
147.192
500.136
146.313
146.201
146.652
226.623
146.201
146.214
146.201
146.201
146.201
146.202
146.202
146.204
146.201
166.261
784.013
547.879
3484.87
159.047
149.305
146.201
146.201
146.201
146.499
146.201
146.201
146.201
146.201
153.392
146.224
146.24
163.072
146.201
149.147
146.361
146.481
146.205
146.201
146.383
146.201
146.201
146.201
147.225
148.139
156.971
146.201
149.566
146.201
146.202
146.201
146.202
146.201
2876.33
146.377
146.201
146.201
146.281
190.713
146.201
148.966
146.201
146.201
682.12
146.201
146.202
146.201
146.361
146.201
146.201
146.201
146.201
149.171
146.201
1414.99
146.201
146.214
146.201
146.323
146.457
146.201
146.201
146.201
230.248
152.975
146.367
166.975
146.535
146.201
435.429
146.356
146.201
146.201
492.331
146.434
146.201
146.533
146.931
146.203
146.333
146.201
146.708
146.201
146.201
146.201
146.201
151.431
146.201
5747.76
146.201
239.371
146.201
146.201
353.782
146.201
146.267
146.201
146.201
162.978
156.963
146.496
391.681
146.629
146.664
146.648
146.201
146.201
146.201
146.463
512.977
1629.44
146.203
146.204
455.105
146.782
4072.2
548.253
146.201
5667.37
4979.05
146.525
146.201
156.999
371.536
374.377
851.233
146.448
146.43
178.389
146.203
156.484
146.202
368.716
202.793
3883.92
182.854
146.201
146.205
146.39
386.286
146.282
161.709
146.201
146.201
210.006
146.201
146.201
146.201
146.201
284.532
146.201
38994.5
147.24
146.201
146.201
166.125
149.935
2393.49
600.335
201.491
149.1
146.201
146.201
359.519
146.201
146.201
146.201
146.203
146.223
176.344
146.202
146.201
316.506
1228.07
146.201
146.202
261.722
146.202
146.225
1224.59
146.201
146.201
146.202
146.869
294.166
180.698
146.201
146.204
146.201
146.565
433.283
146.322
10269.2
146.201
146.201
146.201
146.208
146.201
149.489
146.393
146.201
2318.97
146.201
146.201
146.339
146.201
176.668
146.202
147.037
154.423
146.201
146.201
169.946
147.901
146.201
146.397
189.55
146.201
146.202
146.202
146.201
146.201
146.201
146.201
146.201
146.201
146.201
146.226
3057.25
146.201
146.424
6358.93
146.43
3075.55
146.201
382.841
146.201
146.201
2957.78
284.761
2532.65
3629.76
141.993
146.678
146.201
170.263
163.85
146.813
2567.95
242.792
146.202
8006.62
146.201
146.201
146.201
146.213
512.5
146.239
2177.51
146.201
146.201
146.201
150.965
837.676
146.201
5933.83
1108.17
231.706
2607.99
4444.82
146.201
146.201
147.833
146.201
146.201
146.201
146.201
146.201
146.443
146.201
147.471
146.335
148.244
173.665
155.47
807.671
146.201
146.201
146.201
146.742
146.201
146.201
146.201
147.016
146.421
667.814
804.327
147.35
146.433
147.072
146.196
810.987
146.201
146.201
279.019
372.59
367.093
146.202
146.201
146.772
222.27
146.201
1237.43
335.414
1449.9
1896.16
146.201
146.201
147.665
155.648
146.202
2203.72
584.135
183.876
146.201
1348.75
225.325
148.218
146.201
146.201
146.149
146.428
146.201
146.201
1902.3
157.759
2216.92
146.202
146.201
1251.9
873.975
146.201
146.201
146.201
6822.87
148.688
11230.8
3266.86
146.201
241.989
164.284
146.327
146.201
146.201
146.201
146.201
146.201
551.402
146.201
146.202
146.89
194.334
146.201
146.201
146.201
146.201
146.643
187.292
146.201
253.135
146.236
146.201
146.201
146.201
146.201
252.544
406.179
146.201
146.201
680.641
146.201
146.201
146.201
146.201
146.201
4004.37
146.204
195.414
146.201
146.201
146.201
3920.87
146.201
146.201
340.195
146.201
146.348
146.201
146.201
2119.01
146.201
160.098
146.26
263.675
146.201
146.201
146.201
146.201
146.201
146.202
146.215
3575.29
475.688
146.201
146.201
146.201
146.201
146.202
146.201
146.201
146.201
146.202
146.202
146.202
146.201
146.277
3160.81
157.401
146.223
149.1
146.236
146.201
655.632
146.202
428.794
146.194
146.358
146.201
146.201
146.201
146.201
146.202
146.201
146.204
146.754
146.201
146.201
146.201
146.223
146.202
146.202
146.201
146.201
146.201
146.32
146.204
146.243
146.201
146.201
146.205
146.205
146.251
146.201
146.212
146.201
244.565
146.201
289.728
146.366
146.201
146.206
146.357
146.756
146.205
6179.31
162.214
146.201
6482.89
146.201
5783.64
146.201
1952.58
184.136
1457.86
150.121
146.201
146.201
146.201
146.554
1498.09
146.201
1305.24
148.233
2643.11
146.201
146.201
146.201
146.201
2382.07
146.201
146.202
146.201
146.201
146.201
146.201
6678.03
1662.77
160.405
146.201
146.201
227.426
146.201
146.201
146.907
2573.42
147.82
146.201
146.201
146.431
146.99
146.201
146.201
146.673
5346.1
154.605
146.201
8124.72
149.111
146.201
146.201
146.201
146.201
146.201
146.285
146.201
146.201
146.201
146.201
146.201
146.201
146.201
146.201
146.201
146.201
146.201
146.201
146.201
146.201
146.201
146.201
146.461
451.263
256.052
146.201
146.201
146.201
146.201
146.355
146.201
146.201
146.202
146.201
146.201
146.201
153.172
146.201
146.201
146.201
146.201
146.201
146.239
146.201
146.228
146.223
146.408
146.201
146.201
146.331
146.201
146.201
146.201
146.201
146.201
146.201
146.201
146.207
146.201
146.201
158.441
147.768
146.201
146.201
146.201
146.201
146.201
146.201
146.201
146.201
146.354
668.459
146.201
670.694
146.201
146.201
198.129
257.767
146.201
596.688
146.489
146.201
146.201
146.201
146.201
146.201
224.488
146.201
257.284
146.201
146.201
146.201
3223.67
3244.23
2796.87
146.201
146.201
146.201
146.201
146.201
146.201
146.201
146.201
146.201
146.201
2161.18
146.201
146.201
146.201
146.201
146.201
146.201
146.201
907.426
146.237
564.946
146.201
146.201
146.201
146.201
146.203
146.201
146.201
146.201
146.276
146.201
146.201
146.201
151.385
146.201
146.312
146.201
146.201
146.204
146.201
146.205
6458.57
146.215
147.024
146.201
146.207
146.214
146.201
146.201
146.201
146.201
146.205
146.202
146.202
146.211
146.435
606.211