/*--------------------------------*- C++ -*----------------------------------*\
| =========                 |                                                 |
| \\      /  F ield         | OpenFOAM: The Open Source CFD Toolbox           |
|  \\    /   O peration     | Version:  v2012                                 |
|   \\  /    A nd           | Website:  www.openfoam.com                      |
|    \\/     M anipulation  |                                                 |
\*---------------------------------------------------------------------------*/
FoamFile
{
    version     2.0;
    format      ascii;
    class       volScalarField;
    location    "3.5";
    object      ILambda_12_0;
}
// * * * * * * * * * * * * * * * * * * * * * * * * * * * * * * * * * * * * * //

dimensions      [1 0 -3 0 0 0 0];


internalField   nonuniform List<scalar> 
108993
(
146.201
146.209
146.223
146.201
146.201
146.201
146.206
146.201
146.202
146.222
146.212
146.211
146.201
146.201
146.201
146.767
146.23
146.201
146.201
146.202
146.201
146.201
146.217
146.201
146.201
146.201
146.202
146.201
146.207
146.201
146.202
146.201
146.202
146.202
146.201
146.201
146.202
146.201
5500.89
2354.77
146.206
146.207
146.202
146.201
146.241
1911.65
146.202
146.202
146.202
146.202
146.203
146.415
146.211
146.203
146.202
146.201
146.202
146.201
146.201
146.201
146.201
146.201
146.201
146.201
146.201
146.202
146.201
146.201
146.208
147.141
146.201
146.201
146.201
146.201
146.201
146.204
146.201
146.209
146.202
146.201
146.201
146.214
146.201
146.21
146.201
146.203
146.216
146.21
146.201
146.201
146.201
146.203
146.201
146.201
146.201
146.203
146.204
146.201
146.203
146.208
146.201
146.201
146.201
146.213
146.201
146.201
146.201
146.201
146.201
7473.62
146.32
146.201
146.512
146.553
146.204
186.365
146.201
146.212
146.758
146.203
146.205
146.201
3724.3
146.262
146.201
146.256
146.208
146.201
146.201
146.201
146.21
146.201
146.201
147.742
146.205
146.306
146.201
146.202
146.201
146.201
146.262
146.212
146.229
146.201
146.201
146.201
146.201
2215.88
146.265
706.836
591.091
146.201
146.377
618.865
146.202
146.503
146.202
146.201
146.202
146.651
593.085
146.202
146.203
146.201
146.202
146.559
146.201
146.201
146.201
146.203
146.201
146.201
146.279
146.211
146.204
146.203
147.892
146.201
146.205
146.203
146.252
146.202
146.201
146.256
146.204
146.201
146.201
146.202
146.202
146.256
146.203
146.202
146.202
147.291
146.202
146.259
146.206
146.201
146.201
146.257
146.201
146.603
146.201
146.201
146.212
2667.45
146.201
3562.58
146.202
3246.57
146.306
146.201
148.386
1635.39
247.971
146.201
146.201
146.202
146.201
146.201
146.205
597.666
146.279
147.471
146.204
146.202
146.201
146.23
154.007
146.219
147.715
146.201
146.201
146.201
146.204
146.201
146.202
146.201
148.855
146.201
146.201
146.204
146.201
146.201
146.201
147.475
1203.2
2354.45
146.201
146.201
146.203
146.201
146.203
146.203
146.201
146.201
146.201
146.241
146.202
146.201
146.21
146.201
146.25
146.255
146.202
146.219
146.208
146.207
146.201
146.202
146.201
146.211
1595.26
33506.4
2994.71
146.203
146.204
3394.87
146.228
146.208
146.207
398.294
1471.05
146.202
146.201
146.294
146.201
146.203
146.239
250.528
146.203
146.203
146.203
146.208
146.208
146.202
146.203
146.211
146.224
146.201
1990.44
813.162
146.201
146.201
146.203
146.202
146.201
146.201
146.202
2053.54
146.201
146.201
146.222
146.201
146.202
707.258
146.201
146.224
4002.25
146.204
146.203
146.201
146.202
146.202
146.201
364.861
33376.7
1661.62
146.203
146.25
146.203
1185.98
155.158
146.201
5439.49
146.201
146.208
146.201
146.203
146.201
146.204
850.739
146.202
146.201
146.202
146.201
146.204
146.201
146.205
146.205
146.221
146.201
325.167
148.486
146.201
146.201
146.202
1246.18
146.214
146.201
146.261
146.202
146.204
146.246
146.201
146.202
146.228
146.201
146.202
43094.4
146.793
146.281
146.206
515.961
146.203
5244.64
146.225
146.205
3603.52
146.205
3232.83
3625.37
146.202
149.888
146.201
146.212
146.241
1505.31
146.209
3727.92
4445.98
146.211
4419
146.202
404.468
146.203
24162.8
146.203
146.251
146.203
146.203
3602.53
3827.22
146.206
146.203
146.211
146.211
146.201
146.232
19575.2
146.201
146.204
20926.4
146.201
146.204
146.203
769.177
146.255
157.272
146.201
17847.6
146.205
16094.8
146.202
146.201
26849.9
146.201
867.581
31566.4
146.201
13907.3
5473.57
18142.2
146.201
146.206
146.236
146.201
146.205
146.203
146.21
146.202
146.213
146.209
146.201
179.165
146.298
146.23
146.278
146.214
146.201
146.217
146.201
146.221
146.207
146.203
146.201
146.203
146.201
146.209
146.205
3874.41
146.308
3855.47
903.135
146.254
146.241
146.201
3710.98
146.241
146.28
146.237
146.201
146.201
146.422
146.201
146.243
146.215
146.269
149.611
147.031
146.201
146.201
146.204
146.204
146.326
146.344
146.238
146.274
146.234
146.202
146.202
146.201
146.259
146.304
146.306
146.201
146.394
146.23
146.214
146.208
146.201
146.201
146.214
146.229
146.27
906.111
146.216
146.213
430.871
146.212
146.706
146.218
146.203
146.231
146.21
146.201
146.201
146.216
146.207
146.201
146.203
146.202
146.212
146.236
146.209
148.549
146.213
146.223
148.537
146.238
146.209
146.201
147.157
146.202
146.201
146.206
146.562
146.203
146.217
230.442
146.201
170.437
146.201
146.201
146.21
146.203
146.201
146.924
146.203
146.205
2542.24
146.209
551.22
146.201
146.202
146.201
146.202
146.21
253.979
146.209
146.204
146.206
146.348
146.22
146.353
4025.04
146.201
146.211
146.208
146.206
146.293
146.349
19503.7
146.345
915.835
146.291
146.201
146.362
33659.9
146.252
146.261
146.201
146.202
146.201
146.201
146.265
1230.56
146.5
146.204
146.202
146.216
146.201
146.208
146.214
32314.2
146.201
146.203
146.201
146.206
146.236
146.233
146.221
21205.1
146.305
146.201
146.201
25801.7
146.201
146.246
146.275
161.358
146.292
146.82
146.295
146.21
146.296
146.444
146.201
535.756
146.205
146.506
146.205
146.201
2364.89
146.209
146.201
146.203
860.372
1798.37
146.281
787.125
146.209
822.475
177.627
146.291
146.201
146.201
2138.63
146.381
146.379
146.203
146.377
146.252
146.49
146.21
146.291
146.263
146.292
146.236
146.293
146.286
146.351
166.481
168.329
146.27
146.205
184.218
148.144
244.417
172.603
149.483
146.201
146.263
146.203
146.206
146.212
146.235
146.249
177.763
372.263
146.253
146.227
146.564
182.008
174.983
146.201
146.794
146.243
146.201
6976.58
146.209
177.222
146.313
146.267
1119.9
146.259
376.793
146.243
146.243
1029.67
146.201
146.248
146.279
146.214
146.202
1538.55
146.214
5133.16
146.215
2713.9
146.635
146.203
146.203
146.203
146.243
146.201
146.243
146.206
146.21
146.203
146.456
918.098
1900.86
146.201
1967.23
146.201
146.409
146.562
146.201
146.369
146.205
146.496
146.456
146.735
146.203
146.376
146.381
146.344
845.327
146.201
146.29
146.62
146.765
146.467
146.227
146.201
146.329
146.202
146.232
146.203
146.222
146.834
5917.2
5900.99
146.278
146.365
146.341
146.313
146.285
146.378
146.202
146.202
146.202
146.296
146.202
146.317
146.202
146.745
146.303
146.201
146.484
146.201
146.306
146.274
146.369
146.201
146.203
405.825
146.201
146.211
146.273
151.808
146.204
887.299
972.495
146.217
146.277
36281
4451.11
146.24
146.204
151.046
146.273
146.273
146.331
146.202
146.263
146.201
146.203
146.213
146.205
7012.23
146.22
146.21
8035.61
146.257
2435.39
146.309
14626.3
146.201
146.29
146.24
146.201
146.27
146.247
146.202
146.201
146.201
146.202
146.209
146.354
146.203
146.205
146.43
146.207
160.36
146.202
146.209
179.8
146.202
208.863
146.216
146.203
146.252
50201.3
146.532
146.202
146.431
146.268
146.205
146.225
3310.25
146.616
146.344
146.25
146.202
146.293
146.744
2804.88
146.269
146.201
146.271
146.21
146.316
146.202
162.722
146.245
146.202
920.242
146.285
2081.99
146.245
244.461
146.292
146.241
146.227
149.269
146.5
146.203
146.227
146.229
176.365
146.313
1984.18
146.203
146.202
146.236
148.766
146.292
151.613
146.201
146.219
146.341
1991.76
146.214
152.099
146.245
177.429
146.201
146.381
175.931
1920.32
146.534
146.332
146.289
158.232
146.201
148.795
8541.96
6876.83
146.201
146.201
151.418
146.233
146.622
146.202
146.201
146.271
1547.22
146.201
150.095
146.257
146.203
156.27
146.204
146.201
151.411
9159.61
146.201
146.205
146.201
146.202
146.264
146.567
162.468
146.203
162.554
148.337
146.249
146.207
146.202
146.295
146.222
146.205
146.201
146.282
146.208
146.566
146.204
146.21
1445.01
146.211
146.238
146.266
146.264
146.244
146.201
2748.87
146.201
277.721
146.201
146.212
146.201
146.608
146.508
146.21
146.217
186.864
146.425
314.965
146.201
146.269
836.239
1890.82
146.203
150.423
5338.52
146.255
146.217
146.253
146.318
146.581
7739.91
146.484
171.791
154.84
146.233
146.262
146.236
146.326
159.851
743.206
146.217
146.204
146.206
159.949
146.203
146.201
146.202
161.479
146.224
146.244
146.221
146.206
146.241
146.217
146.205
146.538
146.21
146.249
146.224
146.201
9239.98
146.218
146.201
146.206
146.201
146.207
421.775
146.341
146.201
146.225
146.201
146.524
146.222
146.591
146.202
146.228
157.99
146.202
146.697
146.674
157.37
146.201
146.228
146.229
146.201
146.291
146.365
146.202
146.201
146.248
146.201
960.645
146.232
146.366
146.201
146.23
146.464
146.32
146.259
146.271
146.229
146.225
146.294
146.479
146.202
146.202
146.202
9058.83
146.255
146.322
146.205
147.422
146.889
146.201
327.289
146.419
146.234
146.264
1825.21
146.282
146.471
146.334
650.586
146.205
146.201
146.201
146.297
146.705
745.159
146.885
146.209
146.292
146.207
149.37
146.327
154.845
146.613
152.954
146.213
149.264
146.309
146.237
146.207
146.203
146.202
146.204
146.202
146.201
146.203
181.293
146.209
2300.12
146.21
146.228
146.27
146.228
146.679
146.201
146.211
146.202
146.242
146.201
146.254
258.22
146.368
146.212
163.01
146.201
146.202
146.205
146.201
146.201
146.207
15807.3
146.268
146.201
146.204
146.201
146.213
146.206
146.203
146.202
146.202
146.202
146.204
146.208
146.211
146.201
146.245
146.202
146.204
146.201
146.202
146.229
156.536
146.583
146.615
3981.44
146.234
146.201
146.304
146.201
146.202
146.245
146.202
146.302
146.228
146.437
146.229
146.337
146.202
146.202
146.232
146.206
43908
26199.1
146.201
146.201
146.212
146.261
146.421
146.222
146.598
146.213
146.206
146.201
146.201
146.203
146.217
146.237
146.209
146.64
146.228
146.242
146.382
4506.99
146.239
146.234
146.201
146.208
700.653
146.201
146.255
146.214
146.212
146.21
1255.75
146.44
146.203
162.699
146.201
206.623
160.608
146.21
146.201
146.456
146.286
146.394
146.253
146.201
986.521
1659.29
152.997
146.238
146.204
153.531
146.202
146.203
146.202
146.201
146.202
251.023
158.773
639.579
146.215
146.228
146.201
146.245
210.241
146.214
146.202
170.039
146.424
161.13
204.814
146.247
154.873
146.205
146.201
146.238
146.201
146.202
18797.6
146.215
146.202
146.201
3135.78
146.206
146.201
146.249
146.22
816.763
1465.5
146.207
146.439
146.203
146.236
146.201
146.204
146.201
146.471
146.202
791.597
146.248
146.201
401.374
146.201
146.201
146.202
146.408
18256
146.22
146.222
146.352
33572.1
148.539
146.202
146.201
146.297
146.201
181.558
160.02
167.75
153.469
156.022
146.201
170.904
181.787
146.215
146.213
146.201
146.316
146.201
146.202
146.231
146.223
146.201
146.271
146.249
146.276
146.201
146.201
146.203
146.206
146.204
146.201
146.208
146.585
158.401
146.201
182.331
146.524
146.202
146.202
146.208
146.271
146.206
146.212
146.506
146.203
146.206
146.205
146.201
146.206
2119.42
146.206
146.24
146.224
146.286
146.285
146.211
146.205
146.209
146.26
146.211
146.201
146.201
146.318
146.209
146.293
146.307
739.187
146.21
151.809
3526.03
146.201
2646.9
146.201
146.208
146.209
146.25
146.202
854.825
4540.32
146.749
146.232
1406.44
905.975
146.201
146.201
146.201
146.206
146.218
146.24
499.735
146.201
146.204
146.33
146.216
146.209
146.25
146.395
1998.51
2864.63
146.216
146.201
909.467
146.208
146.213
146.503
146.37
146.484
146.234
146.211
146.267
146.214
549.622
146.235
146.217
1123.7
149.609
146.215
146.26
175.65
146.211
146.335
146.205
146.563
146.253
146.201
146.205
146.359
1776.65
2920.86
146.203
146.204
5029.39
146.205
146.201
3418.93
146.205
146.202
146.206
146.248
10920
146.201
146.201
170.552
146.21
4331.57
146.206
5053.19
146.206
146.247
619.286
146.204
146.234
1138.37
146.223
146.284
146.41
146.201
146.202
146.201
5185.99
146.293
146.202
3254.52
146.201
259.917
5758.93
885.626
146.282
361.374
146.201
696.522
146.21
146.201
146.201
146.205
146.201
146.202
146.205
146.201
711.367
177.755
1069.58
147.959
146.201
146.205
146.201
146.201
146.201
146.21
290.667
184.616
146.202
146.201
146.232
146.374
146.278
146.201
146.69
146.238
146.201
146.201
146.209
2696.04
146.509
3444.55
343.643
146.201
146.203
162.096
146.201
146.201
146.201
146.597
6342.08
212.097
1994.31
146.201
146.201
58121.4
146.201
146.207
146.269
146.201
146.482
146.201
146.205
146.201
146.206
2320.06
147.201
146.206
1712.63
146.272
146.201
146.49
146.204
146.201
146.201
146.267
146.201
146.203
146.248
146.201
146.312
210.192
1287.58
1079.6
146.201
146.218
3131.71
172.509
146.201
4060.27
146.201
146.201
146.278
435.786
1828.84
4364.83
146.201
920.88
5470.96
806.203
146.215
4292.35
146.279
146.253
4114.32
146.213
1605.53
146.253
146.204
146.258
4173.43
146.273
146.242
147.089
146.246
146.214
776.602
5372.62
1987.02
146.202
146.204
3721.37
146.201
146.204
160.445
146.201
1445.24
146.243
146.201
146.202
146.201
146.201
146.245
2610.84
1828.21
1991.55
2956.61
146.201
152.684
146.249
146.321
146.213
146.218
146.201
146.201
146.203
146.201
146.558
146.201
146.201
146.262
8213.52
146.246
147.347
1237.29
146.314
146.203
190.528
146.201
146.201
146.21
146.201
146.201
146.201
3439.28
146.747
146.638
181.067
1448.36
146.238
146.201
146.75
799.563
146.348
402.536
146.202
149.474
146.202
867.817
146.269
175.273
146.215
146.204
146.201
146.201
177.25
146.201
146.749
146.203
389.345
1002.67
146.201
146.201
1041.08
1851.86
1191.57
1171.1
146.201
179.014
2356.83
146.201
146.234
201.85
146.253
146.564
146.216
146.521
862.979
231.84
146.397
2208.27
3159.24
146.667
146.201
651.002
301.321
146.398
283.769
146.215
146.408
152.164
146.239
419.842
146.278
146.251
146.202
146.211
203.861
146.203
146.205
146.24
146.522
146.201
146.214
146.207
146.201
1173.94
305.252
146.247
3045.8
146.206
146.201
146.252
1855.62
6964.75
154.626
149.486
5131.42
472.535
14619.3
149.639
146.527
5048.22
146.205
146.283
146.269
2993.11
146.546
160.177
153.204
146.6
157.84
222.214
146.52
146.695
146.203
146.202
146.213
146.542
146.201
146.549
146.232
3336.49
268.602
928.388
146.233
2694.31
146.376
1061.14
146.313
164.996
199.08
239.766
146.206
146.612
146.202
146.201
146.201
146.201
146.218
155.568
146.417
304.71
146.648
146.306
3313.68
152.948
1669.62
277.714
146.201
316.923
163.117
146.205
146.216
1092.3
380.939
146.201
146.202
146.202
146.271
146.201
989.012
689.716
1221.32
895.653
146.201
173.145
146.608
146.201
146.32
146.205
146.217
285.059
146.217
146.216
216.002
146.28
146.35
146.217
146.324
146.201
146.201
1687.56
146.795
146.214
670.283
147.08
2027
146.383
146.239
146.21
146.268
146.202
146.202
359.711
4594.56
146.202
146.203
2207.25
146.204
146.201
146.202
146.204
148.413
230.616
1833.22
989.139
159.609
146.201
4927.93
146.204
2350.45
838.614
146.201
3823.13
146.201
146.201
4292.72
146.201
146.239
156.346
3079.99
710.63
174.969
146.228
1342.25
4197.7
183.305
146.231
146.234
364.123
733.9
1839.6
299.354
146.204
146.203
863.051
5542.42
733.765
1377.54
932.288
159.716
146.201
146.201
62295.1
1111.49
1949.5
537.498
1604.47
8652.56
4117.93
146.201
249.506
146.201
1402.06
146.201
168.359
193.543
146.201
5233.16
146.201
147.802
417.827
146.201
146.201
2590.67
146.201
146.203
146.201
146.201
267.047
146.201
611.49
1336.58
146.201
146.201
779.846
146.227
146.203
4238.6
146.203
146.203
146.201
146.228
146.339
146.339
9175.29
146.236
146.204
819.708
146.201
325.239
1561.37
146.201
146.201
146.502
146.214
1463.83
146.201
146.201
146.201
146.201
146.204
3880.32
5904.03
146.551
146.205
45925.5
146.263
146.352
146.201
3047.11
146.205
1451.46
167.566
146.202
146.201
146.201
146.325
171.952
146.201
3062.29
146.237
146.201
146.24
149.568
146.206
146.389
146.206
5872.37
146.223
146.201
146.201
146.218
146.201
4092.26
214.033
146.201
146.201
669.682
146.202
156.502
146.202
146.202
1840.26
11818.2
146.248
146.202
146.201
146.22
8790.75
146.25
3675.85
146.233
8448.64
147.041
146.201
419.474
667.794
2115.25
1850.15
962.383
146.52
146.239
146.201
164.853
152.057
146.287
1125.75
146.342
147.233
146.213
185.261
1219.72
2966.68
146.239
146.316
147.063
146.203
148.488
146.318
146.201
146.201
1579.9
1195.97
3331.42
146.203
146.203
146.21
2610.58
146.304
12039.5
146.203
146.202
329.131
157.489
146.201
146.253
2280.07
146.264
146.329
146.212
2120.35
146.373
1611.16
146.201
2019.08
1680.91
262.709
218.739
146.289
1036.27
146.203
146.286
1977.34
280.097
509.938
837.294
574.21
218.432
146.201
53937.3
3106.77
154.952
146.201
204.904
4034.52
146.201
1935.27
422.277
146.201
897.729
146.201
12016.4
236.095
146.859
654.034
5018.94
146.201
146.201
146.214
146.24
6214.74
146.201
5129.58
190.145
146.201
146.201
146.201
146.224
146.202
146.201
146.679
146.201
1712.65
146.223
320.547
146.201
146.585
146.202
146.279
148.091
146.201
146.201
146.212
146.309
146.214
5631.8
5654.37
241.807
146.586
146.378
146.404
146.201
146.217
146.23
146.373
146.238
146.419
146.274
5557.08
146.392
146.332
146.209
146.672
146.225
146.202
146.205
146.221
146.251
5479.45
146.255
446.146
146.202
146.214
148.71
304.819
146.204
146.418
146.31
146.208
146.399
146.23
146.203
1494.97
146.21
146.207
146.205
146.247
173.964
146.201
253.737
146.204
1492.32
146.201
146.201
1577.98
155.374
146.626
146.212
146.201
146.204
150.293
925.186
146.203
219.524
1963.04
146.203
146.261
146.251
146.245
474.517
146.203
146.265
146.235
146.203
1987.82
146.252
146.202
146.205
146.257
146.201
146.202
146.257
146.201
146.203
172.8
146.217
146.203
146.34
146.202
146.284
891.268
146.201
146.201
4055.01
3595.81
146.202
146.227
146.201
146.204
146.264
146.204
146.229
147.009
146.224
146.202
146.202
146.202
146.265
146.205
146.233
146.395
6604.89
146.454
5373.51
146.234
146.872
146.228
146.208
6110.01
146.224
146.216
3109.59
146.227
6508.24
146.201
146.226
146.574
146.262
1695.85
146.23
1703.32
146.233
146.23
1078.05
146.203
179.499
146.203
146.244
146.229
146.254
1336.56
146.227
2605.63
146.289
2118.62
146.228
146.202
146.201
150.251
146.23
146.631
146.27
146.203
146.228
146.288
146.292
146.238
146.201
146.201
146.247
146.448
411.411
146.201
146.219
146.202
146.279
146.239
146.201
146.564
146.234
146.25
146.21
146.201
146.233
146.201
146.201
146.201
146.242
146.202
146.22
146.833
146.202
152.099
1115.14
146.201
146.205
146.616
146.201
146.201
146.21
146.201
146.201
146.265
147.447
146.253
146.226
146.29
146.201
146.235
147.017
146.201
146.201
146.878
146.201
146.201
146.282
146.201
146.238
146.663
146.203
146.201
146.235
2412.33
149.352
146.204
146.201
146.201
146.201
146.342
146.22
146.201
146.201
146.231
340.429
146.201
146.202
146.202
1807.05
147.906
147.367
1796.99
146.257
146.21
146.567
146.285
146.205
146.216
1826.95
146.333
146.217
146.234
1504.6
146.241
146.228
1953.1
146.654
1899.61
146.241
146.269
146.216
146.212
1105.22
146.232
974.196
146.242
146.206
936.861
146.217
146.203
146.249
1025.48
146.226
146.524
1022.93
146.208
150.333
1075.3
4145.02
147.669
146.207
3986.59
156.211
3881.15
372.559
146.201
146.201
146.392
146.269
146.382
146.53
146.204
146.203
146.208
151.65
146.209
146.27
146.337
146.201
146.233
146.201
146.222
1853.02
146.202
148.349
149.43
1672.58
146.201
146.449
2542.25
146.202
146.221
146.308
146.413
146.201
148.194
146.201
146.201
146.211
146.201
257.778
146.227
146.227
2042.29
151.569
146.202
146.222
146.232
146.226
146.201
146.217
147.404
146.22
146.815
146.245
146.583
3185.28
146.233
146.217
5385.13
258.6
146.202
146.228
149.446
146.308
154.651
146.226
146.508
146.456
146.223
4566.16
146.292
146.959
147.456
146.292
169.88
146.206
146.375
146.293
146.269
146.409
146.295
2750.89
146.576
146.209
439.701
146.252
146.204
182.14
146.203
819.309
146.201
743.383
5923.65
511.142
146.201
146.201
146.201
345.867
146.249
806.533
146.201
541.431
970.68
146.542
146.205
364.413
161.537
155.069
1518.83
307.298
146.267
146.542
146.218
146.265
146.202
146.204
146.206
146.21
146.206
146.204
146.203
15285.2
146.329
146.224
146.205
146.628
146.469
146.208
155.876
146.203
146.204
146.266
146.203
146.312
146.203
146.277
146.205
146.249
146.206
483.054
146.206
147.314
146.276
9763.46
146.201
146.426
1757.77
146.201
146.22
11070.6
146.204
146.271
146.201
146.206
146.282
146.27
146.201
146.208
146.349
146.201
146.308
321.061
146.201
146.272
146.201
146.559
146.412
146.201
146.201
9805.03
146.207
146.212
146.201
146.361
146.208
146.201
146.201
1912.79
13607.4
146.201
146.495
146.201
146.201
146.211
146.543
146.201
146.205
172.934
146.202
146.201
146.236
146.21
242.074
148.425
146.203
146.202
146.212
250.085
146.201
146.201
146.201
146.201
146.201
146.201
146.201
155.684
146.21
146.202
146.203
2901.21
4295.86
146.205
146.368
174.041
146.203
146.369
95617.1
146.201
154.212
481.319
146.249
146.202
146.203
146.478
146.368
146.216
146.214
146.203
146.21
146.219
146.22
154.655
146.26
146.735
146.202
148.745
3356.86
146.214
146.273
146.201
5485.79
4384.5
146.201
146.202
146.201
146.21
146.29
2308.29
146.206
146.493
146.224
151.866
146.201
146.202
1904.91
146.201
146.201
146.204
146.201
146.21
146.268
146.203
146.224
146.224
146.203
146.201
146.205
7174.65
2258.21
146.201
146.317
146.204
146.203
146.201
10324.4
1723.38
1030.82
146.205
146.201
146.201
146.205
146.844
146.22
8990.57
146.201
146.204
146.203
2421.58
10181.7
146.411
146.203
6118.71
5683.59
152.796
1197.53
1608.24
146.208
959.471
872.174
146.201
146.201
146.201
146.204
146.201
146.206
11414.6
11520.3
860.184
4303.92
1990.58
146.202
146.25
146.264
146.715
146.317
1516.56
147.174
1150.43
247.366
146.202
373.836
856.595
146.208
146.201
4393.67
146.204
146.203
2209.11
316.859
146.201
146.202
146.202
146.206
146.206
146.203
146.201
321.741
1972.36
146.201
146.258
146.223
917.336
213.415
146.345
146.202
146.201
2172.17
146.201
146.203
146.56
146.203
146.206
146.212
146.211
4153.89
146.734
146.207
146.201
146.209
146.209
146.202
146.343
146.206
146.243
146.211
146.206
146.509
146.202
146.201
146.21
146.203
146.204
146.243
146.214
146.209
146.222
216.507
146.219
265.645
146.215
146.201
146.202
146.201
146.201
146.216
208.549
273.939
2762.17
252.202
146.257
351.61
148.077
262.686
272.873
149.237
662.218
146.215
146.216
146.201
146.228
146.201
146.201
146.39
447.52
146.201
654.364
146.203
146.247
146.215
146.201
146.261
146.201
146.21
2281.87
147.818
146.206
146.201
146.228
148.933
146.206
146.223
1668.9
146.216
1909.05
146.201
146.201
146.242
1892.25
1920.63
1638.16
2130.3
255.51
173.054
2007.41
1294.39
1449.31
146.203
146.202
146.201
146.201
146.953
5541.64
146.542
146.299
5585.02
5115.21
146.246
4713.17
156.878
146.201
146.201
146.201
170.669
1608.9
1637.49
146.201
190.261
2982.51
146.441
3058.44
1423.49
148.277
153.277
146.201
147.736
160.402
146.278
146.201
146.204
146.674
146.201
146.207
151.012
146.201
146.204
681.247
146.205
159.096
1312.06
146.206
149.033
1758.22
1798.24
146.691
1767.31
146.625
1539.11
146.273
146.201
1524.43
172.047
1627.56
1651.02
146.23
146.703
146.229
173.313
2020.88
146.201
146.223
4679.92
146.201
1084.89
146.201
146.203
146.201
4574.34
146.202
146.256
146.202
146.201
146.623
4389.06
4409.8
146.301
146.201
150.558
1549.78
1101.14
146.201
163.668
8292.74
732.917
1255.89
146.21
772.184
146.223
146.203
146.201
146.201
146.201
146.203
146.202
1344.22
146.201
146.227
146.201
146.201
146.201
146.201
146.201
146.539
159.431
146.202
146.201
324.191
146.202
1001.66
146.255
146.201
3402.01
146.212
146.201
146.205
317.88
146.414
146.201
146.245
146.212
146.201
146.201
146.221
146.204
146.201
146.201
146.205
146.216
146.201
146.217
2983.09
146.201
146.202
146.201
155.617
146.201
146.224
146.241
146.861
146.201
146.201
146.201
146.205
146.533
146.232
146.201
146.204
146.202
146.201
1236.91
146.201
146.201
146.201
146.201
146.207
177.731
146.204
146.204
146.206
146.279
146.202
146.218
146.205
146.209
146.207
146.202
146.272
148.007
146.201
146.202
146.202
146.222
146.204
146.222
12322.6
146.461
146.218
146.203
146.201
146.488
146.201
151.494
146.612
146.265
146.622
146.201
146.216
146.201
146.206
1035.03
146.287
146.201
1185.7
146.217
146.201
146.202
146.201
146.202
146.201
36943.9
146.205
146.202
146.202
1621.21
252.944
356.685
146.282
931.222
237.324
146.37
146.202
146.208
1391.28
146.201
146.207
146.201
146.211
13688.8
146.205
146.201
146.202
146.352
146.246
146.968
618.199
146.201
318.895
199.664
146.201
158.771
146.202
146.201
146.201
146.206
146.218
146.211
146.201
343.518
163.318
223.677
181.472
1345.1
146.218
146.201
146.201
146.203
146.231
146.201
146.201
146.201
146.208
452.604
147.14
146.25
285.898
146.201
1521.02
151.801
887.769
146.212
146.201
4151.94
146.203
146.201
146.201
3663.67
2049.74
1258.02
146.201
1322.36
146.203
146.545
146.206
147.762
146.201
5480.86
184.511
146.203
146.203
162.326
147.319
146.202
164.308
146.201
146.201
6096.44
146.201
146.243
146.201
164.833
146.204
146.201
146.204
146.201
146.227
146.205
1832.78
146.201
146.881
146.203
146.202
791.052
146.207
146.204
146.211
1931.86
146.219
569.191
748.931
776.578
146.202
1876.57
169.029
146.203
146.208
3586.83
1134.68
146.201
146.541
5096.83
146.381
146.202
146.237
146.634
146.201
146.201
146.201
146.207
565.127
146.207
1090.53
146.205
146.602
146.207
146.201
146.302
146.207
146.209
146.212
146.201
146.213
3600.5
147.013
296.439
153.329
3973.14
147.342
146.256
146.213
146.201
394.408
1030.19
847.927
153.704
146.786
244.349
152.76
12264.8
1130.47
146.201
1674.47
5803.5
150.98
146.201
2057.55
150.207
155.193
498.379
1825.39
856.654
1754.71
146.36
2837.87
146.504
153.254
146.271
4969.01
1469.1
146.276
146.341
836.438
156.826
146.208
170.855
146.201
146.204
1724.47
146.236
146.204
146.204
146.204
146.277
146.202
65659.1
171.038
146.201
146.203
1640.96
146.243
1824.77
787.655
1058.84
146.227
146.201
146.201
1584.81
146.201
146.201
146.337
146.589
146.206
1526.82
146.21
146.356
1100.61
148.485
146.201
146.202
3593.76
146.227
146.202
149.011
146.201
146.203
146.249
4520.81
183.091
2987.74
146.201
146.375
146.201
222.084
2812.74
1476.21
1656.42
146.201
146.284
146.201
146.249
146.202
560.349
784.789
146.201
1000.02
146.201
146.201
159.107
146.201
146.22
146.319
237.195
22965.8
146.201
146.201
146.29
402.957
146.211
146.303
181.762
146.204
148.044
146.859
146.201
146.201
146.204
146.201
146.201
146.204
146.201
146.202
190.941
146.215
2509.29
23197.1
722.794
191.373
146.202
146.315
146.203
146.201
191.117
5319.74
989.063
185.788
857.838
393.076
146.208
146.628
11185.6
753.234
172.41
146.472
146.202
170.539
146.201
146.201
146.201
147.413
146.864
146.202
837.432
146.201
146.734
146.203
5922.23
273.629
146.202
176.962
156.528
148.809
164.723
188.009
146.201
146.203
339.635
146.252
146.204
146.234
146.205
146.201
146.202
146.201
6737.82
364.999
256.546
146.605
146.208
146.483
146.209
146.201
146.201
460.286
146.201
146.203
146.201
337.12
146.489
2562.32
151.848
146.282
1521.13
5316.17
146.211
151.716
146.205
146.208
146.602
321.845
149.305
146.237
146.206
146.21
371.401
146.203
208.176
279.744
156.613
155.872
146.204
146.211
343.037
199.288
146.207
155.916
147.048
146.618
146.201
154.209
146.361
335.951
146.477
146.201
154.628
146.277
146.201
146.201
146.59
148.937
146.999
146.284
146.448
146.705
148.961
146.391
146.201
146.225
9437.77
273.696
4348.27
156.659
146.648
182.513
156.678
146.206
146.65
146.213
146.216
146.208
146.595
633.504
146.213
146.212
146.209
148.329
146.201
146.201
146.241
146.202
154.513
2711.95
146.203
167.659
146.206
146.738
146.204
147.091
146.207
178.519
151.841
146.201
146.201
146.371
146.204
146.204
146.211
146.208
146.36
150.669
146.204
146.22
146.202
146.205
146.201
150.034
146.208
146.201
1086.91
146.201
146.202
146.205
146.28
11434.9
146.204
226.211
146.203
149.349
146.201
146.204
146.201
146.201
146.201
146.256
146.202
147.321
845.242
146.204
146.223
146.204
146.256
146.207
146.201
146.201
146.208
146.207
146.205
146.206
146.201
146.234
2823.67
846.811
147.412
153.955
146.235
146.202
585.915
146.206
879.106
146.318
167.072
146.202
146.202
146.209
146.203
146.207
146.203
146.255
170.959
146.201
146.205
146.201
146.202
146.207
146.43
146.201
146.203
146.205
146.304
146.256
146.303
146.203
146.203
146.261
146.263
146.275
146.205
146.209
146.205
146.317
146.201
146.268
146.336
146.343
146.262
151.974
227.163
146.258
177.153
325.718
146.649
833.312
146.204
166.402
146.202
164.664
146.62
167.876
1745.69
146.245
146.203
146.203
183.511
4778.56
146.205
164.396
146.205
1033.42
146.203
146.202
146.201
146.252
152.854
146.209
146.204
146.208
146.21
146.204
146.26
170.582
204.217
146.613
146.209
146.206
165.808
146.205
146.207
146.324
1054.04
146.346
146.203
146.203
1023.91
146.315
146.201
146.201
234.069
156.531
899.139
146.204
160.726
146.227
146.201
146.206
146.201
146.201
146.207
146.203
146.201
146.207
146.205
146.201
146.206
146.201
146.206
146.201
146.201
146.202
146.601
146.205
146.201
146.201
146.201
146.201
155.608
161.183
146.618
146.201
146.202
146.201
146.201
372.204
146.203
146.202
146.202
146.201
146.201
146.201
146.21
146.206
146.201
146.208
146.201
146.205
146.257
146.201
146.296
146.442
168.352
146.201
146.204
146.35
146.201
146.202
146.201
146.204
146.201
146.203
146.201
146.203
146.21
146.205
830.924
1094.14
146.203
146.205
146.201
146.201
146.201
146.201
146.203
146.201
151.285
323.142
146.201
325.895
146.205
146.203
333.33
326.118
146.202
146.479
1147.01
146.202
146.201
146.201
146.206
146.201
310.82
146.204
313.487
146.202
146.201
146.201
147.684
147.784
146.994
146.208
146.202
146.241
146.269
146.201
146.205
146.201
146.202
146.201
146.204
149.151
146.202
146.206
146.205
146.203
146.202
146.201
146.201
146.622
185.501
146.471
146.202
146.204
146.205
146.203
146.201
146.202
146.204
146.203
186.167
146.203
146.204
146.209
146.329
146.204
700.739
146.204
146.209
150.997
146.209
154.425
10305.8
146.368
146.326
146.201
158.143
146.213
146.203
146.201
146.203
146.201
157.834
146.202
147.547
146.211
147.25
235.669
22508.1
146.205
146.22
150.162
146.202
146.202
146.202