/*--------------------------------*- C++ -*----------------------------------*\
| =========                 |                                                 |
| \\      /  F ield         | OpenFOAM: The Open Source CFD Toolbox           |
|  \\    /   O peration     | Version:  v2012                                 |
|   \\  /    A nd           | Website:  www.openfoam.com                      |
|    \\/     M anipulation  |                                                 |
\*---------------------------------------------------------------------------*/
FoamFile
{
    version     2.0;
    format      ascii;
    class       volScalarField;
    location    "3.5";
    object      ILambda_2_0;
}
// * * * * * * * * * * * * * * * * * * * * * * * * * * * * * * * * * * * * * //

dimensions      [1 0 -3 0 0 0 0];


internalField   nonuniform List<scalar> 
108993
(
146.201
146.201
146.201
146.201
146.201
146.201
146.208
146.201
146.201
146.202
146.201
146.201
146.201
146.201
146.201
146.201
146.204
146.201
146.201
146.201
146.201
146.201
146.102
146.201
146.201
146.201
146.201
146.202
146.201
146.201
146.201
146.201
146.201
146.201
146.201
146.201
146.201
146.201
2859.09
5646.07
146.202
146.201
146.201
146.201
146.223
1118.7
146.201
146.21
146.201
146.201
146.201
1710.3
146.201
146.201
146.201
146.201
146.201
146.201
146.201
146.201
146.201
146.201
146.201
146.201
146.201
146.201
146.201
146.201
146.201
146.214
146.201
146.201
146.201
146.201
146.201
146.201
146.201
146.201
146.201
146.201
146.201
146.201
146.201
146.201
146.201
146.201
146.201
146.201
146.201
146.201
146.201
146.201
146.201
146.201
146.201
146.201
146.201
146.201
146.201
146.201
146.201
146.201
146.201
146.201
146.201
146.201
146.201
146.201
146.201
2249.71
151.847
146.201
230.048
1112.62
146.201
146.422
146.201
146.201
146.203
146.201
146.201
146.201
146.393
146.201
146.201
146.202
146.2
146.201
146.201
146.201
146.201
146.201
146.201
730.072
146.201
146.201
146.201
146.201
146.201
146.201
146.201
146.201
146.21
146.201
146.201
146.201
146.201
1517.52
146.201
146.98
148.242
146.201
146.202
151.818
146.201
302.993
146.201
146.201
146.201
153.45
150.122
146.201
146.201
146.201
146.201
1867.45
146.201
146.201
146.201
146.201
146.201
146.201
267.987
146.201
146.201
146.201
148.939
146.201
146.201
146.201
146.202
146.201
146.201
146.201
146.201
146.201
146.201
146.201
146.201
146.201
146.201
146.201
146.201
146.207
146.201
146.201
146.202
146.201
146.201
146.201
146.201
156.116
146.201
146.201
149.324
146.521
146.201
343.715
146.201
147.334
237.074
146.201
148.961
146.441
133.437
146.201
146.201
146.201
146.201
146.201
146.201
146.756
146.201
146.205
146.201
146.201
146.201
146.201
1425.31
146.201
2543.37
146.201
146.201
146.205
146.201
146.201
146.201
146.201
347.07
146.201
146.201
146.201
146.201
146.201
146.201
146.202
146.69
146.406
146.201
146.201
146.201
146.201
146.201
146.201
146.201
146.201
146.201
146.201
146.201
146.201
146.201
146.201
146.207
146.202
146.201
146.201
146.201
146.201
146.201
146.201
146.201
146.201
146.337
152.473
811.968
146.201
146.201
146.364
146.201
146.201
146.201
956.159
1089.82
146.201
146.201
146.202
146.201
146.201
146.201
139.61
146.201
146.201
146.201
146.201
146.201
146.201
146.201
146.201
146.206
146.201
146.47
146.535
146.201
146.201
146.201
146.204
146.201
146.201
146.204
146.337
146.201
146.201
146.202
146.201
146.209
146.461
146.201
146.202
679.065
146.201
146.202
146.201
146.206
146.205
146.201
230.309
148.999
146.668
146.201
146.201
146.201
146.55
8442.5
146.201
148.293
146.201
146.201
146.201
146.201
146.201
146.201
146.326
146.201
146.201
146.201
146.201
146.201
146.201
146.201
146.201
146.201
146.201
549.351
146.304
146.201
146.201
146.201
4228.29
146.201
146.201
146.201
146.201
146.201
146.201
146.201
146.202
146.201
146.201
146.201
152.511
146.201
146.201
146.201
153.331
146.202
146.835
146.201
146.201
146.599
146.201
146.814
146.624
146.201
146.203
146.201
151.785
146.201
5016.98
146.201
473.814
146.691
156.195
146.795
146.201
146.364
146.201
148.839
146.201
146.203
146.201
146.201
146.344
146.425
146.201
146.201
160.76
154.478
146.201
146.201
149.287
146.201
146.202
184.526
146.201
146.201
146.201
175.216
146.209
146.746
146.201
149.899
146.202
148.035
146.201
146.201
148.657
146.201
146.452
148.466
146.201
148.549
1406.1
148.529
146.201
146.201
146.202
146.201
146.201
146.201
146.201
146.201
146.201
146.201
146.201
152.853
146.197
146.201
208.594
146.201
146.201
146.201
146.201
146.201
146.201
146.201
146.201
146.201
146.201
146.201
146.201
146.361
146.201
146.363
146.417
146.21
146.201
146.201
146.364
146.201
146.201
146.23
146.201
146.201
146.202
146.201
146.205
146.201
263.905
146.567
146.208
146.201
146.201
146.201
146.201
146.201
146.201
146.201
146.201
165.704
146.201
146.201
146.201
146.203
146.201
146.209
146.201
146.201
146.201
146.201
146.201
146.201
146.201
146.201
146.201
146.222
146.401
146.201
146.201
3751.85
146.201
146.202
146.198
146.201
146.201
146.201
146.201
146.201
146.201
146.201
146.208
146.201
146.201
146.202
146.239
146.201
146.215
146.413
146.201
146.216
146.258
146.206
146.201
146.215
146.201
146.201
146.201
1045.25
146.201
146.202
146.306
146.201
147.93
146.201
146.201
146.201
146.201
146.201
146.214
146.201
146.201
146.448
146.204
246.607
146.201
146.201
146.201
146.201
146.201
146.594
146.201
146.201
146.201
146.201
146.199
147.483
147.227
146.201
146.201
146.202
146.202
146.201
146.201
5962.76
151.856
146.525
146.106
146.201
146.962
148.651
146.205
146.201
146.201
146.201
146.201
146.201
146.212
828.704
156.698
146.201
146.201
146.191
146.201
146.202
146.201
161.192
146.201
146.201
146.201
146.202
146.207
146.201
146.201
150.98
146.205
146.201
146.201
151.29
146.201
146.202
146.201
1781.99
146.201
146.216
146.201
146.199
146.201
146.201
146.201
151.609
146.201
1744.52
146.201
146.201
1915.81
146.202
146.201
146.201
146.309
1593.68
146.201
147.477
146.201
146.317
181.547
146.201
146.201
146.201
242.588
146.217
669.507
146.201
968.294
146.201
146.202
146.201
146.201
146.201
193.856
146.214
146.201
146.201
146.21
148.685
1100.11
146.257
146.202
146.229
2032.07
147.522
2049.61
1094.68
146.201
146.201
146.201
146.201
146.203
146.405
146.202
147.319
146.509
146.207
146.299
2266.76
987.311
1880.31
146.201
146.207
146.212
146.201
756.111
146.202
333.418
146.208
146.201
196.627
146.202
154.537
146.224
146.212
223.232
146.201
146.201
204.763
146.202
146.206
3772.12
146.212
147.787
146.206
4361.72
381.316
146.201
146.201
146.201
146.21
146.201
146.221
146.209
146.201
146.201
146.086
146.53
4822.92
146.201
699.393
146.201
534.826
146.207
146.201
557.258
146.201
146.201
464.029
146.202
146.201
146.201
183.1
190.68
146.329
146.201
363.58
146.201
146.201
146.201
146.201
146.201
278.314
146.201
146.201
146.207
146.201
146.202
8801.05
147.909
146.201
157.256
146.201
146.201
146.201
146.202
146.201
146.201
146.201
146.201
146.201
146.04
146.201
146.201
146.212
146.201
146.201
146.201
146.201
146.201
146.211
146.202
146.207
146.363
146.201
146.201
146.201
150.797
146.201
146.365
146.455
146.201
146.201
148.587
146.699
146.201
146.201
146.288
146.201
146.201
149.519
146.201
146.177
146.201
146.201
146.211
146.201
872.33
146.201
146.201
9392.68
146.202
204.642
190.81
147.14
146.201
146.104
146.202
146.201
146.201
146.202
146.201
146.201
146.201
146.201
146.201
146.201
146.202
146.201
146.211
146.201
167.524
146.205
146.201
1778.18
146.206
174.801
146.202
146.201
146.202
117.858
146.203
146.206
146.21
197.906
146.206
146.736
181.844
146.207
146.201
146.34
146.205
146.201
146.22
7391.37
146.201
146.201
146.201
146.216
146.201
146.211
146.216
146.201
146.201
857.69
146.201
891.054
146.201
594.001
146.201
146.184
195.625
146.205
158.431
146.201
198.497
202
146.241
145.845
2246.99
146.201
146.201
146.201
146.213
146.203
146.206
146.201
146.201
146.202
2083.67
146.201
146.205
146.229
146.085
146.204
246.489
2446.61
2485.6
150.987
338.989
146.169
7686.12
146.201
10584.9
2185.73
302.451
146.201
146.201
146.204
146.205
320.823
146.201
146.201
146.208
146.447
146.201
161.884
146.197
146.201
7447.83
146.201
146.201
10755.8
235.347
146.201
146.205
146.201
146.201
146.208
1728.11
7001.44
146.201
7723.65
146.207
146.21
146.204
146.201
146.203
166.155
146.207
146.201
146.201
146.201
2095.34
146.201
146.201
146.363
146.201
150.751
146.214
146.203
146.207
146.201
146.663
146.201
1544.28
146.204
146.201
146.201
372.523
2030.75
146.201
146.205
849.025
587.048
146.319
146.201
146.206
146.339
146.542
146.201
146.217
148.098
146.208
146.212
146.205
146.202
757.584
4725.37
1385.55
146.216
146.208
146.203
146.212
146.204
146.198
146.21
146.459
146.205
146.201
146.202
146.213
146.201
146.201
146.201
146.214
146.201
146.201
146.201
146.202
146.201
146.201
146.201
1754.4
146.201
146.201
146.202
146.201
4318.99
146.201
146.201
146.203
146.201
146.202
1248.42
146.212
146.202
146.201
146.201
781.198
146.206
1183.54
146.201
146.201
146.433
146.201
146.215
146.223
150.205
146.201
146.201
146.201
146.201
146.201
145.676
146.201
146.201
146.201
146.201
146.456
146.201
145.494
146.201
146.201
148.041
438.142
146.867
192.494
146.201
146.201
146.054
309.759
146.201
146.201
146.201
178.65
146.201
146
146.201
146.21
146.201
146.201
608.722
385.872
146.21
146.578
2097.81
146.209
146.209
146.195
537.226
146.201
146.201
146.201
315.94
146.203
9787.49
146.211
146.862
146.201
146.201
146.207
146.201
146.212
1085.51
146.21
146.201
146.261
236.1
159.131
146.201
146.201
146.201
146.201
146.201
146.201
146.201
2889.02
146.201
5443.33
146.201
146.201
146.201
147.547
1760.8
146.201
146.201
146.201
146.202
146.201
146.202
147.734
146.202
146.201
146.365
146.201
146.201
146.201
146.201
146.201
146.201
6484.51
146.383
146.201
146.201
146.201
146.201
146.201
146.201
146.201
146.201
146.201
146.201
146.201
146.201
146.201
146.201
146.201
146.201
146.201
146.202
146.201
150.309
1036.16
1061.36
268.401
146.201
146.201
146.201
146.201
146.202
146.201
146.206
146.201
146.201
924.246
146.201
147.533
146.204
146.205
146.201
146.201
149.411
148.144
146.201
146.201
146.201
146.303
146.201
146.201
146.577
146.201
146.201
146.201
146.201
146.201
146.231
146.202
146.205
146.541
146.201
146.201
146.201
146.647
146.545
146.202
146.201
146.201
146.614
146.201
172.749
165.514
171.024
156.606
213.654
146.444
146.201
146.218
146.201
146.237
146.216
154.143
146.201
146.201
146.201
146.201
146.201
146.201
146.39
1090.1
146.211
146.201
146.201
146.211
146.201
146.201
146.201
146.201
146.201
265.97
146.213
147.373
146.201
146.241
146.201
146.208
146.321
146.134
146.201
146.223
146.201
157.421
146.235
147.52
1410.6
146.201
146.201
146.202
146.201
146.201
2345.39
146.201
146.201
146.201
150.507
146.201
146.201
146.198
146.201
146.313
162.483
146.201
167.474
146.201
147.795
146.201
146.201
146.201
146.126
146.201
146.382
146.208
146.201
212.209
146.201
146.201
146.201
204.504
147.899
146.201
146.224
214.367
148.951
146.208
146.205
146.201
146.202
146.201
146.539
146.417
146.396
146.339
146.394
146.201
146.549
146.565
150.044
151.851
146.201
188.071
146.201
146.201
146.201
150.305
146.201
146.201
146.201
146.229
146.201
146.201
146.201
146.201
146.201
146.201
146.201
509.326
1142.94
146.201
534.902
146.202
146.201
146.208
146.201
146.215
146.201
146.201
168.499
146.201
146.201
146.201
146.201
146.201
156.804
146.201
146.222
146.201
146.207
151.686
146.201
146.201
146.205
146.201
146.201
146.201
146.201
146.201
146.204
146.203
146.197
146.493
146.201
146.333
147.138
146.201
146.354
146.201
146.203
146.206
146.201
146.201
183.817
146.553
286.248
146.202
190.4
146.369
146.201
146.201
146.201
146.201
146.201
146.182
149.336
146.201
146.201
146.202
146.202
146.206
146.201
146.201
4114.92
7150.34
146.202
146.201
146.347
146.201
146.201
146.201
146.201
370.303
146.201
146.201
146.201
146.201
1136.01
146.211
146.202
146.408
178.409
146.201
146.217
168.056
146.201
146.201
146.202
1053.42
146.206
146.201
146.202
481.943
146.363
146.813
146.202
146.202
148.076
146.203
146.201
171.243
146.202
146.201
146.205
146.201
2836.72
146.201
146.201
1180.5
146.202
840.992
146.205
1661.88
146.202
146.203
159.994
146.203
146.202
1449.63
146.202
146.195
736.532
146.201
146.201
146.201
261.563
298.028
146.201
146.363
146.201
146.873
157.146
151.206
146.204
1698.88
146.201
3823.47
146.201
146.201
146.202
146.201
146.201
146.201
146.201
146.201
146.354
146.87
146.325
146.266
146.201
146.201
146.201
146.201
146.201
146.201
1701.23
146.248
146.201
146.201
146.201
845.229
146.201
146.201
1418.36
146.201
146.201
146.201
146.203
3963.65
195.849
146.398
191.744
146.201
146.202
146.756
146.201
146.201
146.201
146.409
1859.99
228.639
3575.54
146.201
146.201
7011.06
146.201
146.204
146.201
146.201
146.201
146.201
146.202
146.201
146.203
1282.5
146.206
146.204
146.385
146.223
146.201
2245.16
146.201
146.201
146.201
146.201
146.201
146.201
146.179
146.201
146.204
344.459
146.467
146.441
146.201
146.201
1210.25
146.615
146.201
146.404
146.201
146.201
215.705
148.902
797.079
146.535
146.201
1053.7
2526.68
153.953
146.201
146.474
183.16
215.961
147.382
174.158
408.829
188.667
146.201
163.737
146.372
167.537
146.607
204.573
147.492
146.437
155.145
1193.96
555.934
146.201
146.201
6115.97
146.201
146.201
146.421
146.201
214.294
146.452
146.201
146.201
146.201
146.201
146.437
146.554
1362.57
146.429
205.789
146.201
591.082
147.667
163.85
146.201
146.217
146.201
146.201
146.201
146.201
172.741
146.201
146.201
146.202
146.948
147.007
146.293
1416.55
146.222
146.202
146.963
146.201
146.201
146.207
146.201
146.201
146.201
146.37
231.898
445.449
2557.76
3294.39
146.211
146.201
175.699
146.476
146.247
527.994
146.201
146.204
146.201
147.291
151.046
147.23
146.201
146.201
146.201
146.201
214.172
146.201
248.175
146.201
406.755
146.556
146.201
146.201
2182.17
146.989
160.403
147.327
146.201
146.502
5830.65
146.201
170.533
146.339
146.205
171.569
146.201
277.667
157.131
146.516
160.922
566.426
146.373
295.732
146.201
239.765
5100.45
146.211
7615.25
146.201
146.209
146.262
146.201
7751.15
146.22
146.206
146.202
146.201
146.936
146.202
146.201
146.909
146.202
146.201
146.201
146.202
146.201
2041.17
1481.31
146.203
598.887
146.206
146.201
146.202
149.775
2966.42
146.207
146.205
147.683
189.102
14276.4
490.221
146.202
1015.75
146.201
146.201
146.201
146.809
146.202
875.883
146.229
1109.06
2329.02
3365.77
146.202
335.847
146.202
146.201
146.201
146.202
146.201
146.202
146.204
164.971
1127.79
292.603
146.205
11971.1
204.916
603.739
146.201
1446.19
163.298
220.483
146.201
146.201
146.201
146.201
146.201
146.201
146.202
146.209
160.343
2044.36
327.277
153.936
283.15
3150.23
1358.54
825.485
146.201
182.801
146.366
146.201
146.201
148.296
153.34
146.201
146.201
146.201
213.761
146.201
242.875
233.729
224.754
150.525
146.201
7392.48
916.683
146.201
146.526
146.201
146.205
3041.65
146.211
146.214
177.892
197.782
146.201
146.205
146.201
146.201
146.201
146.357
146.201
146.202
146.441
205.968
157.644
221.529
146.179
146.201
146.201
146.201
146.201
146.546
147.925
146.201
146.201
2560.96
146.201
146.201
146.201
146.201
1702.37
151.274
1775.9
146.416
146.422
146.201
147.489
146.201
146.323
147.177
146.201
147.09
146.201
146.201
256.127
146.201
146.201
147.207
147.134
153.835
158.12
146.201
146.393
146.447
147.389
149.797
146.213
146.593
153.613
146.353
1954.73
146.202
146.201
146.322
148.898
146.343
148.043
146.371
149
146.201
146.201
2681.43
150.204
146.452
146.389
146.398
146.992
8372.92
146.201
146.56
146.201
156.622
146.201
146.398
146.416
146.201
3378.06
146.201
146.965
147.566
146.201
146.201
147.07
146.201
146.201
146.201
146.201
146.53
146.201
149.724
1660.25
146.201
146.201
1221.23
148.579
146.201
146.396
146.201
146.201
146.201
146.201
208.873
250.602
3275.94
146.201
146.201
302.292
146.201
147.151
208.082
146.201
146.201
146.206
146.203
148.052
146.201
146.201
146.201
146.201
146.201
215.865
261.051
146.942
146.201
179.704
146.198
483.94
146.201
146.498
146.201
159.005
147.805
146.201
146.201
146.201
462.546
148.647
146.201
146.363
146.202
146.201
146.207
146.211
146.201
158.433
146.201
387.612
146.201
146.201
146.201
146.201
146.201
147.652
149.099
146.201
146.201
220.653
146.201
146.485
146.201
146.201
1498.73
10373.1
146.452
146.207
146.201
146.205
5939.38
146.201
391.465
146.201
812.842
146.607
146.201
398.222
149.079
3453.37
1918.58
421.224
146.201
146.201
146.201
146.216
146.218
146.214
4554.91
146.201
146.212
146.201
146.23
581.892
729.759
146.201
323.309
254.967
146.201
3267.45
146.201
146.201
146.201
331.512
151.547
146.642
146.201
146.201
146.201
6472.08
146.201
4023.87
146.201
146.201
2736.97
173.118
146.201
146.201
2493.52
146.201
146.201
146.205
456.77
583.789
146.438
146.201
1625.51
4648.04
148.009
146.544
150.644
256.831
146.201
258.139
4086.98
796.715
550.386
254.302
258.518
553.138
146.201
11129.5
1353.73
146.587
146.201
231.303
13062.2
146.201
146.611
1449.39
146.201
1232.64
146.201
6953.75
146.659
206.009
146.531
147.818
146.201
146.201
146.201
146.201
453.004
146.201
147.346
364.522
146.201
146.201
146.201
146.201
146.201
146.201
146.206
146.201
196.63
146.201
1234.3
146.201
162.751
146.201
146.204
146.733
146.201
146.201
146.201
146.201
146.206
3863.24
5974.24
4595.73
153.356
146.202
146.198
146.201
150.148
146.205
146.091
146.201
877.574
158.205
6616.58
146.198
146.202
146.202
1738.62
146.211
146.201
146.367
146.202
146.227
4745.48
146.956
210.448
146.201
146.211
544.221
168.742
146.201
152.647
391.67
146.189
533.422
151.027
146.202
146.33
146.202
146.202
146.201
146.202
219.32
146.201
146.235
146.202
146.319
146.201
146.201
146.341
146.292
2273.01
146.315
146.201
146.201
1948.05
487.578
146.201
164.034
595.153
146.201
146.207
146.21
146.216
637.562
146.201
147.138
147.649
146.201
827.302
146.203
146.201
146.201
146.201
146.201
146.201
146.201
146.201
146.201
146.217
146.203
146.201
146.65
146.201
146.209
146.384
146.201
146.201
147.194
146.982
146.201
187.069
146.201
146.201
157.935
146.193
146.201
146.218
146.511
146.201
146.201
146.201
146.201
146.201
146.215
146.213
257.411
801.269
149.543
146.214
146.232
183.291
146.202
162.361
172.075
146.201
146.624
172.21
157.862
146.201
168.951
146.203
201.608
146.361
164.551
146.363
146.201
155.23
146.39
146.201
146.23
146.201
146.222
163.231
146.208
146.376
149.287
146.375
146.205
146.383
150.933
146.201
146.201
153.941
146.204
146.201
146.201
146.201
154.431
146.198
146.209
146.212
146.201
146.201
146.204
146.202
281.443
146.201
146.202
146.201
146.201
146.727
146.201
258.512
146.201
146.201
146.201
146.201
147.218
146.201
146.201
146.201
146.202
146.201
146.201
207.429
146.201
146.206
321.951
146.201
146.249
146.202
146.201
146.201
146.201
146.201
146.201
146.217
146.208
146.206
146.201
146.201
146.201
146.207
1371.18
146.201
146.201
168.21
146.201
146.201
146.213
146.201
146.207
146.862
146.201
146.201
146.17
2729.79
782.773
146.201
146.201
146.201
146.201
264.518
146.242
146.201
146.201
146.201
146.861
146.201
146.201
146.201
2362.91
151.598
146.209
2027.76
165.913
146.201
146.203
146.203
146.201
146.209
147.665
318.616
146.201
161.154
1912.37
146.201
146.201
2139.61
812.41
2343.84
146.201
146.205
146.201
146.231
4575.72
146.201
4470.18
146.202
146.201
2999.37
146.202
146.201
148.766
4164.78
146.201
146.21
2215.52
146.201
146.204
4391.86
146.368
146.202
146.201
146.368
1452.47
146.362
1578.32
146.201
146.201
256.62
146.204
226.722
146.223
146.201
146.201
146.201
146.223
146.201
146.202
146.169
146.201
146.202
146.201
146.223
1252.46
146.201
146.226
146.223
1225.35
146.201
279.508
6647.63
146.201
146.221
146.21
212.779
146.201
146.223
146.201
146.201
146.201
146.201
491.746
146.208
146.216
1448.17
205.673
146.201
146.202
146.212
146.201
146.201
146.201
146.211
146.201
146.207
146.201
869.916
1709.91
146.225
152.935
366.204
358.641
146.202
146.216
758.123
164.002
146.314
146.273
198.193
146.202
147.177
280.62
146.558
146.212
146.202
146.343
289.26
146.201
214.516
146.558
146.204
195.609
146.32
4977.5
517.636
146.201
655.602
146.202
146.202
573.956
146.201
1100
146.201
166.412
312.545
4232.9
146.201
146.201
146.201
323.029
146.204
154.07
146.201
452.043
931.796
1825.6
146.201
250.177
221.742
163.83
1235.41
155.545
146.201
146.21
146.201
146.203
146.201
146.201
146.201
146.201
146.201
146.201
146.201
6610.16
146.201
146.202
146.201
725.979
668.275
147.925
315.702
146.201
146.201
146.206
146.202
146.201
146.201
146.201
146.201
146.209
146.201
1254.22
146.201
146.226
226.174
5364.31
146.201
155.683
146.313
146.201
146.201
11374.6
146.201
146.201
146.201
146.201
146.201
146.203
146.201
146.201
146.201
146.201
197.055
893.617
146.201
146.249
146.201
2175.51
400.393
146.201
146.201
2842.37
146.201
146.234
146.201
154.021
146.219
146.201
146.201
855.855
10880.6
146.201
149.731
146.201
146.201
146.228
231.201
146.201
146.203
146.224
146.204
146.201
192.673
146.224
208.066
148.571
146.203
146.201
146.238
2382.82
146.201
146.201
146.201
146.201
146.201
146.201
146.201
2236.25
146.218
146.201
146.232
151.202
149.577
146.201
269.025
182.124
146.201
187.127
24374.8
146.201
1542.01
146.368
146.205
146.201
146.201
424.76
230.962
147.844
148.11
146.202
146.201
156.452
146.256
146.964
192.415
146.201
146.201
146.205
148.629
149.774
146.168
146.201
148.194
289.334
146.201
146.204
146.201
146.215
299.948
3035.33
146.254
192.598
146.203
156.186
146.201
146.201
2331.22
146.201
146.201
146.201
146.201
146.207
146.201
146.201
146.203
146.202
146.231
146.202
146.201
1051.42
146.404
146.201
156.384
146.201
146.201
146.201
2085.54
146.346
489.118
146.201
146.201
146.201
146.206
146.209
146.204
253.57
146.201
146.201
146.204
4358.4
12381.3
146.21
146.201
234.797
212.546
169.393
233.265
181.562
146.209
1109.98
146.425
146.201
146.201
146.201
146.201
146.201
146.201
423.143
5946.99
167.008
146.548
209.778
146.202
146.257
146.258
254.608
146.209
149.802
146.22
621.457
2077.73
146.201
146.997
168.728
146.201
146.201
1895.72
146.201
146.201
176.887
3671.29
146.201
146.201
146.201
146.202
146.201
146.201
146.201
146.36
2350.41
146.201
146.201
146.207
175.421
166.078
146.201
146.201
146.201
218.446
146.201
146.206
283.643
146.201
146.203
146.201
146.201
3932.85
146.208
146.201
146.201
146.201
146.201
146.206
146.212
146.201
146.457
146.218
146.201
164.612
146.201
146.201
146.201
146.201
146.201
146.201
146.208
146.201
146.201
146.574
146.201
228.014
146.203
146.201
146.201
146.201
146.201
146.204
196.005
217.676
315.643
220.498
146.77
146.879
148.796
202.552
225.84
149.399
146.567
146.201
146.205
146.201
146.201
146.201
146.201
224.385
146.941
146.201
2650.62
146.201
146.201
146.212
146.201
146.587
146.201
146.281
1476.26
154.201
146.201
146.201
146.201
146.224
146.201
146.202
578.207
146.213
508.684
146.201
146.201
146.659
299.58
378.405
397.987
442.196
1029.9
153.691
2504.94
146.329
472.907
146.201
146.201
146.201
146.201
210.999
176.106
199.234
227.42
155.004
152.524
146.201
174.676
1920.13
146.201
146.201
146.201
328.208
150.848
146.356
146.201
323.876
1142
232.106
2752.54
146.497
188.856
2442.37
146.201
146.183
2459.34
180.393
146.201
146.203
1170.11
146.201
146.201
2379.54
146.201
146.201
216.789
146.207
2360.23
466.335
146.202
146.238
146.589
146.616
146.217
146.55
516.426
147.867
145.959
146.201
146.544
146.227
146.584
146.536
146.203
1503.54
146.445
344.902
1194.53
146.201
146.201
146.726
146.201
774.986
146.201
146.201
146.201
146.735
146.202
146.263
146.201
146.201
340.734
146.677
146.723
153.163
146.201
1856.34
652.579
3589.92
146.201
146.339
7700.65
154.577
948.906
146.201
146.606
146.201
146.201
146.201
146.201
146.201
146.201
146.201
914.639
146.201
146.395
146.201
146.201
146.201
146.201
146.201
209.19
232.704
146.201
146.201
753.329
146.202
463.07
146.205
146.201
998.889
146.201
146.201
146.201
366.539
146.202
146.201
146.21
146.289
146.203
146.201
146.881
146.201
146.201
146.201
146.201
146.201
146.203
146.201
146.372
146.201
146.218
146.201
146.391
146.201
146.202
146.202
1066.35
146.204
146.203
146.202
146.201
1331.32
146.096
146.201
146.201
146.201
146.201
786.475
146.201
146.201
146.201
146.204
146.201
232.472
146.201
146.201
146.201
146.204
146.201
146.201
146.201
146.201
146.201
146.201
146.201
148.466
146.201
146.201
146.201
146.201
146.201
146.201
9864.61
146.204
146.202
146.201
146.201
151.376
146.201
146.39
283.324
146.209
664.955
146.201
146.201
146.201
146.205
236.934
146.201
146.201
278.842
146.201
146.201
146.201
146.201
146.201
146.204
158.712
146.201
146.201
146.201
306.179
218.067
208.109
149.506
171.722
994.804
146.201
146.201
146.201
264.852
146.201
146.202
146.201
146.202
147.733
146.201
146.201
146.201
210.185
146.251
177.812
146.4
146.201
146.377
240.902
146.201
146.211
146.201
146.201
146.201
146.201
146.197
146.206
146.201
660.438
247.795
2263.88
382.961
157.341
146.203
146.201
146.201
146.201
227.239
146.201
146.201
146.201
146.202
220.471
146.215
146.223
181.332
146.201
148.719
146.363
146.547
146.2
146.201
146.405
146.201
146.201
146.201
149.071
148.679
155.968
146.201
149.896
146.201
146.202
146.201
146.202
146.201
6599.46
146.322
146.201
146.201
146.276
154.388
146.201
150.926
146.201
146.201
1997.28
146.201
146.203
146.201
146.341
146.201
146.201
146.201
146.201
146.21
146.201
1752.58
146.201
146.213
146.201
146.223
146.459
146.201
146.201
146.201
283.751
148.859
146.488
194.232
148.055
146.201
663.527
146.535
146.201
146.201
1101.7
146.415
146.201
146.535
155.328
146.202
146.218
146.201
146.627
146.201
146.201
146.201
146.203
268.894
146.203
7312.83
146.201
1037.99
146.202
146.201
355.276
146.203
153.87
146.201
146.201
147.414
153.554
146.513
162.706
146.829
146.677
146.577
146.201
146.201
146.201
146.386
784.558
3666.86
146.226
146.202
243.569
146.91
9643.58
1197.17
146.201
2148.59
11237.4
146.611
146.201
192.886
2052.74
2042.76
3709.23
146.657
146.569
167.364
146.202
158.423
146.202
2066
147.38
6225.52
187.715
146.201
146.202
146.427
1659.38
146.205
153.53
146.201
146.201
219.811
146.201
146.201
146.201
146.201
151.837
146.201
39281.6
147.572
146.201
146.201
178.267
146.227
1897.65
1177.31
209.643
146.21
146.201
146.201
350.438
146.201
146.201
146.201
146.203
146.212
186.848
146.207
146.201
479.2
3160.59
146.201
146.204
367.358
146.201
146.204
2726.9
146.201
146.201
146.202
147.001
299.133
252.033
146.201
146.203
146.201
146.562
2591.4
146.377
3537.21
146.201
146.201
146.201
146.208
146.201
194.531
146.385
146.201
2452.63
146.201
146.201
146.341
146.201
146.492
146.202
154.754
148.992
146.201
146.201
179.653
233.602
146.201
187.176
149.436
146.201
146.202
146.202
146.201
146.201
146.201
146.201
146.201
146.201
146.201
146.206
2967.36
146.201
146.462
5475.4
146.336
2959.69
146.201
282.725
146.201
146.201
1705.05
533.426
1567.69
2407.51
146.948
187.689
146.201
394.209
181.666
146.409
412.514
895.36
146.202
2355.81
146.201
146.201
146.201
146.209
569.457
146.207
1876.22
146.201
146.201
146.201
156.698
3083.44
146.201
1260.19
4262.74
317.148
4775.58
772.255
146.201
146.201
147.081
146.201
146.201
146.201
146.201
146.201
146.21
146.201
176.54
146.312
150.369
538.495
148.786
283.252
146.201
146.201
146.201
171.465
146.201
146.201
146.201
180.186
146.339
3149.93
4693.01
181.898
146.43
147.204
146.201
5338.54
146.201
146.201
197.023
3337.12
319.229
146.201
146.201
146.243
887.815
146.201
216.401
1702.88
546.3
7272.92
146.201
146.201
147.574
161.044
146.209
7284.38
1239.23
366.267
146.201
9546.4
199.39
156.573
146.201
146.201
146.226
335.116
146.201
146.201
1451.39
149.483
1455.38
146.201
146.201
576.33
574.586
146.201
146.201
146.201
11477.6
147.685
17872.6
603.836
146.201
163.101
152.426
146.261
146.201
146.2
146.201
146.201
146.201
997.752
146.201
146.2
146.525
150.778
146.201
146.201
146.201
146.201
146.602
242.915
146.201
187.421
146.205
146.202
146.201
146.201
146.201
185.519
253.699
146.201
146.201
756.438
146.201
146.201
146.205
146.201
146.202
1688.23
146.202
151.519
146.201
146.201
146.201
1543.33
146.201
146.201
577.973
146.201
146.226
146.201
146.201
4610
146.201
208.09
146.212
388.133
146.201
146.201
146.201
146.201
146.201
146.202
146.205
1538.44
894.63
146.201
146.201
146.201
146.201
146.207
146.201
146.201
146.201
146.207
146.202
146.208
146.201
146.229
5012.28
215.852
146.22
167.246
145.993
146.201
1187.41
146.207
583.581
146.2
146.336
146.201
146.201
146.201
146.201
146.208
146.201
146.223
146.675
146.201
146.201
146.201
146.209
146.201
146.203
146.201
146.201
146.201
146.225
146.239
146.223
146.201
146.201
146.23
146.239
146.23
146.201
146.205
146.201
148.707
146.201
158.028
178.981
146.202
146.254
146.361
156.75
146.248
1484.36
610.048
146.201
11913.7
146.201
3255.64
146.201
5081.98
387.586
2902.73
160.473
146.201
146.201
146.201
146.579
5884.89
146.201
2293.16
146.281
2053.81
146.201
146.202
146.201
146.201
1995.28
146.201
146.202
146.201
146.201
146.201
146.201
2404.77
277.749
372.814
146.201
146.201
193.718
146.201
146.201
147.125
2745.36
151.876
146.201
146.201
147.705
147.132
146.201
146.201
146.657
1572.59
149.258
146.201
2738.97
227.386
146.201
146.201
146.201
146.201
146.201
146.219
146.201
146.201
146.201
146.201
146.201
146.201
146.201
146.201
146.201
146.201
146.201
146.201
146.201
146.201
146.201
146.201
146.325
211.143
195.67
146.201
146.201
146.201
146.201
146.423
146.201
146.201
146.204
146.201
146.201
146.201
146.63
146.201
146.201
146.201
146.201
146.201
146.223
146.201
146.221
146.225
146.505
146.201
146.201
146.245
146.201
146.201
146.201
146.201
146.201
146.201
146.201
146.202
146.201
146.201
206.587
155.224
146.201
146.201
146.201
146.201
146.201
146.201
146.201
146.201
146.351
3063.03
146.201
2767.35
146.201
146.201
1356.31
1713.86
146.201
168.345
146.452
146.201
146.201
146.201
146.201
146.201
1545.57
146.201
1795.98
146.201
146.201
146.201
1507.84
1517.94
1459.34
146.201
146.201
146.201
146.201
146.201
146.201
146.201
146.201
146.201
146.201
788.156
146.201
146.201
146.201
146.201
146.201
146.201
146.201
1165.45
146.235
190.352
146.201
146.201
146.201
146.201
146.202
146.201
146.201
146.201
146.261
146.201
146.201
146.201
181.113
146.201
146.298
146.201
146.201
146.205
146.201
146.206
11610
146.212
145.936
146.201
146.211
146.213
146.201
146.201
146.201
146.201
146.207
146.201
146.202
146.211
146.403
1698.83
147.845