/*--------------------------------*- C++ -*----------------------------------*\
| =========                 |                                                 |
| \\      /  F ield         | OpenFOAM: The Open Source CFD Toolbox           |
|  \\    /   O peration     | Version:  v2012                                 |
|   \\  /    A nd           | Website:  www.openfoam.com                      |
|    \\/     M anipulation  |                                                 |
\*---------------------------------------------------------------------------*/
FoamFile
{
    version     2.0;
    format      ascii;
    class       volScalarField;
    location    "3.5";
    object      ILambda_4_0;
}
// * * * * * * * * * * * * * * * * * * * * * * * * * * * * * * * * * * * * * //

dimensions      [1 0 -3 0 0 0 0];


internalField   nonuniform List<scalar> 
108993
(
146.201
146.203
146.201
146.201
146.201
146.201
146.209
146.201
146.201
146.205
146.201
146.201
146.201
146.202
146.201
146.266
146.212
146.201
146.201
146.206
146.201
146.201
146.202
146.201
146.201
146.201
146.201
146.206
146.207
146.201
146.201
146.201
146.201
146.201
146.201
146.201
146.201
146.201
4184.09
3248.54
146.204
146.201
146.202
146.201
407.946
2528.6
146.201
146.202
146.201
146.203
146.201
146.706
146.202
146.201
146.201
146.201
146.201
146.201
146.201
146.201
146.201
146.201
146.201
146.201
146.201
146.201
146.201
146.201
146.201
149.779
146.201
146.201
146.201
146.201
146.201
146.201
146.201
146.202
146.201
146.201
146.201
146.201
146.201
146.201
146.201
146.202
146.201
146.201
146.201
146.201
146.201
146.201
146.201
146.201
146.201
146.203
146.201
146.201
146.201
146.201
146.201
146.201
146.201
146.201
146.201
146.201
146.201
146.201
146.201
6098.57
146.395
146.201
146.275
146.278
146.201
146.911
146.201
146.201
146.255
146.201
146.201
146.201
146.789
146.201
146.201
157.026
146.204
146.201
146.201
146.201
146.203
146.201
146.201
361.893
146.201
146.201
146.201
146.201
146.201
146.202
146.201
146.201
169.59
146.201
146.201
146.201
146.201
2088.9
146.201
199.817
213.857
146.201
146.202
230.945
146.201
146.209
146.201
146.201
146.201
242.861
230.432
146.201
146.201
146.201
146.201
146.263
146.201
146.201
146.201
146.201
146.201
146.201
148.31
146.201
146.204
146.201
146.207
146.201
146.201
146.201
146.203
146.201
146.201
146.201
146.202
146.201
146.201
146.201
146.201
146.201
146.201
146.201
146.201
146.205
146.201
146.201
146.204
146.201
146.201
146.201
146.201
146.208
146.201
146.201
146.203
155.401
146.201
589.587
146.201
359.401
148.841
146.201
146.207
146.622
6152.03
146.201
146.201
146.201
146.201
146.201
146.201
180.166
146.202
146.204
146.201
146.201
146.201
146.201
354.611
146.201
279.162
146.201
146.201
146.202
146.201
146.201
146.201
146.201
180.423
146.201
146.201
146.201
146.201
146.201
146.201
146.25
146.655
147.332
146.201
146.201
146.201
146.201
146.201
146.201
146.201
146.201
146.201
146.201
146.201
146.201
146.201
146.201
146.338
192.019
146.201
146.201
146.201
146.202
146.201
146.201
146.201
146.201
146.325
547.572
2063.02
146.201
146.201
146.703
146.201
146.201
146.201
1600.98
1975.85
146.201
146.201
146.244
146.201
146.201
146.201
169.687
146.201
146.201
146.201
146.201
146.201
146.201
146.201
146.201
146.229
146.201
148.92
169.917
146.201
146.201
146.201
146.202
146.201
146.201
146.202
146.406
146.201
146.201
146.239
146.201
146.202
161.041
146.201
146.235
2540.1
146.201
146.207
146.201
146.202
146.202
146.201
1153.45
652.937
176.521
146.201
146.201
146.201
158.726
930.076
146.201
294.591
146.201
146.201
146.201
146.201
146.201
146.201
146.77
146.202
146.201
146.201
146.201
146.201
146.201
146.201
146.201
146.201
146.201
818.006
146.37
146.201
146.201
146.201
1233.55
146.201
146.201
146.211
146.202
146.201
146.201
146.201
146.203
146.201
146.201
146.201
1282.15
146.201
146.223
146.201
393.785
146.202
268.853
146.201
146.201
179.342
146.201
184.608
184.734
146.203
146.253
146.201
146.204
146.208
1947.05
146.201
933.254
196.201
146.205
200.777
146.202
146.329
146.201
653.895
146.201
282.501
146.201
146.201
146.561
146.979
146.201
146.201
146.207
146.203
146.201
146.201
408.485
146.201
146.204
2529.46
146.201
146.201
146.201
381.278
146.803
146.437
146.201
431.269
146.204
425.566
146.201
146.201
357.965
146.201
150.209
431.649
146.201
592.399
7508.51
504.228
146.201
146.201
146.204
146.201
146.201
146.201
146.201
146.201
146.201
146.201
146.201
430.189
146.205
146.205
148.201
146.201
146.201
146.204
146.201
146.201
146.201
146.201
146.201
146.201
146.201
146.201
146.201
146.354
146.201
146.434
152.238
147.084
146.201
146.201
146.487
146.201
146.201
146.246
146.201
146.201
146.202
146.201
211.662
146.201
146.68
146.579
156.975
146.201
146.201
146.201
146.201
146.201
146.201
146.201
146.201
158.638
146.201
146.201
146.201
311.859
146.201
650.073
146.201
146.201
146.201
146.201
146.202
146.201
146.201
146.201
146.201
426.857
149.351
146.201
146.201
1410.85
146.201
146.214
146.207
146.201
146.214
146.201
146.201
146.201
146.201
146.203
146.202
146.205
146.204
146.206
146.202
146.201
203.56
146.205
146.201
193.832
146.202
146.209
146.201
200.694
146.202
146.201
146.201
146.223
146.201
146.202
146.305
146.201
151.971
146.201
146.201
146.201
146.201
146.201
193.531
146.201
146.201
148.545
146.208
2279.23
146.201
146.201
146.201
146.201
146.204
394.38
146.202
146.201
146.201
146.201
146.209
146.367
153.786
146.201
146.201
146.205
146.203
146.201
146.201
5801.15
200.599
165.654
146.205
146.201
146.426
481.768
146.21
146.206
146.201
146.201
146.201
146.201
709.968
2567.24
243.746
146.203
146.201
146.206
146.201
146.205
146.201
633.618
146.201
146.201
146.201
146.203
148.08
146.201
146.201
1099.89
146.312
146.202
146.201
556.443
146.201
146.235
146.201
1028.09
146.201
172.222
146.201
146.208
146.201
146.208
146.201
148.352
146.201
146.247
146.201
146.201
777.288
146.209
146.201
146.201
146.473
1902.85
146.643
186.973
146.201
146.833
344.97
146.236
146.201
146.201
1479.13
652.137
146.447
146.202
146.448
146.201
146.202
146.201
146.319
146.211
146.643
215.699
146.622
146.325
670.298
146.928
191.512
146.291
146.204
146.948
179.138
158.074
204.82
176.4
146.201
146.214
146.201
146.201
146.202
146.214
149.932
146.499
146.568
152.082
146.203
146.294
220.425
199.301
146.201
146.202
146.246
146.201
2137.46
146.205
305.172
146.603
146.418
338.98
148.141
154.31
146.241
146.237
930.375
146.201
146.201
146.499
146.204
146.202
2790.65
146.214
188.652
146.21
3077
146.212
146.201
146.201
146.201
147.902
146.201
307.327
146.202
146.201
146.201
146.205
146.441
9439.76
146.201
3676.29
146.201
146.387
146.774
146.201
146.383
146.203
146.22
146.223
146.989
146.201
147.406
146.209
146.325
146.873
146.201
146.54
146.22
146.875
146.544
146.204
146.201
146.301
146.201
146.201
146.206
146.201
146.6
13317.1
320.533
146.209
146.209
146.208
146.216
146.209
146.215
146.201
146.201
146.201
146.203
146.201
146.208
146.201
146.202
209.068
146.201
146.203
146.201
146.203
146.202
146.213
146.202
146.204
146.311
146.201
146.201
146.202
146.316
146.201
148.325
152.731
146.202
146.202
799.216
149.57
146.202
146.201
328.469
146.203
146.203
146.208
146.203
146.207
146.201
146.201
146.212
146.201
4642.62
146.201
146.201
11825.9
151.967
245.236
146.203
219.024
146.201
146.207
186.16
146.201
146.203
151.585
146.201
146.201
146.201
146.201
146.201
146.201
146.203
146.201
146.213
146.201
1002.34
146.201
146.201
922.549
146.201
680.644
146.204
146.202
146.232
1807.68
146.203
146.202
146.212
146.212
146.21
146.216
325.771
146.213
146.201
258.762
146.202
146.201
146.222
4119.74
146.201
146.201
146.206
146.212
146.202
146.202
146.223
146.203
146.201
13415.1
146.201
13523
146.202
13297.7
146.202
146.207
146.206
159.924
146.217
146.202
146.211
146.22
147.067
146.207
2043.55
146.201
146.201
146.202
345.656
146.282
167.428
146.201
146.201
250.338
2046.39
146.201
146.281
196.347
146.11
146.202
146.226
192.898
2035
146.206
149.981
146.204
945.347
146.201
930.862
7611.45
1056.57
146.201
146.201
146.21
146.775
146.21
146.201
146.201
570.158
149.595
146.201
793.357
146.205
146.202
963.95
146.201
146.201
890.058
1320.89
146.201
146.209
146.201
146.201
146.777
146.245
905.136
146.201
934.743
146.219
146.678
146.206
146.203
146.258
146.205
146.207
146.201
146.215
146.201
146.261
146.201
146.201
146.538
146.201
154.087
550.602
146.268
146.384
146.201
183.071
146.201
566.843
146.201
146.201
146.201
146.214
146.281
146.201
146.212
904.132
146.32
146.523
146.201
146.303
146.957
164.811
146.201
146.219
204.122
146.37
146.217
146.321
146.202
146.269
6211.6
146.306
146.304
147.014
146.205
156.373
146.202
146.204
147.331
164.379
146.209
146.201
146.204
149.023
146.201
146.201
146.201
147.944
146.201
146.201
146.201
146.204
146.201
146.201
146.202
149.328
146.201
146.202
146.205
146.201
8003.33
146.201
146.201
146.206
146.201
146.204
581.628
317.473
146.202
146.201
146.201
146.278
224.46
146.238
146.204
146.201
146.393
146.201
146.206
739.305
146.267
146.201
146.201
146.201
146.201
146.216
146.206
146.203
146.201
146.201
146.201
149.121
146.201
146.206
146.201
146.201
146.206
155.149
146.203
146.203
146.201
146.201
146.206
146.212
146.201
146.201
146.201
2032.14
146.208
146.208
146.201
146.215
146.204
146.201
1296.43
146.296
156.156
146.207
1858.38
146.399
470.438
146.207
826.348
146.201
146.201
146.201
146.787
146.212
5673.11
153.531
146.202
146.206
146.203
146.24
146.201
146.228
146.294
146.214
146.202
991.653
152.155
166.602
146.201
146.201
146.201
146.201
146.201
146.201
146.202
321.245
146.202
3161.37
146.204
146.201
146.201
169.979
387.646
146.201
146.204
146.201
146.239
146.201
146.241
157.862
223.28
146.201
146.382
146.201
146.201
146.201
146.201
146.201
146.202
11087.6
175.533
146.201
146.201
146.201
146.205
146.204
146.201
146.202
146.201
146.201
146.201
146.201
146.201
146.201
146.201
146.201
146.201
146.201
146.202
146.201
365.613
146.261
146.273
805.854
146.201
146.201
146.217
146.201
146.202
146.201
146.203
146.201
146.201
149.198
146.208
146.207
146.202
146.202
146.201
146.202
741.243
645.462
146.201
146.201
146.201
146.203
146.203
146.201
146.58
146.201
146.201
146.201
146.201
146.201
146.21
146.205
146.208
146.508
146.202
146.201
146.201
176.188
146.209
146.204
146.201
146.201
170.435
146.201
147.844
146.204
146.206
146.206
886.21
146.208
146.201
146.271
146.201
146.394
146.274
146.204
146.201
146.201
146.202
146.201
146.204
146.201
150.532
3084.13
146.224
146.201
146.201
146.224
146.202
146.201
146.202
146.201
146.201
1062.76
146.291
146.921
146.201
197.298
146.201
151.466
146.41
146.202
146.201
146.284
146.206
146.934
146.273
146.231
146.458
146.201
146.201
146.204
146.201
146.201
4222.85
146.201
146.201
146.201
190.302
146.201
146.201
146.206
146.201
146.567
415.854
146.201
146.208
146.201
146.236
146.201
146.201
146.201
146.206
146.201
148.35
146.282
146.201
159.124
146.201
146.201
146.201
146.207
300.956
146.203
196.008
146.323
524.536
148.128
146.201
146.201
257.402
146.201
146.409
146.411
146.395
146.411
146.397
146.201
146.425
146.427
146.205
146.207
146.201
146.333
146.201
146.201
146.201
146.204
146.201
146.201
146.201
563.035
146.201
146.201
146.203
146.201
146.205
146.202
146.201
146.215
408.074
146.202
147.076
146.202
146.202
146.201
146.203
381.472
146.201
146.201
146.22
146.204
146.201
146.201
146.201
146.201
350.672
146.201
229.046
146.201
148.707
176.711
146.202
146.201
146.208
146.201
146.202
146.201
146.201
146.206
146.208
146.278
146.203
167.52
146.201
146.494
191.374
146.201
146.45
146.201
146.208
146.209
146.209
146.202
169.51
149.739
171.035
146.203
1067.69
147.253
146.201
146.201
146.201
146.202
146.202
146.203
225.237
146.201
146.201
146.203
146.203
146.209
146.201
146.201
3262.36
7102.86
146.202
146.201
147.205
146.202
146.201
147.295
146.201
146.21
146.201
146.201
146.202
146.203
1316.4
153.476
146.202
148.783
146.212
146.201
558.44
268.446
146.201
146.201
146.203
146.226
257.361
146.201
146.202
146.347
146.443
174.396
146.202
146.202
234.583
146.205
146.201
496.136
146.204
146.201
146.206
146.203
9411.93
146.201
146.201
526.885
146.204
3318.12
146.206
2684.62
146.204
146.289
157.803
146.204
146.295
1734.1
146.204
146.204
150.597
146.201
146.201
146.201
1344.27
146.395
146.201
146.495
146.201
147.08
950.837
254.874
146.209
498.564
146.201
2632.58
146.201
146.201
146.201
146.201
146.201
146.201
146.201
146.201
146.439
149.754
146.373
146.22
146.201
146.201
146.201
146.201
146.201
146.201
319.298
151.763
146.201
146.201
146.201
146.332
146.201
146.201
146.274
146.201
146.201
146.201
146.206
3220.55
146.223
158.393
1029.17
146.201
146.203
149.759
146.201
146.201
146.201
146.475
4024.91
151.419
2951.77
146.201
146.201
12836.1
146.201
146.205
146.201
146.201
146.201
146.201
146.203
146.201
146.203
3668.82
524.937
146.205
147.024
723.132
146.201
146.86
146.201
146.201
146.201
146.201
146.201
146.201
146.204
146.201
146.387
1400.23
155.818
151.98
146.201
146.201
7627.71
149.592
146.201
146.745
146.201
146.201
146.265
147.499
4462
151.291
146.201
1261.61
9564.72
223.713
146.201
152.348
146.298
146.244
322.106
146.204
5114.53
146.245
146.204
146.257
146.959
146.269
146.239
146.795
146.232
146.204
154.778
7134.13
5170.62
146.201
146.201
12308.7
146.201
146.201
147.292
146.201
944.381
146.244
146.201
146.201
146.201
146.201
146.245
150.959
1225.27
146.851
232.319
146.201
683.618
146.234
146.203
146.201
146.202
146.201
146.201
146.201
146.201
146.206
146.201
146.201
148.068
280.796
146.238
200.892
2422.6
565.4
146.203
146.386
146.201
146.201
146.211
146.201
146.201
146.201
152.356
166.59
146.215
288.216
2085.43
231.008
146.201
147.248
163.264
146.208
1048.07
146.201
146.207
146.201
186.356
146.203
146.31
146.201
146.201
146.201
146.201
874.505
146.201
171.158
146.201
1160.55
169.275
146.201
146.201
1110.51
202.929
165.754
176.959
146.201
147.875
10523.5
146.201
146.202
146.363
311.9
146.582
146.201
157.57
500.568
146.552
146.43
2511.29
146.662
164.073
146.201
4345.7
1524.83
390.517
1716.74
146.202
146.213
174.256
146.204
1778.82
529.14
146.33
146.205
146.202
146.326
146.207
146.202
146.202
146.202
146.201
146.201
146.209
146.201
2381.97
930.821
146.24
2555.94
146.206
146.201
256.868
249.355
4526.76
166.946
263.026
205.447
1113.69
10091.8
563.371
146.202
4506.24
146.201
146.201
146.202
347.717
146.202
191.821
151.895
149.534
940.066
698.422
146.202
150.44
146.202
146.202
146.201
146.202
146.201
146.202
200.774
379.715
1132.52
5559.91
201.115
2846.04
146.205
931.104
146.204
525.522
695.21
1162.48
146.201
146.201
146.201
146.201
146.201
146.201
261.42
146.292
146.205
333.085
147.775
146.386
2782.61
388.344
2322.18
232.384
146.201
725.906
146.396
146.201
146.201
253.098
150.44
146.201
146.203
146.202
146.203
146.201
992.111
1018.39
969.689
265.05
146.201
1870.26
146.225
146.201
147.882
146.201
146.212
1004.33
146.216
146.217
561.312
146.203
146.201
146.211
146.201
146.201
146.201
146.729
146.201
146.202
156.376
199.708
154.977
146.205
146.204
146.203
146.201
146.201
146.201
147.707
313.313
146.201
146.201
2671.64
146.201
146.201
146.201
146.201
146.294
169.796
2190.29
153.337
146.994
146.201
280.54
146.201
146.373
146.549
146.201
148.695
146.201
146.201
947.356
146.201
146.201
147.646
149.025
155.472
169.267
146.201
149.029
147.558
146.689
146.202
197.431
146.565
150.505
146.498
600.888
146.202
146.202
146.626
296.994
146.335
207.579
147.301
151.159
146.201
146.201
3081.89
261.856
151.661
147.478
147.717
319.59
6622.02
146.201
146.529
146.201
327.421
146.201
146.5
146.935
146.201
4020.18
146.201
146.925
151.078
146.201
146.201
148.653
146.201
146.201
146.201
146.201
146.347
146.201
156.444
2073.03
146.201
146.201
939.061
146.202
146.203
146.509
146.203
146.202
146.201
146.201
146.413
146.609
7520.72
146.201
146.201
426.121
146.201
147.908
1096.71
146.201
146.201
146.203
146.201
377.459
146.201
146.201
146.201
146.201
146.201
592.753
1554.66
146.204
146.201
2065.7
146.203
146.346
146.201
150.493
146.201
305.257
146.646
146.202
146.201
146.201
146.575
147.354
146.201
147.263
146.205
146.201
148.996
146.22
146.201
146.208
146.201
1188.62
146.201
146.201
146.201
146.201
146.201
193.565
180.767
146.201
146.201
255.967
146.201
147.504
146.201
146.201
1985.17
11659.9
146.219
146.204
146.201
146.209
8129.97
146.201
1280.66
146.201
5004.23
146.644
146.201
1159.24
164.79
2014.4
2372.65
634.654
146.201
146.201
146.201
146.455
146.22
211.755
1212.69
146.201
160.698
146.201
156.824
1188.27
944.736
146.201
155.644
146.832
146.201
284.397
146.201
146.201
146.201
1030.96
148.324
159.506
146.201
146.201
146.201
2791.57
146.202
11851.3
146.201
146.201
719.904
181.248
146.201
146.201
2735.53
146.201
146.201
146.209
1263.63
156.153
148.929
146.201
1854.71
2082.16
148.539
150.168
146.204
1552.59
146.203
156.209
1946.02
933.161
1543.7
1519.32
1168.53
1670.04
146.201
25168.4
660.384
148.639
146.201
906.929
2958.5
146.201
147.065
2079.59
146.201
1791.27
146.201
11301.3
146.928
180.609
146.652
226.208
146.201
146.201
146.201
146.201
10507.5
146.201
305.4
291.479
146.201
146.201
146.201
146.201
146.201
146.201
146.203
146.201
1154.25
146.201
241.958
146.201
146.206
146.201
146.305
146.215
146.201
146.201
146.201
146.201
146.209
4049.69
4986.98
605.741
146.205
146.202
146.203
146.201
146.205
173.112
146.204
146.202
146.198
153.059
5314.3
146.204
146.202
146.203
146.253
193.5
146.201
146.202
146.218
457.868
3903.78
146.213
1126.61
146.204
146.214
907.336
580.896
146.201
146.205
146.205
146.202
146.21
146.202
146.21
146.323
146.21
146.203
146.201
146.239
933.042
146.201
146.232
146.203
146.319
146.201
146.201
146.356
166.208
147.044
146.202
146.201
146.201
165.562
11210.4
146.201
160.417
11267.8
146.204
146.213
312.508
146.971
12978.9
146.202
146.202
146.22
146.201
13223.9
146.205
146.201
146.204
146.204
146.201
146.201
146.201
146.201
146.201
146.301
146.203
146.201
147.175
146.201
146.786
151.052
146.201
146.201
154.479
153.573
146.201
146.212
146.201
146.201
146.209
146.202
146.201
955.483
146.202
146.201
146.201
146.201
146.211
146.201
214.602
829.885
2012.8
371.706
567.466
220.384
174.242
146.206
146.203
1239.19
146.214
146.202
173.909
146.206
1199.55
146.201
146.208
146.202
146.264
146.664
146.227
146.867
146.203
146.232
149.916
146.201
426.952
146.201
146.243
146.224
487.787
148.905
146.227
148.127
265.916
149.185
146.228
146.202
146.201
921.218
146.206
146.206
146.203
146.203
146.226
146.203
146.418
162.654
146.201
146.201
146.202
146.229
345.864
146.201
146.323
146.202
146.201
146.211
146.201
146.209
146.202
146.205
146.201
146.201
146.211
146.201
146.201
146.201
146.375
146.202
146.201
181.924
146.202
146.443
1585.47
146.201
146.202
146.212
146.201
146.201
146.202
146.201
146.201
737.715
317.253
150.857
146.201
146.204
146.201
208.652
156.64
146.201
146.201
192.401
146.201
146.201
772.707
146.201
146.856
371.7
146.201
146.201
261.336
3576.29
162.22
146.201
146.201
146.201
146.201
146.204
146.202
146.201
146.201
146.202
146.469
146.201
146.201
146.201
2051.32
348.053
146.697
1962.84
156.098
146.201
146.203
146.25
146.206
146.202
407.228
146.205
146.201
146.233
1587.32
146.201
146.201
2068.51
146.233
2038.52
146.201
146.218
146.201
146.202
1217.9
146.201
1099.94
146.223
146.201
1058.43
146.203
146.201
146.213
1137.88
146.204
275.517
1028.14
146.208
156.863
1252.28
146.365
146.206
146.205
146.562
985.174
146.361
777.725
146.201
146.201
146.319
146.202
146.319
146.221
146.201
146.201
146.202
146.221
146.203
146.202
146.204
146.201
146.212
146.201
146.22
4006.34
146.201
146.226
146.222
3774.89
146.201
146.214
3928.69
146.201
146.22
330.354
146.315
146.201
146.22
146.201
146.201
146.202
146.201
211.291
146.229
146.232
3114.13
149.792
146.201
146.204
146.229
146.201
146.201
146.203
186.745
146.209
146.968
146.201
146.237
6111.48
146.232
146.202
1380.61
360.497
146.208
146.232
266.176
147.258
158.421
202.761
146.514
185.998
146.209
898.027
147.893
218.65
151.106
146.292
186.288
146.201
146.205
147.926
146.219
146.207
769.251
3377.46
146.218
146.201
1592.53
146.202
146.203
177.624
146.201
1903.67
146.201
708.95
988.002
1403.67
146.201
146.201
146.201
1571.19
146.209
347.55
146.202
1901.43
1982.11
146.255
146.201
1045.9
148.596
335.446
2425.69
174.552
146.202
164.177
146.201
146.776
146.201
146.201
146.201
146.207
146.208
146.201
146.201
18506
146.201
146.238
146.201
146.234
146.295
146.202
158.764
146.201
146.203
146.515
146.202
146.201
146.201
146.203
146.201
146.414
146.202
6570.77
146.201
146.206
146.752
10577.2
146.201
146.219
146.378
146.201
146.202
11928.1
146.201
146.209
146.201
146.201
146.201
146.278
146.201
146.202
146.201
146.201
147.264
1133.1
146.201
234.446
146.201
146.308
146.332
146.201
146.201
5596.83
146.201
146.21
146.201
146.212
146.203
146.201
146.201
3744.54
13104.6
146.201
317.169
146.201
146.201
146.205
146.229
146.201
146.209
146.287
146.207
146.201
146.21
146.205
202.93
147.156
146.209
146.202
146.208
395.33
146.201
146.201
146.201
146.201
146.201
146.201
146.201
149.618
146.209
146.201
146.203
716.481
951.427
146.201
150.838
255.082
146.201
146.354
34751.4
146.201
149.507
147.237
146.205
146.204
146.205
146.373
147.864
146.202
146.203
146.204
146.201
146.204
146.21
201.859
146.21
146.233
146.201
146.202
592.161
146.204
146.205
146.201
532.063
1212.66
146.201
146.202
146.201
146.205
146.303
4545.82
146.202
146.226
146.212
393.137
146.201
146.201
2371.95
146.201
146.201
146.201
146.201
146.208
146.208
146.201
146.205
146.205
146.201
146.201
146.201
3059.04
146.786
146.201
146.21
146.201
146.201
146.201
7566.74
146.374
1150.18
146.201
146.201
146.201
146.205
305.618
146.205
1934.94
146.201
146.201
146.202
2327.14
14688.7
359.58
146.201
1863.04
1824.83
356.336
1353.25
547.68
146.209
529.783
149.444
146.201
146.201
146.201
146.201
146.201
146.201
2711.11
9436.96
332.234
150.677
369.351
146.202
146.266
146.266
165.509
296.605
502.368
227.808
1097.24
920.299
146.201
145.487
340.501
146.203
146.201
7046.46
146.204
146.201
693.749
941.08
146.201
146.201
146.201
146.204
146.201
146.201
146.201
147.273
2414.2
146.201
146.204
146.211
414.115
332.606
146.201
146.201
146.201
476.922
146.201
146.207
146.212
146.201
146.211
146.201
146.201
3917.61
304.51
146.201
146.201
146.201
146.201
146.201
316.451
146.201
146.209
146.202
146.201
146.217
146.201
146.201
146.201
146.203
146.201
146.201
146.213
146.201
146.201
146.414
146.201
1012.48
146.209
146.201
146.201
146.201
146.201
146.21
452.85
877.153
315.438
959.618
146.213
147.879
360.066
850.377
964.735
233.368
146.518
146.201
146.211
146.201
146.201
146.201
146.201
146.206
289.577
146.201
952.009
146.201
146.201
146.216
146.201
146.202
146.201
146.206
4830.44
146.556
146.202
146.201
146.202
146.222
146.201
146.204
3307.62
146.216
2693.23
146.201
146.201
146.208
1841.84
3135.37
2402.63
2138.52
661.949
146.568
1998.25
146.391
2054.56
146.201
146.207
146.201
146.201
178.269
606.633
172.314
146.279
596.921
439.406
146.202
513.38
490.519
146.201
146.201
146.201
278.508
178.466
146.36
146.201
371.688
1932.53
146.265
5962.18
160.135
797.216
179.948
146.201
539.837
194.184
148.079
146.201
146.21
146.25
146.201
146.201
158.4
146.201
146.201
1131.78
146.206
169.06
1156.69
146.207
146.209
155.583
157.373
221.536
158.301
146.385
174.961
146.204
146.201
166.748
146.229
155.238
154.576
146.212
146.245
198.591
258.642
1876.92
146.201
146.204
149.483
146.201
1061.32
146.201
146.201
146.201
149.658
146.202
146.912
146.201
146.201
146.237
151.456
153.894
198.975
146.201
181.896
1548.43
1133.95
146.201
146.379
7624.65
226.402
1598.59
146.201
146.682
146.201
146.201
146.201
146.201
146.201
146.203
146.201
1647.97
146.201
146.203
146.201
146.201
146.201
146.201
146.201
171.654
164.251
146.201
146.201
279.065
146.205
515.306
146.336
146.201
802.86
146.202
146.201
146.201
443.802
146.202
146.201
146.298
146.201
146.201
146.201
146.204
146.201
146.201
146.201
146.201
146.201
146.201
146.202
147.28
146.201
146.204
146.201
146.391
146.201
146.204
146.203
324.692
146.201
146.201
146.201
146.202
146.243
146.203
146.201
146.201
146.201
146.201
1239.24
146.201
146.201
146.201
146.201
146.201
173.676
146.201
146.201
146.205
146.263
146.201
146.207
146.201
146.201
146.201
146.201
146.201
146.252
146.201
146.201
146.201
146.202
146.201
146.201
12035.3
146.252
146.204
146.201
146.201
146.213
146.201
146.207
152.458
146.677
146.219
146.201
146.201
146.201
146.209
461.643
146.201
146.201
795.623
146.202
146.201
146.201
146.201
146.201
146.201
1553.24
146.201
146.201
146.201
968.768
278.166
298.169
146.211
263.003
651.264
146.202
146.201
146.205
886.975
146.201
146.204
146.201
146.203
690.731
146.201
146.201
146.201
146.215
146.209
146.228
147.045
146.201
147.294
437.316
146.201
146.283
146.201
146.201
146.201
146.201
146.203
146.21
146.201
1058.35
166.954
229.705
1052.14
355.281
146.209
146.201
146.201
146.201
146.206
146.201
146.201
146.201
146.205
1069.52
146.206
375.848
460.542
146.201
323.166
146.368
147.068
146.209
146.201
148.666
146.201
146.201
146.201
173.861
420.291
355.801
146.201
332.885
146.201
146.202
146.201
149.759
146.201
5893.27
146.427
146.201
146.201
1168.57
146.212
146.201
221.536
146.201
146.201
7006.51
146.201
146.206
146.201
146.397
146.202
146.201
146.202
146.201
146.21
146.202
1922.13
146.201
146.215
146.202
146.202
146.353
146.201
146.202
146.201
2343.72
146.202
148.271
790.932
147.697
146.201
1535.97
146.47
146.202
146.201
3711.15
148.555
146.201
146.532
457.964
146.202
146.202
146.201
146.617
146.201
146.201
146.201
146.206
1186.04
146.206
2904.17
146.201
146.268
146.206
146.201
147.575
146.206
146.202
146.201
146.201
146.204
678.851
146.519
149.709
146.522
149.348
146.554
146.201
146.201
146.201
146.518
1388.13
974.321
146.221
146.202
172.626
146.539
11446.9
947.866
146.201
3209.22
7505.64
146.514
146.201
207.32
328.963
482.544
1040.18
152.139
146.996
913.578
146.203
1098.91
146.202
239.867
146.205
5229.88
1159.9
146.201
146.202
153.458
584.941
146.21
173.996
146.201
146.201
1571.96
146.203
146.201
146.203
146.201
146.212
146.201
19563.8
162.175
146.201
146.201
1174.27
146.21
2257.49
1029.47
998.331
146.21
146.201
146.201
407.877
146.201
146.201
146.212
146.202
146.205
1183.2
146.209
146.201
887.798
183.539
146.201
146.202
2241.6
146.201
146.206
183.788
146.201
146.201
146.203
152.217
6428.42
397.461
146.201
146.205
146.201
146.525
4616.98
146.659
7371.9
146.201
146.204
146.201
146.207
146.201
657.826
146.337
146.201
1035.19
146.201
146.201
146.335
146.201
146.21
146.203
164.117
563.154
146.201
146.201
146.841
1086.65
146.201
146.203
3720.48
146.201
146.202
146.207
146.201
146.201
146.201
146.201
146.201
146.204
146.201
146.206
1012.58
146.201
150.947
4554.96
147.059
1018.35
146.201
146.22
146.202
146.201
1040.65
1454.76
998.59
1038.5
315.012
402.058
146.201
146.216
1065.29
150.745
986.084
146.266
146.203
986.838
146.201
146.201
146.201
185.117
159.614
146.202
654.616
146.201
146.201
146.201
1340.02
596.037
146.201
987.369
937.753
213.359
889.8
985.779
146.201
146.201
193.899
146.202
146.201
146.201
146.201
146.201
146.202
146.201
876.487
146.416
412.495
146.225
146.204
146.286
146.201
146.201
146.201
522.251
146.201
146.201
146.201
691.601
146.204
5806.61
964.822
210.167
148.859
196.599
146.209
955.202
146.201
146.201
146.21
1195.21
235.313
146.202
146.202
146.202
668.99
146.201
990.564
420.281
914.601
941.4
146.201
146.201
242.794
303.229
146.208
968.057
146.237
146.214
146.201
941.679
146.205
524.982
146.202
146.201
146.224
146.205
146.201
146.201
146.238
147.179
395.796
146.203
146.203
146.323
910.845
146.204
146.201
146.201
9729.77
267.245
4056.79
836.446
146.202
149.66
147.232
146.201
146.202
146.209
146.201
146.201
146.201
1007.09
146.201
146.209
146.202
147.99
146.201
146.201
146.201
146.201
146.866
713.482
146.201
148.35
146.21
147.748
146.201
146.203
146.201
151.948
1014.08
146.201
146.201
146.379
146.206
146.204
146.209
146.201
146.202
707.451
146.204
146.205
146.201
146.201
146.201
569.247
146.201
146.201
661.984
146.201
146.201
146.201
146.201
9755.01
146.201
152.562
146.205
146.23
146.201
146.202
146.201
146.201
146.201
146.203
146.204
484.514
1094.39
146.201
146.201
146.202
146.201
146.209
146.201
146.201
146.203
146.209
146.203
146.207
146.201
295.802
2772.8
170.797
146.204
176.902
146.203
146.202
771.199
146.207
1233.47
146.206
146.456
146.201
146.201
146.201
146.201
146.207
146.201
146.263
148.757
146.201
146.201
146.201
146.206
146.202
146.202
146.201
146.201
146.201
696.431
146.254
527.658
146.202
146.201
146.276
146.274
352.159
146.204
146.206
146.201
146.206
146.201
146.223
146.203
146.202
146.263
146.365
274.201
146.259
1015.44
1125.85
146.201
2503.99
146.201
974.345
146.201
874.318
146.213
876.474
638.382
146.201
146.201
146.201
146.542
8131.86
146.201
935.238
146.202
1056.31
146.201
146.202
146.201
146.201
913.669
146.201
146.203
146.201
146.201
146.203
146.201
1036.07
792.612
146.21
146.201
146.201
347.984
146.201
146.201
146.366
1137.17
189.481
146.201
146.201
181.801
146.434
146.201
146.201
146.668
922.711
149.911
146.201
1024.65
146.204
146.201
146.206
146.201
146.201
146.203
146.202
146.201
146.201
146.201
146.201
146.205
146.201
146.201
146.201
146.201
146.201
146.201
146.201
146.201
146.201
146.201
146.201
146.455
572.083
162.731
146.201
146.201
146.201
146.201
146.398
146.201
146.201
146.204
146.201
146.201
146.201
146.203
146.201
146.201
146.201
146.201
146.201
494.083
146.201
563.173
566.638
146.446
146.201
146.201
431.604
146.201
146.201
146.201
146.201
146.201
146.201
146.201
146.202
146.203
146.201
172.407
174.303
146.201
146.201
146.201
146.201
146.201
146.201
146.201
146.201
146.373
1705.47
146.201
1794.19
146.202
146.201
1739.23
1767.45
146.201
146.217
147.462
146.202
146.201
146.201
146.203
146.201
1564.6
146.201
1613.07
146.201
146.201
146.201
162.204
162.442
149.651
146.201
146.201
146.201
146.201
146.201
146.201
146.201
146.201
146.201
146.201
147.657
146.201
146.201
146.201
146.201
146.201
146.201
146.201
146.232
800.279
146.221
146.201
146.204
146.201
146.201
146.202
146.202
146.201
146.202
704.06
146.206
146.201
146.202
146.353
146.201
146.39
146.201
146.203
163.95
146.201
165.234
11039.6
146.215
146.207
146.201
147.648
146.214
146.201
146.201
146.201
146.201
147.628
146.204
146.202
146.211
146.378
1011.77