/*--------------------------------*- C++ -*----------------------------------*\
| =========                 |                                                 |
| \\      /  F ield         | OpenFOAM: The Open Source CFD Toolbox           |
|  \\    /   O peration     | Version:  v2012                                 |
|   \\  /    A nd           | Website:  www.openfoam.com                      |
|    \\/     M anipulation  |                                                 |
\*---------------------------------------------------------------------------*/
FoamFile
{
    version     2.0;
    format      ascii;
    class       volScalarField;
    location    "3.5";
    object      ILambda_3_0;
}
// * * * * * * * * * * * * * * * * * * * * * * * * * * * * * * * * * * * * * //

dimensions      [1 0 -3 0 0 0 0];


internalField   nonuniform List<scalar> 
108993
(
146.201
146.202
146.201
146.201
146.201
146.201
146.209
146.201
146.201
146.203
146.201
146.201
146.201
146.201
146.201
146.202
146.21
146.201
146.201
146.202
146.201
146.201
146.223
146.201
146.201
146.201
146.201
146.205
146.203
146.201
146.201
146.201
146.201
146.201
146.201
146.201
146.201
146.201
1517.79
4897.82
146.205
146.201
146.201
146.201
164.217
1238.77
146.201
146.202
146.201
146.202
146.201
226.803
146.201
146.201
146.201
146.201
146.201
146.201
146.201
146.201
146.201
146.201
146.201
146.201
146.201
146.201
146.201
146.201
146.201
146.25
146.201
146.201
146.201
146.201
146.201
146.201
146.201
146.202
146.201
146.201
146.201
146.201
146.201
146.201
146.201
146.201
146.201
146.201
146.201
146.201
146.201
146.201
146.201
146.201
146.201
146.201
146.201
146.201
146.201
146.201
146.201
146.201
146.201
146.201
146.201
146.201
146.201
146.201
146.201
5686.34
958.386
146.201
176.456
805.93
146.201
153.787
146.201
146.201
146.206
146.201
146.201
146.201
146.366
146.201
146.201
146.203
146.204
146.201
146.201
146.201
146.201
146.201
146.201
2186.1
146.201
146.201
146.201
146.201
146.201
146.201
146.201
146.201
146.219
146.201
146.201
146.201
146.201
1905.3
146.201
174.342
185.043
146.201
146.202
196.482
146.201
146.521
146.201
146.201
146.201
204.296
198.483
146.201
146.201
146.201
146.201
156.511
146.201
146.201
146.201
146.201
146.201
146.201
196.297
146.201
146.202
146.201
146.382
146.201
146.201
146.201
146.202
146.201
146.201
146.201
146.201
146.201
146.201
146.201
146.201
146.201
146.201
146.201
146.201
146.208
146.201
146.201
146.204
146.201
146.201
146.201
146.201
146.185
146.201
146.201
146.224
146.545
146.201
619.999
146.201
175.592
288.042
146.201
146.383
146.62
447.035
146.201
146.201
146.201
146.201
146.201
146.201
163.209
146.201
146.205
146.201
146.201
146.201
146.201
3336
146.201
1777.3
146.201
146.201
146.204
146.201
146.201
146.201
146.201
277.113
146.201
146.201
146.201
146.201
146.201
146.201
146.202
147.297
146.395
146.201
146.201
146.201
146.201
146.201
146.201
146.201
146.201
146.201
146.201
146.201
146.201
146.201
146.201
146.208
146.205
146.201
146.201
146.201
146.201
146.201
146.201
146.201
146.201
146.317
153.792
1366.24
146.201
146.201
146.367
146.201
146.201
146.201
772.176
1083.99
146.201
146.201
146.202
146.201
146.201
146.201
150.708
146.201
146.201
146.201
146.201
146.201
146.201
146.201
146.201
146.212
146.201
146.478
149.29
146.201
146.201
146.201
146.202
146.201
146.201
146.202
146.331
146.201
146.201
146.202
146.201
146.202
149.235
146.201
146.202
721.112
146.201
146.202
146.201
146.203
146.202
146.201
1521.74
166.95
149.939
146.201
146.201
146.201
146.989
611.218
146.201
150.629
146.201
146.201
146.201
146.201
146.201
146.201
146.647
146.201
146.201
146.201
146.201
146.201
146.201
146.201
146.201
146.201
146.201
621.443
146.34
146.201
146.201
146.201
2264.44
146.201
146.201
146.201
146.201
146.201
146.201
146.201
146.202
146.201
146.201
146.201
184.359
146.201
146.201
146.201
188.511
146.202
178.061
146.201
146.201
147.943
146.201
154.116
149.679
146.201
146.204
146.201
146.225
146.202
4220.7
146.201
654.274
152.911
146.224
157.54
146.201
146.351
146.201
186.918
146.201
146.211
146.201
146.201
146.358
146.396
146.201
146.201
146.228
146.228
146.201
146.201
153.294
146.201
146.203
1158.82
146.201
146.201
146.201
192.008
146.253
146.568
146.201
163.116
146.202
162.94
146.201
146.201
150.341
146.201
154.911
151.594
146.201
181.373
3259.96
166.181
146.201
146.201
146.203
146.201
146.201
146.201
146.201
146.201
146.201
146.201
146.201
256.982
146.206
146.203
193.846
146.201
146.201
146.201
146.201
146.201
146.201
146.201
146.201
146.201
146.201
146.201
146.201
146.351
146.201
146.35
165.309
146.21
146.201
146.201
146.351
146.201
146.201
146.243
146.201
146.201
146.201
146.201
146.211
146.201
198.202
146.563
146.213
146.201
146.201
146.201
146.201
146.201
146.201
146.201
146.201
188.628
146.201
146.201
146.201
146.21
146.201
146.308
146.201
146.201
146.201
146.201
146.201
146.201
146.201
146.201
146.201
148.739
149.862
146.201
146.201
2876.36
146.201
146.203
146.205
146.201
146.201
146.201
146.201
146.201
146.201
146.202
146.202
146.201
146.201
146.203
146.211
146.201
146.342
146.202
146.201
146.348
146.209
146.209
146.201
146.337
146.201
146.201
146.201
147.006
146.201
146.202
146.302
146.201
149.643
146.201
146.201
146.201
146.201
146.201
146.289
146.201
146.201
146.453
146.207
490.201
146.201
146.201
146.201
146.201
146.202
188.998
146.201
146.201
146.201
146.201
146.207
146.324
147.015
146.201
146.201
146.203
146.205
146.201
146.201
5659.45
156.662
150.776
146.209
146.201
146.362
152.718
146.209
146.201
146.201
146.201
146.201
146.201
146.496
967.133
196.047
146.201
146.201
146.203
146.201
146.204
146.201
157.968
146.201
146.201
146.201
146.202
146.211
146.201
146.201
164.813
146.207
146.201
146.201
154.101
146.201
146.202
146.201
1300.45
146.201
146.383
146.201
146.205
146.201
146.202
146.201
176.267
146.201
1411.07
146.201
146.201
1670.45
146.207
146.201
146.201
146.325
1912.46
146.202
154.732
146.201
146.785
975.559
146.201
146.201
146.201
543.643
146.371
213.316
146.201
213.82
146.201
146.202
146.201
146.201
146.201
250.653
146.486
146.202
146.201
146.372
147.794
236.375
146.286
146.204
146.242
419.473
152.844
471.663
235.628
146.201
146.202
146.201
146.201
146.201
146.217
146.203
146.784
146.522
146.211
146.212
193.249
236.773
424.268
146.201
146.205
146.225
146.201
1277.75
146.204
426.038
146.208
146.202
232.184
146.204
152.713
146.235
146.223
383.333
146.201
146.201
217.115
146.204
146.203
4724.94
146.214
148.409
146.209
6862.2
159.024
146.201
146.201
146.201
146.212
146.201
156.546
146.208
146.201
146.201
146.23
146.467
5550.78
146.201
2745.62
146.201
206.638
146.213
146.201
242.649
146.202
146.202
146.684
146.203
146.201
146.203
146.261
942.659
146.506
146.201
201.365
146.202
146.202
146.202
146.201
146.201
159.32
146.201
146.201
146.207
146.201
146.203
12942.6
155.864
146.201
146.247
146.201
146.202
146.201
146.204
146.201
146.201
146.201
146.201
146.201
146.22
146.201
146.201
146.221
146.201
146.202
146.201
146.201
146.201
146.212
146.204
146.205
146.33
146.201
146.201
146.201
147.644
146.201
147.061
146.847
146.201
146.201
159.433
146.649
146.202
146.201
146.305
146.201
146.201
146.227
146.201
146.21
146.201
146.201
146.211
146.201
1389.78
146.201
146.201
12189.6
146.205
150.847
146.279
148.739
146.201
146.216
146.206
146.201
146.201
146.204
146.201
146.201
146.201
146.201
146.201
146.201
146.204
146.201
146.212
146.201
1731.22
146.201
146.201
726.418
146.201
263.827
146.202
146.201
146.202
225.283
146.202
146.202
146.211
146.749
146.21
146.215
246.343
146.209
146.201
287.655
146.202
146.201
146.22
6663.75
146.201
146.201
146.201
146.214
146.201
146.202
146.22
146.201
146.201
6583.67
146.201
6645.6
146.201
3907.25
146.201
146.207
146.247
146.212
146.298
146.201
146.247
146.25
146.253
146.217
2021.57
146.201
146.201
146.201
146.24
146.203
146.212
146.201
146.201
146.228
2025.98
146.201
146.21
953.938
146.153
146.206
146.483
1499.24
2067.73
146.56
2981.44
146.237
662.221
146.201
1470.44
5101.12
331.253
146.201
146.201
146.206
146.208
152.94
146.201
146.201
146.256
146.492
146.201
2426.17
146.207
146.201
792.441
146.201
146.201
1581.83
364.585
146.201
146.209
146.201
146.201
146.211
180.207
579.46
146.201
649.532
146.21
146.212
146.206
146.201
146.204
146.254
146.209
146.201
146.201
146.201
182.54
146.201
146.201
146.366
146.201
373.051
146.371
146.204
146.208
146.201
151.595
146.201
1864.23
146.201
146.201
146.201
149.996
165.383
146.201
146.211
489.337
187.841
147.153
146.201
146.206
146.47
147.305
146.201
146.218
148.285
146.208
146.216
146.206
146.202
266.608
6269.81
171.362
146.225
146.215
146.204
146.217
146.203
146.205
146.219
153.334
146.21
146.201
146.204
146.227
146.201
146.201
146.201
146.228
146.201
146.201
146.201
146.203
146.201
146.201
146.202
1804.15
146.201
146.201
146.202
146.201
7521.35
146.201
146.201
146.205
146.201
146.203
2838.54
146.959
146.202
146.201
146.201
738.887
147.305
147.482
146.202
146.201
146.613
146.201
146.205
157.362
147.35
146.201
146.201
146.201
146.201
146.201
146.214
146.201
146.201
146.201
146.201
152.688
146.201
146.219
146.201
146.201
146.251
194.471
146.21
146.261
146.201
146.201
146.212
146.38
146.201
146.201
146.201
694.695
146.201
146.229
146.201
146.21
146.202
146.201
652.644
1109.09
146.214
146.235
4434.03
146.21
146.241
146.219
718.168
146.201
146.201
146.201
219.031
146.205
13935
146.222
146.23
146.201
146.206
146.213
146.201
146.218
171.915
146.214
146.202
334.578
479.167
175.911
146.201
146.201
146.201
146.201
146.201
146.201
146.201
2081.48
146.201
4705.8
146.202
146.201
146.201
172
1732.37
146.201
146.202
146.201
146.202
146.201
146.203
271.647
146.245
146.201
146.445
146.201
146.201
146.201
146.201
146.201
146.208
8126.89
539.68
146.201
146.201
146.201
146.201
146.201
146.201
146.202
146.201
146.201
146.201
146.201
146.201
146.201
146.201
146.201
146.201
146.201
146.202
146.201
168.332
919.849
250.295
320.993
146.201
146.201
146.201
146.201
146.202
146.201
146.203
146.201
146.201
1595.14
146.201
146.235
146.202
146.202
146.201
146.201
159.885
179.554
146.201
146.201
146.201
146.216
146.202
146.201
146.582
146.201
146.201
146.201
146.201
146.201
146.21
146.203
146.208
146.559
146.202
146.201
146.201
147.252
146.238
146.202
146.201
146.201
167.012
146.201
234.379
146.233
146.231
146.227
330.437
146.225
146.201
146.224
146.201
146.251
146.221
146.233
146.201
146.201
146.201
146.201
146.201
146.201
151.677
5461.28
146.214
146.201
146.201
146.216
146.201
146.201
146.201
146.201
146.201
1383.07
146.219
149.98
146.201
186.453
146.201
146.27
146.551
146.212
146.201
146.225
146.202
156.011
146.25
146.229
774.942
146.201
146.201
146.203
146.201
146.201
2824.64
146.201
146.201
146.201
160.681
146.201
146.201
146.206
146.201
146.484
364.698
146.201
146.263
146.201
146.235
146.201
146.201
146.201
146.225
146.201
146.828
146.208
146.201
232.144
146.201
146.201
146.201
146.288
154.183
146.201
160.185
1011.25
154.892
146.218
146.207
146.201
146.216
146.201
146.626
146.424
146.404
146.568
146.412
146.201
146.583
146.717
146.221
146.219
146.201
879.617
146.201
146.201
146.201
146.22
146.201
146.201
146.201
303.017
146.201
146.201
146.201
146.201
146.201
146.201
146.201
147.46
2499.13
146.201
189.677
146.204
146.204
146.201
146.202
146.373
146.201
146.201
146.842
146.201
146.201
146.201
146.201
146.201
172.799
146.201
172.612
146.201
146.212
2117.46
146.201
146.201
146.208
146.201
146.201
146.201
146.201
146.201
146.207
146.204
146.207
150.575
146.201
147.13
151.156
146.201
146.364
146.201
146.207
146.209
146.201
146.201
174.471
146.487
241.825
146.202
794.439
146.432
146.201
146.201
146.201
146.201
146.201
146.218
167.199
146.201
146.201
146.202
146.202
146.209
146.201
146.201
4278.49
8532.75
146.202
146.201
147.043
146.201
146.201
146.203
146.201
146.438
146.201
146.201
146.201
146.202
3395.04
146.215
146.202
146.511
146.438
146.201
146.528
703.445
146.201
146.201
146.202
147.492
146.215
146.201
146.202
1066.34
146.364
147.789
146.202
146.202
152.914
146.204
146.201
228.271
146.203
146.201
146.206
146.201
6606.1
146.201
146.201
2604.34
146.204
1794.49
146.206
2496.24
146.204
146.204
159.477
146.203
146.204
1113.18
146.203
146.206
3118.71
146.201
146.201
146.201
498.81
845.979
146.201
146.36
146.201
146.041
228.981
162.68
146.205
2594.98
146.201
4563.27
146.201
146.201
146.201
146.201
146.201
146.201
146.201
146.201
146.517
241.704
146.319
146.224
146.201
146.201
146.201
146.201
146.201
146.201
1101.01
146.286
146.201
146.201
146.201
1466.78
146.201
146.201
158.234
146.201
146.201
146.201
146.205
3396.34
146.723
150.554
811.236
146.201
146.202
236.186
146.201
146.201
146.201
146.45
3453.86
177.507
6843.6
146.201
146.201
8373.17
146.201
146.204
146.201
146.201
146.201
146.201
146.203
146.201
146.203
2607.38
146.298
146.204
146.389
164.863
146.201
627.303
146.201
146.201
146.201
146.201
146.201
146.201
146.213
146.201
146.209
3228.48
146.94
147.065
146.201
146.201
2119.37
212.138
146.201
146.377
146.201
146.201
147.592
149.839
698.158
146.506
146.201
2401.09
4907.02
168.827
146.201
146.605
146.595
146.856
160.71
146.237
945.544
146.356
146.201
146.263
146.355
146.308
146.236
167.483
146.233
146.205
194.123
2631.14
1069.03
146.201
146.201
6875.14
146.201
146.201
157.171
146.201
337.804
146.243
146.201
146.201
146.201
146.201
146.245
146.587
2515.74
146.53
149.053
146.201
2020.96
146.231
146.282
146.201
146.212
146.201
146.201
146.201
146.201
146.803
146.201
146.201
146.202
165.407
146.242
152.484
1424.88
154.291
146.202
146.384
146.201
146.201
146.21
146.201
146.201
146.201
146.696
1638.32
174.739
1920.84
3633.54
146.25
146.201
147.564
148.645
146.221
2753.61
146.201
146.205
146.201
154.387
146.237
147.208
146.201
146.201
146.201
146.201
474.541
146.201
190.267
146.201
2593.77
148.946
146.201
146.201
2766.86
157.327
182.524
150.418
146.201
171.435
7092
146.201
146.251
146.366
146.214
146.562
146.201
159.709
378.183
146.533
146.397
1960.29
146.371
189.614
146.201
907.813
2419.69
146.229
5321.52
146.202
146.21
150.344
146.201
5623.92
148.236
146.209
146.209
146.202
146.486
146.202
146.201
146.223
146.202
146.201
146.201
146.204
146.201
2587.61
3003.13
146.206
1061.19
146.206
146.201
146.207
161.858
3986.32
146.21
146.249
148.279
1019.51
12528.3
1768.97
146.202
3434.48
146.201
146.201
146.201
176.349
146.202
215.896
146.251
1764.83
594.772
1932.36
146.202
221.842
146.202
146.201
146.201
146.202
146.201
146.202
146.211
182.332
3706.04
955.917
146.211
8262.4
146.305
810.908
146.201
3487
481.725
704.606
146.201
146.201
146.201
146.201
146.201
146.201
147.344
146.213
146.322
392.886
221.206
1856.73
1272.76
1891.63
1568.48
226.453
146.201
311.415
146.632
146.201
146.201
294.235
185.25
146.201
146.201
146.201
146.275
146.201
549.367
463.716
384.989
370.196
146.201
4252.38
870.822
146.201
954.301
146.201
146.212
4491.98
146.215
146.217
241.666
146.275
146.201
146.21
146.201
146.201
146.201
146.421
146.201
146.202
148.592
1023.94
157.468
146.322
146.213
146.202
146.201
146.201
146.201
155.543
154.359
146.201
146.201
2944.35
146.201
146.201
146.201
146.201
192.052
166.862
1936.21
159.244
154.983
146.201
160.034
146.201
146.327
146.878
146.201
146.858
146.201
146.201
366.421
146.201
146.201
147.852
146.957
151.181
166.175
146.201
146.97
146.437
148.427
146.239
148.698
146.515
150.522
146.41
2164.4
146.202
146.202
146.62
163.893
146.315
154.13
146.438
151.555
146.201
146.201
2610.44
172.407
146.621
152.856
146.6
173.973
9442.42
146.201
148.184
146.201
175.931
146.201
147.479
153.939
146.201
4167.23
146.201
146.941
147.961
146.201
146.201
146.875
146.201
146.201
146.201
146.201
146.463
146.201
150.211
1230.39
146.201
146.201
2823.28
146.235
146.201
146.376
146.201
146.201
146.201
146.201
150.367
160.502
7745.91
146.201
146.201
415.037
146.201
146.736
425.095
146.201
146.201
146.214
146.203
223.218
146.201
146.201
146.201
146.201
146.201
186.85
480.956
146.29
146.201
1274.06
146.205
1070.93
146.201
146.518
146.201
156.568
147.415
146.201
146.201
146.201
2886.86
147.385
146.201
146.398
146.203
146.201
146.211
146.215
146.201
146.268
146.201
601.258
146.201
146.201
146.201
146.201
146.201
152.349
155.475
146.201
146.201
292.473
146.201
146.381
146.201
146.201
1877.43
12036.6
146.22
146.206
146.201
146.207
8495.66
146.201
428.112
146.201
2162.22
146.672
146.201
2196.5
154.756
2674.16
2085.71
460.719
146.201
146.201
146.201
146.22
146.217
146.543
2663.98
146.201
146.252
146.201
146.249
923.138
790.359
146.201
3018.47
171.204
146.201
1715.22
146.201
146.201
146.201
679.079
148.745
152.953
146.201
146.201
146.201
2934.46
146.202
8631.36
146.201
146.201
1708.14
1039.22
146.201
146.201
2530.72
146.201
146.201
146.208
456.896
3224.53
146.451
146.201
1833.09
5315.49
148.24
196.506
146.247
883.017
146.202
311.61
2776.05
2760.49
2599.84
909.131
744.286
1638.1
146.201
20851.2
1032.17
200.706
146.201
462.86
5869.55
146.201
146.476
2686.2
146.201
5385.77
146.201
9298.5
153.033
1582.03
146.668
152.964
146.201
146.201
146.201
146.201
3837.9
146.201
157.596
377.884
146.201
146.201
146.201
146.201
146.201
146.201
146.206
146.201
343.268
146.201
276.808
146.201
148.255
146.201
146.206
146.275
146.201
146.201
146.201
146.201
146.209
1794.66
3028.42
2949.94
147.223
146.206
146.224
146.201
146.221
146.211
146.217
146.201
2593.9
2437.85
4237.85
146.228
146.205
146.202
159.816
146.242
146.201
146.202
146.202
197.413
3824.09
146.218
1243.63
146.203
146.214
1868.21
600.718
146.201
146.341
146.345
146.206
146.416
146.239
146.205
146.323
146.206
146.202
146.201
146.202
664.259
146.201
146.231
146.202
146.318
146.201
146.201
146.34
146.393
354.157
146.202
146.201
146.201
280.473
1357.79
146.201
162.244
1364.5
146.201
146.208
146.641
146.272
2310.23
146.201
146.223
146.22
146.201
2806.68
146.204
146.201
146.201
146.201
146.201
146.201
146.201
146.201
146.201
146.297
146.203
146.201
834.474
146.201
146.211
147.703
146.201
146.201
147.073
146.971
146.201
146.254
146.201
146.201
146.292
146.206
146.201
258.263
146.203
146.201
146.201
146.201
146.201
146.201
147.004
147.225
738.382
3306.35
162.136
146.54
149.151
146.257
146.202
246.27
146.251
146.201
147.638
146.257
335.741
146.201
146.251
146.203
147.312
146.413
146.238
146.485
146.203
146.236
147.387
146.201
146.324
146.201
146.237
146.234
146.227
146.82
146.227
146.532
146.214
146.634
146.228
146.201
146.201
1290.96
146.204
146.202
146.201
146.201
146.228
146.206
146.21
146.222
146.201
146.201
146.203
146.203
370.564
146.201
146.205
146.202
146.201
146.211
146.201
147.809
146.201
146.201
146.201
146.201
146.208
146.201
146.201
146.201
146.204
146.201
146.201
1560.39
146.202
146.212
1493.66
146.201
146.202
146.203
146.201
146.201
146.201
146.201
146.201
151.33
146.226
146.211
146.201
146.201
146.201
146.212
724.112
146.201
146.201
198.508
146.201
146.201
147.116
146.201
146.247
200.726
146.201
146.201
154.383
7541.95
170.035
146.201
146.201
146.201
146.201
146.326
146.216
146.201
146.201
146.201
146.657
146.201
146.201
146.201
2010.77
228.272
146.217
1871.46
362.529
146.201
146.203
146.203
146.201
146.223
179.312
146.335
146.201
146.237
1711.66
146.201
146.201
2068.51
148.758
1885.84
146.201
146.206
146.201
146.207
1695.85
146.201
1583.44
146.202
146.201
1135.87
146.203
146.201
146.6
1791.52
146.201
146.22
1165.68
146.201
146.224
2327.89
146.36
146.203
146.202
146.357
1037.62
146.359
2004.42
146.201
146.201
714.574
146.204
712.218
146.222
146.201
146.201
146.201
146.222
146.202
146.203
146.214
146.201
146.204
146.201
146.221
5776.8
146.201
146.226
146.222
5631.9
146.201
146.699
5827.84
146.201
146.22
146.239
188.569
146.201
146.221
146.201
146.201
146.201
146.201
203.678
146.22
146.226
5362.46
175.75
146.201
146.203
146.223
146.201
146.201
146.205
146.274
146.201
146.221
146.201
1323.57
6194.67
146.232
146.234
365.69
403.86
146.208
146.226
2486.54
2386.66
148.03
188.248
151.349
146.23
146.452
305.324
146.726
146.284
146.218
146.284
368.008
146.201
146.325
146.798
146.206
146.304
398.157
6399.62
147.882
146.201
861.092
146.202
146.203
203.316
146.201
1064.74
146.201
514.242
321.272
3044.22
146.201
146.201
146.201
655.021
146.208
336.951
146.201
878.309
1082.1
153.663
146.201
1262.23
164.748
241.772
6185.69
164.054
146.201
146.214
146.201
146.205
146.201
146.201
146.201
146.204
146.201
146.201
146.201
11077
146.201
146.202
146.201
283.548
953.041
146.228
202.753
146.201
146.201
146.21
146.202
146.201
146.201
146.201
146.201
146.209
146.202
1704.98
146.201
146.216
277.763
9161.24
146.201
146.23
146.321
146.201
146.201
10081
146.201
146.201
146.201
146.201
146.201
146.204
146.201
146.201
146.201
146.201
2757.39
3701.05
146.201
170.651
146.201
181.596
275.738
146.201
146.201
5930.53
146.201
146.212
146.201
146.221
146.204
146.201
146.201
1266.77
13336.7
146.201
221.639
146.201
146.201
146.206
146.902
146.201
146.205
146.224
146.209
146.201
146.601
146.206
193.706
147.388
146.21
146.201
146.21
1146.17
146.201
146.201
146.201
146.201
146.201
146.201
146.201
309.071
146.21
146.201
146.203
182.688
179.779
146.201
183.024
275.13
146.201
146.358
27394.5
146.201
209.088
152.048
146.205
146.201
146.201
181.537
152.557
146.231
146.232
146.202
146.201
146.24
146.239
155.002
146.763
146.202
146.201
146.205
164.432
146.237
146.206
146.201
176.978
248.758
146.201
146.202
146.201
146.209
167.065
6675.4
146.207
146.405
146.206
231.537
146.201
146.201
2191.96
146.201
146.201
146.201
146.201
146.207
146.202
146.201
146.203
146.203
146.203
146.201
146.201
2565.74
146.543
146.201
146.35
146.201
146.201
146.201
6440.09
146.349
897.443
146.201
146.201
146.201
146.205
148.165
146.204
946.289
146.201
146.201
146.202
2343.55
15113.7
150.047
146.201
924.878
861.105
323.171
505.972
176.708
146.209
912.653
150.068
146.201
146.201
146.201
146.201
146.201
146.201
1601.37
8433.57
209.9
146.446
161.737
146.202
146.265
146.267
1624.22
147.233
169.328
148.331
1131.13
3548.39
146.201
146.556
215.192
146.201
146.201
3132.57
146.201
146.201
190.01
1808.62
146.201
146.201
146.201
146.203
146.201
146.201
146.201
146.542
2205.1
146.201
146.201
146.214
226.981
200.966
146.201
146.201
146.201
176.01
146.201
146.209
151.369
146.201
146.208
146.201
146.201
4243.62
146.936
146.201
146.201
146.201
146.201
146.202
147.049
146.201
146.284
146.209
146.201
146.48
146.201
146.201
146.201
146.201
146.201
146.201
146.212
146.201
146.201
146.527
146.201
930.089
146.208
146.201
146.201
146.201
146.201
146.207
375.177
664.401
277.134
700.979
146.22
145.999
171.374
564.448
748.029
188.628
147.225
146.201
146.211
146.201
146.201
146.201
146.201
146.318
172.748
146.201
1637.69
146.201
146.201
146.215
146.201
146.213
146.201
146.205
1432.32
147.439
146.201
146.201
146.201
146.222
146.201
146.203
3442.8
146.216
2503.36
146.201
146.201
146.285
1358.9
2108.83
1943.52
1554.66
2142.06
147.708
2043.86
146.327
2060
146.201
146.204
146.201
146.201
429.768
240.565
242.106
149.203
209.33
177.281
146.201
236.119
3400.53
146.201
146.201
146.201
2072.4
151.024
146.355
146.201
2107.32
2605.13
157.244
5777.19
146.964
2496.45
599.111
146.201
421.144
642.839
323.208
146.201
146.209
151.983
146.201
146.201
373.201
146.201
146.201
1084.78
146.206
373.981
1141.67
146.207
146.223
146.712
146.938
146.38
146.905
532.301
148.287
146.228
146.201
147.162
146.227
146.751
146.675
146.204
150.861
230.662
385.693
1848.19
146.201
146.211
146.653
146.201
997.121
146.201
146.201
146.201
146.661
146.204
146.277
146.201
146.201
149.629
146.561
146.697
254.043
146.201
2484.64
721.173
1993.05
146.201
146.38
5211.55
169.51
893.065
146.201
146.591
146.201
146.201
146.201
146.201
146.201
146.202
146.201
834.3
146.201
146.215
146.201
146.201
146.201
146.201
146.201
239.69
222.337
146.201
146.201
288.804
146.208
453.328
146.206
146.201
936.725
146.201
146.201
146.201
386.421
146.202
146.201
146.257
146.202
146.201
146.201
146.205
146.201
146.201
146.201
146.201
146.201
146.201
146.202
146.442
146.201
146.206
146.201
146.655
146.201
146.202
146.202
3558.16
146.201
146.201
146.201
146.201
147.892
146.213
146.201
146.201
146.201
146.201
970.717
146.201
146.201
146.201
146.201
146.201
224.209
146.201
146.201
146.202
146.205
146.201
146.201
146.201
146.201
146.201
146.201
146.201
146.54
146.201
146.201
146.201
146.201
146.201
146.201
12049.1
146.205
146.202
146.201
146.201
146.844
146.201
146.267
188.624
146.209
149.469
146.201
146.201
146.201
146.21
316.721
146.201
146.201
367.091
146.201
146.201
146.201
146.201
146.201
146.202
224.12
146.201
146.201
146.201
446.86
266.929
271.348
146.261
391.576
2132.15
146.207
146.201
146.202
394.756
146.201
146.204
146.201
146.202
191.372
146.201
146.201
146.201
146.558
146.216
151.227
148.602
146.201
154.064
1001.43
146.201
146.217
146.201
146.201
146.201
146.201
146.207
146.21
146.201
2669.95
212.807
1700.35
1383.04
195.879
146.24
146.201
146.201
146.201
146.265
146.201
146.201
146.201
146.204
1183.25
146.206
153.017
328.652
146.201
174.432
146.367
150.787
146.207
146.201
146.425
146.201
146.201
146.201
156.141
186.139
214.636
146.201
206.761
146.201
146.203
146.201
146.208
146.201
7062.45
146.633
146.201
146.201
603.72
146.243
146.201
392.333
146.201
146.201
6578.54
146.201
146.203
146.201
146.448
146.201
146.201
146.201
146.201
146.253
146.201
1906.93
146.201
146.214
146.201
146.202
146.367
146.201
146.201
146.201
1170.79
146.223
160.524
737.861
155.975
146.201
1241.72
148.004
146.201
146.201
3347.47
146.475
146.201
146.555
179.091
146.202
146.202
146.201
146.629
146.201
146.201
146.201
146.205
815.074
146.206
3483.8
146.201
514.593
146.205
146.201
204.227
146.205
146.236
146.201
146.201
146.233
168.001
146.504
161.649
146.549
146.538
146.526
146.201
146.201
146.201
146.452
3326.42
1565.08
146.222
146.202
162.971
146.549
11963.5
2764.53
146.201
3611.1
10980.3
146.497
146.201
171.292
1745.98
1747.9
2017.53
161.656
147.267
263.179
146.202
369.591
146.202
1737.64
146.208
5452.36
668.927
146.201
146.203
147.463
1819.04
146.211
160.253
146.201
146.201
746.223
146.201
146.201
146.201
146.201
146.215
146.201
38460.1
148.799
146.201
146.201
647.603
146.234
1973.77
3387.22
708.895
146.222
146.201
146.201
374.168
146.201
146.201
146.201
146.203
146.209
724.126
146.209
146.201
631.27
1518.77
146.201
146.204
739.616
146.201
146.209
1213.84
146.201
146.201
146.202
147.029
423.057
349.849
146.201
146.205
146.201
146.609
3758.31
146.458
1315.78
146.201
146.202
146.201
146.207
146.201
440.942
146.344
146.201
1053.66
146.201
146.201
146.337
146.201
146.285
146.202
164.058
156.7
146.201
146.201
1682.19
598.15
146.201
146.288
372.53
146.201
146.202
146.204
146.201
146.201
146.201
146.201
146.201
146.201
146.201
146.209
3664.9
146.201
146.579
4666.18
147.904
3672.7
146.201
150.284
146.201
146.201
3089.94
991.495
1006.4
2995.18
175.612
949.199
146.201
155.641
269.329
152.922
712.456
1723.22
146.202
916.219
146.201
146.201
146.201
146.263
1657.78
146.206
681.158
146.201
146.201
146.201
250.496
1669.28
146.201
842.465
561.565
414.472
444.826
848.143
146.201
146.201
165.203
146.202
146.201
146.201
146.201
146.201
146.202
146.201
254.452
146.353
222.023
418.633
146.236
161.797
146.201
146.201
146.201
328.729
146.201
146.201
146.201
382.091
146.225
6934.79
750.464
2566.52
146.455
152.811
146.205
716.144
146.201
146.201
154.166
4083.52
2123.3
146.202
146.201
146.21
2250.89
146.201
876.175
1925.66
3328.16
715.543
146.201
146.201
180.618
203.45
146.209
819.217
170.665
163.636
146.201
693.135
146.287
274.927
146.201
146.201
146.224
146.302
146.201
146.201
357.173
147.597
2681.02
146.203
146.201
676.426
2008.62
146.201
146.201
146.201
10648.7
196.205
10414.5
2019.81
146.201
154.831
147.843
146.203
146.201
146.207
146.201
146.201
146.201
2264.57
146.201
146.208
146.212
149.156
146.201
146.201
146.201
146.201
146.714
635.986
146.201
152.6
146.208
146.205
146.201
146.202
146.201
169.853
1165.57
146.201
146.201
705.794
146.201
146.201
146.208
146.201
146.201
3207.56
146.202
146.275
146.201
146.201
146.201
3015.9
146.201
146.201
627.678
146.201
146.202
146.201
146.201
9586.24
146.201
187.133
146.208
162.581
146.201
146.201
146.201
146.201
146.201
146.202
146.208
3001.44
2252.19
146.201
146.201
146.201
146.201
146.209
146.201
146.201
146.201
146.209
146.202
146.208
146.201
234.887
2961.28
261.326
146.209
812.935
146.224
146.201
2091.69
146.209
1998.48
146.21
147.06
146.201
146.201
146.201
146.201
146.208
146.201
146.246
204.422
146.201
146.201
146.201
146.208
146.201
146.204
146.201
146.201
146.201
273.402
146.251
155.191
146.201
146.201
146.258
146.269
183.093
146.201
146.206
146.201
146.213
146.201
146.225
146.311
146.202
146.262
146.372
642.485
146.258
1158.81
2813.88
146.201
7670.51
146.201
834.663
146.201
436.165
178.037
454.66
465.43
146.201
146.201
146.201
146.568
10060.7
146.201
540.348
146.203
1056.31
146.201
146.202
146.201
146.201
1050.72
146.201
146.203
146.201
146.201
146.201
146.201
2172.13
373.404
229.214
146.201
146.201
1270.82
146.201
146.201
146.321
1131.51
158.774
146.201
146.201
233.515
146.334
146.201
146.201
146.666
2210.73
148.876
146.201
1428.69
146.261
146.201
146.201
146.201
146.201
146.202
146.202
146.201
146.201
146.201
146.201
146.202
146.201
146.201
146.201
146.201
146.201
146.201
146.201
146.201
146.201
146.201
146.201
146.986
1361.44
1474.36
146.201
146.201
146.201
146.201
146.44
146.201
146.201
146.208
146.201
146.201
146.201
146.206
146.201
146.201
146.201
146.201
146.201
153.95
146.201
152.96
160.16
146.75
146.201
146.201
558.856
146.201
146.201
146.201
146.201
146.201
146.201
146.201
146.205
146.202
146.201
267.655
231.024
146.201
146.201
146.201
146.201
146.201
146.201
146.201
146.201
146.364
5122.79
146.201
4787.21
146.202
146.201
3413.4
3338.79
146.201
146.394
151.233
146.201
146.201
146.201
146.202
146.201
3744.38
146.201
3725.65
146.201
146.201
146.201
2773.52
2943.38
2199.36
146.201
146.201
146.201
146.201
146.201
146.201
146.201
146.201
146.201
146.201
2220.37
146.201
146.201
146.201
146.201
146.201
146.201
146.201
147.459
192.411
146.65
146.201
146.202
146.201
146.201
146.207
146.201
146.201
146.201
404.431
146.201
146.201
146.201
471.066
146.201
146.346
146.201
146.202
146.219
146.201
146.233
11331.4
146.213
146.221
146.201
146.217
146.213
146.201
146.201
146.201
146.201
146.215
146.202
146.202
146.211
146.381
3786.99
148.87
146.201