/*--------------------------------*- C++ -*----------------------------------*\
| =========                 |                                                 |
| \\      /  F ield         | OpenFOAM: The Open Source CFD Toolbox           |
|  \\    /   O peration     | Version:  v2012                                 |
|   \\  /    A nd           | Website:  www.openfoam.com                      |
|    \\/     M anipulation  |                                                 |
\*---------------------------------------------------------------------------*/
FoamFile
{
    version     2.0;
    format      ascii;
    class       volScalarField;
    location    "3.5";
    object      ILambda_10_0;
}
// * * * * * * * * * * * * * * * * * * * * * * * * * * * * * * * * * * * * * //

dimensions      [1 0 -3 0 0 0 0];


internalField   nonuniform List<scalar> 
108993
(
146.201
170.7
146.201
146.201
146.201
146.201
159.735
146.201
146.201
146.215
146.201
146.201
146.201
146.201
146.201
146.226
146.233
146.201
146.201
208.032
146.201
146.201
146.587
146.201
146.201
146.201
146.201
196.656
158.154
146.201
146.201
146.201
146.201
146.202
146.201
146.201
146.201
146.201
7962.26
3330.52
148.092
146.201
146.201
146.201
146.263
910.882
146.201
146.928
146.218
148.592
146.201
146.227
149.333
146.201
146.201
146.201
146.201
146.201
146.201
146.201
146.201
146.201
146.201
146.201
146.201
146.205
146.201
146.201
146.201
146.243
146.201
146.201
146.201
146.201
146.209
146.201
146.201
146.21
146.201
146.201
146.201
146.202
146.201
146.201
146.201
146.201
146.201
146.201
146.201
146.201
146.201
146.201
146.201
146.201
146.201
146.202
146.201
146.201
146.201
146.201
146.201
146.201
146.201
146.201
146.201
146.201
146.201
146.201
146.201
6181.88
146.332
146.201
146.436
146.285
146.201
2192.39
146.201
146.201
146.215
146.201
146.202
146.201
146.485
146.201
146.201
146.252
147.736
146.201
146.201
146.201
146.202
146.201
146.201
146.534
146.201
146.201
146.201
146.201
146.201
146.201
146.201
146.201
146.23
146.201
146.201
146.201
146.201
2056.84
146.201
2014.2
2106.09
146.201
146.202
2938.91
146.201
146.311
146.201
146.201
146.201
146.323
3419.92
146.201
146.201
146.201
146.201
146.259
146.201
146.201
146.201
146.201
146.201
146.201
146.217
146.201
163.373
146.206
157.261
146.201
146.201
146.201
146.209
146.201
146.201
146.201
146.201
146.201
146.201
146.201
146.201
146.201
146.201
146.201
146.201
162.137
146.201
146.201
148.41
146.201
146.201
146.201
146.201
153.55
146.201
146.201
159.572
146.543
146.201
1014.51
146.201
736.015
147.964
146.201
158.183
183.407
122.201
146.201
146.201
146.201
146.201
146.201
146.276
542.222
146.202
149.878
146.201
146.201
146.201
146.201
146.284
146.201
152.309
146.201
146.201
147.895
146.201
146.201
146.201
146.201
154.838
146.201
146.201
146.201
146.201
146.201
146.201
146.222
277.892
146.491
146.201
146.201
146.201
146.201
146.201
146.201
146.201
146.201
146.201
146.201
146.201
146.201
146.201
146.206
146.262
146.254
146.201
146.201
146.201
146.437
146.201
146.201
146.201
146.201
147.904
164.972
1798.78
146.201
146.201
146.609
146.201
146.271
146.263
349.726
616.829
146.201
146.201
146.23
146.201
146.84
146.201
157.695
146.202
146.201
147.884
146.201
146.201
146.201
146.201
146.201
146.228
146.201
146.481
143.623
146.201
146.201
146.201
146.212
146.268
146.201
146.215
150.268
146.201
146.201
146.215
146.201
146.235
137.95
146.201
146.219
658.275
146.201
219.914
146.201
146.372
146.293
146.201
5389.73
150.365
147.123
146.201
146.201
146.202
155.765
147.925
146.201
148.675
146.201
146.201
146.201
146.201
146.201
146.201
143.997
164.11
146.201
146.201
146.201
146.201
146.201
146.201
146.201
146.201
146.201
237.302
184.421
146.267
146.201
146.201
3745.85
146.201
146.201
146.206
160.624
146.201
146.201
146.209
174.67
146.201
146.201
146.201
998.685
146.202
146.213
146.201
1716.22
160.849
147.033
146.201
146.201
146.689
146.201
146.79
146.729
182.844
146.225
146.201
146.231
146.205
2681.97
146.204
1315.86
146.711
146.223
146.813
146.201
146.554
152.128
321.72
146.201
146.259
146.201
152.188
146.7
146.629
146.201
146.243
146.22
146.242
146.201
146.201
153.753
146.201
146.731
584.445
146.201
146.201
146.201
320.508
146.235
1576.63
146.201
157.306
196.296
150.607
146.201
146.201
149.338
146.201
384.316
149.126
146.201
275.478
1435.86
152.964
146.201
146.201
146.217
146.308
146.22
146.201
146.201
146.201
146.201
146.201
146.208
148.637
164.151
169.08
146.22
146.201
146.205
146.202
146.201
146.201
146.202
146.201
146.201
146.201
146.21
146.201
146.201
146.369
146.201
146.391
1909.71
146.261
146.201
146.201
146.411
146.201
146.201
146.234
146.201
146.201
146.205
146.231
146.235
146.201
146.483
553.633
146.235
146.201
146.201
146.201
146.201
146.203
146.201
146.201
146.201
146.221
146.201
146.201
146.201
146.25
146.201
146.285
146.201
146.203
146.201
146.201
152.021
146.201
146.201
146.201
146.201
146.315
137.843
146.201
146.201
1260.17
146.201
146.207
186.266
146.201
146.211
146.201
146.201
146.201
146.201
146.409
147.314
148.667
148.503
202.124
146.973
147.047
146.237
146.315
146.201
146.235
146.797
146.299
146.201
146.235
146.201
146.201
146.201
146.682
146.201
146.221
153.43
146.201
156.866
146.201
146.201
146.201
146.201
146.201
146.233
146.201
146.201
146.486
146.319
226.591
146.201
146.201
146.201
146.201
153.245
8754.99
150.724
146.202
146.201
146.201
175.111
146.298
147.434
146.201
146.201
152.912
148.179
146.201
146.2
9708.45
146.289
234.899
146.608
146.201
146.345
149.484
255.21
146.202
146.201
146.201
146.201
146.201
146.256
821.973
146.306
146.202
146.201
148.015
146.201
146.393
146.201
165.011
146.201
146.201
146.201
146.259
146.235
146.201
146.201
205.495
146.288
146.201
146.201
164.875
146.201
146.206
146.201
146.827
146.201
146.231
146.201
170.444
146.201
146.212
146.201
1453.18
146.201
146.28
146.201
146.201
5480.18
161.057
146.201
146.201
146.364
1526.11
146.243
154.234
146.499
154.24
824.096
146.224
146.201
146.201
3279.59
146.269
146.236
146.202
146.235
146.201
146.277
146.201
146.233
146.205
146.248
146.234
146.238
146.238
146.286
1983.04
754.83
146.252
146.394
146.237
587.515
154.787
1030.52
436.763
146.201
146.205
146.201
146.201
147.492
146.251
146.248
1140.16
922.578
146.278
150.441
146.265
678.028
1127.63
146.201
146.338
146.224
146.202
1182.83
175.874
189.338
146.274
146.242
199.294
146.268
159.436
146.226
146.222
5318.66
146.201
146.201
146.24
146.209
146.588
34731.7
146.215
148.155
146.221
9345.57
146.318
146.201
146.201
146.201
146.256
146.201
146.283
146.653
146.201
146.201
146.533
151.487
1173.46
146.201
7369.89
146.201
146.36
146.259
146.201
146.266
146.414
146.219
149.495
146.23
146.202
146.243
152.83
146.342
145.956
146.201
146.228
146.218
146.233
146.236
146.202
146.201
162.299
146.201
146.201
150.19
146.201
146.232
5494.62
153.887
146.203
148.676
146.203
146.211
146.203
146.231
146.201
146.201
146.201
146.202
146.201
161.447
146.201
146.209
146.269
146.201
146.203
146.201
146.202
146.201
146.209
152.836
147.901
146.806
146.201
146.201
146.201
241.66
146.201
170.222
146.561
146.202
146.201
170.744
147.128
146.209
146.201
146.256
146.202
146.201
147.839
147.797
169.613
146.201
146.201
146.21
146.201
1818.98
146.201
146.201
8270.69
146.267
188.687
146.593
147.352
146.201
162.025
146.248
146.201
146.202
146.254
146.201
146.201
146.201
146.201
146.201
146.202
148.165
146.201
146.21
146.201
146.291
146.215
146.201
12057.1
146.224
15202.9
146.212
146.201
146.222
475.805
149.023
146.217
146.205
146.629
157.078
146.272
574.512
146.21
146.201
146.229
146.208
146.201
146.212
2462.93
146.201
146.201
146.202
247.76
146.201
146.232
146.214
146.201
146.201
98.5
146.201
316.296
146.201
97.9446
146.201
168.989
146.248
146.232
146.604
146.201
146.24
146.239
146.253
146.477
1936.97
146.221
146.214
146.201
146.238
146.263
146.229
146.201
146.201
146.261
1974.93
146.201
146.219
146.248
198.599
149.78
146.388
266.589
1886.05
146.354
146.287
146.381
294.866
146.201
148.059
3463.49
264.207
146.201
146.201
146.208
146.23
146.32
146.278
146.201
146.258
146.495
146.201
146.281
160.819
146.294
219.439
146.208
146.201
537.675
407.89
146.212
173.352
146.201
146.201
146.265
146.48
920.733
146.201
372.376
146.225
146.265
146.752
146.201
146.228
146.273
146.962
146.201
146.206
146.206
146.331
146.278
146.201
146.39
146.201
146.226
146.266
146.225
146.265
146.201
146.701
146.201
283.958
146.261
146.201
146.201
146.36
146.297
146.201
146.217
2824.23
146.275
182.911
146.202
146.265
145.982
146.67
146.201
146.215
148.15
146.277
146.216
146.258
146.204
146.438
7824.74
146.24
146.229
146.23
146.246
146.246
146.781
146.886
146.23
161.986
146.217
146.201
146.22
146.239
146.201
146.201
146.201
146.239
146.201
146.201
146.201
146.228
146.201
146.201
146.28
146.347
146.201
146.201
146.218
146.201
7772.19
146.201
146.201
146.23
146.201
146.238
1627.57
146.228
146.512
146.201
146.201
146.349
146.218
146.316
148.117
146.201
670.771
146.201
193.628
146.266
277.974
146.201
146.201
146.201
146.201
146.208
146.893
146.201
146.201
146.201
146.201
355.775
146.201
146.755
146.201
146.201
146.32
146.217
146.441
146.626
146.201
146.201
146.358
146.524
146.201
146.201
146.201
1135
146.204
157.811
146.201
146.218
146.214
146.201
206.325
146.369
146.238
153.264
2160.16
146.306
146.278
151.991
362.695
146.314
146.201
146.201
146.23
146.224
610.437
146.231
146.41
146.202
146.926
146.245
146.202
146.23
146.558
146.219
146.214
146.277
146.229
146.219
146.201
146.201
146.201
146.201
146.201
146.201
146.203
147.751
151.599
2379.08
146.207
146.201
146.201
146.22
146.362
146.201
146.206
146.201
146.227
146.201
146.22
24790.5
146.261
146.201
257.152
146.203
146.201
146.201
146.201
146.201
146.782
17950.6
146.249
146.201
146.201
146.201
146.202
146.202
146.201
146.202
146.201
146.201
146.201
146.201
146.201
146.201
146.201
146.233
146.201
146.201
146.202
146.201
146.545
146.289
146.347
351.609
146.201
146.201
146.223
146.201
146.202
146.201
146.374
146.201
146.201
146.252
146.204
146.269
146.252
146.285
146.201
146.201
150.021
148.437
146.201
146.201
146.201
146.478
146.206
146.201
211.554
146.201
146.201
146.201
146.201
146.201
146.221
146.206
146.661
366.401
148.004
146.326
146.389
146.717
188.29
146.208
146.201
146.231
1104.63
146.201
146.229
146.233
146.225
146.222
5138.97
163.796
146.201
146.249
146.201
146.252
146.248
146.239
146.201
146.201
146.202
146.201
146.202
146.201
198.44
2912.4
146.23
146.201
146.201
146.223
146.205
146.201
146.206
146.201
146.214
23010.3
146.246
555.57
146.201
146.239
146.201
146.234
167.436
146.506
146.234
146.246
146.21
289.482
146.245
146.249
147.508
146.201
146.201
146.235
146.201
146.202
3347.01
146.201
146.201
146.201
148.284
146.201
146.201
160.869
146.202
145.193
1312.47
146.201
146.28
146.202
146.236
146.201
146.202
146.201
146.354
146.201
144.799
146.284
146.201
1565.26
146.201
146.27
146.201
146.365
149.108
146.201
146.221
146.335
149.653
146.241
146.561
146.201
146.259
146.201
620.282
661.549
610.727
238.206
646.937
146.201
664.078
641.806
146.236
146.227
146.201
146.322
146.201
146.201
146.201
146.276
146.201
146.203
146.204
146.252
146.201
146.201
148.249
146.202
148.558
148.204
146.201
146.305
147.213
148.753
192.063
146.447
146.552
146.279
146.399
146.26
146.201
146.374
146.538
148.933
146.202
146.202
146.292
146.202
144.806
146.202
146.257
146.202
146.226
146.274
146.205
146.201
146.264
146.201
146.205
146.201
146.201
146.206
146.298
146.252
146.705
142.946
146.203
379.229
282.693
146.201
146.38
146.201
146.558
146.308
146.204
146.201
580.646
147.788
146.226
146.206
3798.88
146.435
146.201
146.201
146.201
146.205
146.206
146.689
333.857
146.201
146.201
146.209
146.221
146.266
146.203
146.203
1571.51
2532.41
146.217
146.201
141.383
149.374
146.296
146.244
146.202
146.357
146.201
146.414
146.202
146.222
1776.94
146.253
146.219
146.501
197.486
146.303
146.253
7018.66
146.287
146.201
146.207
146.249
146.238
146.201
146.205
146.241
146.377
248.719
146.204
146.205
152.658
146.204
146.202
478.029
146.205
146.201
146.206
146.202
4562.78
146.201
146.201
147.087
146.207
1177.84
146.206
4478.48
146.205
146.235
1382.09
146.203
146.229
823.138
146.227
146.696
146.283
146.201
146.21
146.201
523.654
146.236
146.201
146.406
146.201
146.523
205.532
137.756
146.212
1385.1
146.201
22314.2
146.201
146.201
146.3
146.201
146.201
146.201
146.201
146.206
171.643
21110.3
146.383
297.908
146.206
146.201
146.201
146.204
146.214
146.201
195.362
146.27
146.202
146.201
146.201
146.244
146.201
146.201
146.546
146.201
146.201
146.201
146.22
2142.55
146.488
176.043
16545.4
146.201
146.203
21602.8
146.201
146.201
146.202
209.344
5179.83
313.637
3153.3
146.201
146.201
22438.4
146.201
146.205
146.201
146.201
146.2
146.201
146.203
146.201
146.203
9112.82
146.276
146.204
146.408
146.261
146.201
146.283
146.201
146.201
146.201
146.201
146.201
146.201
146.62
146.201
146.234
146.254
146.229
181.006
146.203
146.201
1308.98
18381.2
146.201
146.428
146.201
146.201
146.314
1660.33
321.305
147.612
146.201
1966.32
2692.34
321.007
146.201
149.987
146.322
146.31
193.482
146.248
386.529
146.28
148.408
146.272
146.599
146.281
146.24
230.654
146.248
146.313
1142.82
1392.74
432.637
146.201
146.201
2994.58
146.201
146.254
4976.58
146.201
2701.88
146.247
146.201
146.201
146.201
146.201
146.247
146.798
4238.55
149.023
175.233
146.201
146.536
146.252
146.56
146.201
146.572
146.201
146.201
149.303
146.201
146.324
146.201
146.201
146.258
147.036
146.248
146.228
652.946
146.259
146.21
172.488
146.201
146.201
147.089
146.201
146.201
146.201
153.655
147.722
146.323
149.473
2028.96
146.22
146.201
146.837
145.869
152.031
492.288
146.262
146.207
146.203
142.067
146.506
270.151
146.201
146.201
146.201
146.201
2749.21
146.201
146.681
146.202
1328.79
144.516
146.201
146.91
1925.74
145.331
987.815
156.312
146.201
13539.9
2128.87
146.201
146.527
152.903
146.241
146.501
146.201
146.568
21868.2
530.89
146.446
2040.68
146.535
146.647
146.201
170.849
36718.1
146.269
343.824
146.206
146.208
146.295
146.202
2234.17
146.256
146.241
154.388
159.448
184.853
221.314
146.294
146.53
146.205
146.201
146.201
207.456
146.201
1138.85
154.164
146.237
7451.76
146.204
146.201
146.249
142.254
6581.79
146.233
146.248
148.166
17451.5
15631
146.507
146.202
1930.42
146.389
146.201
146.201
1436.69
146.226
149.86
146.247
146.377
233.745
619.816
146.208
150.491
146.206
146.205
146.201
146.202
146.201
146.202
146.228
162.335
1059.49
196.937
146.235
11022.8
146.489
2145.34
146.204
146.275
5089.91
44914
147.098
146.201
146.201
146.201
146.201
146.24
146.216
146.228
146.437
249.649
169.016
146.269
2408.03
168.471
662.802
147.97
146.201
18017.8
386.556
146.201
146.201
9217.98
1959.79
146.201
146.202
146.201
146.623
146.201
14708.6
21087.4
5644.04
12587.3
146.201
10715.3
146.329
146.201
146.291
146.201
146.219
150.274
146.217
146.218
15924.9
146.634
146.201
146.221
146.201
146.201
146.203
147.715
146.202
148.131
134.726
150.277
1246.92
146.498
146.935
147.593
146.201
146.202
146.201
1294.1
148.944
146.201
146.201
1833.76
146.202
146.201
146.202
146.202
157.967
193.324
1877.81
691.974
4378.62
146.201
167.817
146.202
150.181
148.137
146.201
147.273
146.201
146.201
414.766
146.201
146.493
148.412
147.218
203.447
184.142
146.201
189.002
146.448
988.157
146.599
146.22
148.531
170.4
213.551
203.062
146.202
146.203
178.029
148.177
147.357
146.954
146.543
150.008
146.203
146.201
10839
306.42
161.322
1137.3
160.416
147.175
5496.57
146.201
717.613
146.203
388.324
146.201
553.248
2475.64
146.201
6440
146.201
147.006
148.056
146.201
146.201
147.742
146.201
146.201
146.201
146.201
146.581
146.207
192.795
1351.24
146.201
146.201
1769.44
146.597
146.201
146.408
146.201
146.201
146.203
146.201
146.36
146.36
5315.73
146.201
146.205
763.377
146.201
151.641
2662.05
146.201
146.201
146.529
146.923
1217.81
146.201
146.201
146.201
146.201
146.201
298.942
2235.11
146.401
146.219
3069.56
146.832
146.239
146.201
146.667
146.203
261.428
1292.11
146.202
146.201
146.202
146.265
2269.64
146.201
147.151
146.212
146.201
146.224
146.219
146.201
146.419
146.201
747.565
146.201
146.201
146.207
146.212
146.201
161.154
148.415
146.201
146.201
1661.68
146.201
191.72
146.203
146.201
1773.62
11596.8
237.276
148.502
146.201
146.211
7095.02
146.201
515.392
146.201
1479.61
551.848
146.201
9239.3
218.603
2286.39
1880.08
1986.39
146.2
146.201
146.204
146.249
146.211
146.222
2707.98
146.201
146.255
146.201
146.239
949.649
1596.97
146.201
146.272
236.345
146.201
260.364
146.201
146.201
146.201
375.261
1080.59
236.032
146.201
146.208
146.201
3498.74
149.554
5264.06
146.201
146.201
926.242
1471.77
146.201
146.201
2054.83
146.201
146.201
148.535
493.181
146.264
146.498
146.201
1679.07
2041.68
158.752
14367.2
146.483
41202.5
176.286
146.325
2300.77
486.761
27864.1
48515.7
35196
44062.4
146.201
24908.4
3704.16
19178.4
146.201
7819.36
73486.5
146.201
155.691
32632.7
146.201
5387.44
146.201
7941.21
1209.72
160.56
1022.17
150.459
146.201
146.201
146.248
146.201
266.305
146.201
153.915
241.363
146.211
146.208
146.21
146.201
146.201
146.201
146.414
146.204
309.722
146.201
148.349
146.212
146.503
146.201
146.281
240.753
146.212
146.213
146.201
146.202
146.219
9462.76
9781.22
147.072
146.463
147.349
146.64
146.201
146.264
146.234
146.623
146.201
146.284
146.257
11346.2
146.436
147.157
147.45
146.319
146.222
146.682
147.111
146.213
146.242
7919.55
146.3
16422.4
198.053
146.216
146.321
19457.5
146.201
146.343
146.584
146.412
146.631
146.589
225.255
146.377
149.564
147.848
146.201
146.219
790.619
146.201
146.762
147.531
146.371
146.201
146.201
146.379
146.26
146.781
146.451
146.201
146.201
392.057
128.706
146.226
167.103
299.236
146.202
146.284
146.221
146.238
100.428
148.058
146.512
146.261
146.201
329.52
146.241
146.413
146.202
146.202
146.201
146.444
146.201
146.201
146.684
201.744
146.97
146.458
146.336
146.786
146.299
175.634
146.201
146.553
147.319
147.158
146.201
146.245
146.268
146.267
147.878
146.491
146.201
146.295
146.447
146.201
146.201
146.201
146.205
146.201
146.225
146.287
579.996
146.293
163.471
146.23
146.229
146.261
148.22
218.024
146.242
146.204
146.634
146.27
253.199
146.201
146.255
146.216
146.281
149.764
146.243
153.641
147.096
146.243
191.43
146.201
146.242
146.201
146.227
146.243
146.245
185.018
146.23
149.946
146.285
153.681
146.231
146.203
146.201
146.289
146.255
146.213
146.201
146.202
146.238
146.657
146.308
146.233
146.201
146.201
147.433
146.226
404.381
146.201
146.215
146.202
146.201
146.27
146.201
146.315
146.202
146.202
146.201
146.201
146.237
146.201
146.201
146.201
146.233
146.202
146.201
153.394
146.202
146.232
12522
146.201
147.137
146.212
146.201
146.201
155.642
146.201
146.201
146.262
146.248
146.258
146.201
146.203
146.201
146.266
146.265
146.201
146.201
146.249
146.201
146.201
146.262
146.201
146.237
146.248
146.203
146.201
146.216
2465.11
261.171
146.201
146.201
146.201
146.201
146.612
146.514
146.201
146.201
146.206
147.206
146.201
146.201
146.201
1685.97
146.75
146.263
1621.71
146.235
146.203
148.012
146.252
153.762
146.587
213.679
146.626
146.201
153.761
1662.33
146.201
146.201
2024.23
146.647
1957.35
146.201
146.272
146.201
147.05
2799.48
146.201
2633.79
146.218
146.201
1928.36
146.212
146.201
220.663
2550.03
146.202
146.261
1674.14
146.205
146.231
2641.09
146.369
146.205
153.444
146.428
156.571
146.369
809.579
146.201
146.201
146.36
147.216
146.372
146.419
146.201
146.201
146.753
147.46
153.067
147.328
146.514
146.201
146.213
146.833
147.967
3341.13
146.235
146.232
150.433
3100.82
146.201
146.486
2168.88
146.201
146.353
146.3
146.355
146.201
150.342
146.201
146.201
146.213
146.201
172.904
146.22
146.221
2967.86
191.736
146.201
146.217
146.223
146.201
146.201
146.455
146.238
146.203
146.239
146.201
146.333
4148.25
146.226
146.306
684.3
284.879
174.008
146.221
146.49
146.261
146.305
146.228
238.286
146.256
236.071
274.758
146.265
146.237
146.242
146.271
212.905
146.201
146.57
146.261
146.255
146.357
146.273
2096.99
146.285
146.207
403.702
147.452
146.437
156.202
146.22
435.805
146.201
30131.2
278.356
1220.48
146.201
146.201
146.201
287.231
146.257
24595.1
146.202
290.289
351.771
146.281
146.201
40931.7
308.198
147.775
2968.51
157.42
146.201
146.239
146.202
146.267
146.29
146.202
146.201
157.259
146.205
146.201
146.201
3329.14
146.201
146.223
146.201
146.31
146.343
146.417
162.086
146.201
146.202
146.266
146.202
146.201
146.201
146.202
146.201
146.275
146.211
366.442
146.201
146.554
146.275
5581.55
146.201
146.491
146.746
146.201
146.201
7013.44
146.201
146.215
146.201
146.201
146.201
146.245
146.201
146.201
146.202
146.201
146.261
1715.64
146.201
146.216
146.201
146.26
146.336
146.201
146.201
5918.18
146.202
146.223
146.201
146.468
146.226
146.201
146.201
959.719
12101.6
146.202
146.331
146.201
146.286
146.221
146.533
146.201
203.653
146.231
176.793
146.201
148.205
146.216
170.293
1131.03
154.623
194.719
146.229
1535.38
146.201
146.201
146.201
146.201
146.201
146.201
146.201
150.406
146.213
146.202
146.281
584.875
267.55
146.201
146.375
156.254
147.904
146.376
61321.3
146.243
152.72
694.548
146.311
186.113
148.208
149.225
146.374
146.354
146.349
161.385
146.201
146.299
272.032
146.296
147.107
146.216
146.206
146.858
318.812
146.305
147.12
146.207
197.957
636.096
146.201
146.232
146.278
164.046
146.351
3709.68
146.49
146.523
146.21
146.527
146.201
146.201
1845.95
146.201
146.201
146.201
146.201
146.205
146.216
146.201
146.25
146.22
146.668
146.222
146.201
3764.58
155.123
146.201
146.779
146.201
146.201
146.201
4790.69
146.647
479.073
146.201
146.201
146.201
146.258
146.229
146.204
18597.3
146.201
146.201
146.208
2535.88
8474.9
146.225
146.201
31621.2
31275.9
148.518
31611.8
312.897
156.936
3803.84
257.219
146.201
146.201
146.201
146.202
146.201
146.202
3038.01
9434.95
692.295
147.381
243.07
146.202
146.247
146.258
148.772
146.221
388.268
146.231
4370.2
146.87
146.201
159.915
843.317
146.202
146.201
1365.46
146.202
146.201
318.182
1444.55
146.201
146.201
146.754
146.235
146.203
146.201
146.201
164.689
1767.19
146.201
146.202
146.229
667.788
155.538
146.201
146.201
146.201
222.742
146.201
152.218
146.532
146.201
184.604
146.201
146.201
6066.63
146.229
146.201
146.201
146.201
146.201
146.288
146.226
146.201
186.803
146.829
146.201
146.582
146.201
146.201
146.201
146.202
146.202
146.201
146.212
146.201
146.201
147.084
146.201
36160.7
146.214
146.201
146.201
146.201
146.201
146.215
175.592
42774.7
1586.44
42407.7
146.28
171.921
146.222
37930.8
42995.2
146.231
309.339
146.201
146.215
146.201
146.201
146.201
146.201
146.47
2303.43
146.201
2004.08
146.324
150.106
146.216
146.201
146.556
146.201
146.297
1423.55
223.513
146.492
146.201
150.908
158.363
146.202
146.244
4826.45
146.216
3525.53
146.201
146.201
169.245
3387.6
4064.83
4359.73
2239.63
275.22
230.932
1654.87
161.167
4176.06
146.201
189.863
146.201
146.201
148.994
218.233
148.119
147.282
190.6
163.56
146.202
213.045
146.366
146.201
146.201
146.201
148.664
179.862
146.368
146.201
153.091
3949.26
150.694
1660.2
147.555
146.29
213.607
146.201
146.253
256.377
146.239
146.201
183.647
146.649
146.201
146.202
170.628
146.202
146.201
27879
146.251
188.877
13671.9
149.49
179.973
148.853
155.968
146.236
150.303
146.407
181.639
146.388
146.201
167.292
146.223
153.21
148.482
146.245
146.671
146.228
186.523
1118.04
146.201
147.028
147.332
146.201
646.428
146.201
146.201
146.201
147.131
146.903
146.252
146.221
146.201
146.618
147.511
147.992
146.222
146.201
146.448
884.979
2243.8
146.201
153.193
6107.39
317.127
631.679
146.203
1054.8
146.201
146.201
146.201
146.201
146.205
151.845
146.202
727.946
146.203
152.371
146.201
146.201
146.201
146.201
146.201
146.924
247.143
146.201
146.201
1896.3
164.947
771.945
146.223
146.201
2626.54
146.204
146.201
146.201
364.34
146.463
146.201
146.236
146.663
146.232
146.201
146.685
146.201
146.201
146.201
146.201
146.201
146.229
146.211
147.091
146.201
156.947
146.201
642.66
146.201
146.206
147.295
146.283
146.23
146.228
146.219
148.432
146.315
146.414
146.201
146.201
146.201
146.201
881.344
146.201
146.201
146.201
146.24
146.201
284.045
146.201
146.201
157.581
146.268
146.201
146.203
146.201
146.203
146.201
146.201
146.201
249.931
146.201
146.201
146.201
146.201
146.201
146.201
10922.1
146.216
146.212
146.202
146.201
239.488
146.201
169.819
148.074
146.272
146.299
146.201
146.201
146.201
147.953
250.614
146.201
146.201
305.798
146.201
146.201
146.201
146.201
146.254
146.301
178.338
146.201
146.201
146.201
293.458
216.198
223.718
196.42
3612.78
248.628
147.382
146.201
171.539
267.859
146.201
146.255
146.201
148.774
148.591
146.201
146.201
146.219
152.395
239.671
223.435
296.847
146.331
1513.73
146.476
146.361
146.237
146.673
146.201
146.325
147.545
146.433
146.22
146.356
153.252
171.098
190.944
427.463
780.293
216.671
146.378
146.203
153.349
146.26
146.364
146.295
146.309
146.284
29325.2
199.891
146.232
179.824
146.202
561.765
191.35
574.175
228.401
146.321
147.501
146.201
146.3
146.201
276.539
464.49
774.251
146.201
624.57
146.201
146.248
146.201
146.236
146.201
9091.37
170.857
146.201
146.201
146.244
222.609
146.201
9235.99
146.352
146.201
3466.18
146.201
162.343
146.345
173.816
147.626
146.201
147.511
146.201
232.646
147.103
1751.92
146.201
146.208
147.432
147.292
150.501
146.201
146.984
146.201
5382.8
146.387
2276.68
12696.5
617.287
146.201
724.976
829.146
146.975
146.576
3410.62
146.49
146.201
219.925
141.567
146.401
146.485
146.201
235.52
146.201
146.201
146.201
146.25
35744.3
146.247
67046.7
155.172
146.288
146.261
146.202
146.218
146.251
146.372
146.201
146.202
170.792
386.876
1913.26
158.057
2127
148.43
1921.07
146.178
146.201
146.201
240.657
2464.26
2263.55
204.081
149.594
152.884
2127.49
11149
2119.19
146.201
1349.14
8417.63
2062.47
146.201
224.826
173.767
273.616
1475.28
345.319
179.708
1358.88
146.45
1491.86
146.251
162.614
146.355
5926.39
4142
146.203
147.002
149.068
284.806
236.835
146.304
146.201
146.201
4478.89
146.208
146.215
170.293
146.201
146.311
146.201
89186.5
146.945
146.201
146.467
3763.51
229.982
1779.63
1834.89
4591.43
242.501
146.201
146.201
809.597
146.201
146.201
146.215
146.204
172.469
3910.41
148.17
146.201
2040.15
247.668
146.201
146.539
5069.01
146.273
171.256
167.965
146.201
146.201
146.206
148.215
144.986
971.46
146.203
179.475
146.201
1091.16
9892.92
153.885
322.502
146.201
146.206
146.201
146.411
146.201
9318.89
147.305
146.201
1793.03
146.201
146.201
384.222
146.201
243.994
146.205
156.244
163.297
146.201
146.201
146.242
33905.1
146.201
146.625
149.392
146.201
147.33
146.21
146.201
146.201
146.201
146.201
146.201
148.833
146.201
171.492
146.334
146.201
177.272
11236.8
159.129
146.713
146.201
146.301
166.902
146.201
146.633
1204.3
1375.2
146.473
2315.27
21133.5
146.267
146.307
195.386
563.612
931.34
146.27
193.736
707.64
146.201
146.201
146.201
146.237
146.474
149.874
3069.43
146.201
146.207
146.209
303.452
1524.91
146.201
661.568
231.449
160.261
1049.9
1621.27
146.201
146.318
1854.98
163.208
146.201
146.201
146.226
146.201
146.262
146.201
383.109
260.447
11742.2
146.356
171.423
146.275
147.003
146.201
146.201
17368.1
146.201
146.201
146.201
25507.5
146.49
5106.68
146.893
146.28
146.473
150.575
214.775
147.465
146.353
147.498
146.389
331.085
149.076
148.725
156.926
146.501
219.318
146.796
3358.5
237.566
146.3
232.062
146.225
146.224
4194.82
152.048
146.515
146.99
149.567
146.339
146.201
147.924
146.432
13941
146.211
146.201
181.127
146.314
146.201
146.201
146.375
1668.53
146.336
147.358
146.214
146.391
146.319
146.217
146.201
146.201
9212.86
7025.08
25720.4
146.564
146.207
2100.57
2024.38
146.613
146.209
200.218
146.228
146.238
146.204
707.192
146.204
228.47
146.399
1172.98
146.201
146.202
146.201
146.205
551.071
827.796
146.247
1554.92
247.363
146.236
146.202
146.213
146.202
2270.92
146.29
146.201
146.201
146.238
156.543
165.2
146.659
146.202
146.206
146.338
154.198
167.971
146.218
146.202
146.201
146.353
146.202
146.201
2036.36
146.203
146.716
146.221
146.201
8117.8
146.237
371.478
164.548
176.996
146.201
150.234
146.205
146.201
146.201
168.666
162.089
146.35
1890.32
146.217
146.194
163.548
146.201
146.37
146.203
146.204
147.001
146.351
174.042
146.374
146.201
146.24
2523.88
1456.26
147.839
1885.09
146.512
194.167
501.065
146.484
9536.82
172.896
314.778
150.525
146.201
146.23
146.201
146.308
146.337
146.238
19532.1
146.207
146.204
146.732
174.525
149.247
147.047
146.288
146.938
146.218
146.268
146.242
146.258
191.877
146.204
146.237
146.25
146.238
197.055
155.94
146.445
146.357
146.215
146.272
146.63
150.953
146.257
168.136
27610.1
146.253
374.648
170.992
146.202
4406.22
146.204
417.615
146.23
1006.63
146.335
1057.82
1080.81
146.201
146.203
146.537
1490.95
5823.3
146.201
458.399
146.474
1607.77
146.201
146.26
146.201
146.186
146.507
146.208
146.572
146.221
146.204
149.433
146.201
146.564
12375.4
146.372
146.251
146.201
216.402
146.201
146.201
146.281
1808.31
146.28
146.201
146.254
2614.48
146.297
146.201
146.201
1304.51
146.357
651.826
146.252
146.821
146.239
146.201
165.641
146.201
146.201
152.903
147.082
146.201
146.201
146.203
153.157
154.019
146.202
146.203
146.435
146.201
146.204
146.201
146.225
146.201
146.201
146.201
146.201
230.561
182.479
154.796
146.201
146.201
146.201
146.201
189.136
146.201
146.215
151.42
146.201
146.208
146.201
155.582
146.202
146.201
146.282
146.201
146.228
146.245
146.267
146.257
146.257
622.949
146.201
146.214
146.242
146.286
146.201
146.216
146.201
146.202
146.205
146.201
146.839
147.6
149.9
1334.1
891.573
146.23
150.359
146.798
146.201
146.201
146.201
146.376
146.201
195.934
5559.01
146.201
8896.57
146.222
146.201
14473.2
16516.7
146.201
146.538
255.941
146.202
146.201
146.201
171.122
146.201
8974.12
146.504
7568.59
146.233
146.201
146.475
146.334
146.366
146.365
146.82
146.243
146.201
146.201
146.202
146.201
146.201
146.201
146.201
146.201
146.573
146.203
147.701
150.497
146.537
146.237
146.201
146.206
146.674
146.253
146.497
146.201
184.88
146.343
146.233
154.42
146.202
147.667
146.202
146.301
158.689
146.201
156.505
146.315
146.201
152.645
150.335
163.914
146.234
146.205
146.234
9890.54
146.209
157.02
146.201
146.223
146.21
146.865
146.201
146.232
146.213
146.22
147.63
147.03
146.21
146.543
202.552
147.888
146.201
146.44
146.607
151.17
176.979
146.46
146.201
146.205
156.477
146.502