/*--------------------------------*- C++ -*----------------------------------*\
| =========                 |                                                 |
| \\      /  F ield         | OpenFOAM: The Open Source CFD Toolbox           |
|  \\    /   O peration     | Version:  v2012                                 |
|   \\  /    A nd           | Website:  www.openfoam.com                      |
|    \\/     M anipulation  |                                                 |
\*---------------------------------------------------------------------------*/
FoamFile
{
    version     2.0;
    format      ascii;
    class       volScalarField;
    location    "3.5";
    object      ILambda_5_0;
}
// * * * * * * * * * * * * * * * * * * * * * * * * * * * * * * * * * * * * * //

dimensions      [1 0 -3 0 0 0 0];


internalField   nonuniform List<scalar> 
108993
(
146.201
146.205
146.201
146.201
146.201
146.201
146.208
146.201
146.201
146.267
146.198
146.199
146.201
146.211
146.201
146.209
146.448
146.202
146.201
146.203
146.201
146.201
146.201
146.201
146.201
146.201
146.201
146.202
146.206
146.201
146.201
146.158
146.201
146.203
146.201
146.201
146.201
146.201
1270.93
1950.27
146.202
146.201
146.157
146.201
146.034
5930.02
146.201
146.202
146.201
146.204
146.201
146.267
146.203
146.201
146.203
146.201
146.201
146.201
146.201
146.201
146.201
146.201
146.201
146.201
146.201
146.201
146.201
146.201
146.202
248.223
146.201
146.201
146.201
146.201
146.201
146.201
146.201
146.247
146.201
146.201
146.201
146.22
146.201
146.201
146.202
146.15
146.201
146.196
146.201
146.201
146.201
146.201
146.201
146.201
146.201
146.728
146.201
146.201
146.201
146.201
146.201
146.201
146.201
146.197
146.201
146.201
146.201
146.201
146.201
2744.39
146.267
146.201
146.239
146.24
146.201
146.82
146.201
146.201
245.408
146.201
146.24
146.201
146.42
146.201
146.201
172.833
146.202
146.201
146.201
146.201
146.062
146.201
146.201
146.945
146.201
146.201
146.201
146.201
146.201
146.165
146.201
146.201
171.084
146.201
146.201
146.201
146.201
2532.76
146.201
147.258
147.373
146.201
146.203
148.035
146.201
146.204
146.201
146.201
146.201
164.761
147.788
146.201
146.201
146.201
146.176
146.232
146.201
146.201
146.201
146.201
146.201
146.201
146.264
146.201
146.202
146.201
146.207
146.201
146.201
146.201
146.425
146.201
146.201
146.201
146.175
146.201
146.201
146.203
146.203
146.201
146.201
146.201
146.201
146.207
146.201
146.201
146.202
146.201
146.201
146.201
146.201
146.206
146.201
146.201
146.203
146.576
146.201
360.574
146.201
147.787
146.228
146.201
146.207
146.534
15161.4
146.201
146.201
146.201
146.201
146.201
146.201
147.166
146.202
146.205
146.201
146.201
146.201
146.201
146.612
146.201
185.856
146.201
146.201
146.201
146.201
146.201
146.201
146.201
147.711
146.201
146.201
146.201
146.201
146.201
146.201
147.213
146.514
146.431
146.201
146.201
146.201
146.201
146.201
146.201
146.201
146.201
146.201
146.201
146.201
146.201
146.201
146.201
426.868
163.162
146.201
146.201
146.201
146.202
146.201
146.201
146.201
146.201
146.34
419.051
2302.67
146.201
146.201
146.453
146.201
146.201
146.201
2216.96
2289.17
146.201
146.201
189.326
146.201
146.201
146.199
319.51
146.258
146.201
146.201
146.201
146.201
146.201
146.201
146.201
162.276
146.201
146.531
146.709
146.201
146.201
146.201
146.202
146.201
146.201
146.202
146.815
146.201
146.201
190.442
146.201
146.202
146.568
146.201
230.014
1834.17
146.201
146.204
146.201
146.202
146.202
146.201
293.462
193.117
147.088
146.201
146.201
146.201
146.745
148.544
146.201
323.616
146.201
146.201
146.201
146.201
146.201
146.201
146.373
146.204
146.201
146.201
146.201
146.201
146.201
146.201
146.201
146.201
146.201
1396.26
146.415
146.201
146.201
146.201
560.523
146.2
146.201
146.755
146.204
146.201
146.201
146.201
146.204
146.201
146.201
146.201
1475.57
146.201
163.427
146.201
156.293
146.205
153.152
146.198
146.201
147.305
146.201
147.982
147.41
146.203
162.67
146.201
146.205
146.991
781.008
146.201
992.597
148.387
146.207
148.834
146.303
146.345
146.202
168.643
146.201
168.12
146.201
146.202
146.408
146.763
146.201
146.201
146.209
146.205
146.201
146.201
216.067
146.219
146.202
573.202
146.201
146.184
146.201
161.954
223.968
146.432
146.201
224.605
146.206
149.64
146.201
146.201
149
146.201
146.533
152.598
146.201
161.742
4578.66
158.541
146.201
146.201
146.359
146.201
146.201
146.201
146.201
146.202
146.201
146.201
146.201
269.095
146.204
146.204
146.266
146.201
146.201
145.898
146.201
146.201
146.207
146.201
146.201
146.202
146.201
146.201
146.201
146.359
146.201
146.378
147.07
187.378
146.201
146.201
146.377
146.201
146.201
148.869
146.201
146.201
146.204
146.201
154.043
146.201
146.215
146.574
576.121
146.201
146.201
146.201
146.201
146.201
146.201
146.201
146.201
146.263
146.201
146.203
146.201
151.673
146.201
184.428
146.201
146.201
146.201
146.201
146.203
146.201
146.201
146.201
146.201
146.112
146.552
146.201
146.201
577.661
146.201
165.274
146.204
146.201
158.631
146.201
146.201
146.201
146.201
146.204
146.201
146.202
146.202
146.204
146.201
146.202
367.455
146.207
146.201
336.715
146.201
146.208
146.201
348.116
146.257
146.201
146.201
146.214
146.193
146.285
146.326
146.201
159.095
146.201
146.201
146.201
146.201
146.201
318.316
146.201
146.201
146.512
146.208
3770.62
146.201
146.202
146.201
146.201
146.205
147.991
146.203
146.204
146.201
146.201
146.202
187.221
148.34
146.201
146.201
146.203
146.202
146.201
146.202
5489.25
267.025
147.026
146.204
146.201
161.115
160.787
146.21
146.64
146.201
146.201
146.201
146.201
146.118
5763.7
266.139
146.178
146.201
146.203
146.201
146.205
146.201
407.117
146.201
146.201
146.201
146.202
178.575
146.201
146.197
2615.81
386.485
146.204
146.201
726.289
146.201
193.514
146.201
147.794
146.201
188.384
146.201
146.202
146.201
153.097
146.201
146.94
146.201
146.274
146.201
146.201
714.995
146.21
146.201
146.201
146.319
2184.6
173.395
147.128
146.201
146.377
148.79
150.179
146.201
146.201
479.609
216.758
146.275
146.21
146.275
146.201
146.204
146.201
150.571
146.875
146.246
147.102
178.71
181.474
173.022
146.959
152.706
184.455
146.205
383.698
144.321
194.66
159.42
149.6
146.201
162.031
146.201
146.201
146.203
146.206
194.101
146.533
146.615
370.24
146.202
146.252
174.342
150.198
146.201
146.203
154.493
146.201
2120.57
146.209
211.61
170.298
173.394
601.245
283.018
165.124
148.806
153.29
438.786
146.201
146.201
146.277
146.224
146.202
1030.24
146.352
199.753
147.244
906.272
146.207
146.201
146.201
146.201
305.614
146.201
146.103
146.201
146.201
146.201
146.204
149.234
6303.2
146.201
816.69
146.201
146.262
208.557
146.201
146.271
146.204
147.426
146.211
149.059
146.208
170.262
146.204
146.26
146.354
146.201
146.271
147.409
146.295
151.187
145.989
146.201
146.211
146.201
146.201
146.204
146.197
158.833
6378.05
353.28
148.454
146.203
149.17
170.332
149.92
146.75
146.201
146.201
146.201
146.503
146.201
146.204
146.201
146.199
307.452
146.201
146.214
146.201
146.506
146.18
146.216
146.202
146.204
146.334
146.201
146.201
146.185
146.217
146.201
146.39
146.455
146.254
146.162
256.26
147.181
146.283
146.201
147.592
146.154
146.126
146.202
146.203
146.204
146.201
146.201
146.215
146.201
3629.25
146.201
146.201
7225.6
257.601
158.841
146.202
147.546
146.201
146.204
172.333
146.201
146.19
203.567
146.201
146.201
146.224
146.201
146.201
146.201
146.202
146.201
146.22
146.201
194.185
146.201
146.192
221.494
146.201
161.141
146.872
146.227
178.369
705.252
146.204
146.202
146.221
146.213
146.209
146.208
250.632
146.217
146.201
146.1
146.202
146.201
146.234
2726.46
146.201
146.201
146.205
146.21
146.205
146.202
146.185
146.105
146.18
11044.7
146.199
11618
146.2
11156.6
146.196
146.204
146.211
477.041
146.214
146.155
146.221
146.224
151.364
146.203
2106.53
146.201
146.201
146.173
712.27
285.316
465.038
146.201
146.201
148.494
2009.74
146.201
247.564
146.297
146.07
146.201
146.217
183.286
2118.84
146.204
146.279
146.202
148.43
146.201
148.472
8232.41
356.306
146.201
146.201
153.478
271.927
146.206
146.201
146.201
151.948
146.436
146.201
165.815
146.204
146.202
148.417
146.201
146.201
149.395
400.886
146.201
146.208
146.201
146.205
509.046
146.225
149.566
146.201
149.172
146.287
497.669
146.207
146.061
302.874
146.209
146.206
146.201
161.642
146.201
146.236
146.201
146.201
146.312
146.201
146.288
146.141
300.053
389.086
146.201
147.495
146.201
449.079
146.201
146.201
146.201
146.207
146.239
146.201
146.24
149.734
146.249
146.448
146.201
393.478
146.355
146.658
146.203
146.237
184.004
415.492
146.228
410.458
146.203
146.241
5687.74
146.249
265.462
369.313
147.055
277.054
146.204
146.204
370.585
146.768
146.236
146.201
146.204
453.828
146.201
146.201
146.201
484.715
146.201
146.201
146.201
146.204
146.2
146.201
146.203
146.294
146.201
146.188
146.439
146.201
4383.32
146.201
146.201
146.206
146.201
146.204
502.222
232.225
146.201
146.2
146.201
146.242
159.515
146.227
146.203
146.201
146.413
146.183
146.21
233.357
146.254
146.201
146.201
146.201
146.201
147.499
146.204
145.993
146.201
146.201
146.201
146.464
146.201
146.204
146.201
146.201
146.204
146.273
146.203
146.202
146.201
146.201
146.203
146.206
146.201
146.201
146.201
493.694
146.356
146.204
146.201
146.258
146.217
146.201
2070.32
146.25
189.617
146.202
1412.96
406.473
394.084
146.204
1305.69
146.201
146.201
146.201
146.253
146.689
4493.16
269.27
146.202
147.393
146.201
149.743
146.201
146.196
146.251
146.2
146.278
147.444
146.291
146.27
146.201
146.201
146.201
146.201
146.201
146.201
146.203
154.978
146.202
2311.91
146.215
146.201
146.201
146.269
146.579
146.201
146.213
146.201
226.791
146.201
257.768
148.496
146.684
146.201
146.396
146.201
146.201
146.201
146.201
146.201
146.201
13072.1
146.286
146.201
146.201
146.201
146.861
147.462
146.201
146.201
146.201
146.201
146.201
146.201
146.201
146.201
146.201
146.201
146.201
146.201
146.202
146.201
241.285
146.236
146.24
1366.6
146.201
146.201
146.635
146.201
146.204
146.201
146.202
146.201
146.2
146.303
147.026
146.202
146.202
146.202
146.201
146.206
189.367
193.405
146.201
146.201
146.201
146.202
146.205
146.201
146.534
146.201
146.201
146.201
146.201
146.201
146.21
146.218
146.208
146.485
146.203
146.201
146.202
146.88
146.204
146.209
146.201
146.202
147.029
146.201
146.251
146.206
146.208
146.207
511.134
146.205
146.201
174.9
146.201
210.198
146.798
146.205
146.201
146.201
146.174
146.201
146.329
146.201
146.689
1060.19
146.364
146.201
146.201
146.461
146.202
146.201
146.202
146.201
146.201
828.614
149.051
146.488
146.201
146.241
146.201
273.315
146.399
146.201
146.201
146.878
148.738
146.551
179.222
146.216
146.361
146.201
146.201
146.642
146.201
146.201
4579.34
146.201
146.201
146.201
157.023
146.201
146.201
146.204
146.201
146.36
178.973
146.201
146.203
146.202
146.228
146.201
146.206
146.201
146.204
146.201
146.396
161.935
146.201
152.517
146.201
146.201
146.201
146.202
148.41
146.127
146.231
146.26
163.203
161.859
146.201
146.201
147.588
146.201
146.393
146.405
146.393
146.42
146.394
146.201
146.407
146.404
146.205
146.208
146.201
146.264
146.201
146.201
146.201
146.206
146.201
146.201
146.201
145.916
146.201
146.201
146.201
146.201
146.202
146.201
146.201
146.208
162.138
146.201
146.493
146.204
146.201
146.201
146.204
216.106
146.198
146.201
146.215
146.202
146.201
146.201
146.201
146.201
158.596
146.201
146.259
146.201
287.085
146.287
146.21
146.201
146.208
146.201
146.209
146.201
146.201
146.654
146.208
325.875
146.204
146.715
146.205
146.507
190.845
146.201
146.359
146.201
146.208
146.208
146.276
146.104
184.523
149.366
146.294
146.205
468.512
146.333
146.201
146.201
146.201
146.209
146.215
146.201
147.46
146.201
146.201
146.205
146.33
146.208
146.201
146.201
2532.2
3597.1
146.389
146.201
146.41
146.202
146.201
146.313
146.201
146.206
146.201
146.201
146.199
146.337
882.695
209.039
146.292
146.372
146.212
146.201
157.547
149.717
146.201
146.201
146.217
146.216
157.162
146.201
146.213
146.276
146.321
156.054
146.206
146.212
365.33
146.207
146.201
451.23
146.208
146.201
146.207
146.17
6606.49
146.201
146.201
177.791
146.22
5004.66
146.207
1350.48
146.208
245.844
155.672
146.213
238.813
3071.42
146.388
146.204
146.274
146.201
146.201
146.201
1301.16
146.285
146.201
146.358
146.201
149.172
824.92
148.204
146.301
362.569
146.201
1061.31
146.201
146.201
146.201
146.201
146.201
146.201
146.201
146.201
146.377
148.664
146.303
146.211
146.201
146.201
146.201
146.201
146.201
146.201
255.144
172.033
146.201
146.201
146.201
146.288
146.202
146.201
146.245
146.201
146.201
146.201
146.207
3037.72
146.222
155.757
152.9
146.201
146.205
148.663
146.201
146.201
146.201
146.478
2759.76
148.076
948.241
146.201
146.201
9526.63
146.201
146.206
146.201
146.201
146.201
146.201
146.204
146.201
146.204
803.842
154.302
146.205
146.336
146.358
146.201
146.272
146.201
146.201
146.201
146.201
146.201
146.201
146.201
146.201
187.377
852.783
146.502
146.569
146.201
146.201
6072.39
148.404
146.201
146.41
146.201
146.201
146.226
147.318
3742.02
147.055
146.201
1192.22
5836.18
148.598
146.201
148.375
146.241
146.223
192.907
146.208
4815.75
146.229
146.204
146.246
146.508
146.257
146.232
146.236
146.218
146.204
148.194
3753.57
4754.75
146.201
146.201
9864.57
146.201
146.202
147.177
146.201
457.309
146.241
146.201
146.201
146.201
146.201
146.24
146.821
800.075
146.572
158.645
146.201
146.837
146.219
146.202
146.201
146.202
146.201
146.201
146.201
146.201
146.203
146.201
146.201
182.323
153.161
146.222
186.58
3832.53
161.162
146.203
146.379
146.201
146.201
146.21
146.201
146.201
146.202
147.659
146.633
146.21
153.581
1276.39
196.13
146.201
156.038
146.618
146.204
1260.24
146.201
148.677
146.201
146.924
146.202
146.227
146.201
146.201
146.201
146.201
149.096
146.201
176.865
146.201
1008.66
146.783
146.201
146.201
956.83
147.535
148.277
147.293
146.201
147.719
7421.9
146.201
146.202
146.362
159.729
152.722
146.201
173.329
153.525
146.562
149.628
781.809
146.639
172.805
146.201
4150.27
813.378
372.717
665.649
146.419
146.22
284.353
146.084
664.466
159.347
167.093
146.202
146.206
146.252
146.205
146.202
146.202
146.204
146.201
146.201
146.203
146.201
1709.33
945.366
156.799
760.294
146.207
146.201
154.677
148.389
2711.19
179.828
279.795
166.465
309.502
1976.04
146.757
146.204
1667.04
146.202
146.201
146.188
147.231
146.204
147.628
148.674
146.289
148.568
193.735
146.204
146.381
146.202
146.202
146.201
146.204
146.201
146.204
163.608
178.292
1048.26
5684.95
180.459
761.156
146.203
1104.53
146.369
175.47
149.331
834.998
146.202
146.201
146.201
146.201
146.201
146.201
173.573
147.583
146.203
506.511
146.257
146.278
809.875
156.106
3000.05
361.087
146.201
347.523
146.408
146.201
146.2
148.06
148.599
146.201
147.041
146.113
146.203
146.201
737.498
733.586
569.437
148.199
146.201
1086.47
146.218
146.201
146.277
146.201
146.303
923.786
147.34
146.243
155.724
146.202
146.201
146.299
146.201
146.201
146.201
146.371
146.202
146.205
146.534
146.673
156.144
146.203
146.201
146.205
146.201
146.201
146.201
146.739
556.737
146.201
146.201
4694.37
146.201
146.201
146.201
146.201
146.233
286.149
2113.12
146.649
147.02
146.201
286.685
146.201
146.364
155.734
146.201
152.863
146.201
146.201
1049.07
146.201
146.202
165.376
154.921
343.855
257.207
146.201
146.548
146.554
146.61
146.202
149.102
148.954
183.377
146.535
341.751
146.203
146.208
146.363
175.962
146.493
147.568
146.336
159.453
146.201
146.201
5083.87
397.223
146.741
146.691
146.606
151.257
4056.04
146.201
146.444
146.201
510.579
146.201
146.527
146.847
146.201
3419.57
146.201
149.65
177.124
146.201
146.201
165.397
146.201
146.201
146.201
146.201
146.714
146.201
369.728
3566.82
146.201
146.201
555.097
146.202
146.015
146.409
146.004
146.017
146.201
146.201
146.289
146.279
3486.24
146.201
146.201
424.557
146.201
150.775
446.449
146.201
146.201
146.204
146.204
175.229
146.201
146.201
146.201
146.201
146.201
263.307
524.834
146.204
146.201
609.998
146.204
146.284
146.201
146.839
146.201
169.421
146.672
146.477
146.201
146.201
146.277
147.214
146.201
146.532
146.319
146.201
211.822
146.294
146.201
146.202
146.201
1090.96
146.201
146.201
146.201
146.202
146.201
259.309
173.17
146.201
146.201
251.178
146.201
147.443
146.208
146.201
2258.6
10556.9
146.213
146.203
146.201
146.276
6295.8
146.201
1971.32
146.201
2868.79
146.548
146.201
1330.67
196.86
1101.25
2082.29
820.051
146.201
146.201
146.201
149.837
146.236
176.343
1110.32
146.201
173.696
146.201
515.788
1170.06
981.42
146.201
146.286
146.26
146.201
152.633
146.201
146.201
146.201
1054.23
147.25
156.116
146.201
146.201
146.201
2390.57
146.205
8720.49
146.201
146.201
368.055
148.872
146.201
146.201
4593.6
146.201
146.201
146.208
2524.53
146.297
146.38
146.201
2278.28
885.719
147.948
147.981
146.202
957.966
146.202
146.245
941.624
981.596
1140.8
1034.41
996.55
1103.77
146.201
18874.4
642.757
148.421
146.201
153.047
1151.4
146.201
156.451
1088.42
146.201
940.372
146.201
11293.4
146.614
146.648
146.597
278.531
146.201
146.201
146.201
146.201
6479.88
146.201
189.05
247.046
146.201
146.201
146.201
146.201
146.201
146.201
146.204
146.201
1964.44
146.201
390.641
146.201
146.205
146.228
417.27
146.212
146.201
146.201
146.201
146.191
146.689
1269.36
1831.63
522.804
146.204
146.205
146.204
146.201
146.206
181.125
146.204
146.184
146.264
146.295
2272.75
146.204
146.205
146.205
146.226
154.773
146.201
146.202
180.427
146.112
1286.18
146.205
414.635
146.202
146.531
146.513
149.828
146.201
146.202
146.204
146.201
146.206
146.202
146.207
146.305
146.21
146.205
146.203
183.483
148.942
146.201
146.092
146.205
146.307
146.201
146.201
146.311
194.557
146.27
146.202
146.201
146.201
144.873
11813.5
146.201
158.609
11821
148.536
156.488
216.884
267.841
11264
146.206
146.202
146.21
146.202
11481.1
146.574
146.201
147.292
146.129
146.201
146.201
146.201
146.201
146.201
146.221
146.204
146.201
146.272
146.201
387.944
146.448
146.201
146.201
148.679
147.571
146.201
146.217
146.201
146.201
146.207
146.201
146.201
147.785
146.202
146.201
146.201
146.201
147.002
146.196
146.786
183.481
993.513
146.433
505.94
148.186
171.52
146.211
146.205
835.308
146.217
146.24
147.84
146.211
755.656
146.21
146.213
146.203
146.224
146.424
146.218
146.455
146.205
146.223
146.482
146.201
711.214
146.201
149.593
146.218
154.674
146.481
146.225
146.618
305.864
146.647
146.226
146.204
146.201
193.52
147.227
147.647
146.165
146.52
146.22
146.204
398.849
180.373
146.201
146.201
146.205
246.763
235.596
146.201
168.979
146.204
146.201
146.205
146.201
146.204
146.183
146.07
146.178
146.201
146.213
146.201
146.201
146.201
214.693
146.203
146.201
146.638
146.202
246.914
887.162
146.201
146.201
152.031
146.201
146.201
146.204
146.201
146.201
146.123
657.809
309.059
146.201
146.707
146.201
206.986
146.29
146.201
146.201
147.19
146.201
146.201
146.211
146.201
257.834
203.95
146.201
146.201
178.882
1400.54
148.538
146.201
146.201
146.201
146.201
146.204
146.202
146.201
146.201
146.274
149.296
146.201
146.201
146.201
1943.59
283.305
230.446
1983.3
146.259
146.227
146.204
282.042
146.206
146.202
151.936
146.203
146.201
146.216
1732.81
146.201
146.201
1989.65
146.222
2092.17
146.201
150.737
146.201
146.201
1015.07
146.201
867.492
185.075
146.201
883.727
146.253
146.196
146.209
919.397
146.218
521.265
921.65
152.271
211.681
939.62
146.364
150.139
146.204
146.384
147.903
146.36
1051.01
146.201
146.201
146.253
146.205
146.254
146.222
146.213
146.201
146.202
146.231
146.206
146.205
146.204
146.201
146.801
146.201
146.221
1190.41
146.201
146.228
146.245
1161.1
146.202
146.211
2315.47
146.201
146.221
146.9
146.24
146.201
146.224
146.201
146.201
146.241
146.201
183.889
150.983
148.348
1241.9
146.568
146.198
146.302
151.002
146.198
146.201
146.202
222.194
149.141
165.003
146.201
146.225
1757.43
147.739
146.203
420.543
299.641
146.203
148.613
147.122
146.282
288.165
146.181
146.215
147.056
146.206
395.062
246.591
196.915
177.324
181.549
156.486
146.193
146.204
268.221
150.562
146.203
146.35
2115.3
146.208
146.201
2661.86
146.205
146.204
148.171
146.201
2765.87
146.201
163.642
302.401
582.636
146.201
146.201
146.201
2703.47
148.68
148.957
146.202
2871.34
2944.42
146.228
146.201
1111.26
146.433
347.093
987.897
169.576
146.197
578.005
146.21
401.841
146.201
146.268
146.201
146.208
153.983
146.201
146.202
19743.9
146.201
208.817
146.202
146.219
146.251
146.202
150.556
146.201
146.487
356.484
146.204
146.201
146.201
146.727
146.201
171.019
146.248
10807.3
146.201
146.204
146.233
11263.7
146.201
146.21
146.312
146.201
146.159
5879.92
146.201
152.266
146.201
146.203
146.201
290.436
146.201
146.176
146.201
146.201
146.281
1149.54
146.201
158.187
146.201
146.255
146.256
146.201
146.201
3858.26
146.224
146.209
146.201
146.208
146.203
146.201
146.201
7516.67
12022.4
146.201
213.324
146.201
146.201
146.206
146.226
146.201
146.203
146.534
146.203
146.201
146.205
146.204
189.888
147.041
146.206
146.201
146.205
322.67
146.201
146.201
146.201
146.201
146.201
146.201
146.201
146.349
146.208
146.201
146.202
290.955
498.799
146.201
146.467
201.364
146.201
146.564
27679
146.201
146.409
146.669
146.205
146.202
146.202
146.243
146.919
146.203
146.203
146.204
146.199
146.206
146.208
197.641
146.212
149.65
146.201
146.205
244.337
146.205
146.204
146.201
386.119
474.247
146.201
146.201
146.201
146.202
146.22
1547.26
146.202
146.223
146.421
231.265
146.201
146.172
2621.41
146.201
146.201
146.201
146.201
146.209
146.27
146.201
146.75
146.495
146.201
146.201
146.201
1527.23
146.537
146.201
146.21
146.201
146.201
146.201
5091.43
146.427
4763.87
146.201
146.201
146.201
146.205
220.167
146.208
847.136
146.201
146.201
146.202
1865
12112.7
219.094
146.201
893.664
872.753
225.843
809.155
216.155
146.209
544.329
146.452
146.201
146.201
146.201
146.214
146.201
146.207
628.024
7140.4
161.226
147.171
184.291
146.202
170.72
166.706
146.623
200.775
191.507
195.281
1139.16
712.314
146.201
146.991
165.808
146.796
146.201
8444.43
147.961
146.201
242.505
759.785
146.201
146.19
146.201
146.204
146.201
146.201
146.201
147.504
2739.3
146.201
146.672
146.763
187.778
213.098
146.201
146.201
146.201
186.773
146.201
146.205
146.206
146.201
146.21
146.201
146.201
2498.14
220.066
146.201
146.201
146.201
146.203
146.201
232.015
146.201
146.204
146.201
146.201
146.212
146.201
146.201
146.201
146.838
146.225
146.201
146.221
146.201
146.201
147.223
146.201
711.89
146.227
146.201
146.201
146.201
146.201
146.229
257.403
570.643
304.936
676.048
146.204
149.073
233.605
431.137
679.435
206.047
146.418
146.201
146.228
146.201
146.201
146.201
146.201
146.204
147.67
146.201
743.447
146.202
146.202
146.219
146.201
146.202
146.201
146.204
7609.19
146.349
146.202
146.201
146.205
146.223
146.201
146.693
912.197
146.221
823.111
146.201
146.201
146.204
635.03
798.781
816.396
743.414
494.11
148.096
1712.96
146.376
872.541
146.194
146.203
146.201
146.201
149.286
764.167
148.404
146.227
757.5
657.498
146.263
667.283
149.379
146.201
146.201
146.201
146.899
149.352
146.318
146.201
146.909
940.335
146.231
8559.27
146.807
146.716
160.809
146.201
243.689
191.342
146.25
146.201
146.207
146.231
146.201
146.201
147.194
146.201
146.201
844.876
146.205
160.449
977.345
146.206
146.208
146.996
147.001
289.33
147.104
146.321
149.236
146.202
146.201
147.331
146.387
146.936
146.993
150.319
146.231
146.18
231.716
2553.98
146.201
146.201
147.319
146.201
1541.52
146.201
146.201
146.201
147.455
146.201
199.893
146.201
146.201
146.225
147.401
147.373
146.315
146.201
146.303
2438.52
1110.04
146.201
146.42
2976.79
148.907
2874.57
146.227
146.655
146.201
146.201
146.201
146.201
146.201
146.205
146.201
2486.13
146.201
146.202
146.201
146.201
146.201
146.201
146.201
147.365
152.947
146.201
146.201
244.336
146.202
1695.74
367.327
146.201
713.232
146.234
146.201
146.201
1002.58
146.204
146.201
210.316
146.201
146.201
146.201
146.203
146.201
146.201
146.201
146.201
146.201
146.201
146.244
146.509
146.201
146.203
146.201
146.402
146.201
146.207
146.205
146.39
146.201
146.201
146.201
146.202
146.225
146.202
146.201
146.201
146.201
146.201
2731.42
146.201
146.201
146.201
146.201
146.201
172.812
146.201
146.201
146.204
312.062
146.201
146.956
146.201
146.211
146.201
146.201
146.201
146.217
146.201
146.18
146.201
146.188
146.201
146.181
11272.5
311.867
146.283
146.202
146.201
146.21
146.201
146.209
146.481
178.039
146.21
146.201
146.201
146.201
146.208
865.671
146.2
146.201
1083.26
146.176
146.201
146.201
146.201
146.201
146.201
462.153
146.221
146.201
146.201
1253.36
510.478
990.682
146.207
180.115
461.613
146.205
146.201
146.207
1366.02
146.201
146.205
146.201
146.205
231.98
146.201
146.201
146.201
146.207
146.208
146.216
146.429
146.201
146.798
508.093
146.201
148.663
146.201
146.201
146.201
146.205
146.202
146.209
146.201
893.223
149.752
139.158
150.308
178.344
146.205
146.201
146.201
146.201
146.211
146.201
146.201
146.201
146.205
1114.07
146.21
209.547
400.527
146.201
165.334
146.372
146.424
146.206
146.201
146.723
146.201
146.201
146.201
268.979
178.515
174.997
146.201
164.692
146.201
146.204
146.201
153.45
146.201
3430.82
146.406
146.201
146.201
538.493
146.211
146.201
149.257
146.201
146.201
2565.94
146.201
146.208
146.201
146.394
146.202
146.201
146.202
146.201
146.206
146.202
2194.24
146.201
146.218
146.202
146.201
148.12
146.201
146.202
146.201
677.603
146.202
146.831
833.284
146.57
146.201
1611.13
146.495
146.202
146.201
1160.11
146.367
146.201
146.495
178.696
146.204
146.201
146.201
146.57
146.202
146.201
146.201
146.206
991.825
146.206
995.731
146.202
146.237
146.206
146.201
146.256
146.206
146.202
146.201
146.201
146.203
270.355
146.521
178.596
146.527
155.835
146.579
146.201
146.201
146.201
147.621
1230.33
1032.69
146.222
146.204
249.102
146.579
10709.9
892.432
146.201
2564.12
5342.75
146.526
146.201
166.329
198.289
379.925
822.001
146.599
146.392
325.675
146.204
474.901
146.203
159.447
146.203
3648.15
490.048
146.201
146.205
146.454
452.227
146.205
209.012
146.201
146.201
526.824
146.208
146.201
146.202
146.201
146.206
146.201
7702.95
250.438
146.201
146.202
471.531
146.207
2292.09
564.875
643.469
146.207
146.201
146.201
506.069
146.201
146.201
158.215
146.203
146.202
493.297
146.207
146.202
1088.18
152.317
146.201
146.201
599.892
146.201
146.203
150.524
146.201
146.201
146.204
157.653
11506.2
274.784
146.201
146.205
146.201
146.48
870.042
146.443
5356.41
146.201
146.206
146.201
146.208
146.201
424.339
147.07
146.201
965.429
146.201
146.201
146.335
146.201
146.207
146.204
166.323
731.497
146.201
146.201
146.294
845.847
146.201
146.202
5330.53
146.201
146.204
146.38
146.201
146.201
146.201
146.201
146.201
146.204
146.201
146.202
270.117
146.201
159.214
6100.85
146.463
265.65
146.201
146.218
146.204
146.201
191.79
924.014
983.227
191.057
147.569
149.581
146.201
146.21
331.641
146.765
148.418
146.26
146.204
152.691
146.201
146.201
146.201
222.053
146.658
146.202
375.766
146.201
146.202
146.201
774.484
398.079
146.201
153.266
148.551
153.775
149.052
159.144
146.201
146.201
147.388
146.204
146.201
146.201
146.201
146.201
146.202
146.201
292.8
146.49
148.845
146.212
146.203
146.234
146.202
146.201
146.201
155.686
146.201
146.201
146.201
167.452
146.204
2060
148.063
146.293
146.381
173
146.204
148.064
146.201
146.202
146.206
884.822
146.901
146.204
146.202
146.202
431.929
146.202
166.287
267.895
202.539
148.546
146.201
146.201
147.561
214.856
146.207
148.114
146.22
146.209
146.201
148.438
146.202
149.087
146.182
146.201
146.223
146.207
146.201
146.201
146.234
147.015
146.573
146.204
146.173
146.234
146.511
146.124
146.201
146.201
8985.7
147.986
815.704
146.717
146.194
147.726
146.886
146.202
146.194
146.204
146.202
146.202
146.202
1114.16
146.201
146.205
146.202
146.977
146.201
146.201
146.201
146.201
146.757
413.579
146.201
146.967
146.206
152.201
146.201
146.576
146.201
148.213
146.733
146.201
146.201
146.28
146.207
146.205
146.209
146.201
146.202
146.946
146.203
146.204
146.201
146.201
146.201
146.964
146.201
146.201
835.727
146.201
146.201
146.201
146.201
6597.3
146.201
148.944
146.203
146.219
146.201
146.206
146.201
146.201
146.202
146.204
146.203
146.604
1214.12
146.201
146.201
146.202
146.201
146.208
146.201
146.201
146.204
146.208
146.204
146.207
146.201
145.975
2336.85
151.79
146.205
148.73
146.201
146.204
680.45
146.207
1397.43
146.205
146.464
146.201
146.201
146.201
146.201
146.207
146.201
161.92
148.13
146.201
146.201
146.201
146.203
146.203
146.204
146.201
146.201
146.201
146.682
150.947
149.79
146.202
146.201
162.543
161.726
146.309
146.206
146.202
146.201
146.207
146.201
146.21
146.202
146.205
149.983
146.368
149.504
148.373
151.626
737.537
146.202
876.018
146.201
148.906
146.201
148.971
146.21
149.038
272.074
146.201
146.201
146.202
146.517
3643.3
146.201
148.685
146.202
1044.05
146.201
146.203
146.201
146.201
147.623
146.201
146.201
146.201
146.201
146.206
146.201
151.607
160.066
146.209
146.201
146.201
147.968
146.201
146.201
185.694
1028.3
272.365
146.201
146.201
148.138
167.265
146.201
146.201
146.66
146.252
152.279
146.201
147.358
146.208
146.201
146.208
146.201
146.201
146.202
146.201
146.201
146.201
146.201
146.201
146.203
146.201
146.201
146.201
146.201
146.201
146.201
146.201
146.201
146.201
146.201
146.201
146.455
147.559
146.533
146.201
146.201
146.201
146.201
146.375
146.201
146.201
146.202
146.201
146.201
146.201
146.202
146.201
146.201
146.201
146.201
146.201
146.747
146.201
157.254
171.964
146.464
146.201
146.201
147.307
146.201
146.201
146.201
146.201
146.201
146.201
146.201
146.201
146.205
146.201
150.922
149.429
146.201
146.201
146.201
146.201
146.201
146.201
146.201
146.201
146.425
1138.19
146.201
1142.82
146.202
146.201
1136.14
1132.73
146.201
146.214
146.488
146.202
146.201
146.201
146.205
146.201
1165.89
146.201
1159.87
146.201
146.201
146.201
146.283
146.578
146.246
146.201
146.201
146.201
146.201
146.201
146.201
146.201
146.201
146.201
146.201
146.703
146.201
146.201
146.201
146.201
146.201
146.201
146.201
146.221
688.24
146.22
146.201
146.204
146.201
146.201
146.202
146.202
146.201
146.202
661.519
146.207
146.201
146.204
146.259
146.201
146.341
146.201
146.206
426.008
146.201
427.355
8175.92
146.218
146.204
146.201
253.766
146.217
146.203
146.201
146.201
146.201
251.025
146.202
146.205
146.212
146.356
754.865
147.951
146.201
146.202
146.353
146.202
146.202
146.201