/*--------------------------------*- C++ -*----------------------------------*\
| =========                 |                                                 |
| \\      /  F ield         | OpenFOAM: The Open Source CFD Toolbox           |
|  \\    /   O peration     | Version:  v2012                                 |
|   \\  /    A nd           | Website:  www.openfoam.com                      |
|    \\/     M anipulation  |                                                 |
\*---------------------------------------------------------------------------*/
FoamFile
{
    version     2.0;
    format      ascii;
    class       volScalarField;
    location    "3.5";
    object      ILambda_13_0;
}
// * * * * * * * * * * * * * * * * * * * * * * * * * * * * * * * * * * * * * //

dimensions      [1 0 -3 0 0 0 0];


internalField   nonuniform List<scalar> 
108993
(
146.234
146.203
146.201
146.203
146.202
146.201
146.204
146.201
146.202
146.232
146.257
146.261
146.204
146.202
146.204
146.313
146.238
146.205
146.204
146.202
146.201
146.204
146.204
146.204
146.204
146.205
146.201
146.201
146.203
146.201
146.201
146.204
146.201
146.839
146.203
146.203
146.201
146.373
3220.47
1852.19
146.202
146.389
146.202
146.204
146.247
2003.63
146.201
146.203
146.205
146.202
146.202
146.563
146.203
146.201
146.206
146.27
146.201
146.201
146.255
146.201
146.201
146.201
146.201
146.201
146.201
146.205
146.201
146.204
146.216
155.879
146.205
146.204
146.236
146.203
146.203
146.201
146.201
146.238
146.202
146.202
146.201
146.25
146.233
146.266
146.206
146.205
146.283
146.266
146.201
146.201
146.201
146.201
146.201
146.203
146.201
146.218
146.201
147.585
146.201
146.202
146.201
146.204
146.237
146.249
146.376
146.201
146.202
146.202
146.214
2500.91
146.344
146.201
146.514
146.64
146.992
146.925
146.203
147.15
146.628
146.201
146.207
146.201
767.849
146.252
146.257
146.263
146.202
146.709
146.201
146.201
146.271
146.201
146.264
146.617
146.531
146.202
146.201
146.6
146.201
146.202
146.215
146.202
146.221
146.201
146.201
146.317
146.491
4743.68
146.206
151.375
149.73
146.204
146.204
153.338
146.321
146.298
146.638
146.202
146.201
146.28
149.679
146.201
146.201
146.206
146.209
146.568
146.201
146.201
146.201
147.626
146.217
146.28
146.347
146.28
146.203
146.203
146.335
146.201
146.743
146.32
146.282
146.231
146.203
146.257
146.208
146.607
146.204
146.234
146.238
146.264
146.902
146.203
146.733
146.312
147.191
146.658
146.202
147.649
146.581
146.256
146.201
146.354
146.202
146.201
146.248
268.469
146.201
1205.69
146.548
1722.98
146.362
147.101
146.338
261.064
1317.04
146.603
146.227
146.201
146.202
146.201
146.202
149.435
149.908
146.329
146.202
146.201
146.202
146.203
146.643
146.202
153.882
146.249
146.201
146.201
146.214
146.201
146.202
146.201
147.421
146.201
146.201
146.213
146.201
146.201
146.201
146.282
197.936
751.441
146.201
146.208
146.201
146.202
146.208
147.553
146.202
146.201
146.202
146.224
146.201
146.201
146.201
146.203
146.236
146.268
146.204
146.202
146.201
146.207
146.201
146.243
146.201
146.201
1457.22
11147.9
4613.62
146.972
146.201
722.728
146.363
146.202
146.202
696.908
1238.64
146.203
146.201
146.239
146.204
146.202
146.319
1975.35
146.204
146.201
146.202
146.201
146.202
146.201
146.201
146.201
146.228
146.201
683.6
156.255
146.222
146.201
146.215
146.202
146.201
146.202
146.202
1034.81
146.201
146.201
146.228
146.203
146.202
159.644
146.201
146.247
4605.75
146.22
146.202
146.201
146.202
146.202
147.71
248.34
3740.61
433.676
146.202
146.633
146.205
612.12
146.754
146.201
945.52
146.202
146.286
146.201
146.527
146.201
146.229
147.19
146.204
146.224
146.33
146.202
146.201
146.201
146.202
146.201
146.207
146.201
327.329
454.475
146.201
146.221
146.292
943.267
146.254
146.201
146.224
146.204
146.201
146.201
146.204
146.202
146.201
146.202
146.26
18831.3
146.213
146.266
146.201
164.444
146.202
343.754
146.327
146.286
304.261
146.541
433.333
310.606
146.202
146.379
146.203
146.208
146.24
564.811
146.202
3561.86
378.119
146.208
387.933
146.202
2081.22
146.203
4764.4
146.213
146.265
146.203
146.203
743.878
764.662
146.281
146.203
146.209
146.207
146.825
146.227
6085.11
146.201
146.201
26166.1
146.203
146.257
146.204
272.271
146.549
146.617
146.201
6135.98
146.203
2506.08
146.201
146.201
4596.27
146.218
270.669
3171.39
146.201
3709.29
6353.94
3695.12
146.201
146.499
146.248
146.201
146.202
146.201
146.202
146.244
146.204
146.213
146.201
171.696
146.222
146.206
146.331
146.203
146.201
146.242
146.201
146.206
146.599
146.201
146.209
146.252
146.201
146.795
146.219
716.704
146.198
718.942
148.027
146.263
146.201
146.201
721.122
146.201
146.201
146.237
146.203
146.201
146.207
146.201
146.247
146.201
146.345
153.321
146.183
146.263
146.201
146.202
146.201
146.204
146.197
146.201
146.201
146.261
147.577
146.242
146.205
146.274
146.201
146.242
146.201
146.209
146.227
146.201
146.202
146.201
146.201
146.201
146.201
146.266
148.205
146.201
146.201
291.303
146.201
146.253
146.21
146.201
146.289
146.201
146.201
146.202
146.201
146.208
146.201
146.201
146.201
146.207
146.209
146.204
146.455
146.209
146.327
146.46
146.209
146.208
146.203
146.188
146.202
146.906
146.652
146.483
146.213
146.33
1096.05
146.201
570.942
146.201
146.201
146.331
146.278
146.201
146.187
148.264
146.204
728.336
146.208
757.102
146.207
146.234
146.201
146.201
146.202
154.068
146.203
146.98
146.201
146.196
146.209
146.414
748.038
146.319
146.201
146.202
146.202
146.182
146.205
15310
146.391
754.946
146.204
146.313
146.426
3411.92
146.237
146.244
147.288
146.201
146.203
146.21
146.266
1845.12
146.474
146.217
146.201
146.202
146.205
146.208
146.201
11939.5
146.201
146.204
146.204
146.207
146.232
146.202
146.269
13813.9
146.28
146.201
146.203
12247.8
146.203
146.235
146.197
146.764
146.202
146.189
146.194
146.203
146.201
146.178
146.202
181.063
146.203
146.687
146.203
146.902
1218.75
146.204
146.201
146.201
148.716
1817.74
146.242
271.639
146.202
147.15
147.307
146.233
146.202
146.206
589.545
146.235
146.516
146.205
146.553
146.203
146.226
146.204
146.232
146.263
146.348
146.238
146.227
146.221
146.268
147.209
150.67
146.327
146.207
163.824
144.122
349.881
152.686
149
146.204
146.24
146.201
146.202
146.201
146.236
146.26
146.696
234.397
146.233
146.222
146.662
160.605
152.4
146.201
146.288
146.248
146.203
6609.2
146.204
171.731
146.521
146.237
2881.51
146.234
262.181
146.245
146.25
315.177
146.201
146.244
146.307
146.217
146.202
198.606
146.215
912.049
146.222
411.156
146.448
146.201
146.203
146.203
146.225
146.201
146.245
146.202
146.208
146.203
146.239
2781.91
1784.95
146.202
449.115
146.202
146.426
146.482
146.201
146.475
146.207
146.217
146.395
146.255
146.221
146.231
146.277
146.402
148.039
146.207
146.43
146.2
146.316
146.237
146.269
146.201
146.248
146.201
146.202
146.202
146.247
146.214
5251.23
1029.52
146.216
146.237
146.261
146.201
146.227
152.828
146.43
146.201
146.202
146.266
146.201
146.241
146.202
146.284
146.215
146.202
146.218
146.201
146.291
146.222
215.944
146.201
146.202
2083.75
146.207
146.202
146.227
146.349
146.324
178.433
307.556
146.219
146.226
11159
780.824
146.298
146.201
146.628
146.208
146.219
146.219
146.201
146.231
146.201
146.3
159.481
146.204
6155.5
146.204
146.97
4087.47
146.241
687.646
146.235
342.786
146.201
146.227
146.276
146.201
146.224
146.261
146.201
146.683
146.201
146.221
146.225
146.197
146.201
146.209
216.231
147.478
146.665
146.202
146.236
146.904
146.202
146.879
146.218
146.203
146.292
34329.5
146.247
146.202
249.737
146.382
146.203
146.232
1144.47
225.785
146.197
146.241
146.202
146.2
230.781
2209.65
146.201
146.208
146.232
146.208
146.444
146.202
306.865
146.248
146.233
244.509
146.338
1098.71
147.057
135.68
146.339
146.214
146.224
146.434
146.481
146.221
146.224
146.226
228.219
146.209
1520.42
146.202
146.202
146.242
146.376
146.247
147.585
146.206
146.22
146.278
1623.88
146.316
149.548
146.292
148.211
146.201
146.421
156.769
1648.67
146.281
146.53
146.212
146.783
146.201
147.725
9541.11
446.823
146.201
146.201
149.795
146.234
146.399
146.201
146.209
146.258
272.018
146.201
146.51
146.212
146.207
146.781
146.202
146.247
147.608
460.965
146.204
146.203
146.201
146.204
146.219
146.49
146.799
148.943
146.791
188.514
146.223
146.208
146.202
146.214
146.218
146.204
146.203
146.217
146.202
146.569
146.204
146.202
241.678
146.202
146.268
146.287
146.219
146.254
146.201
358.876
146.219
361.043
146.201
146.204
146.201
146.422
146.567
146.202
146.219
146.767
146.557
146.791
146.203
146.266
148.773
169.396
146.209
251.119
676.934
146.252
146.218
146.249
146.203
146.612
8504.76
146.589
161.11
151.675
146.254
146.215
146.202
146.206
153.715
158.449
146.219
146.201
146.205
153.736
146.201
146.285
146.205
154.256
146.809
146.201
146.787
146.206
146.34
147.176
146.208
146.647
147.003
146.236
146.229
146.206
3637.08
146.224
146.203
146.206
146.201
146.206
766.07
146.257
146.201
146.806
146.201
146.601
146.216
146.552
146.202
147.001
146.417
146.239
146.261
146.266
148.817
146.201
146.842
147.03
146.367
146.236
146.218
146.204
146.201
146.573
146.201
351.544
146.896
146.218
146.201
146.92
146.238
146.395
146.232
146.222
147.168
146.246
146.205
146.337
147.713
146.202
146.201
3587.72
146.265
146.264
146.893
210.529
146.257
146.201
415.575
146.478
146.228
146.234
1191.13
146.273
146.222
146.233
786.548
146.207
146.354
146.589
146.394
162.361
294.845
146.168
146.205
146.242
146.202
165.951
146.184
186.54
146.617
183.197
146.991
146.607
146.442
146.275
146.207
146.201
146.201
146.201
146.201
146.205
148.376
146.683
146.204
1649.16
153.985
146.668
146.201
146.245
146.674
146.201
155.411
146.282
146.273
146.201
146.232
149.366
146.307
146.259
146.44
146.201
146.214
146.251
146.201
146.201
146.202
16044.2
146.31
146.205
146.458
146.201
146.265
146.216
146.201
146.277
146.231
146.287
146.206
148.763
148.366
146.508
146.359
146.202
146.201
147.037
146.254
147.439
156.926
146.625
146.634
4534.84
146.877
146.213
146.24
146.201
146.204
147.543
146.202
146.201
146.344
146.634
146.272
146.214
146.202
146.202
147.605
146.21
9051.51
1095.14
146.991
146.215
146.202
146.209
146.206
146.208
146.55
146.201
146.204
146.201
146.201
146.201
146.218
164.336
146.209
146.617
146.204
146.204
146.207
225.145
146.235
161.526
146.205
146.203
148.747
146.201
146.282
146.21
146.21
146.208
453.642
146.301
146.201
181.341
146.207
197.728
188.446
146.207
146.201
146.203
146.197
146.203
146.335
146.248
148.008
781.068
198.8
146.202
146.201
208.626
146.202
146.201
146.202
146.201
146.202
181.999
207.56
162.109
146.274
146.235
146.234
146.354
146.518
146.202
146.201
203.664
146.176
151.063
197.615
146.256
146.489
146.202
146.206
146.285
146.201
146.242
14596.8
146.342
146.238
146.284
556.657
147.302
146.201
146.209
146.201
147.033
862.057
146.203
146.243
147.121
146.247
146.285
146.666
146.201
146.24
146.201
149.507
146.324
146.236
186.559
146.298
146.201
146.208
146.242
3782.29
146.264
146.222
146.42
6155.17
207.315
146.202
146.234
146.271
146.204
146.703
146.427
146.422
146.46
146.4
146.202
146.539
146.976
146.209
146.209
146.201
146.361
146.204
146.201
146.204
146.212
146.201
146.203
146.203
146.296
146.201
146.21
146.202
153.804
146.202
146.201
146.201
146.347
147.021
146.201
147.478
146.242
146.201
146.202
146.207
146.224
146.261
146.203
146.496
146.201
149.133
150.577
146.201
153.728
287.29
150.441
146.244
150.289
146.208
146.398
148.614
146.201
146.208
146.209
148.475
146.201
146.201
146.19
146.208
146.279
146.204
190.749
148.749
146.517
1426.87
146.201
459.372
146.201
146.208
146.208
146.251
146.206
2485.99
802.16
146.384
162.433
906.748
170.757
146.229
146.239
146.204
149.537
148.758
146.207
149.73
146.206
146.204
146.204
146.741
146.208
146.201
146.207
1752.9
2290.25
146.609
146.201
147.472
146.204
146.203
146.32
146.2
146.334
146.212
146.203
146.732
146.712
1063.79
146.22
146.259
199.322
146.367
146.203
146.238
148.951
146.203
146.219
146.221
146.454
146.276
146.241
146.223
146.53
254.611
1485.82
146.216
146.22
1332.94
146.207
146.203
1545.24
146.209
146.201
146.208
146.236
7022.47
146.202
146.291
146.738
146.215
7712.61
146.207
2777.74
146.212
146.234
844.571
150.059
146.228
1447.49
146.241
146.203
146.619
146.201
146.201
146.218
3127.48
146.44
146.205
606.075
146.201
240.172
1772.55
238.162
178.873
358.979
146.201
184.936
146.212
146.201
146.201
146.201
146.201
146.201
146.201
146.201
147.314
149.111
155.606
146.286
146.201
146.203
146.201
146.201
146.201
146.335
270.204
220.461
146.204
146.201
146.202
146.595
146.205
146.201
146.688
146.205
146.201
146.201
146.212
2415.14
146.585
1053.57
150.152
146.201
150.392
148.762
146.201
146.201
146.202
199.704
4735.04
149.137
800.085
146.201
146.201
62308.7
146.201
146.214
146.205
146.201
146.208
146.201
146.208
146.234
146.214
351.221
146.395
146.213
394.561
146.278
146.201
146.629
146.201
146.212
146.201
146.202
146.201
146.242
146.207
146.201
146.246
158.545
167.427
705.406
146.201
146.226
6284.89
149.085
146.201
758.883
146.201
146.203
146.252
186.06
3819.96
754.619
146.201
960.694
6886.72
416.329
146.202
785.253
146.261
146.242
730.489
146.212
1863.07
146.241
146.202
146.247
762.153
146.261
146.248
146.417
146.259
146.207
275.914
5340.93
4168.8
146.201
146.203
4341.56
146.201
146.206
147.463
146.201
529.074
146.248
146.201
146.416
146.201
146.201
146.249
821.925
1098.32
366.738
700.164
146.209
146.662
146.263
146.232
146.465
146.203
146.21
146.201
146.203
146.201
146.327
146.201
146.201
146.24
313.558
146.253
146.251
1738.37
146.253
146.204
148.918
146.201
146.231
146.206
146.201
146.225
146.258
840.961
146.679
146.456
146.566
891.08
146.219
146.23
146.407
211.787
146.246
540.727
146.202
150.846
146.201
196.073
146.22
147.744
146.468
146.202
146.202
146.202
146.781
146.201
146.426
146.203
386.998
212.446
146.201
146.201
681.245
283.077
321.661
588.173
146.203
147.88
2643.45
146.201
146.209
146.435
146.284
146.494
146.201
146.418
158.947
234.264
146.415
1011.71
836.507
146.499
146.201
394.942
183.204
146.211
245.101
146.217
233.588
189.25
146.259
256.792
146.235
146.236
146.202
146.204
149.479
146.202
146.207
146.207
146.222
146.201
146.466
146.204
146.202
1024.36
299.907
146.238
254.117
154.454
146.201
146.274
349.031
4486.95
146.468
146.37
700.431
201.504
15646.2
146.645
146.222
1391.53
146.205
146.216
146.242
2190.76
146.246
148.009
146.567
146.597
146.682
160.601
146.224
146.42
146.206
146.202
146.202
146.232
146.201
146.244
146.247
447.093
214.368
631.434
146.249
745.333
146.254
1081.24
146.188
146.663
146.968
163.818
146.203
146.205
146.221
146.201
146.201
146.201
146.215
263.658
146.288
274.624
146.321
146.382
712.445
148.038
1555.88
206.105
146.202
179.503
146.439
146.704
146.463
157.661
162.588
146.201
146.203
146.213
146.222
146.205
416.368
331.615
346.775
156.423
146.201
158.456
146.559
146.201
146.343
146.201
146.22
203.771
146.217
146.217
152.035
146.221
146.197
146.22
146.215
146.201
146.205
409.341
146.213
146.202
149.364
146.525
951.464
146.264
146.206
146.205
146.201
149.164
146.558
147.142
1989.24
149.278
146.213
2132.99
150.661
146.201
152.179
153.617
146.553
1792.46
1883.63
215.076
147.072
146.201
1207.93
153.668
712.175
3152.18
146.202
965.6
146.201
146.201
4184.35
146.204
146.203
1268.08
1389.98
3044.46
976.815
146.202
502.477
786.214
146.687
146.207
146.219
2170.94
3096.81
988.616
261.33
146.206
146.21
147.41
416.615
1991.81
410.273
187.092
683.886
146.205
146.201
31460.6
3496.85
863.87
147.321
598.088
194.524
2710.35
146.202
146.667
146.202
3806.03
146.201
146.584
146.998
146.201
5747.4
146.201
1166.37
1895.36
146.201
146.201
2012.67
146.201
146.201
146.201
146.201
2346.74
146.202
2209.91
1709.85
146.201
146.201
493.645
146.206
146.206
753.562
146.206
146.214
146.203
146.742
146.298
146.297
3210.84
146.383
146.201
1970
146.202
255.174
583.621
146.201
146.201
146.233
146.202
861.38
146.201
146.204
146.201
146.201
146.205
482.67
251.136
146.258
146.202
20172.7
146.202
146.553
146.201
840.971
146.202
857.581
146.697
146.203
146.202
146.202
146.51
155.619
146.201
744.329
155.97
146.201
146.223
215.441
146.201
146.239
146.201
2222.46
146.201
146.201
146.205
146.203
146.202
1774.76
187.727
146.201
146.201
282.798
146.201
174.541
146.344
146.201
1833.86
11763.5
146.221
146.202
146.299
174.407
8889.43
146.202
5418.86
146.201
2938.98
146.806
146.201
982.141
2285.24
1982.82
1904.59
877.55
146.213
146.201
146.203
207.604
314.73
146.215
1201.92
146.203
148.012
146.201
161.153
2582.38
3676.82
146.202
146.543
146.274
146.201
147.208
146.2
146.201
146.203
3164.25
305.885
1058.51
146.203
146.202
146.225
2179.02
146.209
8781.83
146.201
146.201
199.94
148.601
146.201
146.201
2177.06
146.201
146.197
146.21
6610.26
146.598
202.155
146.201
1916.28
814.7
150.583
148.795
146.227
208.013
146.202
146.272
1664.12
475.615
287.022
207.117
361.129
170.934
146.201
26234.9
1259.02
148.483
146.201
146.872
1450.19
146.201
2142.9
199.285
146.201
287.734
146.202
12242.8
146.819
146.657
244.781
1277.42
146.201
146.202
146.202
146.206
36583.8
146.205
738.981
186.203
146.201
146.201
146.201
146.669
146.204
146.203
146.274
146.205
5393.87
146.309
213.409
146.201
146.353
146.202
146.253
146.289
146.201
146.201
146.575
146.19
146.217
5763.71
7156.95
162.053
146.33
146.208
146.215
146.202
146.209
146.235
146.214
146.253
146.6
146.382
7105.97
146.217
146.206
146.201
146.569
146.219
146.201
146.209
146.222
146.243
6362.41
146.251
256.985
146.202
146.216
146.719
149.022
146.202
146.252
146.263
146.202
146.325
146.212
146.202
183.32
146.204
146.201
146.274
146.238
146.771
146.211
218.395
146.201
173.71
146.207
146.203
205.752
148.227
146.57
146.206
146.201
146.203
148.369
134.018
146.206
154.835
712.812
146.206
146.273
146.221
146.298
115.623
146.202
146.234
146.247
146.245
716.037
146.272
146.201
146.223
146.225
146.279
146.201
146.202
146.211
146.202
149.829
146.201
146.202
146.354
146.201
146.263
258.646
146.215
146.201
743.234
794.199
146.243
146.22
146.201
146.205
146.366
146.202
146.578
146.47
146.213
146.337
146.258
146.551
146.245
146.244
146.227
146.267
1275.51
146.663
997.436
146.234
146.29
146.22
146.201
1567.92
146.219
146.236
444.377
146.221
1430.33
146.201
146.221
146.25
146.252
396.785
146.236
398.053
146.202
146.231
452.651
146.224
156.689
146.39
146.275
146.245
146.269
472.748
146.232
745.312
146.229
789.67
146.23
146.312
146.201
146.533
146.346
146.182
146.215
146.205
146.241
146.204
146.278
146.218
146.201
146.201
146.202
146.182
316.204
146.201
146.217
147.368
146.201
146.247
146.201
146.354
146.663
146.241
146.271
146.201
146.231
146.201
146.201
146.201
146.23
146.202
146.208
146.645
146.202
150.942
520.865
146.202
146.204
149.813
146.201
146.201
146.203
146.201
146.201
146.281
146.21
146.233
146.615
146.911
146.201
146.253
146.527
146.201
146.201
146.338
146.201
146.201
146.297
146.202
146.272
146.29
146.206
146.201
146.218
1084.27
147.821
149.302
146.201
146.201
147.332
146.285
146.203
146.201
146.201
146.276
2408.66
146.201
146.201
146.201
1700.65
148.274
147.014
1780.18
146.264
146.249
146.25
146.301
146.206
146.204
157.152
146.281
146.727
146.229
1526.82
146.562
146.96
1748.22
146.625
1723.24
146.5
146.274
148.099
146.203
888.101
146.806
870.612
146.256
146.244
733.379
146.23
146.205
146.348
756.2
146.28
146.192
952.01
146.211
146.4
818.374
723.291
146.998
146.205
739.986
146.696
715.239
539.727
146.201
146.218
146.448
146.202
146.395
176.734
146.21
146.205
146.207
202.3
146.205
146.202
146.209
146.201
146.782
146.201
154.656
902.007
146.207
238.256
207.158
801.704
146.203
146.424
2160.55
146.201
152.2
146.317
146.473
146.236
174.198
146.201
146.201
146.864
146.201
172.508
146.238
146.237
1276.6
146.699
146.202
146.237
146.244
146.356
146.289
146.202
148.817
146.22
162.498
149.27
146.589
1464.54
146.239
146.206
447.915
198.318
146.202
146.234
146.547
146.396
188.831
146.227
146.258
146.302
146.261
617.259
146.338
146.266
146.262
146.312
154.647
146.22
146.263
146.385
146.274
146.265
146.344
1603.21
146.366
146.203
613.292
146.202
146.208
151.188
146.204
1467.74
146.201
150.864
377.33
408.207
146.201
146.246
146.205
386.87
146.254
151.009
146.428
959.056
1621.08
146.511
146.201
425.972
148.516
162.538
382.589
235.557
146.21
146.178
146.253
146.223
146.201
146.204
146.201
146.203
146.207
146.201
146.743
42937.6
146.179
146.243
146.232
146.511
146.558
146.205
147.5
146.201
146.207
146.262
146.204
146.386
146.209
146.35
146.201
146.266
146.494
5123.51
146.201
146.38
146.323
10923.9
146.204
146.447
256.927
146.204
146.264
17419.4
146.202
146.217
146.204
146.236
146.22
146.253
146.204
146.263
146.188
146.203
146.453
365.524
146.204
146.226
146.204
146.658
146.46
146.202
146.201
7461.12
146.226
146.212
146.202
146.375
146.207
146.201
146.201
2722.99
12885.1
146.201
146.83
146.202
146.201
146.209
146.557
146.202
146.204
216.578
146.202
146.202
146.266
146.21
193.378
147.543
146.202
146.202
146.215
308.314
146.202
146.202
146.201
146.201
146.201
146.201
146.201
146.629
146.211
146.204
146.205
653.626
654.828
146.203
146.31
157.264
146.202
146.349
90869.1
146.201
146.727
147.154
146.202
146.202
146.202
146.551
146.338
146.209
146.206
146.202
146.262
146.213
146.254
147.648
146.368
146.203
146.205
146.278
635.995
146.207
146.203
146.205
830.719
544.371
146.201
146.202
146.201
146.206
146.264
1726
146.202
146.562
146.588
148.576
146.201
146.216
1891.57
146.201
146.201
146.202
146.201
163.82
149.465
146.206
146.35
146.23
146.202
146.201
146.202
2255.15
422.496
146.201
146.414
146.202
146.202
146.201
9114.1
1280.05
1660.88
151.918
146.334
146.203
146.204
146.297
174.886
273.707
146.202
146.202
146.203
1859.75
7879.19
146.24
146.202
308.697
321.584
152.441
209.006
668.853
146.206
671.401
229.494
146.201
146.203
146.201
146.233
146.269
146.304
959.245
7750.64
656.218
756.989
618.636
146.614
146.249
146.263
146.677
146.224
860.302
146.307
1151.51
152.019
146.202
209.43
911.947
146.208
146.313
3939.94
146.21
146.203
600.268
276.005
146.201
146.204
146.204
146.207
148.288
146.203
146.221
288.502
1919.06
146.236
146.304
146.225
926.712
193.125
146.197
146.202
146.659
548.969
146.221
146.202
146.378
146.203
146.202
146.202
146.525
2840.65
146.269
146.202
146.201
146.203
146.318
146.202
146.235
146.201
146.253
146.202
146.21
146.45
146.201
146.217
146.202
146.217
146.207
146.218
146.217
146.204
146.211
1899.55
146.271
210.505
146.218
146.201
146.205
146.239
146.203
146.219
183.046
200.427
2302.57
182.504
146.246
191.996
147.108
183.728
210.072
146.791
154.114
146.205
146.218
146.201
146.212
146.201
146.215
146.261
191.752
146.201
474.567
146.205
146.205
146.216
146.201
146.228
146.202
146.214
2566.43
147.043
146.207
146.201
146.206
171.085
146.206
146.589
769.398
146.217
777.467
146.202
146.203
146.274
773.365
631.132
741.718
868.786
276.129
150.242
1671.86
901.32
882.572
146.21
146.202
146.201
146.202
146.616
1594.02
146.42
146.25
1638.01
1620.63
146.262
2137.03
146.632
147.191
146.203
146.201
146.971
730.67
216.429
146.201
146.971
1319.24
146.537
3330.5
523.512
146.557
146.148
146.205
146.407
150.867
146.327
146.257
146.202
146.671
146.204
146.202
146.095
146.201
146.204
306.652
146.205
152.369
1007.1
146.206
146.278
739.917
765.968
146.421
744.136
146.499
764.423
146.206
146.201
770.88
239.818
803.14
800.912
146.352
146.674
146.23
165.092
1921.22
146.201
146.203
742.362
146.212
1278.21
146.204
146.226
146.201
746.934
146.201
146.254
146.202
146.222
146.61
748.56
751.584
146.254
146.201
146.593
1857.08
1352.39
146.201
883.513
10725.8
333.545
2028.98
146.247
462.344
146.238
146.205
146.221
146.201
146.204
146.204
146.203
2027.92
146.201
146.244
146.201
146.201
146.201
146.201
146.201
146.402
149.295
146.201
146.201
315.51
146.202
1391.79
146.222
146.201
2005.9
146.239
146.201
146.201
691.849
146.215
146.201
146.278
146.209
146.201
146.201
146.237
146.985
146.226
146.202
146.204
146.202
146.201
146.236
705.764
146.201
146.204
146.201
146.414
146.201
165.162
146.202
146.684
146.201
146.201
146.201
146.205
146.481
146.202
146.201
147.103
146.207
146.201
4865.93
146.201
146.201
146.31
146.201
146.844
161.787
147.216
147.251
146.203
146.302
146.214
146.224
146.202
146.589
146.446
146.237
146.201
146.307
146.202
146.223
146.225
146.263
146.354
146.258
12237
146.235
146.225
147.101
146.286
146.343
146.209
146.39
146.465
146.353
146.413
146.202
146.238
146.201
146.204
3418.27
146.201
146.235
3464.72
146.268
146.203
146.204
146.201
146.206
146.201
26711.6
146.207
146.26
146.207
4750.04
1685.99
2960.68
146.318
410.171
240.199
146.207
146.3
146.203
4553.31
146.202
146.208
146.203
146.202
1307.58
146.203
146.201
146.206
146.355
146.249
146.433
146.983
146.201
147.371
158.618
146.201
302.49
146.202
146.202
146.201
146.201
146.202
146.211
146.201
310.462
151.113
147.531
146.818
905.305
146.247
146.201
146.202
146.201
146.228
146.201
146.201
146.201
146.208
540.291
146.261
146.241
258.664
146.204
908.336
146.397
182.528
146.219
146.201
776.356
146.204
146.201
146.201
1511.17
773.175
943.083
146.216
922.56
146.201
146.255
146.202
146.305
146.213
4118.83
146.521
146.201
146.201
146.997
146.322
146.201
148.645
146.201
146.201
1942.88
146.201
146.208
146.201
146.441
146.203
146.22
146.202
146.201
146.257
146.203
1787.28
146.203
271.979
146.202
146.202
2428.53
146.201
146.202
146.202
607.98
146.207
147.401
919.264
258.623
146.202
4508.06
146.499
146.202
146.206
1568.35
177.379
146.201
146.513
275.709
146.207
146.203
146.232
146.671
146.214
146.216
146.202
146.207
298.043
146.207
207.053
146.202
146.621
146.206
146.201
146.386
146.206
146.207
146.204
146.205
146.247
534.407
146.543
207.182
146.81
1078.28
146.656
146.203
146.201
146.201
2075.84
1317.87
1133.2
147.555
146.255
196.042
146.841
11080.7
628.901
146.201
1339.65
3350.22
146.553
146.201
664.18
155.999
158.826
282.068
728.647
160.479
759.657
146.206
711.749
146.224
155.176
146.273
3537.48
872.028
146.203
146.204
255.557
165.892
146.221
156.802
146.27
146.204
742.798
153.661
146.206
146.202
146.204
146.331
146.202
56543.7
159.777
146.201
146.207
867.942
146.254
1734.91
469.313
1052.78
146.243
146.201
146.201
3133.97
146.201
146.201
146.203
146.257
146.205
880.179
146.209
146.206
1094.83
147.68
146.246
146.201
542.37
146.203
146.202
147.962
146.201
146.203
164.952
915.006
2009.54
1050.66
146.203
146.249
146.201
148.392
677.815
250.692
3865.8
146.201
156.977
146.201
146.236
146.201
548.12
2216.13
146.201
802.273
146.201
146.201
146.352
146.202
146.285
164.405
1307.52
10046.1
146.201
146.205
146.414
245.627
146.203
146.25
196.361
146.203
146.271
153.061
146.201
146.201
146.203
146.201
146.201
146.202
146.25
146.202
146.74
146.204
1884.96
14943.3
147.28
146.659
146.203
146.385
146.205
146.201
146.685
1223.32
1011.14
146.705
685.632
149.511
146.202
146.427
861.278
148.407
146.786
146.61
146.202
146.79
146.201
146.201
146.201
147.828
146.511
146.202
488.122
146.201
146.21
146.206
1248.44
264.672
146.203
146.786
146.679
147.926
146.758
146.779
146.201
146.204
147.694
146.211
146.204
146.202
146.203
146.201
146.202
146.204
397.793
744.86
147.043
146.517
146.236
146.562
146.203
146.201
146.201
153.474
146.23
146.203
146.229
148.509
146.24
1823.9
146.728
146.444
225.585
738.664
146.21
146.733
146.205
146.202
146.386
295.153
146.896
146.203
146.202
146.203
361.806
146.205
146.955
220.143
146.668
146.746
146.205
146.204
147.497
182.256
146.205
146.767
146.439
146.417
146.201
146.752
146.236
147.957
146.252
146.201
147.513
146.273
146.298
146.201
146.558
147.797
146.71
146.206
146.25
146.543
146.685
146.252
146.201
146.202
7528.92
147.385
715.962
146.702
146.255
177.849
148.666
146.202
146.259
146.21
146.204
146.206
146.208
890.515
146.202
146.213
146.203
147.134
146.203
146.202
146.202
146.201
241.771
980.006
146.206
153.97
146.216
146.249
146.203
146.213
146.203
177.381
146.731
146.202
146.201
146.567
146.206
146.206
146.209
146.202
146.203
146.736
146.201
146.255
146.205
146.202
146.201
146.737
146.202
146.202
1113.79
146.202
146.202
146.204
146.205
8576.61
146.204
167.935
146.205
146.439
146.202
146.205
146.203
146.203
146.202
146.217
146.202
146.729
1287.06
146.204
146.202
146.202
146.202
146.207
146.205
146.201
146.206
146.207
146.206
146.206
146.204
146.243
1902
621.937
146.38
147.796
146.206
146.202
640.156
146.206
1299.19
146.245
146.619
146.202
146.202
146.203
146.201
146.207
146.201
146.255
148.293
146.205
146.201
146.201
146.203
146.203
146.221
146.201
146.205
146.203
146.303
146.256
146.258
146.206
146.201
146.264
146.268
146.243
146.206
146.202
146.202
146.293
146.201
146.315
146.249
146.216
146.264
146.401
149.77
146.258
146.781
300.494
146.206
193.788
146.204
146.781
146.201
146.704
146.433
146.701
777.395
146.202
146.202
146.205
146.925
2390.49
146.202
146.673
146.21
1029.69
146.203
146.206
146.236
146.203
146.701
146.203
146.201
146.202
146.202
146.203
146.202
146.778
146.857
146.435
146.202
146.201
146.853
146.204
146.201
146.31
927.517
146.442
146.203
146.205
318.899
146.31
146.201
146.201
154.77
146.783
1949.71
146.203
146.783
146.225
146.275
146.208
146.206
146.201
146.203
146.202
146.201
146.202
146.203
146.201
146.204
146.203
146.202
146.201
146.201
146.201
146.206
146.203
146.201
146.201
146.201
146.204
146.606
146.863
146.552
146.201
146.202
146.201
146.201
146.585
146.205
146.202
146.202
146.201
146.205
146.201
146.228
146.202
146.202
146.202
146.201
146.201
146.242
146.201
146.248
146.249
146.479
146.201
146.201
146.294
146.201
146.201
146.201
146.202
146.204
146.205
146.201
146.201
146.205
146.202
610.182
886.015
146.202
146.202
146.201
146.201
146.201
146.201
146.201
146.205
439.539
199.905
146.203
199.737
146.206
146.203
210.139
204.906
146.204
146.464
398.061
146.205
146.204
146.201
146.203
146.203
210.446
146.202
204.889
146.201
146.201
146.201
146.678
146.677
146.636
146.202
146.201
146.201
146.202
146.202
146.204
146.201
146.202
146.201
146.202
146.536
146.201
146.202
146.202
146.201
146.201
146.212
146.203
146.635
159.712
146.563
146.203
146.202
146.202
146.202
146.201
146.204
146.201
146.206
158.029
146.202
146.205
146.203
146.339
146.202
146.725
146.202
146.203
146.732
146.202
146.862
7156.72
211.478
146.243
146.201
148.071
160.755
146.205
146.202
146.201
146.203
147.909
146.202
146.236
153.383
485.207
161.033
2059.43
146.212
146.202
582.609
146.202
146.202
146.201
146.204
146.203