/*--------------------------------*- C++ -*----------------------------------*\
| =========                 |                                                 |
| \\      /  F ield         | OpenFOAM: The Open Source CFD Toolbox           |
|  \\    /   O peration     | Version:  v2012                                 |
|   \\  /    A nd           | Website:  www.openfoam.com                      |
|    \\/     M anipulation  |                                                 |
\*---------------------------------------------------------------------------*/
FoamFile
{
    version     2.0;
    format      ascii;
    class       volScalarField;
    location    "3.5";
    object      ILambda_7_0;
}
// * * * * * * * * * * * * * * * * * * * * * * * * * * * * * * * * * * * * * //

dimensions      [1 0 -3 0 0 0 0];


internalField   nonuniform List<scalar> 
108993
(
146.201
146.202
146.201
146.201
146.201
146.201
146.204
146.201
146.201
146.205
146.201
146.201
146.201
146.201
146.201
146.202
146.211
146.201
146.201
146.203
146.201
146.201
146.202
146.201
146.201
146.201
146.201
146.204
146.202
146.201
146.201
146.201
146.201
146.201
146.201
146.201
146.201
146.201
274.661
1261.39
146.202
146.201
146.201
146.201
146.416
1685.27
146.201
146.204
146.201
146.202
146.201
146.331
146.201
146.201
146.201
146.201
146.201
146.201
146.201
146.201
146.201
146.201
146.201
146.201
146.201
146.201
146.201
146.201
146.201
174.144
146.201
146.201
146.201
146.201
146.201
146.201
146.201
146.201
146.201
146.201
146.201
146.201
146.201
146.201
146.201
146.201
146.201
146.201
146.201
146.201
146.201
146.201
146.201
146.201
146.201
146.201
146.201
146.201
146.201
146.201
146.201
146.201
146.201
146.201
146.201
146.201
146.201
146.201
146.201
669.927
146.578
146.201
146.28
146.431
146.201
146.722
146.201
146.201
146.232
146.201
146.202
146.201
146.326
146.201
146.201
146.213
146.202
146.201
146.201
146.201
146.201
146.201
146.201
146.616
146.201
146.201
146.201
146.201
146.201
146.201
146.201
146.201
146.781
146.201
146.201
146.201
146.201
1206.65
146.201
147.162
147.253
146.201
146.202
147.199
146.201
146.205
146.201
146.201
146.201
147.129
147.196
146.201
146.201
146.201
146.201
146.246
146.201
146.201
146.201
146.201
146.201
146.201
146.402
146.201
146.202
146.201
146.207
146.201
146.201
146.201
146.205
146.201
146.201
146.201
146.201
146.201
146.201
146.201
146.201
146.201
146.201
146.201
146.201
146.206
146.201
146.201
146.202
146.201
146.201
146.201
146.201
146.207
146.201
146.201
146.205
146.496
146.201
219.581
146.201
102.635
146.381
146.201
146.207
146.568
5983.7
146.201
146.201
146.201
146.201
146.201
146.201
147.118
146.201
146.206
146.201
146.201
146.201
146.201
146.722
146.201
331.69
146.201
146.201
146.202
146.201
146.201
146.201
146.201
148.413
146.201
146.201
146.201
146.201
146.201
146.201
146.202
146.54
146.324
146.201
146.201
146.201
146.201
146.201
146.201
146.201
146.201
146.201
146.201
146.201
146.201
146.201
146.201
146.224
146.231
146.201
146.201
146.201
146.201
146.201
146.201
146.201
146.201
146.324
161.181
910.081
146.201
146.201
146.348
146.201
146.201
146.201
3628.23
3756.71
146.201
146.201
146.206
146.201
146.201
146.201
175.803
146.201
146.201
146.201
146.201
146.201
146.201
146.201
146.201
146.664
146.201
146.351
146.804
146.201
146.201
146.201
146.202
146.201
146.201
146.202
146.335
146.201
146.201
146.211
146.201
146.202
146.766
146.201
146.21
230.078
146.201
146.203
146.201
146.202
146.202
146.201
149.126
147.309
146.502
146.201
146.201
146.201
146.408
148.003
146.201
146.481
146.201
146.201
146.201
146.201
146.201
146.201
146.482
146.202
146.201
146.201
146.201
146.201
146.201
146.201
146.201
146.201
146.201
3390.45
146.388
146.201
146.201
146.201
1210.68
146.201
146.201
146.201
146.202
146.201
146.201
146.201
146.203
146.201
146.201
146.201
1796.22
146.203
146.202
146.201
147.9
146.202
146.597
146.201
146.201
146.564
146.201
146.504
146.559
146.203
146.204
146.201
146.204
146.204
256.327
146.201
599.844
146.524
146.206
146.516
146.202
146.357
146.201
330.263
146.201
146.298
146.201
146.201
146.381
146.362
146.201
146.201
146.207
146.204
146.201
146.201
165.334
146.201
146.201
149.836
146.201
146.201
146.201
147.201
150.243
146.402
146.201
157.77
146.202
146.132
146.201
146.201
147.555
146.201
146.413
147.773
146.201
423.678
1188.52
203.009
146.201
146.201
146.206
146.201
146.201
146.201
146.201
146.201
146.201
146.201
146.201
226.703
146.204
146.203
146.444
146.201
146.201
146.201
146.201
146.201
146.201
146.201
146.201
146.201
146.201
146.201
146.201
146.36
146.201
146.355
146.825
147.167
146.201
146.201
146.354
146.201
146.201
147.764
146.201
146.201
146.203
146.201
146.254
146.201
146.261
146.608
146.409
146.201
146.201
146.201
146.201
146.201
146.201
146.201
146.201
146.516
146.201
146.201
146.201
146.277
146.201
146.428
146.201
146.201
146.201
146.201
146.201
146.201
146.201
146.201
146.201
146.353
146.802
146.201
146.201
524.368
146.201
146.204
146.203
146.201
146.202
146.201
146.201
146.201
146.201
146.201
146.202
146.202
146.202
146.203
146.202
146.201
147.728
146.205
146.201
147.65
146.202
146.206
146.201
147.458
146.202
146.201
146.201
146.222
146.201
146.203
146.314
146.201
150.576
146.201
146.201
146.201
146.201
146.201
147.432
146.201
146.201
146.341
146.204
6943.73
146.201
146.201
146.201
146.201
146.202
149.313
146.201
146.201
146.201
146.201
146.202
247.916
146.364
146.201
146.201
146.202
146.202
146.201
146.201
3854.51
250.16
146.451
146.202
146.201
252.709
147.709
146.205
146.201
146.201
146.201
146.201
146.201
146.492
2048.92
258.097
146.201
146.201
146.202
146.201
146.201
146.201
161.178
146.201
146.201
146.201
146.201
146.688
146.201
146.201
104.474
146.213
146.201
146.201
158.921
146.201
146.206
146.201
147.35
146.201
147.055
146.201
146.202
146.201
146.202
146.201
146.699
146.201
146.338
146.201
146.201
742.936
146.203
146.201
146.201
146.341
2986.72
146.202
146.707
146.201
146.411
148.466
146.202
146.201
146.201
193.063
146.843
146.516
146.202
146.431
146.201
146.205
146.201
146.202
146.201
146.315
146.447
146.202
146.202
146.438
146.757
281.984
166.267
146.201
146.289
272.177
183.108
306.448
185.039
146.201
146.204
146.201
146.201
146.202
146.204
146.21
146.448
146.588
146.26
146.202
146.268
321.954
366.583
146.201
146.205
147.852
146.201
681.291
146.202
266.807
147.224
146.202
231.59
146.206
226.895
147.673
146.93
147.512
146.201
146.201
146.726
146.203
146.202
152.525
146.28
146.45
146.244
177.787
146.343
146.201
146.201
146.201
146.406
146.201
146.327
146.201
146.201
146.201
146.203
146.495
5975.4
146.201
198.883
146.201
146.436
146.819
146.201
146.59
146.201
146.202
146.216
146.202
146.201
146.203
146.204
146.576
146.423
146.201
146.437
146.202
146.202
146.202
146.201
146.201
146.243
146.201
146.201
146.204
146.201
146.202
2976.4
146.564
146.201
146.202
146.202
146.202
146.202
146.216
146.201
146.201
146.201
146.201
146.201
146.203
146.201
146.201
146.513
146.201
146.202
146.201
146.201
146.201
146.261
146.202
146.204
146.342
146.201
146.201
146.201
146.289
146.201
146.4
146.437
146.202
146.201
435.45
146.343
146.204
146.201
146.561
146.201
146.201
146.202
146.202
146.204
146.201
146.201
146.239
146.201
526.282
146.201
146.201
1487.96
146.206
154.561
146.202
147.018
146.201
146.204
146.238
146.201
146.201
146.21
146.201
146.201
146.201
146.201
146.201
146.201
146.202
146.201
146.285
146.201
147.552
146.201
146.201
368.044
146.202
221.724
146.204
146.201
146.202
628.153
146.206
146.202
146.216
146.235
146.204
146.204
151.615
146.231
146.201
147.126
146.202
146.201
146.311
1194.74
146.201
146.201
146.201
146.204
146.201
146.202
147.041
146.201
146.201
135.828
146.201
1111.39
146.201
59.044
146.201
146.203
146.208
146.32
146.217
146.201
146.217
146.219
166.258
146.202
1574.6
146.201
146.201
146.201
147.031
146.206
146.272
146.201
146.201
146.258
1557.75
146.201
146.216
146.635
146.285
146.202
146.242
272.681
1557.93
146.203
147.145
146.203
147.725
146.201
148.228
1570.3
155.52
146.201
146.201
146.206
146.373
146.357
146.201
146.201
146.446
146.436
146.201
146.997
146.204
146.201
147.479
146.201
146.201
146
153.236
146.201
146.204
146.201
146.201
146.263
146.241
148.355
146.201
148.076
146.217
146.275
146.201
146.201
146.207
146.207
146.204
146.201
146.202
146.201
146.253
146.201
146.201
146.346
146.201
146.939
146.454
146.205
146.232
146.201
146.523
146.201
647.937
146.203
146.201
146.201
146.415
146.257
146.201
146.205
149.518
146.296
146.486
146.201
146.21
146.437
146.612
146.201
146.262
146.429
146.223
146.205
146.218
146.203
146.676
2044.78
146.288
146.252
146.289
146.214
146.707
146.204
146.203
146.289
146.782
146.206
146.201
146.203
146.776
146.201
146.201
146.201
146.827
146.201
146.201
146.201
146.202
146.201
146.201
146.201
147.078
146.201
146.201
146.205
146.201
740.887
146.201
146.201
146.204
146.201
146.203
1344.87
149.427
146.201
146.201
146.201
146.716
146.879
146.238
146.202
146.201
146.397
146.201
146.206
147.277
148.195
146.201
146.201
146.201
146.201
146.202
146.202
146.201
146.201
146.201
146.201
146.385
146.201
146.202
146.201
146.201
146.202
146.393
146.202
146.202
146.201
146.201
146.202
146.206
146.201
146.201
146.201
149.478
146.202
146.203
146.201
146.217
146.202
146.201
3539.56
146.548
146.501
146.202
980.362
146.234
146.609
146.203
3167.04
146.201
146.201
146.201
146.354
146.212
1611.87
147.391
146.202
146.201
146.201
146.242
146.201
146.224
146.393
146.212
146.201
147.649
146.529
146.554
146.201
146.201
146.201
146.201
146.201
146.201
146.201
147.08
146.201
1225.76
146.203
146.201
146.201
146.814
147.017
146.201
146.203
146.201
146.205
146.201
146.203
148.038
146.254
146.201
146.391
146.201
146.201
146.201
146.201
146.201
146.201
11423.9
146.342
146.201
146.201
146.201
146.201
146.201
146.201
146.201
146.201
146.201
146.201
146.201
146.201
146.201
146.201
146.201
146.201
146.201
146.201
146.201
187.867
146.803
146.622
170.435
146.201
146.201
146.202
146.201
146.202
146.201
146.202
146.201
146.201
146.472
146.202
146.202
146.202
146.202
146.201
146.201
186.105
147.101
146.201
146.201
146.201
146.201
146.203
146.201
146.501
146.201
146.201
146.201
146.201
146.201
146.208
146.206
146.202
146.505
146.203
146.203
146.204
146.65
146.203
146.204
146.201
146.201
147.196
146.201
146.386
146.205
146.208
146.206
147.209
146.205
146.201
146.259
146.201
146.234
146.249
146.204
146.201
146.201
146.201
146.201
146.202
146.201
146.7
616.69
146.229
146.201
146.201
146.231
146.201
146.201
146.201
146.201
146.201
149.339
146.643
146.388
146.201
146.57
146.201
148.557
146.402
146.201
146.201
146.412
146.202
150.281
146.252
146.208
146.441
146.201
146.201
146.207
146.201
146.201
2222.56
146.201
146.201
146.201
146.491
146.201
146.201
146.203
146.201
146.444
150.223
146.201
146.202
146.201
146.211
146.201
146.201
146.201
146.202
146.201
146.56
146.472
146.201
146.72
146.201
146.201
146.201
146.203
147.724
146.201
146.936
146.631
175.961
170.701
146.201
146.201
146.264
146.201
146.371
146.379
146.367
146.416
146.38
146.201
146.378
146.372
146.204
146.205
146.201
146.637
146.201
146.201
146.201
146.203
146.201
146.201
146.201
146.863
146.201
146.201
146.201
146.201
146.202
146.201
146.201
146.214
147.243
146.201
145.78
146.204
146.201
146.202
146.201
146.621
146.201
146.201
146.221
146.202
146.201
146.201
146.201
146.201
146.936
146.201
146.284
146.201
146.802
146.593
146.202
146.201
146.206
146.201
146.202
146.201
146.201
146.201
146.205
146.21
146.202
146.78
146.201
146.471
147.294
146.201
146.319
146.201
146.204
146.207
146.202
146.201
193.361
146.393
146.525
146.203
193.894
146.387
146.201
146.201
146.201
146.202
146.202
146.201
147.185
146.201
146.201
146.205
146.201
146.207
146.201
146.201
1469.12
949.841
146.197
146.201
146.542
146.201
146.202
146.205
146.201
146.208
146.201
146.202
146.201
146.198
1354.85
146.491
146.205
146.411
146.21
146.202
146.477
149.13
146.201
146.201
146.199
146.226
146.315
146.201
146.2
146.78
146.354
146.895
146.2
146.199
146.731
146.203
146.201
166.553
146.202
146.201
146.203
146.201
1576.77
146.201
146.201
147.423
146.203
958.375
146.203
982.958
146.203
146.218
209.381
146.205
146.219
3650.88
146.21
146.202
147.239
146.201
146.201
146.201
240.317
146.823
146.201
146.328
146.201
149.158
151.852
146.955
146.239
745.524
146.201
151.245
146.201
146.201
146.201
146.201
146.201
146.201
146.201
146.201
146.342
148.348
146.328
146.213
146.201
146.201
146.201
146.201
146.201
146.201
345.702
179.273
146.201
146.201
146.201
146.592
146.201
146.201
146.329
146.201
146.201
146.201
146.201
1382.8
146.234
146.521
148.982
146.201
146.203
148.293
146.201
146.201
146.201
146.485
901.37
147.149
351.875
146.201
146.201
2562.17
146.201
146.201
146.201
146.201
146.203
146.201
146.201
146.201
146.201
164.073
146.91
146.201
146.351
146.515
146.201
146.337
146.201
146.201
146.201
146.201
146.201
146.201
146.201
146.201
146.414
149.763
146.575
146.362
146.201
146.201
2219.09
148.338
146.201
146.345
146.201
146.201
146.231
146.699
2497.68
146.347
146.201
1217.22
2594.84
146.658
146.201
146.394
146.234
146.227
146.623
146.206
3149.43
146.222
146.202
146.222
146.365
146.227
146.21
146.251
146.209
146.203
146.835
1057.09
2196.58
146.201
146.201
7228.2
146.201
146.201
147.147
146.201
148.327
146.209
146.201
146.201
146.201
146.201
146.207
146.337
597.831
146.355
152.45
146.201
146.901
146.208
146.203
146.201
146.201
146.201
146.201
146.201
146.201
146.23
146.201
146.201
146.204
146.62
146.206
147.837
4443.15
146.835
146.201
148.202
146.201
146.201
146.202
146.201
146.201
146.201
146.474
146.588
146.476
147.274
1279.49
147.026
146.201
223.74
146.582
146.203
178.156
146.201
146.205
146.201
146.8
146.202
146.78
146.201
146.201
146.201
146.201
149.075
146.201
230.078
146.201
150.183
146.645
146.201
146.201
789.649
146.601
146.881
146.481
146.201
147.337
5632.52
146.201
146.202
146.366
146.316
174.236
146.201
176.717
147.443
146.531
192.052
269.625
146.348
206.137
146.201
12228.6
455.563
146.639
153.231
146.203
146.221
242.084
146.201
153.771
146.644
146.364
146.202
146.201
150.402
146.203
146.201
146.201
146.202
146.201
146.201
146.203
146.201
1621.22
155.311
146.235
149.034
146.207
146.201
146.269
146.731
1106.84
146.21
146.408
146.415
148.762
1178.79
146.6
146.202
368.05
146.201
146.201
146.201
51.731
146.202
147.608
146.387
146.732
147.574
913.59
146.202
147.125
146.201
146.201
146.201
146.202
146.201
146.202
146.246
146.665
149.337
8854.54
146.244
166.711
146.204
790.777
146.201
146.933
149.215
149.546
146.201
146.201
146.201
146.201
146.201
146.201
146.805
161.668
146.204
246.518
146.311
146.57
236.608
790.52
5913.46
161.089
146.201
148.489
146.399
146.201
146.201
146.907
147.356
146.201
146.201
146.201
146.203
146.201
147.513
147.709
147.416
147.232
146.201
154.929
146.541
146.201
146.371
146.201
146.205
150.95
146.468
146.205
221.343
146.202
146.201
146.205
146.201
146.201
146.201
146.308
146.202
146.202
146.865
146.57
153.985
146.203
146.201
146.201
146.201
146.201
146.201
146.516
146.729
146.201
146.201
4871.07
146.201
146.201
146.201
146.201
146.241
234.883
1660.42
146.536
146.997
146.201
146.58
146.201
146.338
146.442
146.201
146.395
146.201
146.201
281.048
146.201
146.201
149.662
146.399
151.327
196.02
146.201
146.337
146.34
146.509
146.202
146.884
146.61
147.433
146.41
598.727
146.201
146.202
146.328
146.612
146.314
146.626
146.377
152.575
146.201
146.201
4290.56
158.933
146.321
146.595
146.355
146.931
1287.83
146.201
146.399
146.201
217.898
146.201
146.456
146.684
146.201
1452.9
146.201
146.822
149.864
146.201
146.201
146.409
146.201
146.201
146.201
146.201
146.355
146.201
186.131
3530.71
146.201
146.201
822.176
146.202
146.201
146.355
146.201
146.201
146.201
146.201
146.258
146.255
622.823
146.201
146.201
276.589
146.201
157.217
167.716
146.201
146.201
146.202
146.202
148.191
146.201
146.201
146.201
146.201
146.201
169.252
150.695
146.203
146.201
155.917
146.202
146.778
146.201
146.328
146.201
159.787
146.544
146.201
146.201
146.201
147.125
149.041
146.201
146.373
146.198
146.201
146.703
146.221
146.201
146.202
146.201
278.417
146.201
146.201
146.201
146.201
146.201
146.873
192.58
146.201
146.201
203.576
146.201
146.785
146.201
146.201
2549.41
3235.75
146.207
146.204
146.201
146.353
2447.3
146.201
260.094
146.201
482.055
146.547
146.201
212.119
155.261
884.746
1629.06
520.302
146.203
146.201
146.201
147.67
146.388
146.826
1336.64
146.201
147.926
146.201
146.295
723.357
851.805
146.201
147.171
146.582
146.201
612.164
146.201
146.201
146.201
445.262
146.643
146.586
146.201
146.201
146.201
1568.87
146.202
2830.57
146.201
146.201
530.209
148.747
146.201
146.201
4888.22
146.201
146.201
146.202
405.608
147.127
146.439
146.201
3030.55
454.527
148.965
147.674
146.203
150.685
146.202
146.314
775.395
660.009
149.148
151.556
147.943
152.373
146.201
22230.9
603.251
148.203
146.201
149.717
705.085
146.201
146.36
150.016
146.201
233.768
146.201
3406.65
146.507
146.676
146.586
146.599
146.201
146.201
146.201
146.201
3941.96
146.201
146.478
318.355
146.201
146.201
146.201
146.201
146.201
146.201
146.205
146.201
380.243
146.201
156.277
146.201
146.206
146.201
146.21
146.209
146.201
146.201
146.201
146.201
146.239
303.879
583.941
149.101
146.205
146.204
146.202
146.201
146.203
146.243
146.203
146.201
147.103
146.855
1097.43
146.202
146.204
146.202
146.269
146.921
146.201
146.203
146.207
146.779
628.513
146.206
148.969
146.204
146.242
147.399
148.975
146.201
146.212
146.207
146.201
146.215
146.202
146.203
146.313
146.202
146.202
146.201
146.209
148.585
146.201
150.744
146.202
146.311
146.201
146.201
146.322
148.183
146.344
146.202
146.201
146.201
252.073
41.5813
146.201
236.998
56.2688
146.202
146.291
146.895
149.877
51.2161
146.202
146.202
146.207
146.201
389.994
146.208
146.201
146.201
146.201
146.201
146.201
146.201
146.201
146.201
146.286
146.202
146.201
146.453
146.201
146.234
146.415
146.201
146.201
146.358
146.349
146.201
146.218
146.201
146.201
146.213
146.201
146.201
147.338
146.202
146.201
146.201
146.201
146.202
146.201
146.615
146.623
177.784
146.959
146.617
146.497
146.917
146.209
146.202
151.359
146.216
146.202
146.47
146.207
152.584
146.201
146.208
146.204
146.239
146.296
146.217
146.297
146.202
146.218
146.344
146.201
147.714
146.201
147.396
146.216
146.447
146.326
146.214
146.33
146.275
146.315
146.218
146.201
146.201
147.119
146.223
146.202
146.201
146.201
146.213
146.202
146.227
146.772
146.201
146.201
146.203
146.203
161.043
146.201
146.236
146.202
146.201
146.205
146.201
146.231
146.201
146.201
146.201
146.201
146.21
146.201
146.201
146.201
146.219
146.201
146.201
146.653
146.201
146.248
166.071
146.201
146.202
146.206
146.201
146.201
146.201
146.201
146.201
146.479
146.582
146.232
146.201
146.202
146.201
146.308
146.421
146.201
146.201
146.424
146.201
146.201
146.494
146.201
147.562
155.001
146.201
146.201
146.916
540.837
206.918
146.201
146.201
146.201
146.201
146.274
146.201
146.201
146.201
146.203
146.438
146.201
146.201
146.201
1438.55
209.367
147.342
1441.6
146.292
146.202
146.206
146.207
146.205
146.202
147.753
146.213
146.201
146.207
1431.05
146.201
146.201
1629.08
146.58
1644.94
146.201
146.254
146.201
146.202
1110.22
146.201
1109.5
146.205
146.201
1083.38
146.204
146.201
146.212
1259.39
146.201
146.537
946.233
146.203
146.231
1239.27
146.359
146.203
146.201
146.354
147.055
146.36
870.657
146.201
146.201
146.541
146.204
146.487
146.53
146.201
146.201
146.201
147.006
146.201
146.203
146.202
146.201
146.279
146.201
146.415
508.51
146.201
146.27
147.235
529.756
146.201
146.216
946.704
146.201
146.274
146.402
146.273
146.201
146.705
146.201
146.201
146.203
146.201
198.589
146.825
146.847
630.622
146.469
146.201
146.205
146.901
146.201
146.201
146.201
157.339
146.203
161.777
146.201
146.525
506.232
147.09
146.202
186.469
313.798
146.203
146.975
147.03
146.614
243.481
146.897
146.45
146.211
146.208
177.287
245.199
147.199
146.21
236.268
184.073
146.201
146.205
236.344
146.238
146.203
146.684
811.501
146.208
146.201
4863.44
146.203
146.201
147.832
146.201
4420.92
146.201
147.758
173.77
382.249
146.201
146.201
146.201
6215.2
146.238
147.578
146.202
6437.96
4463.71
146.237
146.201
148.443
146.767
251.792
578.328
290.19
146.201
146.414
146.201
146.208
146.201
146.202
146.201
146.202
146.203
146.201
146.201
14951
146.201
146.211
146.201
146.235
146.706
146.202
149.67
146.201
146.202
146.217
146.202
146.201
146.201
146.201
146.201
146.727
146.2
6424.28
146.201
146.206
146.27
3890.91
146.201
146.215
146.299
146.201
146.201
4799.93
146.201
146.202
146.201
146.201
146.201
146.214
146.201
146.201
146.201
146.201
146.912
155.786
146.201
146.583
146.201
146.274
146.668
146.201
146.201
1223.15
146.201
146.204
146.201
146.212
146.203
146.201
146.201
1474.27
3999.81
146.201
188.276
146.201
146.201
146.205
146.242
146.201
146.203
146.38
146.204
146.201
146.222
146.204
159.877
148.579
146.203
146.203
146.203
459.509
146.201
146.201
146.201
146.201
146.201
146.201
146.201
146.474
146.205
146.201
146.203
152.654
152.613
146.201
147.004
190.374
146.201
150.219
29277.6
146.201
146.38
146.639
146.206
146.202
146.202
146.271
150.552
146.204
146.203
146.202
146.201
146.206
146.206
149.452
146.229
146.202
146.201
146.203
149.38
146.206
146.202
146.201
146.885
183.347
146.201
146.202
146.201
146.203
146.25
791.16
146.202
146.233
146.304
168.036
146.201
146.201
1852.04
146.201
146.201
146.201
146.201
146.211
146.204
146.201
146.215
146.205
146.201
146.201
146.201
563.082
146.586
146.201
146.218
146.201
146.201
146.201
1260.48
146.345
1895.55
146.201
146.201
146.201
146.204
150.829
146.206
153.41
146.201
146.201
146.202
1687.07
4109.07
147.737
146.201
157.823
158.695
183.593
157.238
152.973
146.204
393.977
146.385
146.201
146.201
146.201
146.202
146.201
146.201
151.52
1307.37
146.805
146.339
152.319
146.202
160.512
166.99
146.569
147.239
156.134
147.715
854.732
148.298
146.201
176.517
146.727
146.203
146.201
1316.66
146.202
146.201
163.929
476.654
146.201
146.201
146.201
146.202
146.201
146.201
146.201
163.606
2261.41
146.201
146.202
146.236
148.727
233.71
146.201
146.201
146.201
147.454
146.201
146.203
146.206
146.201
146.203
146.201
146.201
1571.89
147.731
146.201
146.201
146.201
146.201
146.203
147.595
146.201
146.203
146.201
146.201
146.214
146.201
146.201
146.201
146.201
146.201
146.201
146.205
146.201
146.201
146.43
146.201
148.988
146.204
146.201
146.201
146.201
146.201
146.204
258.57
148.846
385.298
149.153
146.205
168.908
159.331
148.882
148.898
154.603
146.414
146.201
146.203
146.201
146.201
146.201
146.201
146.204
150.042
146.201
1022.64
146.201
146.202
146.205
146.201
146.202
146.201
146.203
1071.68
146.231
146.201
146.201
146.201
146.801
146.201
146.209
360.375
146.204
314.393
146.201
146.201
146.204
245.149
261.619
263.152
243.245
727.43
153.644
1277.64
146.347
324.533
146.201
146.203
146.201
146.201
149.969
165.401
146.921
146.234
152.988
148.82
146.202
174.138
147.117
146.201
146.201
146.201
147.124
146.855
146.35
146.201
147.376
529.861
146.244
3605.68
146.424
147.037
200.783
146.201
147.051
292.251
146.294
146.201
146.203
146.574
146.201
146.201
177.389
146.201
146.201
149.018
146.205
243.122
157.353
146.204
146.202
146.37
146.384
152.978
146.375
146.504
146.673
146.201
146.201
146.399
146.436
146.377
146.367
146.311
146.289
146.924
287.861
3645.15
146.201
146.201
146.349
146.201
3224.23
146.201
146.201
146.201
146.346
146.201
183.709
146.201
146.201
146.244
146.343
146.346
146.334
146.201
146.645
3318.79
1218.07
146.201
146.635
1962.53
146.822
3159.06
146.202
146.621
146.201
146.201
146.201
146.201
146.201
146.202
146.201
3265.13
146.201
146.202
146.201
146.201
146.201
146.201
146.201
146.324
153.077
146.201
146.201
386.874
146.203
3222.56
146.245
146.201
694.039
146.202
146.201
146.201
3069.14
146.206
146.201
148.536
146.202
146.201
146.201
146.204
146.201
146.201
146.201
146.201
146.201
146.201
146.203
146.372
146.201
146.203
146.201
146.391
146.201
146.203
146.202
146.739
146.201
146.201
146.201
146.201
146.232
146.201
146.201
146.201
146.201
146.201
665.369
146.201
146.201
146.201
146.201
146.201
179.252
146.201
146.201
146.202
146.211
146.201
146.202
146.201
146.201
146.201
146.201
146.201
146.319
146.201
146.201
146.201
146.201
146.201
146.201
3985.58
146.222
146.204
146.201
146.201
146.215
146.201
146.205
147.018
147.133
146.218
146.201
146.201
146.201
146.203
383.283
146.201
146.201
478.119
146.201
146.201
146.201
146.201
146.201
146.202
161.801
146.201
146.201
146.201
589.961
400.726
534.912
146.207
148.306
634.844
146.204
146.201
146.202
596.534
146.201
146.202
146.201
146.202
146.916
146.201
146.201
146.201
146.211
146.205
146.223
146.388
146.201
146.759
148.078
146.201
159.262
146.201
146.201
146.201
146.202
146.201
146.202
146.201
157.128
150.267
184.104
148.028
162.274
146.204
146.201
146.201
146.201
146.208
146.201
146.201
146.201
146.201
149.688
146.205
149.513
279.228
146.201
148.992
146.365
146.383
146.204
146.201
146.381
146.201
146.201
146.201
146.96
150.679
156.588
146.201
148.608
146.201
146.202
146.201
146.202
146.201
2049.31
146.428
146.201
146.201
148.685
146.209
146.201
149.157
146.201
146.201
367.173
146.201
146.202
146.201
146.387
146.202
146.201
146.202
146.201
146.204
146.201
2089.2
146.201
146.22
146.202
146.203
146.342
146.201
146.201
146.201
232.817
146.202
146.589
154.46
146.404
146.201
810.667
146.457
146.201
146.201
495.288
146.442
146.201
146.515
147.026
146.207
146.203
146.201
146.511
146.201
146.201
146.201
146.203
148.093
146.204
195.271
146.201
146.6
146.203
146.201
146.341
146.205
146.202
146.201
146.201
146.205
165.049
146.502
391.987
146.48
146.409
146.5
146.201
146.201
146.201
146.755
1140.17
1012.78
146.245
146.205
186.79
146.479
2171.82
949.866
146.201
2446.55
2363.56
146.495
146.201
152.732
443.328
633.936
654.83
146.501
146.37
172.521
146.207
160.394
146.206
245.447
146.205
2505.21
197.684
146.201
146.206
146.515
649.754
146.204
148.46
146.201
146.201
197.729
146.202
146.201
146.202
146.201
146.213
146.201
12946.5
149.167
146.201
146.201
181.721
146.205
1941.59
1133.26
178.733
146.205
146.201
146.201
555.065
146.201
146.201
146.202
146.203
146.203
204.772
146.202
146.201
653.564
308.47
146.201
146.201
205.869
146.202
146.204
247.135
146.201
146.201
146.203
146.422
17875.9
180.588
146.201
146.205
146.201
146.493
170.359
146.302
3386.1
146.201
146.203
146.201
146.202
146.201
147.257
146.331
146.201
1182.81
146.201
146.201
146.336
146.201
146.207
146.203
155.1
480.271
146.201
146.201
147.009
148.32
146.201
146.211
16799.2
146.201
146.203
146.204
146.201
146.201
146.201
146.201
146.201
146.202
146.201
146.203
147.929
146.201
146.389
8780.21
146.515
147.929
146.201
146.255
146.204
146.201
147.913
363.278
1027.13
147.823
142.805
149.04
146.201
146.241
147.153
146.904
148.412
146.906
146.204
148.094
146.201
146.201
146.201
152.589
146.519
146.203
624.11
146.201
146.201
146.201
152.781
398.137
146.201
148.41
147.296
164.622
148.474
148.98
146.201
146.201
148.12
146.203
146.201
146.201
146.201
146.201
146.203
146.201
147.189
146.417
149.612
146.355
146.205
146.265
146.201
146.201
146.201
147.762
146.201
146.201
146.201
148.681
146.203
680.492
147.83
146.808
146.422
146.442
146.203
148.105
146.201
146.201
146.207
206.016
146.929
146.203
146.201
146.202
238.806
146.201
149.325
445.081
147.11
147.373
146.201
146.201
148.16
202.132
146.203
147.584
146.222
146.267
146.201
148.004
146.202
148.935
146.201
146.201
146.273
146.258
146.201
146.201
146.249
148.657
146.842
146.203
146.201
146.32
147.072
146.202
146.201
146.201
3589.43
149.257
164.949
146.923
146.201
157.726
152.135
146.202
146.201
146.203
146.201
146.201
146.201
1043.3
146.201
146.204
146.202
149.194
146.201
146.201
146.201
146.201
146.621
209.293
146.201
166.867
146.204
146.202
146.201
146.202
146.201
174.508
147.195
146.201
146.201
146.626
146.204
146.204
146.202
146.201
146.203
146.633
146.202
146.207
146.201
146.201
146.201
146.62
146.201
146.201
413.869
146.201
146.202
146.201
146.201
1575.11
146.201
149.284
146.203
146.216
146.201
146.202
146.201
146.201
146.201
146.204
146.204
146.608
992.377
146.201
146.201
146.202
146.201
146.205
146.201
146.201
146.201
146.207
146.204
146.206
146.201
146.752
1682.34
154.915
146.206
148.468
146.202
146.205
807.168
146.205
498.201
146.204
146.44
146.201
146.201
146.201
146.201
146.207
146.201
149.878
147.946
146.201
146.201
146.201
146.203
146.202
146.206
146.201
146.201
146.201
146.857
149.577
146.831
146.205
146.201
150.783
153.512
146.942
146.205
146.202
146.201
146.206
146.201
146.22
146.211
146.202
153.615
146.366
149.063
151.239
148.192
149.989
146.202
152.302
146.201
147.742
146.201
148.338
146.31
148.307
152.541
146.201
146.201
146.201
146.51
903.263
146.201
147.811
146.203
1217.06
146.201
146.201
146.201
146.201
146.883
146.201
146.201
146.201
146.201
146.202
146.201
147.641
150.445
146.273
146.201
146.201
147.936
146.201
146.201
239.343
1174.79
243.929
146.201
146.201
146.598
228.698
146.201
146.201
146.632
146.928
154.043
146.201
147.195
146.207
146.201
146.206
146.201
146.201
146.201
146.202
146.201
146.201
146.201
146.201
146.201
146.201
146.201
146.201
146.201
146.201
146.201
146.201
146.201
146.201
146.201
146.201
146.489
147.748
146.58
146.201
146.201
146.201
146.201
146.371
146.201
146.201
146.202
146.201
146.201
146.201
146.203
146.201
146.201
146.201
146.201
146.201
146.567
146.201
146.65
147.21
146.422
146.201
146.201
147.159
146.201
146.201
146.201
146.201
146.201
146.201
146.201
146.201
146.201
146.201
148.335
148.123
146.201
146.201
146.201
146.201
146.201
146.201
146.201
146.201
146.41
149.924
146.201
150.012
146.201
146.201
149.56
150.023
146.201
146.218
146.465
146.201
146.201
146.201
146.201
146.201
149.698
146.201
150.16
146.201
146.201
146.201
146.508
146.616
146.399
146.201
146.201
146.201
146.201
146.201
146.201
146.201
146.201
146.201
146.201
146.713
146.201
146.201
146.201
146.201
146.201
146.201
146.201
146.246
149.187
146.231
146.201
146.202
146.201
146.201
146.202
146.201
146.201
146.201
148.705
146.205
146.201
146.201
146.591
146.201
146.338
146.201
146.201
146.309
146.201
146.358
3020.03
146.261
146.203
146.201
146.236
146.236
146.201
146.201
146.201
146.201
146.232
146.202
146.202
146.223
146.351