/*--------------------------------*- C++ -*----------------------------------*\
| =========                 |                                                 |
| \\      /  F ield         | OpenFOAM: The Open Source CFD Toolbox           |
|  \\    /   O peration     | Version:  v2012                                 |
|   \\  /    A nd           | Website:  www.openfoam.com                      |
|    \\/     M anipulation  |                                                 |
\*---------------------------------------------------------------------------*/
FoamFile
{
    version     2.0;
    format      ascii;
    class       volScalarField;
    location    "3.5";
    object      ILambda_8_0;
}
// * * * * * * * * * * * * * * * * * * * * * * * * * * * * * * * * * * * * * //

dimensions      [1 0 -3 0 0 0 0];


internalField   nonuniform List<scalar> 
108993
(
146.203
146.528
146.201
146.201
146.201
146.201
146.404
146.201
146.201
146.225
146.201
146.201
146.201
146.202
146.201
146.204
146.244
146.201
146.201
146.273
146.201
146.201
146.204
146.201
146.201
146.201
146.201
146.291
146.337
146.201
146.201
146.202
146.201
146.209
146.201
146.201
146.201
146.201
4055.72
2536.75
146.324
146.201
146.202
146.201
146.306
1091.75
146.201
146.466
146.442
146.202
146.201
146.302
146.6
146.201
146.202
146.201
146.201
146.201
146.201
146.201
146.201
146.201
146.201
146.201
146.201
146.204
146.201
146.201
146.202
146.233
146.201
146.201
146.201
146.201
146.432
146.201
146.201
146.221
146.201
146.201
146.201
146.202
146.201
146.201
146.201
146.202
146.201
146.201
146.201
146.201
146.201
146.201
146.201
146.201
146.201
146.204
146.201
146.201
146.201
146.201
146.201
146.201
146.201
146.202
146.201
146.201
146.201
146.201
146.201
10656.3
146.375
146.201
146.503
146.724
146.201
147.112
146.201
146.201
146.248
146.201
146.201
146.201
146.442
146.201
146.201
146.219
146.334
146.201
146.201
146.201
146.202
146.201
146.201
147.17
146.201
146.201
146.201
146.201
146.201
146.202
146.201
146.201
146.222
146.201
146.201
146.201
146.201
1742.2
146.201
149.748
150.472
146.201
146.202
169.662
146.201
146.621
146.201
146.201
146.201
146.228
155.09
146.201
146.201
146.201
146.201
146.444
146.201
146.201
146.201
146.201
146.201
146.201
146.245
146.201
146.21
146.201
146.586
146.201
146.201
146.201
146.206
146.201
146.201
146.201
146.202
146.201
146.201
146.201
146.201
146.201
146.201
146.201
146.201
146.565
146.201
146.202
146.316
146.201
146.201
146.201
146.201
146.628
146.201
146.201
146.361
146.593
146.201
814.556
146.201
199.524
146.237
146.201
146.575
148.463
3113.94
146.201
146.201
146.201
146.201
146.201
146.201
149.917
146.216
146.538
146.201
146.201
146.201
146.201
146.447
146.201
150.613
146.201
146.201
146.372
146.201
146.201
146.201
146.201
147.521
146.201
146.201
146.201
146.201
146.201
146.201
146.208
153.368
146.451
146.201
146.201
146.201
146.201
146.201
146.201
146.201
146.201
146.201
146.201
146.201
146.201
146.201
146.415
146.262
146.235
146.201
146.201
146.201
146.327
146.201
146.201
146.201
146.201
153.117
120.274
1296.82
146.201
146.201
146.4
146.201
146.216
146.206
407.257
501.544
146.201
146.201
146.214
146.201
146.204
146.202
276.952
146.201
146.201
146.204
146.201
146.201
146.201
146.201
146.201
146.24
146.201
146.464
146.86
146.201
146.201
146.201
146.279
146.201
146.22
146.279
150.084
146.201
146.201
146.279
146.201
146.305
146.972
146.201
146.271
2482.35
146.201
146.531
146.201
146.426
146.425
146.201
149.897
155.041
146.849
146.201
146.202
146.201
146.673
148.143
146.201
163.89
146.201
146.201
146.201
146.201
146.201
146.201
146.505
146.202
146.201
146.201
146.201
146.201
146.201
146.201
146.201
146.201
146.201
243.978
217.251
146.201
146.201
146.201
1522.64
146.201
146.201
146.205
146.202
146.201
146.201
146.442
146.203
146.201
146.201
146.201
1320.91
146.221
146.212
146.201
984.912
146.202
147.157
146.205
146.201
146.821
146.201
146.787
146.798
146.204
146.236
146.201
146.228
146.21
471.017
146.202
741.851
146.752
146.218
146.805
146.202
147.429
146.203
1116.79
146.201
146.27
146.201
146.203
146.391
146.637
146.201
146.201
146.218
146.235
146.201
146.202
171.535
146.201
146.201
980.515
146.201
146.201
146.201
999.483
146.237
200.803
146.201
180.917
146.606
177.793
146.201
146.201
153.302
146.201
148.158
153.491
146.201
1882.34
6860.28
591.71
146.201
146.201
146.22
146.201
146.201
146.201
146.201
146.201
146.201
146.201
146.208
148.984
146.734
146.617
146.248
146.201
146.208
146.201
146.201
146.201
146.216
146.201
146.201
146.201
146.206
146.201
146.201
146.385
146.201
146.412
147.763
146.235
146.201
146.221
146.413
146.201
146.201
146.233
146.201
146.201
146.202
146.201
146.242
146.201
146.261
642.822
146.252
146.201
146.201
146.201
146.201
146.201
146.201
146.201
146.201
146.229
146.214
146.201
146.202
146.287
146.201
146.397
146.201
146.201
146.201
146.201
146.561
146.201
146.201
146.201
146.201
146.326
147.017
146.201
146.201
369.108
146.201
146.218
146.613
146.201
146.219
146.201
146.201
146.201
146.201
146.534
146.471
146.202
146.202
146.627
146.553
146.297
146.275
146.246
146.201
146.269
146.535
146.28
146.201
146.273
146.201
146.201
146.201
146.656
146.201
146.219
161.29
146.201
270.775
146.201
146.201
146.201
146.201
146.201
146.265
146.201
146.201
146.465
146.272
208.178
146.201
146.201
146.201
146.201
146.209
435.64
146.486
146.213
146.201
146.201
146.54
146.297
149.226
146.201
146.201
146.241
146.268
146.201
146.347
5136.14
146.302
148.377
146.254
146.201
146.308
153.528
151.337
146.221
146.202
146.201
146.201
146.201
146.467
960.268
146.36
146.203
146.201
146.302
146.201
146.501
146.201
125.597
146.201
146.201
146.201
147.174
146.228
146.201
146.201
96.2839
146.253
146.201
146.201
107.113
146.201
146.288
146.201
147.027
146.201
146.228
146.201
146.535
146.201
146.208
146.201
166.553
146.201
146.581
146.201
146.202
2201.21
146.449
146.201
146.201
146.375
1805.19
146.21
147.821
146.325
146.561
146.709
146.204
146.201
146.201
4187.26
146.384
146.296
146.202
146.298
146.201
146.244
146.201
146.204
146.204
146.269
146.268
146.21
146.21
146.423
302.351
277.957
146.24
146.468
146.299
198.879
152.394
308.803
197.416
146.202
146.275
146.201
146.201
146.202
146.254
146.217
162.051
341.35
146.23
146.596
146.406
447.958
315.693
146.201
146.533
146.235
146.202
1323.13
146.467
175.58
146.236
146.211
401.473
146.218
157.542
146.233
146.237
8530.52
146.201
146.201
146.274
146.211
146.43
8508.49
146.223
157.57
146.258
9566.77
146.401
146.201
146.201
146.201
146.248
146.201
146.278
146.368
146.201
146.201
146.544
155.514
16127.9
146.201
23142.6
146.203
146.37
146.26
146.201
146.318
146.49
146.203
146.435
146.208
146.201
146.211
146.575
146.414
146.471
146.201
146.267
146.203
146.206
146.206
146.202
146.201
146.513
146.201
146.201
146.408
146.201
146.21
19805.3
166.821
146.218
146.59
146.224
146.221
146.227
146.273
146.201
146.201
146.201
146.213
146.201
146.642
146.201
146.201
146.26
146.235
146.208
146.201
146.213
146.202
146.253
146.22
146.487
148.367
146.201
146.201
146.203
149.595
146.201
146.671
146.582
146.204
146.204
213.713
146.672
146.21
146.201
146.319
146.203
146.204
146.601
146.202
146.625
146.201
146.201
146.253
146.201
2780.1
146.201
146.201
13260.3
146.217
168.862
146.533
147.56
146.201
146.663
146.231
146.201
146.201
146.217
146.201
146.201
146.201
146.201
146.201
146.201
146.262
146.201
146.253
146.201
146.498
146.301
146.202
4667.97
146.302
2250.19
146.208
146.202
146.234
1098.85
146.767
146.284
146.261
146.415
146.421
146.524
398.669
146.266
146.201
146.269
146.287
146.202
146.293
6027.85
146.202
146.202
146.21
170.72
146.208
146.282
146.265
146.204
146.201
81.5346
146.202
82.5852
146.207
88.5233
146.203
146.638
146.244
146.267
146.575
146.202
146.237
146.236
146.313
146.503
1802.7
146.201
146.201
146.201
146.29
146.224
146.26
146.201
146.201
146.269
1626.11
146.201
146.246
146.279
173.461
146.44
146.468
167.413
1746.19
146.438
146.733
146.203
148.029
146.201
148.318
3430.43
224.791
146.201
146.201
146.224
146.272
146.384
146.201
146.201
146.421
146.527
146.201
146.431
146.711
146.538
147.89
146.201
146.201
135.365
630.706
146.445
146.339
146.201
146.201
146.244
146.56
141.861
146.201
147.433
146.255
146.245
146.436
146.202
146.228
146.24
146.372
146.201
146.227
146.211
146.557
146.209
146.201
146.374
146.201
146.251
146.404
146.233
146.285
146.201
146.859
146.201
232.085
146.5
146.202
146.201
146.453
146.382
146.201
146.239
147.917
146.362
146.544
146.202
146.273
146.462
146.764
146.201
146.262
160.74
146.291
146.232
146.271
146.203
146.511
4528.53
146.332
146.273
146.259
146.247
146.233
146.205
146.23
146.261
147.419
146.24
146.201
146.226
146.272
146.201
146.201
146.201
146.286
146.203
146.201
146.202
146.226
146.201
146.202
146.508
147.379
146.202
146.201
146.219
146.201
13360.6
146.201
146.202
146.232
146.202
146.229
901.98
146.221
146.201
146.202
146.201
146.689
146.22
146.536
146.201
146.202
146.757
146.201
147.25
146.406
211.29
146.201
146.203
146.202
146.201
146.203
146.534
146.201
146.201
146.201
146.201
148.926
146.201
146.572
146.201
146.201
146.537
146.236
146.307
146.506
146.201
146.201
146.285
146.504
146.201
146.201
146.201
491.869
146.203
146.578
146.201
146.259
146.202
146.201
258.531
146.517
146.234
146.507
1250.65
146.284
146.319
146.673
339.74
146.232
146.201
146.201
146.257
146.258
305.078
146.24
146.211
146.219
146.341
146.258
146.201
146.252
146.559
146.241
146.229
146.42
146.273
146.227
146.201
146.201
146.201
146.201
146.201
146.201
146.226
146.568
146.244
4041.65
146.25
146.201
146.201
146.228
147.483
146.201
146.249
146.203
146.263
146.201
146.241
149.199
146.254
146.201
146.506
146.205
146.201
146.202
146.201
146.201
146.361
10867
146.276
146.201
146.202
146.201
146.206
146.203
146.201
146.22
146.204
146.202
146.201
146.202
146.202
146.201
146.201
146.201
146.201
146.201
146.221
146.202
147.288
146.863
146.52
320.76
146.202
146.201
146.203
146.201
146.203
146.202
146.43
146.201
146.201
146.418
146.204
146.548
146.426
146.427
146.201
146.203
157.784
147.288
146.201
146.201
146.201
146.561
146.203
146.201
831.352
146.201
146.201
146.201
146.201
146.201
146.223
146.262
146.463
802.454
146.295
146.28
146.363
146.88
146.489
146.259
146.201
146.37
148.515
146.201
146.241
146.235
146.222
146.222
7926.73
146.566
146.201
146.259
146.201
146.286
146.259
146.235
146.205
146.201
146.202
146.201
146.227
146.201
147.215
3431.34
146.259
146.201
146.201
146.26
146.21
146.201
146.21
146.201
146.208
261.531
146.263
155.416
146.201
146.243
146.201
146.23
146.449
146.223
146.201
146.26
146.209
223.795
146.263
146.428
146.608
146.201
146.202
146.219
146.201
146.22
2445.11
146.201
146.218
146.201
147.386
146.201
146.201
146.654
146.201
146.459
979.1
146.201
146.637
146.213
146.311
146.201
146.209
146.201
146.618
146.201
146.575
146.236
146.201
515.074
146.201
146.201
146.201
146.61
150.071
146.201
146.225
146.422
165.484
146.241
146.201
146.201
146.266
146.202
149.351
150.132
149.202
146.487
149.249
146.201
150.829
150.844
146.22
146.215
146.203
146.391
146.202
146.201
146.201
146.227
146.201
146.201
146.201
146.357
146.201
146.202
146.202
146.22
146.202
146.202
146.201
146.67
146.709
146.202
152.527
146.205
146.207
146.484
146.366
146.323
146.201
146.208
146.577
146.202
146.215
146.218
146.201
146.217
329.108
146.215
146.248
146.217
146.245
146.561
146.239
146.201
146.262
146.201
146.24
146.201
146.201
146.206
146.262
146.239
146.202
147.289
146.228
146.59
212.224
146.201
146.4
146.201
146.272
146.273
146.202
146.202
569.46
149.29
146.253
146.255
4884.83
146.416
146.201
146.203
146.201
146.243
146.243
146.566
152.107
146.201
146.201
146.204
146.233
146.272
146.201
146.201
3348.83
11033.9
146.236
146.201
146.644
146.213
146.205
146.208
146.201
146.619
146.201
146.205
146.215
146.232
451.402
146.227
146.221
146.47
146.636
146.205
146.382
148.112
146.202
146.201
146.237
146.473
146.266
146.201
146.221
146.403
146.375
205.897
146.226
146.231
166.166
146.208
146.203
263.816
146.208
146.201
146.211
146.201
5651.02
146.202
146.201
146.717
146.212
1888.24
146.208
2970.48
146.211
146.224
1245.17
146.249
146.225
455.577
146.255
146.202
146.75
146.201
146.201
146.201
569.365
146.389
146.202
146.403
146.201
146.663
265.311
152.349
146.262
677.703
146.202
5389.27
146.201
146.203
146.405
146.201
146.201
146.201
146.201
146.206
146.53
148.969
146.333
218.566
146.207
146.201
146.204
146.207
146.206
146.201
190.969
146.35
146.201
146.201
146.201
146.427
146.213
146.203
146.574
146.201
146.203
146.202
159.466
3502.03
146.571
191.944
150.498
146.203
146.24
148.975
146.202
146.201
146.267
499.294
3063.61
242.588
6993.26
146.201
146.201
19654.9
146.201
154.621
146.201
146.201
146.249
146.201
149.494
146.201
148.9
25859.5
146.383
150.213
146.416
146.444
146.201
146.404
146.201
146.201
146.201
146.201
146.201
146.201
146.559
146.201
146.274
146.394
146.611
146.595
146.209
146.201
5576.5
148.729
146.201
146.422
146.201
146.201
146.275
432.344
3721.6
146.602
146.201
509.586
9245.98
199.574
146.201
150.336
146.277
146.271
211.719
146.238
2545.66
146.265
146.202
146.26
146.439
146.266
146.324
151.746
146.354
146.232
212.289
6747.22
4000.48
146.201
146.201
15797.8
146.201
146.396
147.356
146.201
6573.68
146.293
146.207
146.208
146.216
146.213
146.325
146.546
1775.81
146.445
171.855
146.201
147.272
146.38
146.562
146.201
146.4
146.215
146.21
146.203
146.216
146.277
146.217
146.213
146.212
147.272
146.373
146.222
424.308
146.38
146.225
172.056
146.211
146.206
146.478
146.205
146.201
146.202
149.664
146.801
146.573
146.608
738.832
146.219
146.205
146.383
146.791
146.663
158.52
146.201
146.221
146.201
147.166
146.569
232.416
146.201
146.201
146.201
146.201
147.687
146.201
146.442
146.201
148.223
146.783
146.201
146.201
871.17
146.947
567.279
146.889
146.201
148.079
30425.8
146.201
146.407
146.373
146.285
146.38
146.201
146.456
166.058
413.472
146.369
6033.42
146.571
146.509
146.219
912.453
4662.67
146.298
207.89
146.205
146.264
146.255
146.204
212.152
146.375
146.225
146.328
146.426
175.106
146.552
146.249
146.428
146.202
146.201
146.201
146.563
146.202
1087.83
147.49
146.224
17481
146.259
146.201
146.251
161.294
4542.91
146.283
146.335
176.319
167.339
50818.4
147.337
146.202
9408.97
146.471
146.201
146.203
175.548
146.202
148.389
146.324
147.355
147.675
182.138
146.202
146.645
147.823
146.214
146.201
146.202
146.205
146.202
146.235
162.93
148.189
1764.46
146.234
888.527
146.621
833.606
146.206
146.421
148.613
3737.96
146.209
146.202
146.201
146.201
146.201
146.201
146.217
146.25
146.626
156.19
148.651
146.481
4610.28
151.941
631.112
147.68
146.201
8244.87
146.524
146.201
146.201
155.59
158.819
146.201
146.202
146.201
146.514
146.201
8144.05
8923.21
8534.2
152.98
146.201
284.259
146.953
146.201
146.361
146.201
146.242
147.201
146.221
146.234
1351.41
146.519
146.201
146.242
146.201
146.201
146.215
146.426
146.239
146.203
147.028
146.508
647.4
146.623
146.557
146.458
146.201
146.227
146.207
147.425
163.484
146.207
146.201
1517.82
146.218
146.201
146.217
146.22
146.497
309.958
1844.05
148.326
147.197
146.201
194.666
146.224
146.368
148.708
146.201
151.24
146.201
146.201
362.17
146.201
146.484
199.728
149.349
222.916
332.816
146.201
146.594
146.455
158.602
146.369
146.229
152.706
176.198
173.278
212.103
147.257
146.208
146.551
147.29
152.934
147.238
146.416
217.68
146.201
146.201
13320.3
231.104
146.572
147.006
146.538
150.672
9659.82
146.201
146.988
146.211
384.957
146.206
146.74
147.087
146.202
4304.39
146.207
149.964
233.601
146.207
146.206
149.551
146.205
146.201
146.201
146.201
146.93
146.208
267.058
708.273
146.201
146.201
892.526
146.308
146.201
146.418
146.201
146.201
146.202
146.201
146.313
146.307
14526.1
146.201
146.201
1189.78
146.201
151.138
5441.87
146.201
146.201
146.205
146.204
694.192
146.201
146.208
146.201
146.201
146.201
227.628
2547.32
146.212
146.202
4324.9
146.202
146.399
146.201
146.53
146.201
201.832
172.072
146.202
146.201
146.266
146.66
1295.24
146.201
146.385
146.251
146.201
146.253
146.256
146.201
146.574
146.201
447.888
146.201
146.201
146.207
146.265
146.201
169.552
148.275
146.201
146.201
479.581
146.201
191.566
146.212
146.201
1751.12
9403.87
229.529
146.516
146.202
146.249
4855.49
146.201
657.757
146.201
3742.75
1023.77
146.202
167.909
299.913
1812.78
1522.11
777.336
146.26
146.201
146.201
146.259
146.28
146.219
1421.02
146.202
146.231
146.201
146.321
956.784
1108.4
146.201
146.693
158.416
146.201
149.267
146.201
146.201
146.201
611.455
461.765
193.012
146.201
146.201
146.201
3410.38
146.462
7947.04
146.201
146.201
357.595
146.93
146.201
146.201
1613.35
146.201
146.201
169.64
686.218
146.55
146.479
146.201
1759.49
640.629
164.529
148.428
146.241
8493.43
146.206
146.23
1375.73
241.305
697.116
5851.46
5737.09
985.301
146.201
23088.2
2024.71
148.636
146.201
154.846
24642.7
146.201
156.854
2311.7
146.201
546.99
146.201
6143.73
147.381
146.806
256.92
160.176
146.202
146.201
146.369
146.209
20105
146.201
206.357
191.853
146.204
146.204
146.203
146.201
146.224
146.201
146.697
146.242
657.874
146.201
149.734
146.204
146.977
146.201
146.249
168.175
146.203
146.203
146.201
146.202
146.241
4830.53
5775.91
146.6
146.97
146.203
146.204
146.203
146.223
146.226
146.324
146.201
146.872
146.483
5152.35
146.21
146.206
146.202
146.507
146.221
146.202
146.459
146.213
146.345
3586.99
146.358
162.522
146.213
146.232
146.655
149.696
146.201
146.236
146.528
146.215
146.61
146.271
146.518
146.334
146.5
146.201
146.201
146.213
147.488
146.202
161.461
146.202
146.326
146.202
146.201
146.346
146.234
146.319
146.319
146.206
146.201
171.453
80.6698
146.213
187.031
80.4275
146.204
146.285
146.218
146.234
97.4274
146.202
146.366
146.459
146.201
91.4134
146.237
146.201
146.206
146.202
146.203
146.201
146.201
146.202
146.201
181.939
146.201
146.201
146.344
146.201
146.267
146.775
146.202
146.201
148.404
146.951
146.209
146.233
146.201
146.362
146.458
146.204
146.201
146.48
146.298
146.209
146.21
146.21
146.203
146.201
146.262
146.446
893.291
146.683
193.798
146.281
146.256
146.236
146.202
335.686
146.233
146.205
146.673
146.241
329.975
146.201
146.239
146.246
146.268
146.426
146.262
146.46
146.202
146.253
146.646
146.201
146.328
146.201
146.246
146.282
146.367
146.538
146.266
146.472
146.265
146.499
146.244
146.216
146.201
146.474
146.232
146.204
146.202
146.202
146.29
146.202
146.284
146.224
146.201
146.201
146.203
146.216
246.712
146.201
146.223
146.227
146.201
146.51
146.201
146.484
146.213
146.204
146.201
146.201
146.231
146.201
146.201
146.201
146.22
146.202
146.201
146.807
146.202
146.251
5660.22
146.201
146.524
146.241
146.201
146.202
146.551
146.201
146.201
146.468
146.294
146.231
146.201
146.234
146.201
146.245
146.304
146.201
146.201
146.222
146.201
146.201
146.491
146.201
146.238
146.232
146.228
146.201
146.216
7674.22
186.023
146.208
146.201
146.201
146.201
146.31
146.417
146.201
146.201
146.204
148.42
146.205
146.201
146.201
1839.98
147.107
146.255
1559.85
146.229
146.202
146.77
146.254
146.202
146.221
1019.44
146.484
146.201
146.549
1298.89
146.201
146.201
1605.74
146.647
1766.91
146.201
146.226
146.201
146.495
1388.22
146.201
1374.73
146.215
146.201
1273.62
146.214
146.202
146.315
1306.39
146.203
146.272
1264.48
146.205
146.277
1447.13
146.386
146.214
146.264
146.418
147.614
146.38
280.376
146.201
146.202
146.418
146.204
146.403
164.986
146.201
146.204
146.261
166.477
146.441
146.202
146.233
146.201
146.251
146.201
175.908
6978.76
146.291
150.044
171.848
7194.61
146.201
146.482
8871.18
146.201
164.979
146.318
146.4
146.201
176.736
146.201
146.201
146.236
146.201
163.062
146.233
146.227
2625.06
150.71
146.201
146.232
146.234
146.206
146.201
146.201
146.226
146.224
146.238
146.204
147.248
11353.5
146.229
146.283
714.88
204.955
146.38
146.227
146.994
146.592
146.281
146.241
158.57
146.234
147.48
267.264
146.268
146.221
146.232
146.268
169.391
146.202
146.535
146.26
146.226
146.603
146.434
6051.12
146.654
146.224
292.689
146.202
146.426
150.406
146.27
354.942
146.202
155.284
236.934
414.772
146.206
146.201
146.201
291.052
146.284
151.733
146.216
354.049
369.663
146.425
146.201
913.134
218.348
147.832
3586.02
154.348
146.201
146.249
146.202
146.225
146.201
146.202
146.201
146.522
146.205
146.201
146.205
21368.9
146.201
146.263
146.201
146.841
146.522
146.228
156.143
146.201
146.21
146.253
146.203
146.202
146.201
146.219
146.201
146.234
146.226
4012.37
146.201
146.609
146.279
4886.52
146.201
146.493
146.384
146.201
146.201
22621.7
146.201
146.209
146.201
146.201
146.201
146.235
146.201
146.201
146.201
146.201
146.566
151.55
146.201
146.218
146.201
146.399
146.37
146.202
146.201
3990.28
146.201
146.238
146.201
146.569
146.25
146.201
146.201
1357.4
10348.5
146.229
146.29
146.202
146.202
146.235
146.571
146.202
146.545
146.26
146.518
146.201
146.293
146.237
161.91
1376.16
146.441
146.203
146.25
357.223
146.201
146.222
146.202
146.202
146.203
146.202
146.202
146.547
146.233
146.264
146.542
299.051
293.524
146.201
146.327
150.766
146.202
146.344
56785
146.201
146.885
146.858
146.207
146.235
146.202
146.276
146.34
146.214
146.207
146.205
146.202
146.218
147.661
146.238
146.378
146.204
146.24
146.294
219.229
146.208
146.236
146.252
226.604
321.128
146.201
146.48
146.201
146.54
146.281
4530.95
146.288
146.59
146.249
146.257
146.201
146.201
1578.26
146.201
146.201
146.201
146.201
146.259
146.269
146.233
146.231
146.217
146.328
146.385
146.201
4671.85
146.492
146.201
146.545
146.201
146.201
146.201
4050.52
147.437
662.178
146.209
146.201
146.201
146.414
146.219
146.257
16976.9
146.261
146.201
146.256
1879.54
15127
146.218
146.201
17118.3
15892
148.138
10757.8
624.994
146.673
1137.98
147.278
146.204
146.201
146.204
146.202
146.201
146.204
5724.19
11709.7
807.206
146.533
274.361
146.227
146.247
146.243
146.853
146.217
500.23
146.22
533.632
146.743
146.201
160.939
843.392
146.203
146.201
1752.53
146.205
146.201
399.988
356.182
146.201
146.201
146.202
146.243
146.226
146.201
146.201
177.713
1655.48
146.201
146.227
146.243
1392.44
158.343
146.201
146.201
146.201
560.3
146.201
146.497
146.838
146.201
146.422
146.201
146.201
4085.77
146.219
146.201
146.201
146.201
146.202
146.496
146.221
146.201
146.436
146.465
146.201
146.583
146.201
146.201
146.201
146.205
146.202
146.201
146.226
146.201
146.201
148.97
146.201
885.676
146.23
146.201
146.201
146.201
146.201
146.235
167.873
2016.71
1105.11
2431.98
146.324
171.632
146.203
1967.76
2380.46
146.226
148.112
146.201
146.238
146.201
146.201
146.201
146.201
146.63
148.001
146.201
897.248
146.201
146.633
146.223
146.201
146.395
146.237
146.545
1439.21
197.847
146.334
146.201
146.47
177.145
146.208
146.232
10664
146.23
9479.27
146.201
146.201
146.451
6722.58
13163.4
10500.3
7021.18
282.697
232.465
1816.41
151.325
5869.41
146.201
146.29
146.201
146.246
146.351
236.172
146.287
146.279
222.048
175.812
146.207
215.685
146.609
146.201
146.201
146.201
146.973
147.026
146.359
146.201
147.033
2930.4
146.297
1528.83
146.682
146.46
154.593
146.201
146.367
161.085
146.243
146.201
146.435
146.669
146.201
146.201
152.423
146.203
146.201
202.585
146.386
157.51
159.212
146.257
172.101
146.582
146.638
146.23
146.627
146.885
147.052
146.264
146.201
146.663
146.261
146.599
146.579
146.26
146.679
146.242
170.695
1063.17
146.201
146.512
146.78
146.201
401.106
146.201
146.201
146.201
146.778
146.21
146.249
146.201
146.202
146.648
146.595
146.886
146.218
146.201
146.661
845.076
1088.28
146.201
167.628
16013.2
199.811
1231.47
146.203
492.12
146.201
146.205
146.201
146.201
146.228
146.202
146.201
1018.58
146.204
146.57
146.201
146.201
146.201
146.201
146.204
146.254
176.334
146.201
146.201
1818.89
146.307
881.547
146.278
146.201
1849.86
146.204
146.201
146.201
758.137
146.262
146.201
146.24
146.481
146.354
146.201
146.518
146.201
146.201
146.201
146.201
146.201
146.353
146.215
146.41
146.201
146.468
146.201
146.7
146.201
146.256
146.202
146.538
146.321
146.322
146.327
146.202
146.422
146.226
146.201
146.201
146.201
146.203
1149.36
146.201
146.201
146.201
146.354
146.204
216.644
146.201
146.201
146.274
146.289
146.201
146.202
146.201
146.217
146.201
146.201
146.201
174.437
146.201
146.201
146.201
146.201
146.201
146.201
8378.54
146.252
146.214
146.212
146.201
147.413
146.201
150.969
146.579
146.234
146.662
146.201
146.201
146.201
146.38
495.858
146.201
146.201
597.939
146.201
146.201
146.201
146.201
146.449
146.469
369.788
146.201
146.201
146.201
549.818
328.842
401.771
146.385
161.321
265.323
146.203
146.202
146.559
597.318
146.202
146.266
146.202
146.202
163.086
146.201
146.201
146.299
146.437
146.41
147.835
146.84
146.201
147
146.392
146.201
146.304
146.201
146.201
146.201
146.202
146.202
172.769
146.201
147.401
152.84
147.255
147.101
598.993
146.389
146.201
146.24
146.202
146.244
146.201
146.201
146.201
146.312
329.281
147.04
146.227
164.341
146.202
406.085
146.406
148.124
146.477
146.201
146.976
146.201
146.201
146.201
193.96
469.445
645.709
146.201
492.083
146.201
146.208
146.201
146.227
146.201
3884.64
146.456
146.201
146.201
146.409
146.803
146.201
149.08
146.201
146.201
13657.7
146.201
153.964
146.201
146.426
146.202
146.201
146.202
146.201
146.384
146.202
1805.19
146.204
146.264
146.202
146.524
152.05
146.201
146.201
146.201
8733.86
146.276
147.465
3137.19
188.165
146.201
915.065
146.887
146.202
146.23
6012.73
146.445
146.201
757.1
752.84
146.205
146.515
146.202
967.409
146.201
146.201
146.202
146.234
5345.4
146.234
21108.5
146.264
146.688
146.231
146.208
146.244
146.232
146.263
146.203
146.207
146.291
242.505
354.455
164.767
397.084
160.989
411.236
146.267
146.201
146.201
229.281
623.534
994.473
189.753
146.609
149.994
424.593
9375.8
966.262
146.201
4919.8
8549.07
355.37
146.201
156.147
156.1
202.041
408.187
169.513
146.838
1629.71
146.205
592.602
146.269
157.995
146.513
3790.17
5426.05
146.202
146.204
146.719
213.284
146.405
146.293
146.201
146.201
3943.71
146.25
146.302
146.499
146.201
146.576
146.201
71127.6
146.829
146.201
146.41
3752.21
146.392
1739.82
992.163
6277.06
146.374
146.201
146.219
846.996
146.201
146.201
146.208
146.279
146.537
5267.24
163.581
146.217
693.368
148.604
146.201
146.201
3483.99
146.205
146.532
148.616
146.201
146.201
146.246
162.578
1211.82
786.537
146.242
146.645
146.201
203.387
39006.9
146.465
5867.29
146.201
146.238
146.201
159.921
146.201
5203
149.343
146.201
1425.74
146.201
146.201
146.823
146.202
146.61
146.232
303.854
519.898
146.201
146.202
146.381
5770.83
146.201
146.312
244.53
146.201
146.31
146.235
146.201
146.21
146.201
146.208
146.207
146.202
146.201
146.534
146.585
146.202
170.843
10197.7
146.677
146.612
146.201
146.34
146.202
146.207
146.652
1514.59
1342.99
146.636
135.876
149.311
146.251
146.717
211.898
147.199
147.57
146.687
146.205
147.394
146.207
146.208
146.201
146.226
147.256
146.521
1804.55
146.201
146.232
146.268
455.287
227.607
146.201
147.438
147.757
158.108
147.905
150.416
146.201
146.201
148.253
146.662
146.201
146.201
146.201
146.201
146.533
146.201
2982.4
291.614
150.816
146.935
146.281
146.362
146.435
146.201
146.201
268.624
146.201
146.201
146.201
402.013
146.364
8242.16
147.359
146.603
146.477
173.81
146.521
147.383
146.211
146.434
147.001
154.749
146.991
146.225
146.219
146.324
173.5
146.202
157.771
211.438
146.494
148.146
146.227
146.289
152.129
151.857
146.457
147.411
146.542
146.881
146.201
147.963
146.62
150.122
146.201
146.201
182.92
146.3
146.201
146.219
146.681
1273.52
146.874
146.305
146.202
147.104
146.553
146.202
146.201
146.201
10566
149.77
3831.87
147.089
146.201
1298.77
1298.71
146.351
146.201
146.55
146.324
146.405
146.233
525.727
146.205
146.542
146.287
1381.97
146.203
146.206
146.201
146.201
957.395
1384.08
146.351
1388.09
146.412
146.212
146.201
146.202
146.201
1446.21
146.539
146.201
146.201
146.402
146.202
146.202
146.486
146.201
146.204
146.611
146.21
146.296
146.24
146.201
146.201
146.827
146.202
146.201
803.929
146.227
146.494
146.201
146.212
5773.52
146.201
246.009
146.535
146.681
146.201
146.202
146.252
146.201
146.201
146.675
146.53
146.802
876.844
146.208
146.206
146.238
146.201
146.33
146.203
146.21
146.557
146.33
146.202
146.348
146.201
146.277
2736.17
500.469
146.584
147.092
146.234
146.202
408.192
146.34
277.671
146.655
146.591
146.202
146.201
146.201
146.201
146.346
146.204
146.238
148.581
146.279
146.201
146.201
146.51
146.213
146.234
146.201
146.202
146.209
146.424
146.237
146.368
146.202
146.201
146.239
146.239
146.314
146.202
146.501
146.202
146.329
146.203
146.433
146.355
146.464
146.24
146.387
149.303
146.24
147.26
147.494
146.203
1459.45
146.201
147.516
146.201
147.915
146.84
147.803
1309.34
146.204
146.201
146.202
212.938
11267.4
146.201
147.604
146.537
1612.25
146.201
146.49
146.201
146.226
147.627
146.201
146.201
146.208
146.203
146.202
146.201
146.665
450.969
146.904
146.226
146.201
146.983
146.201
146.201
146.296
1472.95
146.291
146.201
146.201
162.318
146.304
146.201
146.201
363.385
146.798
723.598
146.201
146.968
146.234
146.201
146.202
146.201
146.201
146.211
146.495
146.201
146.201
146.204
146.202
146.22
146.206
146.201
146.201
146.201
146.201
146.206
146.201
146.201
146.201
146.201
146.203
146.504
147.241
146.641
146.201
146.201
146.201
146.201
146.601
146.201
146.211
146.378
146.201
146.245
146.201
146.455
146.201
146.201
146.219
146.201
146.201
146.364
146.201
146.378
146.368
148.237
146.201
146.201
146.324
146.201
146.201
146.203
146.201
146.203
146.201
146.201
146.236
146.477
146.264
433.833
378.164
146.201
146.307
146.201
146.201
146.201
146.201
146.203
146.201
236.819
246.301
146.203
277.074
146.41
146.201
528.626
612.244
146.316
146.507
149.465
146.4
146.201
146.201
146.625
146.201
288.621
146.201
289.605
146.204
146.201
146.201
146.666
146.704
146.761
146.326
146.201
146.201
146.201
146.202
146.201
146.201
146.201
146.201
146.201
146.944
146.201
146.283
146.319
146.203
146.201
146.201
146.207
146.661
146.369
146.571
146.288
146.531
146.202
146.201
146.242
146.367
146.202
146.528
146.388
146.202
146.201
146.585
146.343
146.201
146.397
146.25
146.519
146.289
146.201
146.291
9760.89
146.257
146.664
146.201
146.28
146.254
146.202
146.201
146.201
146.438
146.279
146.201
146.353
146.253
147.445
147.016
148.06
146.201
146.201
148.428
146.202
146.532
146.222
146.203
146.201
146.569
146.688
5446.03
146.675