/*--------------------------------*- C++ -*----------------------------------*\
| =========                 |                                                 |
| \\      /  F ield         | OpenFOAM: The Open Source CFD Toolbox           |
|  \\    /   O peration     | Version:  v2012                                 |
|   \\  /    A nd           | Website:  www.openfoam.com                      |
|    \\/     M anipulation  |                                                 |
\*---------------------------------------------------------------------------*/
FoamFile
{
    version     2.0;
    format      ascii;
    class       volScalarField;
    location    "3.5";
    object      ILambda_11_0;
}
// * * * * * * * * * * * * * * * * * * * * * * * * * * * * * * * * * * * * * //

dimensions      [1 0 -3 0 0 0 0];


internalField   nonuniform List<scalar> 
108993
(
146.201
146.792
146.207
146.201
146.201
146.201
146.209
146.201
146.201
146.218
146.201
146.201
146.201
146.201
146.201
146.244
146.228
146.201
146.201
146.239
146.201
146.201
146.439
146.201
146.201
146.201
146.201
146.223
146.212
146.201
146.201
146.201
146.201
146.201
146.201
146.201
146.201
146.201
3680.54
2662.54
146.336
146.201
146.201
146.201
146.241
1334.31
146.201
146.202
146.202
147.722
146.201
146.833
147.951
146.201
146.201
146.201
146.201
146.201
146.201
146.201
146.201
146.201
146.201
146.206
146.201
146.205
146.201
146.201
146.202
146.281
146.201
146.201
146.201
146.201
146.201
146.201
146.202
146.208
146.201
146.201
146.201
146.203
146.201
146.201
146.201
146.202
146.201
146.201
146.201
146.201
146.201
146.201
146.201
146.201
146.201
146.202
146.201
146.201
146.201
146.201
146.201
146.201
146.201
146.202
146.201
146.201
146.201
146.201
146.201
10005.8
146.32
146.201
146.465
146.37
146.201
1416.48
146.201
146.201
146.248
146.201
146.202
146.201
161.345
146.202
146.201
146.268
146.434
146.201
146.201
146.201
146.202
146.201
146.201
148.385
146.201
146.202
146.201
146.201
146.201
146.201
146.202
146.201
146.225
146.201
146.201
146.201
146.201
2265.2
146.202
7708.04
8662.54
146.201
149.036
8516.83
146.201
146.667
146.201
146.201
146.201
146.665
8672.73
146.201
146.201
146.201
146.201
147.024
146.201
146.201
146.202
146.201
146.201
146.201
146.256
146.201
146.209
146.215
258.748
146.202
146.201
146.201
146.231
146.201
146.201
146.202
146.201
146.201
146.201
146.201
146.201
146.202
146.201
146.201
146.201
300.145
146.201
146.203
146.364
146.201
146.201
146.202
146.201
227.208
146.201
146.201
146.294
157.827
146.201
3994.39
146.201
11035.2
147.764
146.201
271.62
2479.35
133.307
146.201
146.201
146.201
146.201
146.201
146.281
9664.04
146.212
229.611
146.407
146.202
146.201
146.201
148.477
146.205
150.547
146.201
146.201
146.202
146.201
146.201
146.201
146.201
152.001
146.201
146.201
146.201
146.201
146.201
146.201
146.25
2508.7
183.74
146.201
146.201
146.201
146.201
146.201
146.201
146.201
146.201
146.201
146.201
146.201
146.201
146.201
146.201
146.24
146.265
146.201
146.223
146.201
146.203
146.201
146.201
146.201
146.207
236.065
687.318
1884.57
146.201
146.201
271.514
146.202
146.509
146.64
235.503
564.627
146.202
146.201
146.262
146.201
147.139
146.203
203.456
146.202
146.201
147.211
146.201
146.231
146.201
146.201
146.201
146.224
146.201
162.161
3207.09
146.201
146.201
146.201
146.202
146.253
146.201
146.202
378.26
146.201
146.201
146.216
146.201
146.202
3739.67
146.202
146.216
1028.72
146.201
146.93
146.206
146.202
146.202
146.201
204.664
1516.7
929.894
146.201
146.203
149.319
665.504
163.106
146.201
252.515
146.201
146.201
146.201
146.201
146.201
146.201
2501.35
146.814
146.201
146.201
146.201
146.202
146.201
146.201
146.203
146.201
146.201
293.998
146.678
146.216
146.201
146.201
2170.49
146.201
146.201
146.212
146.863
146.202
146.202
146.201
146.803
146.202
146.201
146.201
2925.81
158.946
146.227
146.204
21553
148.125
323.868
146.203
146.201
196.82
146.201
273.303
211.371
146.604
146.261
146.201
146.22
146.224
2319.15
146.34
2452.04
196.83
146.216
238.191
146.202
149.707
147.739
5482.59
146.201
146.258
146.201
147.978
280.294
161.591
146.201
146.351
146.216
146.223
146.201
146.206
1574.74
146.201
146.793
3784.64
146.201
146.201
146.201
12380.8
146.248
887.994
146.201
2925.77
147.435
3537.64
146.202
146.201
693.592
146.201
2877.63
1019.24
146.201
5374.13
3067.37
4088.06
146.201
146.201
146.228
146.311
146.222
146.208
146.201
146.201
146.201
146.201
146.201
154.741
214.487
185.682
146.25
146.201
146.201
146.203
146.201
146.201
146.203
146.208
146.201
146.201
146.201
146.201
146.201
148.65
146.207
151.777
3030.31
146.245
146.205
146.201
152.795
146.206
146.206
146.237
146.201
146.201
153.997
146.324
146.239
146.201
146.562
152.295
146.26
146.201
146.201
146.201
146.202
146.214
146.203
146.206
146.204
146.227
146.201
146.201
146.201
146.257
146.205
146.249
146.201
146.214
146.201
146.202
146.476
146.201
146.201
146.201
146.203
146.29
4928.46
146.203
146.201
1132.29
146.202
146.258
161.034
146.201
146.211
146.202
146.201
146.201
146.202
146.205
146.202
146.616
146.621
161.001
146.306
146.21
146.248
146.233
146.201
146.245
146.3
146.209
146.201
146.243
146.202
146.201
146.201
146.649
146.201
146.216
154.102
146.201
152.906
146.201
146.201
146.201
146.201
146.201
146.241
146.201
146.201
158.706
146.209
298.505
146.201
146.201
146.201
146.201
150.754
28186.2
146.257
146.203
146.201
146.202
147.766
146.335
177.281
146.201
146.201
146.636
146.357
146.202
153.173
22105.2
146.327
2296.09
149.56
146.201
146.362
831.669
200.123
146.212
146.201
146.201
146.201
146.201
146.252
777.802
146.409
146.202
146.202
146.853
146.201
146.206
146.202
563.916
146.201
146.201
146.201
146.207
146.235
146.202
146.201
1459.26
146.302
146.201
146.201
764.616
146.201
146.228
146.202
146.492
146.202
146.238
146.202
147.271
146.202
146.236
146.201
2511.96
146.201
146.735
146.201
146.201
5063.22
146.213
146.201
146.201
1132.2
1798.63
146.25
4104.93
146.32
2317.33
155.186
146.237
146.201
146.201
3769.16
146.241
146.272
146.202
146.286
146.201
162.492
146.201
146.244
146.214
146.27
146.232
146.244
146.243
146.25
1872.03
189.78
146.271
146.205
146.268
221.541
167.591
667.974
162.717
146.201
146.241
146.201
146.202
149.91
146.24
146.284
2428.06
708.647
146.274
146.311
146.44
189.979
381.793
146.201
169.837
146.238
146.201
3078.33
146.374
206.477
146.236
146.257
334.491
146.281
174.413
146.239
146.233
15841.4
146.201
146.202
146.249
146.208
146.202
11220.6
146.214
235.067
146.215
2504.73
146.415
146.201
146.211
146.212
146.239
146.201
146.256
146.313
146.201
146.211
154.845
177.475
1640.23
146.201
4985.43
146.201
146.384
146.248
146.201
146.296
146.204
146.235
151.398
146.246
146.202
146.246
164.612
146.322
1709.48
146.201
146.257
146.238
146.246
146.246
146.204
146.201
152.156
146.205
146.203
146.204
146.201
146.249
5805.94
628.23
146.226
150.165
146.24
146.236
146.234
146.215
146.201
146.205
146.208
146.228
146.204
184.037
146.209
146.23
146.239
146.201
146.237
146.206
146.227
146.206
146.211
146.241
146.204
150.179
146.201
146.201
146.208
325.847
146.201
1993.23
872.88
146.204
146.209
1313.9
162.961
146.225
146.204
146.267
146.208
146.208
147.958
148.688
188.055
146.201
146.201
146.212
146.201
2482.95
146.201
146.201
9406.82
146.281
479.894
146.499
342.709
146.201
185.854
146.265
146.201
146.204
146.281
146.201
146.201
146.201
146.201
146.201
146.206
146.325
146.201
146.213
146.201
146.296
146.202
146.201
9874.69
146.202
16509.7
146.214
146.202
146.22
4036.46
263.822
146.202
146.206
146.264
146.208
146.227
2609.75
146.209
146.209
146.233
146.202
146.218
146.215
2971.23
146.219
146.201
146.214
146.803
146.218
146.202
146.232
146.203
146.201
382.471
146.209
687.329
146.209
135.691
146.21
168.242
146.237
146.264
146.527
146.201
146.235
146.236
146.333
147.752
2004.61
146.343
146.496
146.202
146.256
146.281
146.259
146.201
146.201
146.256
2013.15
146.201
146.246
146.234
272.574
146.202
146.374
211.451
2008.77
147.249
146.271
146.678
179.235
146.201
155.529
5984.81
1763.31
146.201
146.201
146.236
146.23
146.454
146.516
146.201
146.248
192.103
146.201
146.288
212.048
146.202
153.742
146.319
146.201
537.952
2701.83
146.201
146.21
146.201
146.201
146.243
151.849
293.372
146.201
194.785
146.212
146.239
146.207
146.202
146.241
146.237
146.206
146.201
146.236
146.247
149.408
146.202
146.202
158.854
146.203
146.226
146.253
146.236
146.243
146.201
374.617
146.201
195.867
146.202
146.205
146.201
146.55
148.148
146.204
146.217
597.841
146.346
2304.1
146.201
146.256
1622.27
823.687
146.201
146.216
244.458
146.253
146.217
146.245
163.901
146.492
7558.23
146.593
146.248
146.245
146.23
146.232
201.175
163.508
146.246
5067.11
146.217
146.201
146.205
146.251
146.201
146.201
146.201
146.253
146.203
146.206
146.202
146.205
146.202
146.202
146.203
146.431
146.202
146.203
146.222
146.201
10616.6
146.201
146.201
146.206
146.201
146.206
1389.94
146.246
146.426
146.203
146.201
146.33
146.218
146.532
146.86
146.203
2887.26
146.201
295.007
146.248
347.394
146.201
146.204
146.204
146.201
146.228
152.918
146.201
146.201
146.202
146.201
3570.39
146.202
152.821
146.201
146.202
147.723
146.453
146.334
146.486
146.202
146.201
147.5
147.294
146.201
146.201
146.201
1852.84
146.212
166.406
146.201
146.211
146.242
146.201
227.605
146.354
146.234
147.602
2275.09
146.288
146.247
174.252
513.396
146.202
146.201
146.201
146.282
146.215
1001.96
146.241
146.266
146.23
146.326
146.227
146.207
146.223
146.59
146.215
146.207
146.282
146.292
146.221
146.201
146.202
146.201
146.201
146.201
146.201
146.202
175.524
146.212
2400.45
146.203
146.202
146.202
146.22
146.401
146.201
146.203
146.201
146.223
146.201
146.226
1203.35
146.256
146.201
2618.18
146.201
146.201
146.201
146.201
146.201
146.325
25495
146.245
146.201
146.201
146.201
146.203
146.203
146.201
146.202
146.201
146.201
146.201
146.201
146.202
146.201
146.202
146.591
146.202
146.201
146.202
146.203
146.642
146.315
146.441
584.152
146.203
146.201
146.243
146.201
146.202
146.202
146.202
146.208
146.202
146.437
146.207
147.062
146.202
146.202
146.202
146.202
1041.74
1324.22
146.201
146.201
146.201
146.46
151.581
146.201
146.604
146.201
146.483
146.203
146.201
146.201
146.217
146.203
146.209
146.736
217.566
204.89
232.348
176.031
154.016
146.203
146.202
146.291
8595.64
146.201
146.251
146.221
146.218
146.216
12733.6
221.004
146.201
146.242
146.201
146.262
146.238
146.222
146.201
146.526
146.209
146.799
146.225
146.201
3880.62
2145.06
146.219
146.201
146.201
146.218
146.202
146.201
146.202
146.201
146.202
1027.41
146.249
3455.02
146.201
146.231
146.201
146.235
2286.68
146.516
146.244
146.243
146.241
324.239
146.241
146.242
185.625
146.201
146.201
146.233
146.201
146.202
8795.23
146.201
146.202
146.201
233.626
146.201
146.201
173.42
146.213
2180.26
4386.91
146.201
147.109
146.202
146.236
146.201
146.202
146.201
151.051
146.201
2398.55
146.253
146.201
3262.53
146.201
146.29
146.201
146.691
1057.41
146.202
146.22
146.311
727.892
146.275
146.381
146.201
146.261
146.201
2778.1
2383.36
2619.17
1885.11
2367.46
146.201
2457
2788.42
146.224
146.218
146.201
146.294
146.201
146.201
146.201
146.238
146.201
151.197
149.709
146.238
146.201
146.201
146.669
146.202
146.76
146.665
146.201
146.592
182.088
146.612
300.918
151.536
146.368
146.202
146.206
146.232
146.201
162.078
146.503
146.615
146.202
146.202
146.448
146.202
4871.02
146.202
146.248
146.206
146.237
146.248
146.205
146.201
146.209
146.201
146.204
146.201
146.201
146.218
146.209
146.275
152.333
5062.25
146.204
1577.69
2018.31
146.201
264.894
146.201
146.209
146.209
146.209
146.201
629.988
275.737
146.569
146.203
3638.73
550.745
146.201
146.201
146.201
146.204
146.206
146.389
11111.7
146.201
146.201
167.789
146.208
146.209
146.215
146.215
1815.82
3402.53
146.208
146.201
3082.98
146.21
175.209
146.25
146.21
146.646
146.201
173.544
146.218
146.208
1321.73
146.237
146.215
406.707
334.995
172.371
146.234
236.159
163.964
146.212
146.205
147.225
146.241
146.201
146.204
146.25
148.548
1641.33
146.202
146.203
467.197
146.205
146.201
1986.4
146.205
146.201
146.206
146.203
8424.84
146.201
146.201
172.514
146.207
2121.69
146.206
5368.44
146.206
146.242
1100.69
146.202
146.233
740.095
146.224
150.452
146.301
146.201
146.203
146.201
1240.82
146.242
146.202
163.069
146.201
147.56
746.809
6860.57
146.214
1193.94
146.201
8199.33
146.201
146.201
146.201
146.201
146.201
146.201
146.201
146.201
2942.85
928.235
294.059
170.901
146.201
146.207
146.201
146.201
146.201
146.201
346.745
146.913
146.208
146.201
146.243
146.297
146.236
146.201
146.627
146.201
146.201
146.201
146.207
2490.26
146.473
1978.51
398.323
146.201
146.202
918.157
146.201
146.201
146.201
146.562
6477.34
228.652
2304.72
146.201
146.201
20082.8
146.201
146.206
146.202
146.201
176.391
146.201
146.204
146.201
146.204
5267.5
146.265
146.204
152.25
146.241
146.201
148.315
146.201
146.201
146.201
146.201
146.201
146.201
146.433
146.201
146.263
146.463
1011.45
1128.63
146.201
146.201
1461.44
992.427
146.201
149.631
146.201
146.201
146.305
2492.21
611.252
276.026
146.201
1155.66
3470.48
4139.37
146.224
855.067
146.307
146.289
1282.29
146.226
834.214
146.261
147.043
146.262
182.853
146.273
146.239
197.893
146.242
146.255
3107.9
2938.7
1068.18
146.201
146.201
3049.12
146.201
146.21
1741.5
146.201
7811.29
146.243
146.201
146.201
146.201
146.201
146.245
223.327
4722.82
1262.75
470.692
146.201
147.223
146.244
146.538
146.201
146.339
146.201
146.201
146.431
146.201
146.543
146.201
146.201
146.28
308.673
146.245
146.318
763.257
146.237
146.203
341.464
146.201
146.201
146.211
146.201
146.201
146.201
1328.66
147.646
146.387
187.435
2086.38
146.221
146.201
146.988
2344.26
174.437
378.385
146.274
146.229
146.652
3606.17
146.533
345.844
146.201
146.23
146.201
146.201
460.715
146.201
146.975
146.68
274.246
2381.92
146.201
146.226
1927.46
1406.03
3424.06
1542.59
146.201
1323.17
2436.4
146.201
146.358
2639.64
146.246
146.526
146.203
146.53
2227.1
244.854
146.397
5690.24
161.392
146.924
146.202
287.709
26058.3
146.243
287.875
146.21
146.207
146.414
146.203
1022.05
146.232
146.262
146.202
146.469
373.417
147.299
146.204
146.413
148.031
146.203
146.201
148.654
146.201
1357.44
193.324
146.243
9990.37
146.205
146.201
146.256
2718.18
6583.22
146.261
146.265
229.621
771.697
17273.8
147.145
147.326
6766.89
146.217
146.208
146.207
12641
148.574
154.684
146.261
146.602
155.035
482.186
148.407
146.123
146.203
146.202
146.224
146.627
146.201
147.362
146.233
1403.94
174.193
410.701
146.238
3801.38
146.586
1854.46
146.227
147.61
381.09
21690.2
162.474
147.754
146.201
146.201
146.201
146.33
146.217
146.265
146.568
298.451
158.758
146.26
3831.57
171.62
1046.91
153.405
146.201
32932.8
2538.33
146.201
146.201
1593.17
2164.11
146.206
146.202
146.201
146.481
146.201
12192.3
20601.3
15926.7
1409.97
146.201
873.176
146.421
146.205
146.294
146.203
146.217
166.443
146.217
146.217
18368.1
146.494
146.213
146.218
146.206
146.201
146.202
445.504
152.941
170.93
5602.66
147.399
2505.99
146.603
146.406
146.208
146.214
146.201
146.201
1605.09
265.211
146.201
146.201
2171.64
146.202
146.201
146.201
146.202
216.153
240.092
1860.15
2599.31
1396.84
146.201
1292.17
146.202
570.276
161.916
146.201
179.49
146.201
146.201
1000.87
146.201
148.253
155.027
177.837
230.48
174.969
146.349
1108.25
149.615
2973.18
146.457
146.223
150.785
213.097
950.409
372.104
146.203
146.203
2273.74
362.308
198.184
2560.1
598.923
155.89
146.203
146.201
33366
641.581
480.393
1704.2
2097.89
2799.13
5857.74
146.201
3051.06
146.201
824.783
146.201
1872.42
1442.93
146.201
5969.75
146.201
147.108
159.416
146.201
146.201
197.605
146.201
146.202
146.201
146.201
147.337
146.201
245.867
1034.5
146.201
146.201
1773.91
146.428
146.202
151.2
146.202
146.202
146.201
146.201
146.361
146.361
10474.8
146.201
146.225
572.491
146.201
151.958
4980.71
146.201
146.201
149.048
190.299
4139.28
146.201
146.201
146.201
146.201
146.517
1132.28
5380.74
147.091
150.181
14977.4
150.837
146.25
146.201
223.677
146.241
1978.03
2449.83
146.202
146.201
146.201
146.261
479.853
146.201
512.273
146.205
146.201
146.234
146.216
146.201
147.165
146.202
2633.78
146.201
146.201
146.201
146.316
146.201
925.018
155.117
146.201
146.201
2527.22
146.202
160.698
146.202
146.202
1795.3
12359.4
148.859
146.203
146.201
146.214
8655.86
146.203
842.992
146.203
4348.53
147.124
146.201
1201.76
331.994
2364.06
1844.51
2486.11
167.161
146.202
146.203
146.256
146.213
146.234
1933.65
146.258
146.247
146.203
146.27
1026.45
2393.2
146.202
146.264
176.025
146.205
239.633
146.205
146.201
146.201
920.31
2868.32
2161.43
146.21
146.207
146.201
2650.22
155.9
9658.46
146.206
146.205
463.227
180.677
146.201
146.205
2354.31
146.206
146.204
146.217
573.408
146.279
187.336
146.201
2150.47
1893.36
273.865
2031.09
146.625
30161.3
146.21
146.344
2340.37
452.075
3698.96
25026.7
15714.7
3174.73
146.201
52781.6
4387.33
968.051
146.201
1599.81
49333.3
146.201
288.88
6167.96
146.201
2258.83
146.201
9940.35
2185.06
152.125
1706.46
457.492
146.201
146.201
146.668
146.214
259.732
146.201
1135.55
255.366
146.201
146.201
146.201
146.202
146.201
146.201
166.394
146.202
521.481
146.202
151.381
146.201
159.957
146.201
146.266
308.176
146.201
146.201
146.201
146.21
146.214
4361.73
4483.23
152.682
158.35
165.728
149.196
146.201
146.235
146.235
156.444
146.202
146.285
146.243
6508.52
149.291
172.349
148.581
146.528
146.22
146.21
146.204
146.215
146.232
6308.14
146.268
590.543
146.221
146.214
146.317
608.15
146.208
146.616
146.482
146.483
146.595
146.407
146.314
175.495
146.211
147.589
146.201
146.233
180.732
146.201
161.591
147.707
176.168
146.201
146.201
162.264
146.349
149.973
146.255
146.201
146.203
254.11
333.101
146.201
329.132
547.888
146.203
146.269
146.226
146.243
212.649
149.079
146.396
146.235
146.201
513.641
146.242
146.518
146.202
146.204
146.201
146.519
146.201
146.201
146.55
273.119
148.108
146.545
146.341
146.513
146.299
2061.37
146.201
146.529
171.964
169.694
146.201
146.237
146.258
146.237
146.281
146.443
146.201
146.27
146.273
146.201
146.201
146.201
146.215
146.201
146.224
146.25
2429.81
146.331
371.294
146.227
146.278
146.241
148.56
900.712
146.236
146.207
185.409
146.241
1586.35
146.201
146.237
154.712
146.271
693.792
146.234
747.856
154.298
146.234
1589.79
146.201
146.278
146.201
146.242
146.233
146.24
1037.06
146.227
945.58
146.253
944.065
146.228
146.202
146.201
146.284
146.232
146.236
146.205
146.202
146.227
149.067
146.305
146.227
146.201
146.201
165.608
146.246
415.68
146.201
146.218
146.201
146.202
146.238
146.201
146.541
146.211
146.204
146.201
146.201
146.233
146.201
146.201
146.201
146.245
146.202
146.201
149.685
146.202
146.238
3718.35
146.201
146.209
146.233
146.201
146.201
146.257
146.201
146.201
146.252
146.258
146.259
146.201
146.228
146.201
146.255
148.482
146.201
146.201
147.268
146.201
146.201
146.255
146.201
146.237
146.298
146.206
146.201
146.219
2264.48
151.558
146.202
146.201
146.201
146.201
146.524
146.424
146.201
146.201
146.215
148.885
146.201
146.201
146.201
1698.87
146.974
146.245
1681.27
146.303
146.204
250.769
146.267
146.456
146.411
13300.6
146.494
146.201
146.265
1575.82
146.202
146.201
2068.51
146.669
2060.23
146.202
146.281
146.201
146.256
1592.78
146.202
1523.28
146.225
146.201
1038.55
146.212
146.201
174.067
1647.02
146.204
146.245
1092.98
146.207
146.262
1848.13
148.396
146.248
146.211
152.127
146.932
148.796
382.586
146.201
146.201
146.346
173.493
146.363
146.223
146.202
146.202
146.205
149.351
146.271
164.719
150.756
146.201
146.215
146.245
146.234
2794.4
146.201
146.241
151.329
2351.25
146.201
146.463
2396.19
146.201
146.22
146.306
146.376
146.201
147.601
146.201
146.201
146.212
146.201
219.654
146.223
146.223
3023.31
229.546
146.201
146.217
146.229
146.204
146.201
146.789
146.261
146.205
146.282
146.204
146.493
6047.61
146.232
146.267
4172.45
374.58
146.206
146.222
153.042
146.256
147.001
146.225
179.749
146.252
161.502
744.802
146.286
146.234
146.256
146.287
184.488
146.201
146.522
146.282
146.281
146.655
146.251
2638.15
146.856
146.258
412.631
169.134
146.204
179.224
146.21
452.144
146.201
2287.26
1498.07
1079.27
146.201
146.201
146.201
320.483
146.251
2124.17
146.201
322.768
453.392
148.141
146.204
3771.1
236.326
148.723
2234.21
187.339
146.203
146.251
146.203
146.255
146.209
146.202
146.204
146.214
146.205
146.203
146.202
4219.19
146.205
146.217
146.201
146.578
146.318
146.257
157.27
146.203
146.202
146.269
146.202
146.207
146.201
146.225
146.203
146.26
146.206
248.616
146.203
171.744
146.281
8050.24
146.201
146.437
558.408
146.201
146.202
8969.43
146.201
146.219
146.201
146.201
146.204
146.258
146.201
146.201
146.209
146.201
146.256
392.174
146.201
146.223
146.201
146.444
146.364
146.201
146.201
9712.09
146.203
146.215
146.201
146.349
146.21
146.201
146.201
1142.97
13629.9
146.201
146.353
146.201
146.202
146.211
146.53
146.201
147.169
146.236
146.222
146.201
146.343
146.209
219.941
148.705
146.206
146.216
146.215
556.191
146.201
146.201
146.201
146.201
146.201
146.201
146.201
167.77
146.209
146.202
146.203
1494.89
788.699
146.203
146.375
175.119
146.237
146.369
71356.4
146.434
179.281
1787.64
201.256
146.847
147.06
151.368
146.368
146.248
146.246
146.652
146.201
146.239
177.064
146.979
146.316
146.244
146.205
197.7
918.652
146.239
153.668
146.201
1004.51
2953.52
146.201
146.202
146.206
146.3
146.313
3847.14
146.281
146.462
146.213
148.28
146.201
146.201
1893.91
146.201
146.201
146.202
146.201
146.207
146.215
146.202
146.227
146.222
146.221
146.201
146.201
8213.48
2029.86
146.201
146.281
146.201
146.202
146.201
9510.37
182.267
600.422
146.202
146.201
146.201
146.205
146.258
146.202
30791.3
146.201
146.202
146.203
2447.9
11053.4
146.235
146.202
37780.7
42784.9
152.484
35322.6
3708.29
146.208
3376.58
2862.81
146.201
146.201
146.201
146.202
146.201
146.202
5856.02
11403.4
4901.89
235.713
2656.04
146.202
146.249
146.266
147.679
146.234
2261.01
146.289
1504.51
164.739
146.21
193.214
4270.06
146.205
146.201
2242.66
146.202
146.21
2691.95
1337.94
146.201
146.201
146.362
146.205
146.202
146.21
146.201
278.394
1948.62
146.201
146.227
146.222
3854.16
163.9
146.207
146.21
146.201
3490.67
146.201
146.204
157.282
146.211
146.226
146.205
146.201
4705.62
146.265
146.201
146.201
146.201
146.202
146.202
146.244
146.204
151.862
146.289
146.201
146.587
146.202
146.201
146.207
146.202
146.202
146.201
146.213
146.201
146.201
147.386
146.201
3382
146.213
146.201
146.201
146.201
146.201
146.213
188.963
7286.39
2760.25
11977.4
146.259
296.663
146.424
10455.1
7322.48
147.233
3244.48
146.202
146.215
146.201
146.202
146.201
146.201
146.605
26640.7
146.201
1316.4
152.442
170.899
146.215
146.201
146.365
146.201
146.214
1338.91
149.824
146.204
146.201
149.222
151.115
146.205
146.22
2908.51
146.216
3892.63
146.201
146.201
148.084
4288.13
4218.06
3860.53
5126.79
341.819
397.105
1989.44
561.578
2683.5
146.201
146.211
146.201
146.201
151.18
972.845
148.696
146.385
839.569
461.807
146.212
802.691
154.226
146.201
146.201
146.201
162.154
615.14
148.164
146.201
177.528
6498.28
152.701
2570.07
475.44
146.295
181.884
146.201
146.261
194.788
146.422
146.201
146.219
146.662
146.201
146.291
174.745
146.201
149.011
1395.24
146.206
193.504
1371.04
146.206
209.881
248.768
348.778
146.251
260.54
146.818
508.536
146.707
146.201
507.704
146.226
350.131
280.44
146.223
146.708
146.225
203.986
1796.72
146.201
146.366
167.638
146.201
978.631
146.201
146.201
146.201
163.036
146.283
146.254
146.525
146.201
146.613
208.332
227.848
146.467
146.201
158.758
940.725
1660.95
146.201
158.037
5414.48
4965.76
767.902
146.204
1005.45
146.201
146.202
146.201
146.201
146.201
147.159
146.208
761.002
146.201
146.276
146.201
146.201
146.201
146.201
146.201
148.755
219.279
146.21
146.201
324.464
146.204
853.496
146.25
146.201
3338.77
146.206
146.201
146.202
317.88
189.496
146.201
146.241
146.222
146.201
146.201
146.22
146.201
146.201
146.201
146.201
146.201
146.201
146.211
509.715
146.201
146.205
146.201
2877.47
146.201
146.202
154.218
146.585
146.201
146.201
146.201
146.458
147.408
146.692
146.201
146.201
146.201
146.201
1074.94
146.201
146.201
146.201
146.201
146.202
287.451
146.201
146.201
146.213
146.262
146.201
146.205
146.201
146.206
146.201
146.201
146.207
317.436
146.201
146.201
146.201
146.201
146.201
146.201
12223.4
146.266
146.217
146.202
146.201
188.878
146.201
302.567
145.999
146.241
146.579
146.201
146.201
146.201
146.208
382.653
146.206
146.201
378.721
146.201
146.201
146.205
146.201
146.204
146.201
2011.31
146.202
146.201
146.201
506.15
250.67
327.464
166.913
1426.68
403.873
164.118
146.201
146.245
447.971
146.201
146.206
146.201
151.707
968.673
146.203
146.201
146.204
150.871
177.34
232.301
2840.71
146.203
1868.24
148.407
146.204
146.268
146.327
146.201
146.203
159.698
146.687
146.21
146.203
226.934
210.474
255.267
149.82
2426.79
154.247
146.204
146.201
146.219
146.236
146.204
146.233
146.235
146.207
1617.23
288.521
146.242
265.293
146.204
2298.67
2846.85
3761.82
160.078
146.226
347.389
146.8
146.233
146.201
1538.48
2179.23
2865.14
146.201
2879.75
146.201
148.923
146.22
146.255
146.201
7230.04
2147.97
146.201
146.201
146.297
302.491
146.201
369.28
146.225
146.201
8180.48
146.201
148.373
146.225
2429.87
146.642
146.201
146.657
146.201
161.114
146.669
1885.14
146.201
146.207
146.657
146.203
210.835
146.204
146.66
146.203
4426.45
146.279
1602.87
2772.37
3522.15
146.21
1295.54
2516.32
146.657
146.204
7431.8
349.685
146.201
146.603
4456.16
172.81
146.202
146.206
146.629
146.201
146.201
146.201
146.207
17656.6
146.207
21188.9
146.476
146.343
146.207
146.201
146.397
146.207
146.25
146.208
146.202
146.624
1819.12
240.112
223.907
448.084
413.676
240.53
165.241
146.202
146.201
289.941
1674.29
1497.45
159.957
269.9
169.251
449.211
12808.7
2090.61
146.201
1794.77
8703.3
400.091
146.201
468.587
147.514
155.707
1587.7
3952.61
3424.42
2558.65
170.63
2178.33
177.305
148.504
146.285
5086
3646.38
152.183
170.732
2127
165.639
151.191
148.012
146.201
146.206
3973.1
146.205
146.205
149.682
146.213
146.261
146.201
71011.5
147.092
146.201
146.21
3868.14
171.654
1872.12
1865.78
3707.83
171.54
146.201
146.201
1282.4
146.201
146.201
146.23
154.561
146.306
3723.87
146.212
146.48
1898.42
153.245
146.201
146.428
3736.05
184.59
146.215
152.214
146.201
146.209
146.204
318.06
146.267
3582.92
146.201
262.284
146.201
1470.87
4494.39
1291.5
729.703
146.201
146.207
146.201
146.236
146.201
8051.33
177.42
146.201
1057.4
146.201
146.201
3094.62
146.201
161.577
146.207
165.134
2452.89
146.201
146.201
146.242
18747.9
146.203
146.508
151.061
148.713
208.868
146.218
146.201
146.201
146.202
146.201
146.201
147.036
146.201
146.242
146.513
146.206
612.194
23856.7
2599.81
145.586
146.201
146.288
146.268
146.201
145.694
6176.25
989.92
146.083
26133.7
1036.45
146.316
146.509
1053.49
5466.48
203.849
146.286
146.274
160.168
146.201
146.201
146.201
146.249
147.205
146.205
874.025
146.201
150.717
146.208
931.636
966.862
146.206
154.258
155.144
157.723
492.888
277.413
146.201
146.59
22468.9
203.83
147.055
146.36
146.347
146.201
146.202
146.201
8554.49
233.769
16931
146.855
146.292
146.511
146.224
146.201
146.201
6325.29
146.201
146.202
146.201
6974.43
150.375
5675.6
146.614
146.252
188.691
782.023
150.604
147.447
146.203
146.527
155.361
604.435
159.838
201.482
146.227
146.317
315.484
146.945
368.421
446.033
146.339
154.724
146.203
146.28
21376.9
168.777
146.208
147.778
193.341
146.565
146.201
156.191
146.614
5213
146.229
146.201
159.245
146.286
146.201
146.201
150.419
191.506
146.481
185.296
146.23
149.624
146.318
146.235
146.201
146.261
9524.63
17836.5
11407.2
147.257
146.228
363.477
309.706
146.251
146.229
153.307
146.437
146.235
148.655
469.463
146.32
159.024
146.278
157.607
146.201
146.201
146.209
146.204
152.644
4715.2
146.201
182.47
148.671
146.247
146.213
146.238
146.216
361.935
146.306
146.201
146.201
146.256
146.441
146.266
146.211
146.328
177.296
146.619
146.581
146.596
146.202
146.249
146.201
146.633
146.222
146.201
2507.09
146.201
146.205
147.24
146.25
11329.3
147.488
296.966
146.212
291.968
146.201
147.083
146.201
146.201
146.201
240.573
146.214
146.613
1688.18
146.213
148.894
150.669
146.241
146.208
146.203
146.201
146.21
146.208
146.336
146.206
146.201
146.231
2784.8
2728.86
211.164
158.642
146.559
146.24
364.827
146.206
1288.29
217.188
1883.11
146.233
146.208
153.015
146.201
146.207
146.203
146.251
1193.2
146.201
146.242
146.283
146.227
167.285
170.586
146.222
146.352
146.229
146.245
146.252
146.239
146.269
146.216
146.252
146.261
146.234
146.235
146.359
146.278
146.339
146.201
146.242
146.58
187.333
146.261
2680.56
799.403
146.258
150.48
203.227
148.97
2308.86
149.688
163.415
146.31
512.613
146.564
315.018
4562.46
146.35
146.5
149.093
1127.78
7156.31
146.22
164.737
146.205
1040.37
146.202
146.202
146.201
166.742
146.448
147.534
146.673
156.1
146.39
147.327
146.219
146.302
5480.55
146.993
146.457
146.202
155.204
146.641
146.202
146.304
1045.88
146.314
146.222
146.876
1804.17
146.31
146.201
146.201
653.575
146.434
393.635
147.22
146.563
146.236
146.201
146.285
146.201
146.201
146.21
146.205
146.201
146.216
146.221
146.211
146.21
146.201
146.261
146.242
146.201
146.206
147.477
146.627
146.201
146.201
146.201
146.201
1780.5
149.071
148.238
146.201
146.201
146.201
146.201
3341.95
146.201
146.201
146.202
146.201
146.201
146.201
146.219
146.281
146.201
146.456
146.201
146.212
146.232
146.253
146.233
146.24
2998.57
146.201
146.228
146.249
146.325
146.201
146.201
146.217
146.201
147.79
146.201
146.307
146.207
149.04
3304.68
3799.01
146.714
149.057
146.284
146.201
146.201
146.201
146.203
146.201
157.071
879.094
146.201
1282.31
146.205
146.202
2581.03
2750.47
146.201
146.525
3652.96
146.202
146.201
146.201
147.533
146.201
1280.07
146.727
1299.14
146.201
146.201
146.268
150.272
150.691
152.767
146.447
146.241
146.201
146.23
146.201
146.202
146.201
146.208
146.201
146.201
155.869
146.616
147.772
148.717
146.203
146.204
146.201
146.201
146.651
146.369
146.403
146.201
146.677
146.703
146.594
146.219
146.203
146.214
146.204
146.773
146.428
146.202
146.481
146.317
146.439
1881.26
148.459
146.317
146.264
147.141
146.263
10327.1
146.211
186.985
146.201
146.259
146.212
150.826
146.201
146.291
146.201
146.261
146.62
180.358
146.211
146.577
147.608
198.124
146.201
146.819
146.699
146.269
146.237
146.351
146.268