/*--------------------------------*- C++ -*----------------------------------*\
| =========                 |                                                 |
| \\      /  F ield         | OpenFOAM: The Open Source CFD Toolbox           |
|  \\    /   O peration     | Version:  v2012                                 |
|   \\  /    A nd           | Website:  www.openfoam.com                      |
|    \\/     M anipulation  |                                                 |
\*---------------------------------------------------------------------------*/
FoamFile
{
    version     2.0;
    format      ascii;
    class       volScalarField;
    location    "3.5";
    object      ILambda_9_0;
}
// * * * * * * * * * * * * * * * * * * * * * * * * * * * * * * * * * * * * * //

dimensions      [1 0 -3 0 0 0 0];


internalField   nonuniform List<scalar> 
108993
(
146.201
152.499
146.201
146.201
146.201
146.201
217.144
146.201
146.201
146.217
146.201
146.201
146.201
146.201
146.201
146.203
146.234
146.201
146.201
147.453
146.201
146.201
146.297
146.201
146.201
146.201
146.201
146.642
152.811
146.201
146.201
146.201
146.201
146.202
146.201
146.201
146.201
146.201
6785.56
3354.94
146.403
146.201
146.201
146.201
146.322
836.615
146.201
156.237
146.317
146.237
146.201
146.243
146.35
146.201
146.201
146.201
146.201
146.201
146.201
146.201
146.201
146.201
146.201
146.201
146.201
146.204
146.201
146.201
146.201
146.252
146.201
146.201
146.201
146.201
146.191
146.201
146.201
146.214
146.201
146.201
146.201
146.201
146.201
146.201
146.201
146.201
146.201
146.201
146.201
146.201
146.201
146.201
146.201
146.201
146.201
146.202
146.201
146.201
146.201
146.201
146.201
146.201
146.201
146.201
146.201
146.201
146.201
146.201
146.201
3101.55
146.354
146.201
146.444
146.403
146.201
234.934
146.201
146.201
146.254
146.201
146.201
146.201
146.457
146.201
146.201
146.216
146.395
146.201
146.201
146.201
146.202
146.201
146.201
146.643
146.201
146.201
146.201
146.201
146.201
146.201
146.201
146.201
146.226
146.201
146.201
146.201
146.201
1339.35
146.201
693.568
723.767
146.201
146.201
1698.86
146.201
146.472
146.201
146.201
146.201
146.29
1952.98
146.201
146.201
146.201
146.201
146.299
146.201
146.201
146.201
146.201
146.201
146.201
146.224
146.201
147.304
146.203
146.844
146.201
146.201
146.201
146.205
146.201
146.201
146.201
146.201
146.201
146.201
146.201
146.201
146.201
146.201
146.201
146.201
147.425
146.201
146.201
146.399
146.201
146.201
146.201
146.201
146.435
146.201
146.201
149.476
146.551
146.201
400.669
146.201
361.268
146.244
146.201
147.089
165.524
113.597
146.201
146.201
146.201
146.201
146.201
146.217
429.075
146.203
146.407
146.201
146.201
146.201
146.201
146.335
146.201
150.43
146.201
146.201
146.41
146.201
146.201
146.201
146.201
149.103
146.201
146.201
146.201
146.201
146.201
146.201
146.206
168.876
146.449
146.201
146.201
146.201
146.201
146.201
146.201
146.201
146.201
146.201
146.201
146.201
146.201
146.201
146.188
146.29
146.218
146.201
146.201
146.201
146.826
146.201
146.201
146.201
146.201
146.878
160.522
1285.24
146.201
146.201
146.483
146.201
146.224
146.223
442.311
595.396
146.201
146.201
146.217
146.201
146.249
146.201
150.744
146.201
146.201
146.276
146.201
146.201
146.201
146.201
146.201
146.232
146.201
146.45
146.902
146.201
146.201
146.201
146.378
146.201
146.201
146.387
147.019
146.201
146.201
146.235
146.201
146.448
146.531
146.201
146.247
491.402
146.201
147.839
146.201
149.613
150.301
146.201
959.042
150.25
146.735
146.201
146.201
146.201
146.589
149.189
146.201
148.399
146.201
146.201
146.201
146.201
146.201
146.201
146.456
146.407
146.201
146.201
146.201
146.201
146.201
146.201
146.201
146.201
146.201
262.741
182.353
146.207
146.201
146.201
3501.89
146.201
146.201
146.205
146.378
146.201
146.201
146.189
146.551
146.201
146.201
146.201
1566.6
146.202
146.21
146.201
1807.52
146.486
147.039
146.201
146.201
146.695
146.201
146.716
146.724
146.541
146.219
146.201
146.236
146.203
3169.08
146.203
751.74
146.711
146.224
146.746
146.201
146.508
146.335
272.852
146.201
146.233
146.201
146.337
146.514
146.62
146.201
146.203
146.221
146.251
146.201
146.201
162.974
146.201
146.205
580.326
146.201
146.201
146.201
648.604
146.247
248.595
146.201
159.861
153.591
154.235
146.201
146.201
149.746
146.201
156.886
149.286
146.201
220.898
1507.44
151.891
146.201
146.201
146.218
146.201
146.211
146.201
146.201
146.201
146.201
146.201
146.454
147.965
146.516
146.525
146.224
146.201
146.43
146.202
146.201
146.201
146.201
146.201
146.201
146.201
146.35
146.201
146.201
146.369
146.201
146.395
487.911
146.248
146.201
146.201
146.413
146.201
146.201
146.233
146.201
146.201
146.202
146.201
146.236
146.201
146.302
700.128
146.281
146.201
146.201
146.201
146.201
146.201
146.201
146.201
146.201
146.222
146.201
146.201
146.201
146.255
146.201
146.24
146.201
146.201
146.201
146.201
146.413
146.201
146.201
146.201
146.201
146.344
147.369
146.201
146.201
727.24
146.201
146.224
146.529
146.201
146.212
146.201
146.201
146.201
146.201
149.602
146.379
146.202
146.202
146.831
146.461
146.391
146.28
146.323
146.201
146.278
146.484
162.916
146.201
146.28
146.201
146.201
146.201
146.667
146.201
146.217
150.61
146.201
198.62
146.201
146.201
146.201
146.201
146.201
146.275
146.201
146.201
146.472
158.106
222.17
146.201
146.201
146.201
146.201
146.582
2565.7
147.159
146.201
146.201
146.201
146.306
146.28
147.284
146.201
146.201
146.421
146.404
146.201
146.202
6857.13
146.282
145.616
146.52
146.201
146.297
149.271
208.1
146.205
146.201
146.201
146.201
146.201
146.405
854.6
146.307
146.202
146.201
146.398
146.201
152.856
146.201
161.907
146.201
146.201
146.201
146.24
146.223
146.201
146.201
118.576
146.267
146.201
146.201
139.064
146.201
146.231
146.201
146.897
146.201
146.238
146.201
146.363
146.201
146.213
146.201
378.149
146.201
146.341
146.201
146.201
2327.88
182.217
146.201
146.201
146.389
1784.55
146.216
145.929
146.234
146.387
198.898
146.208
146.201
146.201
1009.68
146.25
146.247
146.202
146.249
146.201
146.265
146.201
146.209
146.204
146.251
146.25
146.216
146.216
146.249
471.671
1042.26
146.24
152.306
146.268
420.526
146.921
1049.79
311.965
146.202
146.216
146.201
146.201
146.205
146.254
146.219
190.85
290.363
146.252
146.277
146.29
982.389
1108.28
146.201
146.27
146.228
146.205
878.467
164.623
181.648
146.241
146.215
390.485
146.228
155.908
146.224
146.227
2288.09
146.201
146.201
146.25
146.209
148.481
50697.4
146.221
148.119
146.235
31907.1
146.612
146.201
146.201
146.201
146.277
146.201
146.299
146.534
146.201
146.201
146.544
149.621
1708.28
146.201
11878.8
146.201
146.36
146.25
146.201
146.276
149.586
146.207
146.283
146.207
146.201
146.214
146.356
146.375
146.46
146.201
146.232
146.207
146.204
146.209
146.202
146.201
151.561
146.201
146.201
176.956
146.201
146.216
7101.2
148.51
146.212
146.337
146.213
146.225
146.216
146.211
146.201
146.201
146.201
146.207
146.201
146.377
146.201
146.202
146.255
146.201
146.207
146.201
146.207
146.202
146.238
146.415
168.842
146.626
146.201
146.201
146.202
190.941
146.201
146.115
146.575
146.201
146.202
158.305
146.948
146.203
146.201
146.225
146.203
146.202
146.347
146.203
146.557
146.201
146.201
146.237
146.201
1056.32
146.201
146.201
5313.83
146.226
202.162
146.613
147.389
146.201
146.44
146.222
146.201
146.201
146.219
146.201
146.201
146.201
146.201
146.201
146.201
146.405
146.201
146.238
146.201
146.275
146.431
146.201
7522.15
146.44
11675.9
146.208
146.201
146.226
372.553
146.38
146.397
146.224
146.313
199.193
146.317
194.026
146.211
146.201
146.254
146.408
146.202
146.237
2349.27
146.202
146.201
146.204
212.63
146.204
146.416
146.233
146.202
146.201
98.0617
146.202
114.315
146.202
97.6422
146.202
146.391
146.263
146.256
146.599
146.201
146.244
146.24
146.268
146.406
1858.87
146.201
146.201
146.201
146.287
146.235
146.265
146.201
146.201
146.235
1933.16
146.201
146.252
146.271
172.522
146.424
146.405
273.32
1807.33
146.739
146.554
146.272
148.973
146.201
148.081
2430.64
184.991
146.201
146.201
146.228
146.273
146.519
146.201
146.201
146.294
146.505
146.201
146.279
146.521
146.774
148.78
146.201
146.201
172.782
168.207
146.199
204.559
146.201
146.201
146.291
146.337
219.986
146.201
179.488
146.214
146.296
161.978
146.201
146.249
146.274
160.755
146.201
146.225
146.202
146.335
146.382
146.201
146.385
146.201
146.233
146.351
146.246
146.299
146.201
146.721
146.201
247.085
146.765
146.201
146.201
146.549
146.27
146.201
146.23
1352.24
146.286
146.621
146.203
146.283
146.452
146.962
146.201
146.214
148.337
146.306
146.22
146.284
146.202
146.454
4491.48
146.255
146.26
146.267
146.253
146.266
146.263
146.672
146.268
146.947
146.231
146.201
150.05
146.276
146.201
146.201
146.201
146.273
146.201
146.201
146.201
150.252
146.201
146.201
147.858
146.991
146.201
146.201
146.218
146.201
3266.57
146.201
146.201
152.575
146.201
150.757
6492.35
146.224
146.256
146.201
146.201
146.59
146.218
146.345
146.208
146.201
155.091
146.201
169.564
146.259
225.27
146.201
146.201
146.201
146.201
146.203
146.444
146.201
146.201
146.201
146.201
144.149
146.201
146.407
146.201
146.201
146.567
146.226
146.406
146.596
146.201
146.201
146.491
146.311
146.201
146.201
146.201
420.018
146.203
146.361
146.201
146.209
146.204
146.201
218.928
146.477
146.239
146.248
7003.08
146.307
146.247
146.397
333.705
146.335
146.201
146.201
146.234
146.21
303.03
146.277
146.369
146.209
146.43
146.228
146.201
146.224
146.538
146.219
146.212
146.266
146.247
146.223
146.201
146.201
146.201
146.201
146.201
146.201
146.202
146.735
147.183
2402.54
146.204
146.201
146.201
146.224
146.845
146.201
146.204
146.201
146.239
146.201
146.238
3422.04
146.245
146.201
146.095
146.234
146.201
146.201
146.201
146.201
146.459
13173.6
146.256
146.201
146.201
146.201
146.203
146.202
146.201
146.202
146.201
146.201
146.201
146.201
146.201
146.201
146.201
146.201
146.201
146.201
146.202
146.201
146.67
146.609
146.408
250.554
146.201
146.201
146.204
146.201
146.203
146.201
152.201
146.201
146.201
146.295
146.203
146.393
149.271
151.915
146.201
146.201
148.895
150.092
146.201
146.201
146.201
146.474
146.202
146.201
1195.91
146.201
146.201
146.201
146.201
146.201
146.223
146.206
165.915
1040.38
146.331
146.23
146.23
146.735
147.122
146.204
146.201
146.198
482.907
146.201
146.232
146.247
146.229
146.226
1249.3
146.633
146.201
146.241
146.201
146.25
146.229
146.248
146.201
146.201
146.202
146.201
146.203
146.201
156.133
12803.8
146.219
146.201
146.201
146.217
146.737
146.201
146.742
146.201
146.475
4786.77
146.226
170.93
146.201
146.248
146.201
146.235
146.441
146.506
146.202
146.232
146.214
243.4
146.24
146.302
146.472
146.201
146.201
146.216
146.201
146.202
2595.32
146.201
146.201
146.201
148.153
146.201
146.201
146.443
146.201
146.435
219.646
146.201
146.385
146.201
146.264
146.201
146.202
146.201
146.483
146.201
146.573
146.253
146.201
714.489
146.201
146.201
146.201
146.412
149.419
146.201
146.225
146.371
151.685
146.267
146.205
146.201
146.242
146.201
166.885
174.878
165.767
146.508
167.107
146.201
175.126
175.6
146.231
146.223
146.201
146.351
146.201
146.201
146.201
146.263
146.201
146.201
146.201
146.316
146.201
146.201
146.202
146.201
146.202
146.202
146.201
146.41
146.683
146.202
172.877
146.251
146.457
146.452
149.181
146.241
146.201
146.23
146.351
146.202
146.201
146.201
146.201
146.201
158.694
146.201
146.258
146.202
146.277
146.459
146.202
146.201
158.198
146.201
146.202
146.201
146.201
146.208
158.137
146.243
146.449
146.638
146.202
146.807
162.922
146.201
146.413
146.201
156.442
160.588
146.202
146.201
462.324
147.298
146.232
146.202
754.101
146.442
146.201
146.201
146.201
146.203
146.202
146.447
442.396
146.201
146.201
146.202
146.227
160.817
146.201
146.201
1342.1
3507.78
146.235
146.201
146.536
147.193
146.208
146.207
146.201
146.448
146.201
146.218
146.203
146.227
5979.18
146.246
146.219
146.512
164.881
146.208
146.262
455.087
146.205
146.202
146.221
146.303
146.239
146.201
146.212
146.286
146.379
155.209
146.212
146.214
149.665
146.206
146.204
196.416
146.207
146.201
146.207
146.201
2614.39
146.201
146.201
146.641
146.209
1443.62
146.207
1828.68
146.207
146.228
1123.45
146.22
146.228
569.331
146.24
146.426
146.467
146.201
146.204
146.201
277.955
146.264
146.201
146.412
146.201
146.324
174.619
148.286
146.229
3564.61
146.201
39453.9
146.201
146.201
146.665
146.201
146.201
146.201
146.201
146.336
146.024
1104.73
146.353
191.679
146.435
146.201
146.203
146.371
146.461
146.201
189.836
146.289
146.201
146.201
146.201
146.283
146.201
146.201
146.531
146.201
146.201
146.201
146.417
1618.57
146.477
153.28
1963.9
146.201
146.204
1097.51
146.201
146.201
146.206
396.886
1712.54
245.9
25644.2
146.201
146.201
16260.1
146.201
146.205
146.201
146.201
146.203
146.201
146.203
146.201
146.203
16226.9
146.235
146.204
146.406
146.338
146.201
146.276
146.201
146.201
146.201
146.201
146.201
146.201
146.442
146.201
146.233
146.289
146.678
146.641
146.271
146.201
869.74
382.317
146.201
146.423
146.201
146.201
146.299
387.154
522.76
147.615
146.201
4195.69
2518.42
167.922
146.201
157.238
146.301
146.294
177.089
146.255
234.966
146.287
146.202
146.282
146.512
146.282
146.266
181.068
146.292
146.279
271.914
1515.36
571.177
146.201
146.201
5353.52
146.201
146.179
166.273
146.201
373.69
146.266
146.201
146.201
146.201
146.201
146.266
146.621
3137.69
146.618
243.96
146.201
146.914
146.306
146.624
146.201
146.573
146.201
146.201
146.285
146.201
146.489
146.201
146.201
146.217
147.073
146.301
146.226
531.868
146.261
147.862
165.999
146.201
146.201
175.223
146.201
146.201
146.201
156.566
146.79
146.723
146.824
6337.03
146.22
146.201
146.336
146.621
146.379
441.307
146.204
146.226
146.201
146.642
146.567
194.352
146.201
146.201
146.201
146.201
757.891
146.201
146.403
146.201
898.01
146.767
146.201
146.227
6619.64
146.986
264.58
146.583
146.201
648.538
3546.47
146.201
146.542
146.374
146.241
146.343
146.201
146.478
7088.92
329.951
146.34
2561.97
146.521
146.483
146.201
150.637
14353.7
146.254
310.517
146.205
146.217
146.254
146.202
2173.28
146.26
146.227
148.13
152.846
160.923
149.131
147.122
146.58
146.202
146.201
146.201
146.549
146.201
1028.09
149.254
146.225
10183.3
146.216
146.201
146.235
147.038
2190.53
146.22
146.232
148.632
3775.66
22813.9
146.712
146.202
4382.65
146.212
146.201
146.202
521.384
146.204
148.72
146.216
147.04
149.722
468.48
146.203
147.891
146.21
146.811
146.201
146.202
146.201
146.202
146.225
147.049
688.91
151.073
146.223
9306.32
146.563
3516
146.206
146.3
410.752
18655.6
146.26
146.201
146.201
146.201
146.201
146.201
146.217
146.254
146.41
157.656
161.326
146.367
2020.7
182.022
540.735
147.839
146.201
9276.21
146.514
146.201
146.201
3759.1
580.796
146.201
146.202
146.201
146.597
146.201
6972
8354.62
1631.95
4876.83
146.201
8290.95
146.926
146.201
146.322
146.201
146.234
147.159
146.218
146.221
10074.3
146.609
146.202
146.236
146.201
146.201
146.203
146.443
146.201
146.489
146.793
147.201
452.281
146.59
146.427
151.3
146.201
146.201
146.201
394.825
149.504
146.201
146.201
1473.88
146.201
146.201
146.201
146.201
148.604
156.163
1905.02
200.441
202.875
146.201
152.638
146.201
146.669
147.872
146.201
147.21
146.201
146.201
269.399
146.201
146.199
144.409
147.188
211.631
156.332
146.201
146.581
146.446
195.671
146.58
146.222
149.977
160.323
149.888
179.281
146.203
146.204
146.204
147.853
146.952
146.641
146.45
144.447
146.202
146.201
8526.36
254.279
146.737
173.943
147.974
148.059
4118.16
146.201
154.621
146.23
356.823
146.201
155.603
228.979
146.201
2899.76
146.201
147.006
168.346
146.201
146.201
147.515
146.201
146.201
146.201
146.201
146.58
146.245
227.3
1057.64
146.201
146.201
10772.1
146.578
146.201
146.408
146.201
146.201
146.206
146.201
146.341
146.362
3178.43
146.201
146.202
1184.46
146.201
151.109
352.008
146.201
146.201
146.403
146.246
208.243
146.201
146.201
146.201
146.201
146.201
307.976
477.608
146.388
146.216
1001.95
146.407
146.269
146.201
146.618
146.201
171.874
214.65
146.202
146.201
146.198
146.377
1406.73
146.201
146.844
146.225
146.201
146.251
146.211
146.201
146.343
146.201
409.946
146.201
146.201
146.214
146.2
146.201
151.539
147.623
146.201
146.201
1320.81
146.201
165.719
146.204
146.201
1758.51
6461.34
223.464
157.816
146.201
146.244
3692.33
146.201
531.756
146.201
1095.61
1181.07
146.201
12242.6
267.92
2510.91
1865.96
1660.1
146.205
146.201
146.203
146.231
146.235
146.223
3282.84
146.201
146.23
146.201
146.276
675.927
1144.08
146.201
146.401
194.64
146.201
169.882
146.201
146.201
146.201
465.449
238.921
154.864
146.201
146.206
146.201
2954.82
148.07
3199.15
146.201
146.201
904.134
256.201
146.201
146.201
1506.35
146.201
146.201
154.433
542.781
146.345
146.511
146.201
1229.37
7432.81
165.002
593.533
146.482
19503.9
146.809
146.25
3064.56
444.246
33347.4
26265.1
16897.7
24210
146.201
20751.6
1624.53
453.226
146.201
3502.26
66098.8
146.201
147.701
46310.5
146.201
13112.8
146.201
4765.95
236.39
147.909
220.92
148.876
146.201
146.201
146.204
146.201
5530.28
146.201
161.368
192.94
146.296
146.304
146.297
146.201
146.201
146.201
146.402
146.202
465.794
146.201
149.222
146.306
146.495
146.201
146.275
210.348
146.298
146.3
146.201
146.202
146.232
8189.01
8949.42
146.588
146.522
146.401
146.451
146.202
146.246
146.226
146.63
146.201
146.643
146.302
9299.17
146.575
146.555
146.441
146.363
146.22
146.273
148.527
146.212
146.287
4766.31
146.366
2631.2
146.557
146.224
146.393
2643.53
146.201
146.393
146.586
146.472
146.63
146.568
160.802
146.359
176.238
146.367
146.201
146.213
227.408
146.201
153.23
146.291
146.349
146.201
146.201
146.357
146.243
146.272
146.487
146.202
146.201
240.852
109.963
146.245
162.439
135.414
146.203
146.291
146.221
146.238
101.566
146.226
146.508
146.3
146.201
122.107
146.235
146.201
146.203
146.202
146.201
146.201
146.201
146.201
146.201
178.442
146.251
146.201
146.323
146.201
146.283
146.047
146.201
146.201
147.258
147.127
146.201
146.245
146.201
146.187
146.385
146.472
146.201
146.283
146.44
146.201
146.201
146.201
146.203
146.201
146.235
146.249
1853.73
146.42
151.253
146.241
146.239
146.268
146.443
247.08
146.245
146.204
146.632
146.275
264.518
146.201
146.271
146.205
146.28
146.458
146.255
146.488
146.471
146.243
146.445
146.201
146.282
146.201
146.234
146.259
146.259
146.531
146.239
148.559
146.238
149.593
146.239
146.208
146.201
146.277
146.228
146.21
146.202
146.202
146.257
146.236
146.307
146.231
146.201
146.201
146.237
146.23
233.967
146.201
146.216
146.203
146.201
146.36
146.201
146.636
146.202
146.203
146.201
146.201
146.237
146.201
146.201
146.201
146.224
146.202
146.201
147.616
146.202
146.262
19854.7
146.201
146.365
146.218
146.201
146.201
148.255
146.201
146.201
146.426
146.268
146.245
146.201
146.206
146.201
146.228
146.251
146.201
146.201
146.223
146.201
146.201
146.429
146.201
146.241
146.237
146.201
146.201
146.216
5585.48
233.444
146.201
146.201
146.201
146.201
146.417
146.553
146.201
146.201
146.203
147.435
146.201
146.201
146.201
1643.52
146.765
146.257
1286.84
146.227
146.202
146.408
146.253
146.216
146.543
581.158
146.614
146.201
164.321
1369.72
146.201
146.201
1939.63
146.643
1832.95
146.201
146.233
146.201
146.493
2848.81
146.201
2897.67
146.216
146.201
2508.49
146.211
146.201
161.252
2562.11
146.202
146.274
2469.58
146.205
146.225
2929.36
146.369
146.221
149.791
146.418
147.985
146.37
348.464
146.201
146.201
146.378
146.219
146.378
146.673
146.201
146.201
147.051
146.746
153.275
146.276
146.627
146.201
146.256
146.205
148.03
9324.99
146.31
146.248
148.149
10545
146.201
146.5
4207.07
146.201
146.696
146.316
146.353
146.201
148.22
146.201
146.201
146.204
146.201
167.832
146.225
146.221
7078.1
166.793
146.201
146.221
146.224
146.201
146.201
146.23
146.243
146.206
146.267
146.201
146.815
5726.4
146.221
146.345
231.949
194.722
148.36
146.221
146.566
146.447
146.274
146.239
206.331
146.217
182.909
277.871
146.257
146.225
146.218
146.257
196.136
146.201
146.608
146.253
146.225
146.429
146.423
3083.51
146.376
146.204
291.406
146.367
150.337
153.131
146.212
330.895
146.201
8202.28
272.485
730.947
146.202
146.201
146.201
287.231
146.276
6839.93
146.203
326.568
350.476
146.288
146.201
18749.5
244.14
147.642
26339.6
153.2
146.201
146.29
146.201
146.253
146.221
146.202
146.201
164.71
146.206
146.201
146.201
4112.64
146.201
146.241
146.201
146.46
146.475
146.38
164.887
146.201
146.202
146.257
146.202
146.201
146.201
146.206
146.201
146.249
146.216
168.088
146.201
146.346
146.272
3546.46
146.201
146.5
146.408
146.201
146.201
5561.39
146.201
146.211
146.201
146.201
146.201
146.235
146.201
146.201
146.201
146.201
146.346
948.311
146.201
146.216
146.201
146.288
146.344
146.201
146.201
2303.76
146.201
146.235
146.201
146.565
146.301
146.201
146.201
1122.56
7260.76
146.219
146.316
146.201
146.282
146.248
146.53
146.201
146.482
146.227
148.657
146.201
146.806
146.25
162.87
2089.76
157.975
146.632
146.258
1318.32
146.201
146.2
146.201
146.201
146.201
146.201
146.201
148.246
146.238
146.201
146.654
292.451
344.502
146.201
146.395
151.366
146.258
146.371
44759.9
146.201
148.834
165.685
146.206
146.565
146.202
146.244
146.409
146.276
146.25
146.503
146.201
146.253
202.165
146.252
146.286
146.209
146.204
146.316
226.827
146.24
146.594
146.21
200.572
297.601
146.201
146.448
146.218
146.445
146.337
5860.14
146.484
146.541
146.25
146.261
146.201
146.201
1675.01
146.201
146.201
146.201
146.201
146.219
146.205
146.201
146.231
146.217
146.506
146.432
146.201
2135.36
153.989
146.201
146.377
146.201
146.201
146.201
2527.65
146.559
484.613
146.201
146.201
146.201
162.874
146.227
146.207
8071.64
146.199
146.201
146.311
2463.97
6841.9
146.22
146.201
20705.4
13449.7
148.017
10744.1
155.695
221.045
2205.49
144.452
146.211
146.201
146.209
146.202
146.201
146.201
3932.27
3381.16
208.817
146.997
154.829
146.203
146.247
146.245
146.838
146.218
193.334
146.224
9202.74
146.539
146.201
160.833
189.078
146.202
146.201
1502.32
146.203
146.201
252.755
1521.72
146.201
146.201
146.218
150.466
146.201
146.201
146.201
155.845
1468.38
146.201
146.206
146.238
155.862
154.948
146.201
146.201
146.201
147.541
146.201
162.145
146.429
146.201
195.195
146.201
146.201
4945.61
146.227
146.201
146.201
146.201
146.201
146.593
146.224
146.201
148.361
146.527
146.201
146.564
146.201
146.201
146.201
146.202
146.202
146.201
146.218
146.201
146.201
147.395
146.201
8958.75
146.222
146.201
146.201
146.201
146.201
146.226
168.615
12084.5
962.718
13019
146.343
169.743
146.213
10852.5
12941.6
146.222
155.911
146.201
146.225
146.201
146.201
146.201
146.201
146.53
560.936
146.201
1776.52
146.202
146.329
146.218
146.201
146.503
146.202
146.355
1469.12
239.69
147.044
146.201
148.918
153.832
146.201
146.228
9108.8
146.218
4616.56
146.201
146.201
147.501
2028.55
4217.91
5187.3
2390.92
217.041
206.97
1787.09
147.419
6789.38
146.201
147.602
146.201
146.201
147.117
183.67
146.402
146.822
172.466
151.721
146.202
172.038
146.4
146.201
146.201
146.201
147.171
148.794
146.361
146.201
147.385
2753.82
146.742
1376.49
146.599
146.313
195.024
146.201
146.26
267.264
146.231
146.201
185.081
146.653
146.201
146.201
173.806
146.212
146.201
8299.73
164.692
224.03
7788.65
152.35
159.872
146.538
146.757
146.234
146.607
147.044
149.488
146.502
146.201
146.807
146.218
146.686
146.539
146.274
146.638
146.242
167.029
995.688
146.201
146.429
147.134
146.201
364.333
146.201
146.201
146.201
147.1
146.446
146.25
146.201
146.201
146.644
147.069
148.207
146.217
146.201
146.406
1100.72
2218.08
146.201
160.753
10623.6
168.786
966.621
146.202
354.194
146.201
146.201
146.201
146.201
146.208
146.255
146.201
1008.13
146.264
146.226
146.201
146.201
146.201
146.201
146.201
146.273
216.36
146.201
146.201
3494.25
147.068
985.486
146.283
146.201
1206.47
146.204
146.201
146.201
667.118
146.265
146.201
146.239
146.467
146.432
146.201
146.426
146.201
146.201
146.201
146.201
146.201
146.434
146.209
146.723
146.201
158.45
146.201
148.744
146.201
146.203
146.355
146.357
146.444
146.44
146.434
146.207
146.289
146.489
146.201
146.201
146.201
146.201
815.559
146.201
146.201
146.201
146.433
146.201
254.427
146.201
146.201
150.727
146.272
146.201
146.202
146.201
146.202
146.201
146.201
146.201
219.84
146.201
146.201
146.201
146.201
146.201
146.201
6392.2
146.263
146.211
146.201
146.201
178.978
146.201
167.514
148.265
146.249
146.41
146.201
146.201
146.201
162.177
303.639
146.201
146.201
357.652
146.201
146.201
146.201
146.201
146.208
146.573
161.18
146.201
146.201
146.201
455.428
172.169
153.315
150.478
2464.35
223.537
146.364
146.201
157.598
386.665
146.201
151.144
146.201
146.558
148.726
146.201
146.201
146.201
146.283
163.005
171.574
147.163
146.262
155.451
146.448
146.249
146.262
146.202
146.201
146.267
146.207
146.235
148.929
146.248
149.102
163.332
169.082
177.996
201.546
154.387
146.249
146.235
146.407
146.257
146.25
146.203
146.204
151.951
11970.8
173.913
146.229
159.933
146.202
199.424
146.216
146.667
150.855
146.204
146.866
146.201
146.203
146.201
159.822
219.687
198.278
146.201
199.395
146.201
146.208
146.201
146.209
146.201
4991.56
146.454
146.201
146.201
146.243
175.701
146.201
218.714
146.207
146.201
4236.53
146.201
158.147
146.207
146.419
146.201
146.201
146.202
146.201
154.921
146.202
1806.89
146.201
146.213
146.202
146.342
147.358
146.201
146.201
146.201
2669.89
146.377
449.632
7408.64
184.928
146.201
551.072
175.791
146.201
146.384
3561.51
146.465
146.201
1154.52
151.44
146.225
146.41
146.202
1201.2
146.201
146.201
146.201
153.431
17703.8
153.778
63821.1
146.443
146.448
151.406
146.245
146.224
152.751
146.379
146.201
146.203
152.57
308.082
542.928
156.759
571.662
147.536
653.589
146.209
146.201
146.201
197.783
20619.5
2297.21
168.199
146.349
150.619
678.903
5885.95
9299.53
146.201
815.555
5383.58
530.517
146.201
166.954
172.552
225.677
1489.16
183.16
145.67
263.67
146.211
360.827
146.213
162.927
146.53
4961.56
820.331
146.202
146.236
146.566
228.459
157.363
146.266
146.201
146.201
1027
146.202
146.187
146.642
146.201
146.43
146.201
87685.2
146.951
146.201
146.683
627.861
154.93
1827.99
12059.5
2306.61
164.758
146.201
146.201
731.469
146.201
146.201
146.213
146.214
146.552
763.205
160.652
146.201
3185.19
186.04
146.201
146.243
1337.95
146.206
147.366
153.907
146.201
146.201
146.203
147.58
131.782
341.644
146.196
147.045
146.201
205.109
25606.5
146.451
2241.79
146.201
146.203
146.201
146.371
146.201
3452.58
146.888
146.201
2378.06
146.201
146.201
143.715
146.201
175.365
146.203
187.032
138.743
146.201
146.201
146.276
13248.7
146.201
146.55
149.154
146.201
146.262
146.214
146.201
146.201
146.201
146.201
146.201
146.204
146.201
146.498
146.342
146.201
149.311
9267.26
146.716
146.343
146.201
146.301
146.383
146.201
146.53
794.53
2329.6
146.565
753.291
5266.68
146.227
146.656
146.38
156.694
229.882
146.407
146.52
263.453
146.201
146.201
146.201
146.243
146.924
146.373
4023.52
146.201
146.202
146.198
515.9
1187.87
146.201
263.196
148.669
155.763
230.421
572.855
146.201
146.201
276.963
147.15
146.201
146.201
146.202
146.201
146.487
146.201
198.596
214.173
3848.92
147.019
158.649
146.273
146.321
146.201
146.201
7451.39
146.201
146.201
146.201
9627.34
146.719
4543.7
147.211
146.48
146.489
148.984
147.285
147.384
146.381
146.291
146.482
389.537
147.123
146.441
146.619
146.491
185.172
146.211
841.071
190.111
146.291
148.872
146.236
146.2
705.038
151.733
176.363
147.216
146.374
146.754
146.201
147.893
146.497
2573.48
146.202
146.201
172.677
146.318
146.201
146.201
146.368
1987.47
146.479
146.56
146.202
146.555
146.347
146.202
146.201
146.201
6515.39
729.582
16257.3
147.259
146.202
1965.07
1953.61
146.508
146.202
146.892
146.198
146.212
146.201
748.487
146.202
149.77
146.424
2470.56
146.201
146.204
146.201
146.202
862.637
408.989
146.231
2443.56
158.988
146.21
146.201
146.204
146.201
2329.28
146.282
146.201
146.201
146.266
146.236
146.355
165.738
146.201
146.202
146.404
146.447
152.414
146.217
146.201
146.201
146.458
146.201
146.201
1838.76
146.228
146.379
146.201
146.201
3464.53
146.207
242.557
148.407
151.124
146.201
146.23
146.248
146.201
146.201
147.073
152.742
146.462
13471.1
146.213
146.203
146.441
146.201
160.331
146.204
146.278
148.354
162.815
146.461
163.072
146.201
146.278
2130.3
814.32
146.368
205.69
146.509
146.519
331.221
160.64
17290.9
146.606
147.346
146.264
146.201
146.201
146.201
164.785
146.485
146.234
1155.69
146.209
146.202
146.202
151.642
146.346
146.469
146.205
146.208
146.21
146.312
146.233
146.273
146.534
146.202
146.236
146.237
146.262
146.537
146.35
146.238
146.373
146.28
146.317
146.551
149.27
146.238
146.356
4300.23
146.238
211.611
149.898
146.202
4203.7
146.201
175.993
146.201
225.11
146.842
223.602
268.182
146.201
146.201
146.206
233.205
4313.97
146.201
156.099
146.709
2504.52
146.201
147.64
146.201
146.211
146.761
146.201
146.219
146.218
146.203
146.21
146.201
146.481
7551.39
147.015
146.218
146.201
158.278
146.201
146.201
146.28
2540.02
146.276
146.201
146.201
750.771
146.297
146.201
146.201
321.363
146.384
511.112
146.201
147.046
146.241
146.201
146.316
146.201
146.201
147.319
146.398
146.201
146.201
146.201
146.422
148.208
146.203
146.201
146.203
146.201
146.202
146.201
146.204
146.201
146.201
146.201
146.201
146.536
152.939
147.158
146.201
146.201
146.201
146.201
145.556
146.201
146.439
147.657
146.201
146.212
146.201
146.957
146.201
146.201
146.232
146.201
146.211
146.29
146.202
146.26
146.254
154.891
146.201
146.203
146.264
146.201
146.201
146.279
146.201
146.203
146.201
146.201
146.443
151.329
146.287
501.026
230.876
146.201
146.306
146.204
146.201
146.201
146.201
146.332
146.201
186.682
9780.6
146.202
12271
146.194
146.201
34679.4
33963.7
146.201
146.516
165.521
146.202
146.201
146.201
149.926
146.201
14694.5
146.201
14799.5
146.316
146.201
146.202
146.413
146.432
146.428
146.236
146.202
146.201
146.201
146.207
146.201
146.201
146.201
146.201
146.201
146.577
146.201
146.267
146.306
146.337
146.221
146.201
146.227
146.674
146.288
146.476
146.201
149.035
146.229
146.201
146.408
146.202
146.313
146.202
146.341
146.268
146.201
148.342
146.335
146.201
146.383
146.308
153.283
146.252
146.202
146.251
6898.86
146.237
146.395
146.201
146.243
146.237
146.203
146.201
146.201
146.284
146.24
146.204
147.119
146.232
146.543
148.194
148
146.201
146.228
146.617
146.445
146.669
146.494
146.201
146.201
146.585