/*--------------------------------*- C++ -*----------------------------------*\
| =========                 |                                                 |
| \\      /  F ield         | OpenFOAM: The Open Source CFD Toolbox           |
|  \\    /   O peration     | Version:  v2012                                 |
|   \\  /    A nd           | Website:  www.openfoam.com                      |
|    \\/     M anipulation  |                                                 |
\*---------------------------------------------------------------------------*/
FoamFile
{
    version     2.0;
    format      ascii;
    class       volScalarField;
    location    "3.5";
    object      ILambda_0_0;
}
// * * * * * * * * * * * * * * * * * * * * * * * * * * * * * * * * * * * * * //

dimensions      [1 0 -3 0 0 0 0];


internalField   nonuniform List<scalar> 
108993
(
146.201
146.201
146.201
146.201
146.201
146.201
146.201
146.201
146.201
146.202
146.201
146.201
146.201
146.201
146.201
146.201
146.203
146.201
146.201
146.201
146.201
146.201
146.202
146.201
146.201
146.201
146.201
146.202
146.201
146.201
146.201
146.201
146.201
146.201
146.201
146.201
146.201
146.201
549.302
912.227
146.202
146.201
146.201
146.201
146.436
1405.46
146.201
146.2
146.201
146.202
146.201
147.913
146.201
146.201
146.201
146.201
146.201
146.201
146.201
146.201
146.201
146.201
146.201
146.201
146.201
146.201
146.201
146.201
146.201
146.36
146.201
146.201
146.201
146.201
146.201
146.201
146.201
146.201
146.201
146.201
146.201
146.201
146.201
146.201
146.201
146.201
146.201
146.201
146.201
146.201
146.201
146.201
146.201
146.201
146.201
146.201
146.201
146.201
146.201
146.201
146.201
146.201
146.201
146.201
146.201
146.201
146.201
146.201
146.201
531.1
146.529
146.201
146.756
146.835
146.201
146.5
146.201
146.201
146.204
146.201
146.201
146.201
146.372
146.201
146.201
146.207
146.202
146.201
146.201
146.201
146.201
146.201
146.201
147.039
146.201
146.201
146.201
146.201
146.201
146.201
146.201
146.201
146.238
146.201
146.201
146.201
146.201
726.062
146.201
147.115
147.189
146.201
146.202
147.162
146.201
146.213
146.201
146.201
146.201
216.321
147.177
146.201
146.201
146.201
146.201
146.606
146.201
146.201
146.201
146.201
146.201
146.201
148.225
146.201
146.201
146.201
146.22
146.201
146.201
146.201
146.201
146.201
146.201
146.201
146.201
146.201
146.201
146.201
146.201
146.201
146.201
146.201
146.201
146.205
146.201
146.201
146.202
146.201
146.201
146.201
146.201
146.214
146.201
146.201
146.13
146.514
146.201
196.93
146.201
147.219
198.125
146.201
146.215
146.526
1725.03
146.201
146.201
146.201
146.201
146.201
146.201
147.063
146.201
146.206
146.201
146.201
146.201
146.201
171.612
146.201
593.798
146.201
146.201
146.202
146.201
146.201
146.201
146.201
324.921
146.201
146.201
146.201
146.201
146.201
146.201
146.202
146.555
146.358
146.201
146.201
146.201
146.201
146.201
146.201
146.201
146.201
146.201
146.201
146.201
146.201
146.201
146.201
146.208
146.214
146.201
146.201
146.201
146.201
146.201
146.201
146.201
146.201
146.327
159.996
680.578
146.201
146.201
146.354
146.201
146.201
146.201
1134.22
1555.49
146.201
146.201
146.204
146.201
146.201
146.201
158.463
146.201
146.201
146.201
146.201
146.201
146.201
146.201
146.201
146.21
146.201
146.402
146.663
146.201
146.201
146.201
146.202
146.201
146.201
146.202
146.33
146.201
146.201
146.205
146.201
146.202
146.613
146.201
146.204
283.263
146.201
146.202
146.201
146.201
146.201
146.201
149.913
148.393
146.493
146.201
146.201
146.201
146.392
148.112
146.201
147.911
146.201
146.201
146.201
146.201
146.201
146.201
146.48
146.201
146.201
146.201
146.201
146.201
146.201
146.201
146.201
146.201
146.201
976.569
146.336
146.201
146.201
146.201
1046.87
146.201
146.201
146.201
146.201
146.201
146.201
146.201
146.202
146.201
146.201
146.201
178.765
146.202
146.202
146.201
147.46
146.202
146.695
146.201
146.201
146.616
146.201
146.584
146.617
146.202
146.202
146.201
146.203
146.201
236.372
146.201
456.493
146.632
146.203
146.632
146.201
146.356
146.201
154.537
146.201
146.247
146.201
146.201
146.372
146.377
146.201
146.201
146.204
146.203
146.201
146.201
161.726
146.201
146.201
180.751
146.201
146.201
146.201
146.782
146.223
146.478
146.201
158.558
146.202
147.365
146.201
146.201
148.535
146.201
146.377
148.529
146.201
153.695
1104.39
153.944
146.201
146.201
146.202
146.201
146.201
146.201
146.201
146.201
146.201
146.201
146.201
269.966
146.204
146.204
147.542
146.201
146.201
146.201
146.201
146.201
146.201
146.201
146.201
146.201
146.201
146.201
146.201
146.359
146.201
146.36
146.797
146.214
146.201
146.201
146.359
146.201
146.201
146.211
146.201
146.201
146.202
146.201
146.242
146.201
169.038
146.613
146.208
146.201
146.201
146.201
146.201
146.201
146.201
146.201
146.201
147.262
146.201
146.201
146.201
146.274
146.201
146.243
146.201
146.201
146.201
146.201
146.201
146.201
146.201
146.201
146.201
146.391
146.778
146.201
146.201
228.892
146.201
146.202
146.205
146.201
146.201
146.201
146.201
146.201
146.201
146.201
146.202
146.202
146.202
146.204
146.204
146.201
146.312
146.202
146.201
146.407
146.204
146.201
146.201
146.291
146.201
146.201
146.201
146.311
146.201
146.202
146.299
146.201
146.538
146.201
146.201
146.201
146.201
146.201
146.355
146.201
146.201
146.401
146.201
626.225
146.201
146.201
146.201
146.201
146.203
148.924
146.201
146.201
146.201
146.201
146.205
217.138
146.802
146.201
146.201
146.202
146.202
146.201
146.201
4496.79
221.107
146.394
146.204
146.201
221.602
148.589
146.2
146.201
146.201
146.201
146.201
146.201
146.477
1272.3
254.103
146.201
146.201
146.203
146.201
146.201
146.201
160.628
146.201
146.201
146.201
146.201
146.213
146.201
146.201
115.19
146.209
146.201
146.201
168.368
146.201
146.203
146.201
155.773
146.201
147.333
146.201
146.204
146.201
146.201
146.201
146.499
146.201
146.921
146.201
146.201
931.826
146.202
146.201
146.201
146.339
4194.57
146.202
146.56
146.201
146.4
149.185
146.202
146.201
146.201
194.894
146.251
147.139
146.201
147.115
146.201
146.202
146.201
146.202
146.201
147.871
146.406
146.202
146.202
146.249
146.466
844.735
146.221
146.201
146.247
819.034
152.711
820.379
826.306
146.201
146.202
146.201
146.201
146.202
146.204
146.209
146.403
146.516
146.211
146.204
146.603
1005.39
849.338
146.201
146.204
146.209
146.201
594.179
146.201
406.716
146.216
146.202
210.625
146.203
192.515
146.209
146.208
146.906
146.201
146.201
146.912
146.201
146.201
503.457
146.205
147.331
146.205
160.749
146.366
146.201
146.201
146.201
146.212
146.201
146.378
146.202
146.201
146.201
146.204
146.429
6865.6
146.201
189.833
146.201
146.986
146.213
146.201
146.971
146.201
146.201
146.268
146.201
146.201
146.202
146.212
146.564
146.408
146.201
147.249
146.201
146.201
146.202
146.201
146.201
217.217
146.201
146.201
146.202
146.201
146.202
6015.83
147.499
146.201
146.207
146.201
146.202
146.201
146.204
146.201
146.201
146.201
146.201
146.201
146.206
146.201
146.201
146.213
146.201
146.201
146.201
146.201
146.201
146.217
146.202
146.202
146.354
146.201
146.201
146.201
154.895
146.201
146.376
146.415
146.201
146.201
156.568
146.508
146.201
146.201
146.306
146.201
146.201
146.205
146.202
146.205
146.201
146.201
146.216
146.201
481.478
146.201
146.201
1390.75
146.204
157.747
146.205
147.134
146.201
146.205
146.216
146.201
146.201
146.207
146.201
146.201
146.201
146.201
146.201
146.201
146.202
146.201
146.219
146.201
253.918
146.202
146.201
6932.25
146.202
1509.74
146.201
146.201
146.202
139.555
146.203
146.202
146.213
147.436
146.203
146.165
151.142
146.211
146.201
146.821
146.202
146.201
146.225
909.777
146.201
146.201
146.201
146.198
146.201
146.202
146.24
146.201
146.201
82.3139
146.201
336.304
146.201
42.1486
146.201
146.205
146.208
146.204
146.246
146.201
146.209
146.212
148.318
146.204
2310.02
146.201
146.201
146.201
146.222
146.204
146.205
146.201
146.201
146.22
2311.26
146.201
146.206
146.504
146.52
146.202
146.865
698.394
1915.31
146.204
147.055
146.202
148.316
146.201
148.477
1217.11
198.404
146.201
146.201
146.204
146.213
146.38
146.201
146.201
146.347
146.456
146.201
156.779
146.204
146.201
148.092
146.201
146.201
283.781
158.621
146.201
146.202
146.201
146.201
146.209
146.658
176.575
146.201
176.003
146.208
146.21
146.201
146.201
146.203
146.206
146.201
146.201
146.202
146.201
146.68
146.201
146.201
146.355
146.201
146.82
146.45
146.203
146.211
146.201
146.561
146.201
599.269
146.202
146.201
146.201
146.427
146.795
146.201
146.202
168.21
146.971
146.494
146.201
146.207
146.415
146.593
146.201
146.22
147.685
146.209
146.203
146.207
146.202
146.666
2151.83
146.831
146.221
146.208
146.204
146.213
146.206
146.205
146.217
146.684
146.202
146.201
146.201
146.22
146.201
146.201
146.201
146.219
146.201
146.201
146.201
146.201
146.201
146.201
146.201
147.217
146.201
146.201
146.202
146.201
701.193
146.201
146.201
146.201
146.201
146.201
993.31
151.728
146.201
146.201
146.201
146.716
147.089
146.321
146.202
146.201
146.361
146.201
146.201
146.406
222.961
146.201
146.201
146.201
146.201
146.202
146.205
146.201
146.201
146.201
146.201
146.337
146.201
146.205
146.201
146.201
146.203
152.064
146.204
146.204
146.201
146.201
146.203
146.229
146.201
146.201
146.201
165.111
146.201
146.208
146.201
146.211
146.201
146.201
1108.72
146.553
146.215
146.206
623.827
146.21
146.21
146.207
970.94
146.201
146.201
146.201
147.77
146.204
2057.17
146.245
146.202
146.201
146.202
146.209
146.201
146.214
146.776
146.212
146.202
146.946
147.664
148.916
146.201
146.201
146.201
146.201
146.201
146.201
146.201
181.967
146.201
805.551
146.201
146.201
146.201
147.437
147.252
146.201
146.201
146.201
146.203
146.201
146.202
147.361
146.25
146.201
146.363
146.201
146.201
146.201
146.201
146.201
146.202
9859.03
146.333
146.201
146.201
146.201
146.201
146.201
146.201
146.201
146.201
146.201
146.201
146.201
146.201
146.201
146.201
146.201
146.201
146.201
146.201
146.201
199.424
146.934
146.793
166.946
146.201
146.201
146.202
146.201
146.201
146.201
146.201
146.201
146.201
147.384
146.201
146.203
146.201
146.201
146.201
146.201
148.232
147.928
146.201
146.201
146.201
146.203
146.203
146.201
146.496
146.201
146.201
146.201
146.201
146.201
146.201
146.203
146.201
146.544
146.204
146.202
146.202
146.67
146.206
146.202
146.201
146.201
147.178
146.201
148.162
146.204
146.204
146.204
146.812
146.211
146.201
146.221
146.201
146.254
146.221
146.203
146.201
146.201
146.201
146.201
146.201
146.201
146.685
374.351
146.217
146.201
146.201
146.217
146.201
146.201
146.201
146.201
146.201
365.104
146.233
146.474
146.201
146.396
146.201
146.313
146.395
146.201
146.201
146.233
146.201
227.754
146.252
146.188
148.995
146.201
146.201
146.203
146.201
146.201
2140.83
146.201
146.201
146.201
147.832
146.201
146.201
146.205
146.201
146.437
149.908
146.201
146.203
146.201
146.419
146.201
146.201
146.201
146.204
146.201
146.561
146.21
146.201
147.277
146.201
146.201
146.201
146.206
148.008
146.201
146.801
146.635
149.251
146.28
146.201
146.201
146.247
146.201
146.382
146.367
146.359
146.399
146.365
146.201
146.383
146.39
146.203
146.203
146.201
146.615
146.201
146.201
146.201
146.203
146.201
146.201
146.201
146.508
146.201
146.201
146.202
146.201
146.202
146.201
146.201
146.242
152.492
146.202
208.38
146.202
146.202
146.202
146.201
146.27
146.201
146.201
146.294
146.202
146.201
146.201
146.201
146.201
146.666
146.201
146.288
146.201
146.215
146.593
146.201
146.201
146.201
146.201
146.201
146.201
146.201
146.201
146.201
146.208
146.204
146.621
146.201
146.451
146.919
146.201
146.332
146.201
146.201
146.201
146.202
146.201
182.772
146.403
161.734
146.202
193.227
146.373
146.201
146.201
146.201
146.201
146.201
146.203
146.99
146.201
146.201
146.203
146.202
146.201
146.201
146.201
3654.26
860.95
146.202
146.201
146.536
146.201
146.202
146.203
146.201
146.227
146.201
146.202
146.201
146.202
850.898
146.216
146.202
146.415
146.577
146.202
146.364
149.118
146.201
146.201
146.201
146.273
146.266
146.201
146.201
147.088
146.356
146.685
146.201
146.201
147.451
146.201
146.201
156.57
146.201
146.201
146.201
146.201
1355.29
146.201
146.201
153.791
146.201
753.187
146.201
1062.25
146.201
146.217
216.885
146.205
146.218
1539.33
146.203
146.202
147.289
146.201
146.201
146.201
191.431
147.012
146.201
146.348
146.201
150.758
150.399
146.628
146.207
952.912
146.201
749.85
146.201
146.201
146.202
146.201
146.201
146.201
146.201
146.201
146.332
148.146
146.328
148.052
146.201
146.201
146.201
146.201
146.201
146.201
359.889
149.303
146.201
146.201
146.201
147.289
146.201
146.201
146.672
146.201
146.201
146.201
146.203
2877.1
146.37
146.403
149.302
146.201
146.202
147.771
146.201
146.201
146.201
146.455
723.534
203.204
170.965
146.201
146.201
2459.37
146.201
146.203
146.201
146.201
146.201
146.201
146.202
146.201
146.203
164.274
146.222
146.203
146.371
146.482
146.201
148.312
146.201
146.201
146.201
146.201
146.201
146.201
146.203
146.201
146.209
709.941
146.541
146.344
146.201
146.201
2505.04
148.141
146.201
146.381
146.201
146.201
217.634
146.795
2980.18
146.394
146.201
742.435
2682.98
146.527
146.201
146.394
217.265
187.521
146.53
146.204
4007.57
182.595
146.202
180.746
146.367
210.167
146.206
175.996
146.187
146.202
146.821
1035.38
2894.75
146.201
146.201
8429.49
146.201
146.201
147.12
146.201
148.544
146.206
146.201
146.201
146.201
146.201
146.178
146.43
570.545
146.343
158.568
146.201
148.139
146.178
146.206
146.201
146.202
146.201
146.201
146.201
146.201
146.245
146.201
146.201
146.203
146.829
146.177
188.327
2713.19
146.344
146.201
150.287
146.201
146.201
146.202
146.201
146.201
146.201
146.398
147.114
146.459
168.272
891.475
146.295
146.201
348.494
146.497
146.208
177.474
146.201
146.205
146.201
146.594
146.202
176.519
146.201
146.201
146.201
146.201
149.766
146.201
353.658
146.201
152.652
146.541
146.201
146.201
610.25
146.551
147.151
146.435
146.201
146.988
9508.16
146.201
146.203
146.367
146.273
381.105
146.201
383.516
147.177
146.541
348.538
234.007
146.358
385.841
146.201
3553.63
5299.87
146.217
318.137
146.201
146.213
152.55
146.201
324.664
146.352
146.207
146.201
146.201
161.95
146.202
146.201
146.202
146.202
146.201
146.201
146.204
146.201
3191.79
185.17
146.204
151.166
146.207
146.201
146.232
146.57
931.721
146.208
146.204
147.253
148.291
6340.99
147.288
146.202
355.938
146.201
146.201
146.201
67.8099
146.202
242.957
146.246
146.997
148.004
517.843
146.202
323.686
146.201
146.201
146.201
146.202
146.201
146.202
146.233
146.683
402.647
5182.24
146.228
1894.94
146.209
358.212
146.201
205.001
149.573
274.418
146.202
146.201
146.201
146.201
146.201
146.201
147.291
146.518
146.21
211.522
307.855
146.572
228.588
442.522
3953.45
555.939
146.201
147.179
146.364
146.201
146.201
146.751
146.453
146.201
146.201
146.201
146.205
146.201
146.874
147.011
146.862
146.815
146.201
2169.63
146.653
146.201
146.372
146.201
146.203
332.508
146.208
146.203
1008.39
146.204
146.201
146.203
146.201
146.201
146.201
146.317
146.201
146.204
146.759
146.788
152.592
146.208
146.203
146.201
146.201
146.201
146.201
146.407
147.801
146.201
146.201
2965.88
146.201
146.201
146.201
146.201
150.892
181.107
4503.12
146.51
146.834
146.201
146.577
146.201
146.322
146.93
146.201
146.744
146.201
146.201
223.845
146.201
146.201
147.93
146.866
151.259
163.941
146.201
146.325
146.421
146.399
146.202
147.622
146.483
151.413
146.365
352.052
146.202
146.201
146.309
147.309
146.328
146.515
146.368
147.508
146.201
146.201
2179.04
150.855
146.345
146.554
146.339
147.042
1306.43
146.201
146.362
146.201
156.728
146.201
146.391
146.574
146.201
1099.51
146.201
146.96
148.787
146.201
146.201
146.81
146.201
146.201
146.201
146.201
146.469
146.201
153.232
1937.6
146.201
146.201
581.275
146.202
146.201
146.386
146.201
146.201
146.201
146.201
292.829
295.492
638.457
146.201
146.201
202.763
146.201
158.505
171.992
146.201
146.201
146.202
146.203
147.26
146.201
146.201
146.201
146.201
146.201
188.712
150.491
146.205
146.201
148.924
146.202
147.159
146.201
146.386
146.201
158.221
146.406
146.201
146.201
146.201
147.087
149.074
146.201
146.366
146.204
146.201
146.215
146.217
146.201
146.205
146.201
255.265
146.201
146.201
146.201
146.201
146.201
146.834
280.88
146.201
146.201
151.945
146.201
149.475
146.201
146.201
5092.53
3324.42
147.624
146.202
146.201
146.214
2461.35
146.201
251.981
146.201
356.802
146.763
146.201
181.246
148.973
544.381
3777.19
223.287
146.201
146.201
146.201
146.249
146.223
148.708
1224.13
146.201
146.428
146.201
146.256
483.503
714.394
146.201
147.098
229.854
146.201
554.885
146.201
146.201
146.201
390.77
146.776
146.446
146.201
146.201
146.201
1227.75
146.201
2462.8
146.201
146.201
618.602
149.038
146.201
146.201
3692.07
146.201
146.201
146.202
433.112
147.358
146.451
146.201
3524.78
194.122
149.62
147.512
146.204
154.633
146.201
234.813
437.034
266.633
153.86
160.626
147.249
588.819
146.201
14774.8
697.939
147.831
146.201
206.36
4582.47
146.201
146.373
206.667
146.201
166.603
146.201
3042.05
146.375
147.891
146.586
147.363
146.201
146.201
146.201
146.201
2495.99
146.201
146.533
394.095
146.201
146.201
146.201
146.201
146.201
146.201
146.203
146.201
360.288
146.201
448.476
146.201
146.22
146.201
146.205
153.372
146.201
146.201
146.201
146.201
146.204
697.388
1491.22
805.445
146.206
146.205
146.202
146.201
146.202
146.224
146.205
146.201
147.16
146.707
2174.67
146.202
146.206
146.202
146.48
146.315
146.201
146.174
146.205
146.471
1614.46
146.201
148.999
146.202
146.205
148.373
148.671
146.201
146.213
146.219
146.201
146.268
146.203
146.202
146.318
146.202
146.202
146.201
146.208
149.597
146.201
150.62
146.202
146.316
146.201
146.201
146.329
181.993
149.437
146.203
146.201
146.201
813.079
46.5073
146.201
256.219
36.0473
146.201
146.208
147.138
146.218
46.7346
146.202
146.204
146.214
146.201
37.8377
146.203
146.201
146.201
146.201
146.201
146.201
146.201
146.201
146.201
146.537
146.202
146.201
146.402
146.201
146.21
146.375
146.201
146.201
146.785
146.529
146.201
146.216
146.201
146.201
146.268
146.201
146.201
146.353
146.202
146.201
146.201
146.201
146.201
146.201
146.398
146.264
165.973
147.596
147.991
146.378
157.037
146.214
146.202
149.184
146.212
146.201
146.575
146.21
150.548
146.201
146.208
146.202
200.077
146.306
153.138
146.307
146.203
153.62
146.33
146.201
146.251
146.201
146.207
150.375
146.362
146.321
148.958
146.345
146.207
146.335
152.79
146.201
146.201
157.344
146.205
146.201
146.201
146.201
149.056
146.202
146.21
146.25
146.201
146.201
146.203
146.202
179.15
146.201
146.208
146.201
146.201
146.176
146.201
146.275
146.201
146.201
146.201
146.201
146.205
146.201
146.201
146.201
146.219
146.201
146.201
147.77
146.201
146.207
159.197
146.201
146.203
146.202
146.201
146.201
146.201
146.201
146.201
146.486
146.208
146.214
146.201
146.201
146.201
146.224
157.164
146.201
146.201
190.252
146.201
146.201
146.495
146.201
146.215
215.504
146.201
146.201
153.368
270.088
890.097
146.201
146.201
146.201
146.201
146.277
146.202
146.201
146.201
146.201
146.69
146.201
146.201
146.201
1760.36
251.754
146.22
1752.75
173.377
146.201
146.203
146.205
146.202
146.202
147.299
146.239
146.201
168.891
1834.15
146.201
146.201
2060.27
146.633
1932.97
146.201
146.205
146.201
146.203
1001.07
146.201
970.915
146.204
146.201
1156.27
146.202
146.201
146.264
1167.94
146.201
146.209
992.172
146.202
146.203
1156.69
146.367
146.202
146.201
146.368
147.91
146.359
698.054
146.201
146.201
146.532
146.204
146.487
146.28
146.201
146.201
146.201
146.423
146.201
146.204
146.203
146.201
146.204
146.201
146.464
358.676
146.201
146.228
146.912
349.93
146.201
146.283
1497.34
146.201
146.249
146.373
147.203
146.201
146.772
146.201
146.201
146.201
146.201
317.785
146.207
146.208
447.538
171.197
146.201
146.202
146.207
146.201
146.201
146.201
147.821
146.201
146.251
146.201
146.794
393.042
146.208
146.203
203.119
378.388
146.201
146.211
148.087
146.613
153.905
146.527
201.753
146.204
148.808
275.271
172.823
146.798
146.202
169.121
378.27
146.201
146.217
172.963
146.204
146.209
146.491
449.509
146.244
146.201
788.813
146.204
146.201
266.401
146.201
1087.46
146.201
147.564
249.17
212.503
146.201
146.201
146.201
540.891
146.206
147.29
146.201
628.06
1077.03
146.503
146.201
148.763
201.997
215.033
223.58
423.133
146.201
146.209
146.201
146.204
146.201
146.201
146.201
146.201
146.202
146.201
146.201
7335.25
146.201
146.205
146.201
146.372
146.695
146.202
337.38
146.201
146.201
146.214
146.201
146.201
146.201
146.201
146.201
146.211
146.201
1159.07
146.201
146.219
156.988
3316.37
146.201
146.217
146.301
146.201
146.201
4747.7
146.201
146.201
146.201
146.201
146.201
146.212
146.201
146.201
146.201
146.201
146.862
189.447
146.201
156.41
146.201
146.656
146.712
146.201
146.201
1127.16
146.201
146.2
146.201
146.209
146.202
146.201
146.201
1408.21
4235.35
146.201
246.934
146.201
146.201
146.2
146.448
146.201
146.204
146.236
146.203
146.201
155.132
146.201
350.726
152.699
146.201
146.201
146.2
926.257
146.201
146.201
146.201
146.201
146.201
146.201
146.201
168.233
146.2
146.201
146.193
159.999
157.553
146.201
331.384
383.036
146.201
360.361
23393.8
146.201
174.041
146.59
146.206
146.202
146.202
149.235
364.146
146.205
146.204
146.202
146.201
146.207
146.357
230.244
147.666
146.202
146.201
146.204
155.958
146.206
146.204
146.201
147.558
204.407
146.201
146.201
146.201
146.204
246.103
550.473
146.202
146.321
146.204
284.023
146.201
146.201
4424.76
146.201
146.201
146.201
146.201
146.21
146.202
146.201
146.204
146.202
146.202
146.202
146.201
412.397
146.518
146.201
146.247
146.201
146.201
146.201
1063.95
146.339
758.768
146.201
146.201
146.201
146.202
153.782
146.204
150.163
146.201
146.201
146.201
1297.73
5291.3
158.019
146.201
156.169
156.634
350.963
156.976
154.138
146.201
349.409
146.362
146.201
146.201
146.201
146.201
146.201
146.201
157.957
1159.89
146.615
146.401
153.004
146.201
146.231
146.221
147.073
151.529
155.822
156.063
455.14
201.817
146.201
172.674
146.668
146.201
146.201
962.34
146.201
146.201
166.561
898.612
146.201
146.201
146.201
146.201
146.201
146.201
146.201
153.282
4695.2
146.201
146.201
146.206
150.637
297.097
146.201
146.201
146.201
147.15
146.201
146.202
146.225
146.201
146.202
146.201
146.201
2122.17
150.654
146.201
146.201
146.201
146.201
146.202
150.348
146.201
146.204
146.202
146.201
146.246
146.201
146.201
146.201
146.201
146.201
146.201
146.202
146.201
146.201
146.498
146.201
169.241
146.202
146.201
146.201
146.201
146.201
146.202
367.055
148.417
411.713
191.652
146.205
173.228
230.8
148.466
169.348
309.006
146.518
146.201
146.202
146.201
146.201
146.201
146.201
146.209
150.032
146.201
1371.63
146.201
146.201
146.202
146.201
146.204
146.201
146.185
1149.98
170.123
146.201
146.201
146.201
147.511
146.201
146.203
272.157
146.202
255.683
146.201
146.201
146.201
222.878
230.796
235.65
230.494
541.897
218.357
1396.18
146.339
276.294
146.201
146.201
146.201
146.201
283.81
158.965
193.177
220.605
150.798
148.784
146.201
161.969
153.294
146.201
146.201
146.201
149.245
146.8
146.352
146.201
149.348
513.384
148.429
1486.93
146.414
150.385
786.265
146.201
150.943
829.567
160.245
146.201
146.202
146.665
146.201
146.201
785.054
146.201
146.201
148.093
146.201
817.36
154.552
146.201
146.217
146.422
146.428
149.671
146.426
146.726
146.666
146.202
146.201
146.424
146.229
146.413
146.403
146.208
146.517
146.573
396.362
2276.83
146.201
146.203
146.555
146.201
1375.85
146.201
146.201
146.201
146.546
146.202
146.758
146.201
146.201
146.456
146.447
146.443
198.471
146.201
148.92
1731.38
1156.25
146.201
146.327
3032.93
146.63
1558.65
146.201
146.698
146.201
146.201
146.201
146.201
146.201
146.202
146.201
1584.69
146.201
146.199
146.201
146.201
146.201
146.201
146.201
181.364
261.393
146.201
146.201
931.198
146.201
1493.32
146.209
146.201
759.878
146.201
146.201
146.201
958.191
146.203
146.201
146.213
146.203
146.202
146.201
146.153
146.201
146.201
146.201
146.201
146.201
146.202
146.201
146.365
146.201
146.201
146.201
146.361
146.201
146.202
146.203
147.744
146.202
146.202
146.202
146.201
146.405
146.201
146.201
146.201
146.201
146.201
701.019
146.201
146.201
146.201
146.202
146.201
317.468
146.201
146.201
146.201
146.206
146.201
146.202
146.201
146.201
146.201
146.201
146.201
165.199
146.201
146.201
146.201
146.201
146.201
146.201
3830.95
146.204
146.202
146.201
146.201
149.198
146.201
146.283
332.776
146.213
146.289
146.201
146.201
146.201
146.201
301.029
146.201
146.201
359.754
146.201
146.201
146.201
146.201
146.201
146.202
154.968
146.201
146.201
146.201
376.412
205.175
299.549
146.203
147.656
467.889
146.205
146.201
146.201
407.326
146.201
146.201
146.201
146.203
147.311
146.201
146.201
146.201
146.243
146.199
154.431
146.373
146.201
146.732
769.834
146.201
146.697
146.201
146.201
146.201
146.202
146.201
146.203
146.201
154.035
209.086
219.507
167.38
162.287
146.192
146.201
146.201
146.201
146.216
146.201
146.201
146.201
146.201
149.157
146.2
167.309
246.28
146.201
149.112
146.364
146.357
146.204
146.201
146.374
146.201
146.201
146.201
146.698
149.525
158.339
146.201
149.024
146.201
146.202
146.201
146.202
146.201
1994.1
146.42
146.201
146.201
248.282
146.51
146.201
149.268
146.201
146.201
370.468
146.201
146.202
146.201
146.381
146.201
146.201
146.202
146.201
146.2
146.201
4462.43
146.201
146.216
146.201
146.203
146.367
146.201
146.201
146.201
217.134
146.202
146.509
153.976
146.544
146.201
552.687
146.366
146.201
146.201
422.907
146.438
146.201
146.498
146.815
146.205
146.202
146.201
146.541
146.201
146.201
146.201
146.201
147.624
146.201
2954.95
146.201
146.826
146.201
146.201
150.552
146.201
146.202
146.201
146.201
146.099
177.366
146.465
294.234
146.518
146.431
146.493
146.201
146.201
146.201
146.43
786.768
1098.74
146.546
146.203
576.654
146.541
2447.14
527.064
146.201
5102.75
2222.02
146.459
146.201
151.48
537.7
540.63
892.986
146.462
146.332
167.017
146.206
158.956
146.202
572.646
146.201
2830.06
183.649
146.201
146.206
146.449
565.06
146.203
439.24
146.201
146.201
194.725
146.201
146.201
146.202
146.201
146.208
146.201
38673
210.474
146.201
146.201
174.398
146.2
4359.48
725.445
182.283
146.197
146.201
146.201
443.606
146.201
146.201
146.201
146.202
146.204
187.336
146.201
146.201
262.224
651.169
146.201
146.201
209.433
146.202
146.203
661.09
146.201
146.201
146.202
146.568
2225.36
174.695
146.201
146.204
146.201
146.521
162.103
146.299
7635.64
146.201
146.202
146.201
146.207
146.201
146.98
146.355
146.201
1521.32
146.201
146.201
146.335
146.201
146.222
146.202
146.998
163.542
146.201
146.201
146.992
147.31
146.201
146.223
825.509
146.201
146.202
146.203
146.201
146.201
146.201
146.201
146.201
146.202
146.201
146.203
643.766
146.201
146.361
9042.24
146.533
699.93
146.201
150.061
146.201
146.201
499.944
267.328
1366.05
670.764
139.796
147.265
146.201
146.317
151.635
146.938
153.931
147.108
146.202
362.566
146.201
146.201
146.201
147.146
146.531
146.203
1038.01
146.201
146.201
146.201
151.144
865.74
146.201
230.645
147.657
361.795
148.672
293.883
146.201
146.201
148.132
146.202
146.201
146.201
146.201
146.201
146.201
146.201
147.044
146.36
149.601
146.647
146.73
146.794
146.201
146.201
146.201
147.721
146.201
146.201
146.201
148.589
146.203
544.557
148.069
146.741
146.433
146.582
146.205
148.09
146.201
146.201
146.252
174.11
148.796
146.205
146.201
146.202
177.188
146.201
297.113
402.678
311.209
148.037
146.201
146.201
148.189
324.555
146.202
148.051
146.928
146.332
146.201
148.124
146.205
149.045
146.201
146.201
146.379
146.279
146.201
146.201
146.529
151.862
147.425
146.205
146.201
146.59
148.757
146.202
146.201
146.201
3366.07
149.296
2985.93
148.803
146.201
222.943
155.551
146.202
146.201
146.205
146.201
146.201
146.201
483.183
146.201
146.204
146.202
170.465
146.201
146.201
146.201
146.201
146.692
186.101
146.201
230.839
146.202
146.202
146.201
146.202
146.201
231.343
153.897
146.201
146.201
147.181
146.201
146.201
146.201
146.201
146.202
148.018
146.202
147.111
146.201
146.201
146.201
147.903
146.201
146.201
310.454
146.201
146.202
146.201
146.201
1540.22
146.201
203.754
146.203
147.316
146.201
146.201
146.201
146.201
146.201
146.202
146.203
147.551
555.203
146.201
146.201
146.202
146.201
146.201
146.201
146.201
146.201
146.201
146.202
146.201
146.201
146.467
1548.71
149.241
146.213
148.96
146.202
146.201
741.602
146.201
324.705
146.205
146.426
146.201
146.201
146.201
146.201
146.201
146.201
146.211
147.319
146.201
146.201
146.201
146.203
146.202
146.204
146.201
146.201
146.201
146.48
146.211
146.423
146.202
146.201
146.212
146.212
146.48
146.202
146.203
146.201
146.211
146.201
146.429
146.217
146.201
146.212
146.363
147.563
146.212
231.419
153.64
146.201
941.863
146.201
175.98
146.201
148.55
146.332
149.502
149.761
146.201
146.201
146.201
146.534
785.58
146.201
148.331
146.19
1447.03
146.201
146.201
146.201
146.201
147.76
146.201
146.201
146.201
146.201
146.201
146.201
350.232
489.343
146.303
146.201
146.201
148.915
146.201
146.201
201.864
1357.99
216.728
146.201
146.201
146.534
210.261
146.201
146.201
146.673
152.482
155.599
146.201
170.622
146.213
146.201
146.201
146.201
146.201
146.201
146.203
146.201
146.201
146.201
146.201
146.201
146.201
146.201
146.201
146.201
146.201
146.201
146.201
146.201
146.201
146.201
146.201
146.497
149.2
147.301
146.201
146.201
146.201
146.201
146.363
146.201
146.201
146.201
146.201
146.201
146.201
146.176
146.201
146.201
146.201
146.201
146.201
146.456
146.201
146.356
146.412
146.36
146.201
146.201
147.481
146.201
146.201
146.201
146.201
146.201
146.201
146.201
146.202
146.201
146.201
148.839
147.736
146.201
146.201
146.201
146.201
146.201
146.201
146.201
146.201
146.371
249.913
146.201
250.355
146.201
146.201
178.865
221.173
146.201
146.263
146.455
146.201
146.201
146.201
146.201
146.201
231.163
146.201
270.41
146.201
146.201
146.201
147.842
148.194
147.359
146.201
146.201
146.201
146.201
146.201
146.201
146.201
146.201
146.201
146.201
147.795
146.201
146.201
146.201
146.201
146.201
146.201
146.201
146.449
156.976
146.314
146.201
146.201
146.201
146.201
146.202
146.201
146.201
146.201
171.679
146.201
146.201
146.201
146.579
146.201
146.331
146.201
146.201
146.205
146.201
146.206
3585.51
146.218
146.207
146.201
146.207
146.216
146.201
146.201
146.201
146.201
146.207
146.202
146.202
146.213
146.39