/*--------------------------------*- C++ -*----------------------------------*\
| =========                 |                                                 |
| \\      /  F ield         | OpenFOAM: The Open Source CFD Toolbox           |
|  \\    /   O peration     | Version:  v2012                                 |
|   \\  /    A nd           | Website:  www.openfoam.com                      |
|    \\/     M anipulation  |                                                 |
\*---------------------------------------------------------------------------*/
FoamFile
{
    version     2.0;
    format      ascii;
    class       volScalarField;
    location    "3.5";
    object      ILambda_15_0;
}
// * * * * * * * * * * * * * * * * * * * * * * * * * * * * * * * * * * * * * //

dimensions      [1 0 -3 0 0 0 0];


internalField   nonuniform List<scalar> 
108993
(
146.249
146.287
146.201
146.201
146.201
146.201
146.379
146.201
146.201
146.243
146.201
146.201
146.201
146.202
146.208
146.211
146.254
146.202
146.201
146.202
146.202
146.201
146.203
146.218
146.201
146.201
146.201
146.202
146.202
146.201
146.201
146.203
146.201
146.247
146.201
146.202
146.201
146.201
8597.13
1408.22
146.204
146.201
146.202
146.201
146.279
5529.56
146.201
146.317
146.203
146.201
146.201
146.43
146.251
146.201
146.205
146.228
146.201
146.201
146.201
146.201
146.201
146.201
146.203
146.201
146.201
146.202
146.201
146.201
146.209
146.22
146.213
146.201
146.201
146.201
146.207
146.201
146.201
146.251
146.201
146.201
146.201
146.208
146.201
146.201
146.202
146.203
146.201
146.201
146.201
146.201
146.201
146.201
146.201
146.201
146.201
146.21
146.201
146.201
146.201
146.201
146.201
146.201
146.212
146.22
146.201
146.201
146.203
146.201
146.201
768.481
146.39
146.201
146.521
146.728
146.201
147.004
146.201
146.201
146.308
146.201
146.202
146.201
146.585
146.201
146.201
146.236
146.207
146.212
146.201
146.201
146.207
146.201
146.201
147.114
146.201
146.201
146.201
146.201
146.201
146.202
146.201
146.201
146.223
146.201
146.201
146.201
146.201
1823.08
146.201
148.355
148.622
146.201
146.203
149.153
146.201
146.416
146.22
146.201
146.201
146.239
149.061
146.201
146.201
146.208
146.202
146.635
146.201
146.201
146.201
146.201
146.201
146.217
146.284
146.201
146.202
146.202
146.639
146.201
146.201
146.201
146.215
146.201
146.201
146.201
146.21
146.202
146.201
146.206
146.213
146.201
146.201
146.201
146.201
146.594
146.201
146.204
146.205
146.201
146.201
146.201
146.201
146.598
146.203
146.201
146.544
146.663
146.201
334.006
146.201
207.109
146.335
146.201
146.642
147.347
9206.95
146.201
146.222
146.201
146.201
146.201
146.202
148.481
146.272
146.598
146.201
146.201
146.201
146.201
146.721
146.201
152.883
146.211
146.201
146.202
146.201
146.201
146.201
146.201
147.251
146.201
146.201
146.201
146.201
146.201
146.201
146.261
147.807
146.486
146.201
146.201
146.201
146.201
146.201
146.201
146.201
146.201
146.201
146.201
146.201
146.201
146.201
146.208
146.255
146.267
146.201
146.201
146.201
146.202
146.201
146.201
146.201
146.201
159.878
110.785
1306.29
146.201
146.201
146.815
146.201
146.202
146.202
461.691
1378.89
146.201
146.201
146.215
146.201
146.202
146.208
1057.32
146.202
146.201
146.202
146.201
146.201
146.201
146.201
146.201
146.236
146.201
146.587
147.018
146.202
146.201
146.201
146.206
146.201
146.23
146.209
149.882
146.201
146.201
146.287
146.202
146.208
147.247
146.201
146.296
6186.53
146.201
146.218
146.201
146.202
146.202
146.201
146.941
4607.67
147.176
146.201
146.207
146.201
147.304
148.143
146.201
2045.38
146.208
146.201
146.201
146.201
146.201
146.201
146.498
146.202
146.202
146.21
146.204
146.201
146.201
146.201
146.201
146.201
146.201
246.55
425.173
146.201
146.201
146.201
1258.96
146.201
146.201
146.207
146.202
146.201
146.201
146.205
146.202
146.201
146.201
146.207
5356.55
146.223
146.215
146.201
275.897
146.202
198.873
146.237
146.201
147.104
146.201
147.944
148.217
146.202
146.428
146.207
146.215
146.226
332.351
146.202
719.375
151.693
146.213
154.633
146.202
179.984
146.202
4297.38
146.201
146.329
146.201
146.202
147.163
148.762
146.201
146.202
146.212
146.217
146.201
146.203
174.263
146.201
146.201
18193.7
146.211
146.201
146.201
231.425
146.228
149.677
146.201
322.229
146.241
318.328
146.201
146.201
168.855
146.202
147.444
172.939
146.201
3918.56
6363.8
2215.47
146.201
146.201
146.229
146.201
146.202
146.201
146.201
146.211
146.201
146.201
146.202
156.705
146.352
146.243
146.284
146.201
146.201
146.202
146.201
146.201
146.264
146.201
146.214
146.212
146.201
146.201
146.201
146.51
146.201
146.504
147.791
146.23
146.201
146.204
146.505
146.201
146.201
146.234
146.201
146.201
146.203
146.201
146.245
146.201
146.381
290.536
146.34
146.201
146.201
146.201
146.201
146.201
146.201
146.201
146.201
146.242
146.249
146.206
146.214
146.29
146.201
146.437
146.201
146.201
146.201
146.201
146.21
146.201
146.201
146.201
146.201
146.313
147.024
146.201
146.201
325.057
146.201
146.373
146.338
146.201
146.234
146.201
146.201
146.201
146.201
146.216
146.204
146.201
146.201
146.282
146.247
146.202
146.269
146.213
146.201
146.258
146.231
146.207
146.202
146.268
146.201
146.201
146.201
146.577
146.203
146.239
230.481
146.205
682.726
146.201
146.202
146.201
146.201
146.201
146.253
146.201
146.201
146.564
146.205
2343.48
146.203
146.207
146.205
146.201
146.202
287.066
146.207
146.263
146.201
146.201
146.308
146.333
157.345
146.224
146.201
146.202
146.203
146.201
146.274
4481.12
146.374
147.891
146.208
146.208
146.324
1509.11
146.604
146.239
146.221
146.201
146.201
146.228
146.47
5942.26
146.578
146.206
146.201
146.205
146.206
146.219
146.201
124.345
146.201
146.201
146.206
146.393
146.226
146.201
146.202
110.298
146.258
146.201
146.208
110.415
146.209
146.273
146.201
147.498
146.201
146.227
146.201
146.233
146.201
146.246
146.207
153.272
146.201
146.684
146.201
146.222
1247.52
146.233
146.201
146.201
146.382
1792.8
146.226
148.303
146.203
146.566
146.59
146.208
146.201
146.206
520.46
146.325
146.379
146.203
146.385
146.201
146.212
146.201
146.212
146.206
146.324
146.258
146.226
146.221
146.435
151.041
158.226
146.238
146.222
146.389
155.657
182.596
164.291
148.455
146.202
146.279
146.201
146.201
146.202
146.25
146.218
147.043
210.132
146.24
146.305
146.562
179.023
172.329
146.201
146.406
146.235
146.202
924.727
146.364
170.472
146.227
146.215
1045.07
146.231
169.916
146.233
146.235
412.05
146.201
146.201
146.296
146.219
146.202
249.41
146.219
812.417
146.253
155.078
146.415
146.201
146.201
146.201
146.235
146.201
146.258
146.206
146.201
146.201
146.278
277.64
11951.2
146.206
185.778
146.202
146.406
146.234
146.201
146.38
146.218
146.22
146.641
146.263
146.204
146.259
146.533
146.407
146.471
146.201
146.301
146.223
146.211
146.23
146.203
146.201
146.372
146.201
146.201
146.271
146.201
146.35
9022.27
811.836
146.234
146.429
146.282
146.272
146.247
146.251
146.221
146.201
146.201
146.234
146.201
146.45
146.201
146.201
146.291
146.205
146.254
146.201
146.237
146.204
152.023
146.201
146.227
181.884
146.201
146.201
146.208
146.887
146.201
146.766
146.71
146.216
146.208
3645.49
148.398
146.237
146.201
146.596
146.207
146.209
146.335
146.202
146.432
146.201
146.201
152.448
146.201
3622.49
146.201
146.201
1528.3
146.233
625.996
146.314
153.027
146.201
146.383
146.259
146.201
146.201
146.223
146.201
146.214
146.201
146.201
146.201
146.201
146.202
146.201
152.066
146.201
146.684
146.203
146.206
1025.32
146.204
227.235
146.21
146.203
146.239
13158.2
146.409
146.202
146.885
146.562
146.249
146.449
214.917
146.278
146.202
146.285
146.202
146.202
162.915
1382.94
146.202
146.242
146.219
146.57
146.229
146.207
148.257
146.211
146.201
143.314
146.206
141.456
146.224
88.5233
146.208
146.356
146.23
146.381
146.509
146.208
146.23
146.227
149.534
146.251
1762.09
146.201
146.201
146.201
146.312
146.221
146.36
146.201
146.201
146.347
1259.32
146.201
146.349
146.386
185.06
146.202
146.477
162.074
1806.91
146.271
146.791
146.203
147.926
146.201
148.304
4636.98
8263.84
146.201
146.201
146.399
146.251
146.392
146.201
146.201
146.451
146.525
146.201
146.576
146.275
146.208
147.844
146.201
146.213
145.365
8830.31
146.216
146.31
146.201
146.202
146.28
146.661
148.024
146.208
147.927
146.269
146.261
146.229
146.202
146.289
146.223
146.202
146.201
146.262
146.203
146.658
146.202
146.201
146.364
146.201
146.313
146.382
146.265
146.256
146.201
147.547
146.216
344.517
146.217
146.227
146.201
146.427
146.608
146.201
146.242
147.484
146.522
146.543
146.202
146.257
146.48
146.731
146.203
146.686
1270.85
146.265
146.235
146.252
146.206
146.556
2746.03
146.56
146.352
146.326
146.268
146.238
146.203
146.206
146.342
147.605
146.245
146.201
146.205
146.322
146.201
146.204
146.201
146.33
146.21
146.201
146.208
146.204
146.202
146.207
146.204
147.328
146.21
146.201
146.221
146.201
809.043
146.201
146.206
146.205
146.204
146.204
1211.41
146.222
146.201
146.209
146.201
146.679
146.219
146.678
146.201
146.208
146.46
146.201
146.601
146.313
157.532
146.201
146.213
146.21
146.205
146.203
146.268
146.201
146.201
146.202
146.201
147.566
146.202
146.282
146.201
146.202
146.289
146.282
146.245
146.284
146.202
146.201
146.211
146.57
146.201
146.201
146.201
13510.4
146.203
146.495
146.201
146.273
146.209
146.201
255.716
146.516
146.228
146.416
1262.2
146.271
146.362
146.387
254.942
146.203
146.203
146.205
146.328
146.277
289.474
146.241
146.205
146.241
146.206
146.268
146.201
146.293
146.6
146.315
146.238
146.658
146.361
146.248
146.201
146.201
146.201
146.201
146.201
146.201
146.246
146.823
146.202
1600.65
146.243
146.202
146.201
146.242
147.48
146.201
146.243
146.221
146.287
146.201
146.241
149.099
146.261
146.201
146.47
146.202
146.204
146.208
146.201
146.201
146.207
11028.2
146.284
146.201
146.207
146.201
146.213
146.206
146.201
146.23
146.216
146.212
146.201
146.207
146.207
146.204
146.202
146.201
146.201
146.202
146.222
146.205
148.392
146.832
146.612
2031.05
146.205
146.201
146.203
146.205
146.204
146.204
146.202
146.201
146.202
146.576
146.208
146.295
146.202
146.202
146.203
146.214
2645.26
4152.08
146.202
146.202
146.201
146.258
146.203
146.201
150.716
146.201
146.201
146.201
146.201
146.201
146.221
146.239
146.219
167.213
146.204
146.205
146.22
147.004
146.477
146.252
146.202
146.227
148.11
146.201
146.267
146.219
146.216
146.211
361.162
146.569
146.201
146.312
146.201
146.408
146.31
146.216
146.203
146.201
146.203
146.201
146.253
146.201
147.19
725.388
146.288
146.201
146.201
146.281
146.202
146.201
146.202
146.201
146.202
147.507
146.485
147.361
146.201
146.247
146.203
146.225
146.451
146.204
146.201
146.568
146.279
167.253
146.4
146.404
146.771
146.201
146.229
146.237
146.201
146.218
2432.86
146.201
146.223
146.201
170.635
146.201
146.201
146.286
146.201
146.458
196.297
146.201
146.394
146.257
146.328
146.206
146.253
146.201
146.297
146.201
146.59
146.234
146.208
352.364
146.207
146.201
146.201
146.418
164.079
146.201
146.228
146.428
1676.97
147.474
146.201
146.201
146.276
146.214
146.574
146.494
146.479
146.489
146.451
146.201
146.627
146.628
146.213
146.211
146.202
146.389
146.214
146.201
146.201
146.214
146.201
146.201
146.201
146.36
146.201
146.205
146.202
146.264
146.202
146.201
146.201
146.535
147.007
146.201
147.702
146.205
146.202
146.213
146.202
146.294
146.201
146.202
146.593
146.201
146.254
146.258
146.201
146.259
475.622
146.257
146.245
146.261
146.237
146.561
146.258
146.201
146.207
146.201
146.257
146.201
146.201
146.211
146.205
146.24
146.202
147.432
146.257
146.581
179.572
146.201
146.485
146.201
146.205
146.207
146.202
146.203
881.843
156.175
146.336
146.255
233.647
146.446
146.202
146.251
146.201
146.252
146.257
146.26
148.755
146.201
146.201
146.206
146.236
146.208
146.201
146.201
2089.46
1195.44
146.237
146.201
146.62
146.203
146.202
146.211
146.201
146.536
146.201
146.202
146.241
146.237
854.172
146.225
146.239
146.479
146.628
146.202
146.328
147.894
146.202
146.202
146.262
146.647
146.3
146.201
146.255
146.45
146.368
168.986
146.26
146.263
776.082
146.211
146.202
264.153
146.212
146.201
146.218
146.202
2126.21
146.202
146.211
147.079
146.22
3224.78
146.209
1295.91
146.219
146.223
1229.9
146.217
146.224
1137.39
146.273
146.202
146.846
146.201
146.202
146.214
1155.13
146.422
146.206
146.417
146.201
150.346
1197.07
156.695
146.214
720.393
146.207
169.091
146.201
146.206
146.202
146.201
146.201
146.201
146.201
146.201
146.554
149.009
146.336
157.857
146.201
146.201
146.202
146.201
146.201
146.201
230.491
148.304
146.201
146.201
146.201
146.503
146.413
146.205
146.645
146.201
146.202
146.201
146.747
2055.21
146.61
157.387
146.924
146.202
146.239
148.921
146.21
146.201
146.202
505.345
1061.76
151.841
153.188
146.201
146.201
61589.7
146.201
146.818
146.201
146.201
146.211
146.201
146.63
146.202
146.704
215.413
146.474
146.819
146.416
146.354
146.201
146.513
146.201
146.213
146.201
146.201
146.201
146.201
146.253
146.201
146.236
146.581
146.645
147.058
146.202
146.201
16478.5
148.866
146.201
146.51
146.201
146.209
146.271
182.888
23281.2
150.14
146.201
1032.54
8318.39
149.588
146.201
157.894
146.268
146.273
265.599
146.221
24926.1
146.269
146.202
146.252
147.101
146.26
146.322
146.553
146.35
146.209
164.865
5258.68
20862.9
146.201
146.201
33960.2
146.201
146.317
147.464
146.201
334.509
146.283
146.212
146.249
146.209
146.206
146.319
147.107
1083.26
146.743
582.108
146.202
147.244
146.369
146.325
146.203
146.215
146.231
146.215
146.202
146.214
146.244
146.206
146.204
146.218
201.631
146.348
146.222
4584.89
146.292
146.203
176.101
146.205
146.24
146.204
146.209
146.201
146.239
149.066
146.678
146.506
146.807
952.042
146.219
146.24
146.351
147.213
146.422
185.187
146.202
146.378
146.201
147.971
146.278
171.974
146.202
146.201
146.202
146.201
147.315
146.201
146.387
146.201
147.988
147.293
146.206
146.201
623.115
149.354
233.745
148.872
146.201
147.959
17880.9
146.201
146.25
146.372
146.36
146.357
146.201
146.375
148.817
274.935
146.347
462.058
149.598
146.479
146.213
10661
229.345
146.33
152.038
146.207
146.419
148.779
146.211
150.399
146.283
146.225
146.202
146.372
169.834
146.222
146.203
146.236
146.202
146.201
146.204
146.275
146.239
1817.91
148.203
146.223
719.96
146.25
146.201
146.277
167.78
1401.5
146.473
146.433
693.754
146.903
21320.2
147.225
146.202
322.422
146.21
146.202
146.208
207.482
146.202
148.286
146.581
147.253
147.286
159.256
146.202
146.382
146.434
146.202
146.201
146.202
146.202
146.202
146.245
994.805
147.198
16429.9
146.245
245.34
146.396
1043.48
146.221
146.673
148.185
160.956
146.202
146.204
146.202
146.201
146.201
146.201
146.216
151.705
146.438
165.205
146.347
146.483
264.482
148.397
1115.62
149.289
146.202
396.54
146.479
146.201
146.203
148.97
149.264
146.201
146.202
146.201
146.308
146.201
184.597
325.575
416.629
149.097
146.201
172.494
146.868
146.201
146.362
146.201
146.243
147.766
146.219
146.235
200.394
146.307
146.202
146.245
146.202
146.201
146.202
146.558
146.365
146.202
147.104
146.462
447.583
146.399
146.253
146.203
146.201
146.245
146.235
147.231
1859.42
146.248
146.201
2640.84
146.255
146.201
146.26
146.26
146.633
1091.27
1765.44
147.593
147.109
146.201
241.467
146.259
148.029
550.964
146.201
280.263
146.201
146.201
744.093
146.201
146.258
804.059
400.831
759.522
1054.5
146.202
146.927
146.71
146.767
146.233
146.224
313.324
757.124
157.795
286.918
146.49
146.238
146.558
762.43
174.405
153.135
146.463
1026.36
146.201
146.201
18689.9
583.651
147.109
147.191
147.344
227.155
1263.98
146.201
146.751
146.203
769.114
146.202
146.646
147.055
146.201
1543.82
146.202
633.025
811.127
146.202
146.204
420.487
146.203
146.201
146.201
146.201
283.313
146.202
824.859
2247.05
146.201
146.201
990.587
146.226
146.201
146.711
146.201
146.201
146.202
146.201
146.293
146.29
601.634
146.201
146.201
1270.19
146.201
157
227.377
146.201
146.201
146.203
146.202
162.04
146.201
146.203
146.201
146.201
146.201
3870.56
5557.37
146.213
146.202
19670.4
146.202
146.451
146.201
147.05
146.201
247.831
147.249
146.203
146.206
146.307
146.713
446.547
146.201
147.234
146.227
146.201
146.233
146.279
146.201
146.431
146.201
402.684
146.201
146.201
146.202
146.27
146.203
265.719
150.818
146.201
146.201
275.391
146.201
232.263
146.24
146.201
1735
3338.83
147.291
146.212
146.253
146.861
3447.93
146.201
2388.86
146.201
1138.96
239.37
146.212
154.752
605.484
1943.07
1566.19
974.541
146.226
146.201
146.202
146.801
154.094
146.219
1165.81
146.208
146.221
146.201
146.399
1004.7
1141.05
146.201
146.765
146.441
146.201
147.467
146.201
146.202
146.201
1172.23
225.091
157.144
146.201
146.202
146.201
1500.31
146.455
4891.98
146.201
146.201
226.596
148.127
146.202
146.201
1893.45
146.201
146.201
146.523
2996.6
146.745
146.474
146.202
1797.1
252.969
192.449
148.583
146.221
195.198
146.202
146.256
1600.04
558.872
148.331
179.587
157.674
151.845
146.202
12038.4
1152.86
148.491
146.202
147.646
2797.07
146.201
228.382
152.663
146.201
156.619
146.202
6071.97
146.906
146.616
159.745
720.809
146.202
146.202
146.214
146.398
55824.5
146.201
266.688
189.11
146.201
146.201
146.201
146.203
146.408
146.206
146.371
146.204
1979.14
146.202
151.735
146.201
146.583
146.201
146.245
148.292
146.201
146.201
146.202
146.202
146.237
9210.32
12408.9
147.257
146.559
146.202
146.203
146.202
146.212
146.232
146.215
146.203
146.925
146.573
17242
146.207
146.202
146.201
146.644
146.221
146.202
146.425
146.215
146.279
12531.8
146.323
146.94
146.202
146.227
147.141
147.911
146.201
146.215
146.373
146.202
146.469
146.23
146.235
146.333
146.214
146.201
146.217
146.216
146.789
146.208
197.108
146.201
146.322
146.21
146.201
146.338
146.233
146.483
146.214
146.202
146.201
152.846
78.8121
146.203
182.953
76.9408
146.206
146.286
146.217
146.232
94.4028
146.202
146.249
146.475
146.205
102.018
146.249
146.201
146.219
146.204
146.22
146.201
146.201
146.212
146.201
192.599
146.201
146.201
146.366
146.201
146.264
146.929
146.21
146.201
155.319
150.667
146.22
146.226
146.201
146.244
146.573
146.202
146.201
146.51
146.223
146.223
146.229
146.238
146.204
146.201
146.248
146.396
650.087
146.872
2653.36
146.264
146.254
146.225
146.201
1489.75
146.221
146.214
147.783
146.226
645.973
146.201
146.223
146.241
146.27
146.607
146.277
146.701
146.201
146.259
146.982
146.205
146.393
146.219
146.238
146.339
146.394
146.863
146.276
147.425
146.399
147.423
146.245
146.238
146.201
146.605
146.238
146.227
146.204
146.203
146.332
146.202
146.273
146.228
146.201
146.201
146.202
146.326
255.628
146.201
146.223
146.241
146.201
146.415
146.201
146.349
146.233
146.208
146.201
146.201
146.23
146.201
146.201
146.201
146.219
146.202
146.201
146.604
146.202
146.307
157.135
146.201
146.236
146.314
146.201
146.204
146.209
146.201
146.201
146.447
146.364
146.232
146.201
146.27
146.201
146.309
146.448
146.201
146.202
146.259
146.201
146.202
146.491
146.201
146.235
146.232
146.227
146.201
146.215
188.08
161.161
146.242
146.201
146.201
146.203
146.29
146.227
146.201
146.201
146.217
439.34
146.202
146.201
146.201
1858.72
147.634
146.243
1640.96
146.245
146.209
146.419
146.26
146.204
146.208
1165.29
146.353
146.201
146.486
1493.12
146.201
146.201
1475.67
146.63
1844.39
146.201
146.231
146.203
146.215
1163.94
146.201
1157.47
146.221
146.21
931.239
146.228
146.204
146.641
1190.01
146.207
146.33
941.152
146.207
146.449
1215.3
146.549
146.388
146.202
146.532
147.415
146.44
412.545
146.201
146.226
146.423
146.203
146.407
214.973
146.202
146.364
146.203
216.097
146.274
146.202
146.207
146.202
146.232
146.202
226.155
625.828
146.203
184.894
216.826
623.309
146.203
146.464
2810.27
146.201
220.681
146.322
146.472
146.225
227.715
146.201
146.201
146.25
146.201
157.075
146.234
146.232
1080.82
146.692
146.202
146.25
146.234
146.24
146.206
146.201
146.214
146.263
146.272
146.224
147.016
780.965
146.233
146.223
5336.57
199.868
146.202
146.232
147.03
146.586
148.124
146.242
146.58
146.271
146.609
6453.93
146.295
146.217
146.421
146.294
159.865
146.209
146.338
146.293
146.229
146.438
146.407
713.938
146.588
146.207
487.563
146.202
146.235
148.524
146.203
1010.19
146.203
148.285
7491.19
429.918
146.202
146.228
146.201
390.807
146.286
148.932
146.237
651.303
909.419
146.638
146.201
148.764
151.484
151.251
169.77
162.494
146.201
146.318
146.221
146.266
146.202
146.202
146.201
146.224
146.206
146.201
146.259
73435.5
146.201
146.283
146.207
146.732
146.544
146.209
146.685
146.201
146.224
146.257
146.204
146.203
146.203
146.24
146.201
146.233
146.24
23665.3
146.201
146.668
146.303
8396.27
146.201
146.465
146.474
146.201
146.201
40888.9
146.201
146.214
146.201
146.209
146.202
146.233
146.201
146.201
146.202
146.214
146.589
152.882
146.201
146.217
146.201
146.571
146.407
146.221
146.201
1132.57
146.203
146.226
146.201
146.493
146.217
146.201
146.201
8229.26
6103.54
146.203
146.338
146.22
146.201
146.217
146.574
146.22
146.251
146.612
146.221
146.212
146.527
146.217
159.572
336.015
146.202
146.204
146.23
276.857
146.213
146.3
146.204
146.201
146.202
146.201
146.201
146.479
146.218
146.352
146.341
1029.84
2033.12
146.201
146.295
149.889
146.204
146.332
78733.6
146.201
146.512
147.061
146.206
146.202
146.202
146.534
146.321
146.207
146.206
146.202
146.211
146.213
146.622
146.236
146.571
146.255
146.203
146.595
1316.21
146.206
146.204
146.202
860.09
3273.46
146.201
146.219
146.201
146.274
146.281
1159.95
146.205
146.62
146.228
146.277
146.201
146.202
1533.73
146.201
146.201
146.201
146.201
146.408
146.254
146.426
146.238
146.22
146.202
146.202
146.201
649.194
147.299
146.201
146.577
146.201
146.201
146.201
1459.56
155.469
5023.25
146.25
146.203
146.201
146.203
146.218
146.237
1677.07
146.222
146.201
146.206
1264.59
7803.44
146.218
146.201
1788.9
1777.96
148.577
968.209
532.648
146.386
985.055
147.195
146.203
146.205
146.203
146.209
146.203
146.244
11711.1
1189.34
154.405
148.485
975.862
146.239
146.248
146.245
146.644
146.215
340.587
146.218
1041.4
147.066
146.201
184.985
153.18
146.204
146.205
9959.23
146.212
146.201
1742.53
233.868
146.201
146.203
146.202
146.204
146.238
146.201
146.204
216.852
1582.21
146.202
146.242
146.24
158.824
161.251
146.201
146.201
146.201
1363.32
146.214
146.206
146.617
146.201
146.262
146.201
146.201
2583.53
146.217
146.201
146.201
146.201
146.234
146.219
146.221
146.201
146.518
146.216
146.201
146.507
146.201
146.209
146.201
146.212
146.202
146.201
146.23
146.201
146.201
377.693
146.201
147.783
146.236
146.201
146.201
146.21
146.22
146.248
170.164
147.775
1016.05
148.027
146.294
196.25
146.207
147.894
148.679
146.237
147.075
146.201
146.245
146.202
146.201
146.201
146.214
146.415
155.054
146.201
539.027
146.202
146.254
146.223
146.201
146.243
146.203
146.398
12151.3
146.701
146.202
146.201
146.392
217.783
146.397
146.238
354.041
146.236
326.75
146.201
146.202
146.51
255.274
238.901
283.881
308.153
267.367
179.591
1559.38
150.512
375.63
146.204
146.202
146.207
146.205
146.279
749.073
146.339
146.293
827.352
836.622
146.234
753.118
146.948
146.201
146.201
146.201
146.891
153.659
146.358
146.203
146.872
990.536
146.621
5264.2
146.951
146.705
150.704
146.203
146.322
150.508
146.284
146.202
146.251
146.674
146.201
146.201
147.382
146.203
146.201
147.511
146.204
147.852
155.116
146.204
148.865
146.857
147.581
146.233
147.06
146.711
153.393
146.217
146.202
147.843
147.2
147.24
146.801
146.248
146.717
146.258
174.31
1681.76
146.202
146.228
149.442
146.204
674.32
146.208
146.201
146.203
149.277
146.201
146.252
146.201
146.219
146.643
149.638
150.26
146.229
146.201
146.905
1468.98
1095.67
146.201
399.61
25897.1
149.601
1940.73
146.212
337.072
146.201
146.368
146.211
146.201
146.202
146.202
146.201
1627.87
146.201
146.359
146.201
146.201
146.202
146.202
146.215
146.33
152.844
146.201
146.201
781.114
146.202
1217.26
146.256
146.201
1250.66
146.217
146.201
146.201
1148.71
146.207
146.201
146.235
146.231
146.202
146.201
146.491
146.201
146.201
146.204
146.201
146.201
146.202
146.24
147.051
146.201
146.309
146.201
146.448
146.201
146.252
146.202
146.762
146.202
146.202
146.202
146.203
146.659
146.203
146.202
146.201
146.201
146.201
5762.07
146.201
146.201
146.212
146.202
146.234
167.389
146.201
146.201
146.202
146.305
146.202
146.202
146.201
146.264
146.201
146.201
146.201
149.12
146.205
146.201
146.201
146.202
146.206
146.201
4697.57
146.302
146.217
146.257
146.207
146.638
146.228
146.692
146.432
146.23
146.596
146.205
146.202
146.201
146.202
1259.22
146.202
146.201
1254.49
146.201
146.201
146.201
146.201
146.22
146.209
10982.1
146.203
146.201
146.204
1297.95
1553.68
1560.94
146.584
151.088
266.88
146.202
146.221
146.227
1567.43
146.203
146.203
146.205
146.202
5976.31
146.201
146.202
146.204
146.619
146.541
146.616
146.842
146.201
147.093
146.458
146.201
158.919
146.202
146.202
146.201
146.202
146.201
146.556
146.201
157.709
149.961
147.202
147.358
184.187
146.525
146.201
146.203
146.204
146.237
146.201
146.201
146.201
146.203
148.185
146.603
146.227
179.338
146.202
179.224
146.409
147.4
146.418
146.201
150.449
146.201
146.201
146.202
220.58
197.475
170.479
146.208
168.297
146.201
146.204
146.201
146.373
146.202
2395.43
146.455
146.201
146.201
146.602
146.627
146.201
148.782
146.201
146.201
292.672
146.201
146.529
146.201
146.433
146.202
146.208
146.202
146.201
146.519
146.202
1799.62
146.205
146.512
146.202
146.218
215.414
146.201
146.202
146.201
226.095
146.221
147.563
153.326
149.963
146.201
1401.41
146.582
146.202
146.203
765.204
146.454
146.201
150.088
1942.83
146.205
146.235
146.204
173.861
146.205
146.209
146.208
146.205
162.048
146.206
500.754
146.203
146.7
146.205
146.202
146.326
146.205
146.217
146.233
146.202
146.554
2582.15
147.738
178.19
158.381
216.61
154.484
146.204
146.201
146.201
501.302
825.418
1215.49
189.695
146.488
156.89
158.326
2827.75
1137.06
146.201
1860.84
2177.85
148.526
146.201
282.562
158.288
169.83
232.246
148.83
146.849
491.448
146.205
497.697
146.221
162.605
146.355
2305.5
205.186
146.202
146.204
146.963
204.039
146.475
146.521
146.201
146.201
252.916
146.263
146.325
146.209
146.201
146.524
146.201
66117.3
146.924
146.201
146.257
218.184
146.561
1746.43
1326.42
176.273
146.552
146.201
146.209
1161.54
146.201
146.201
146.244
146.25
146.264
219.641
146.453
146.407
1053.54
147.237
146.202
146.201
844.666
146.202
146.222
147.6
146.201
146.201
146.277
252.888
3403.18
325.097
146.267
146.49
146.203
152.157
260.264
146.625
30987.2
146.201
146.283
146.201
147.175
146.201
151.115
184.831
146.201
1055.16
146.201
146.201
146.432
146.386
146.614
146.298
772.106
2406.77
146.201
146.202
146.485
158.706
146.202
146.262
1003.01
146.201
146.561
146.321
146.201
146.205
146.201
146.205
146.203
146.202
146.201
146.228
147.039
146.218
180.936
12695.3
146.669
147.148
146.201
146.402
146.205
146.202
147.223
402.241
1013.98
147.128
141.195
149.607
146.202
146.561
9309.05
147.23
147.242
146.727
146.202
147.497
146.203
146.202
146.201
146.217
146.897
146.21
886.16
146.201
146.367
146.233
1691.42
196.021
146.201
147.456
147.502
152.64
147.805
147.433
146.201
146.201
148.292
146.349
146.201
146.201
146.201
146.201
146.25
146.201
7540.39
385.737
150.445
146.776
146.559
146.588
146.204
146.201
146.201
149.032
146.201
146.201
146.201
148.647
146.231
1087.04
147.624
146.661
146.464
281.233
146.364
147.609
146.203
146.205
146.576
162.36
146.861
146.202
146.202
146.208
221.624
146.202
147.157
264.469
146.813
147.866
146.202
146.246
149.124
153.405
146.202
147.802
146.672
146.587
146.202
147.746
146.393
149.777
146.201
146.201
191.968
146.292
146.202
146.203
146.712
390.581
147.163
146.207
146.202
146.913
146.997
146.202
146.201
146.202
3341.66
149.414
381.283
147.247
146.201
471.977
410.943
146.205
146.201
146.336
146.276
146.367
146.36
846.803
146.202
146.386
146.208
281.98
146.203
146.202
146.201
146.201
815.766
343.802
146.202
397.417
146.446
146.274
146.202
146.226
146.202
584.004
146.978
146.202
146.202
146.436
146.203
146.206
146.205
146.201
146.205
147.037
146.202
146.573
146.202
146.201
146.202
147.117
146.202
146.202
1086.99
146.203
146.223
146.201
146.405
2065.51
146.202
177.313
146.278
146.639
146.202
146.202
146.203
146.226
146.202
146.369
146.23
147.108
1277.56
146.202
146.202
146.202
146.203
146.204
146.202
146.202
146.216
146.205
146.204
146.206
146.201
146.265
1339.12
406.874
146.663
147.167
146.207
146.204
533.011
146.204
271.759
146.475
146.62
146.204
146.201
146.201
146.201
146.206
146.201
146.238
148.332
146.202
146.201
146.201
146.257
146.202
146.206
146.201
146.203
146.202
146.356
146.239
146.29
146.205
146.201
146.237
146.238
146.266
146.206
146.221
146.202
146.297
146.201
146.505
146.276
146.467
146.241
146.396
149.388
146.242
147.459
148.5
146.205
160.7
146.201
147.655
146.201
147.693
146.623
147.416
191.553
146.204
146.201
146.202
149.171
1166.98
146.201
147.283
146.373
1113.39
146.201
146.215
146.202
146.203
147.411
146.201
146.201
146.202
146.202
146.202
146.201
147.182
148.131
146.528
146.202
146.201
146.555
146.201
146.201
146.325
1038.25
146.359
146.201
146.201
148.686
146.316
146.201
146.201
176.032
147.365
1037.28
146.201
147.514
146.23
146.201
146.207
146.201
146.201
146.202
146.213
146.201
146.201
146.202
146.202
146.202
146.202
146.201
146.201
146.201
146.201
146.221
146.201
146.202
146.201
146.201
146.203
146.53
146.696
146.529
146.201
146.201
146.201
146.201
146.579
146.217
146.202
146.202
146.201
146.202
146.201
146.405
146.201
146.201
146.202
146.201
146.202
146.291
146.201
146.292
146.284
146.518
146.201
146.201
146.326
146.201
146.201
146.201
146.201
146.202
146.201
146.201
146.202
146.204
146.203
349.126
175.254
146.201
146.203
146.201
146.201
146.201
146.201
146.202
146.201
378.616
147.127
146.202
147.36
146.36
146.201
147.738
147.952
146.458
146.485
147.492
146.459
146.204
146.201
146.241
146.201
147.478
146.201
147.432
146.201
146.201
146.201
146.925
146.96
146.903
146.203
146.201
146.201
146.201
146.202
146.203
146.202
146.201
146.221
146.201
146.982
146.201
146.203
146.203
146.202
146.202
146.202
146.203
146.65
146.407
146.607
146.47
146.211
146.202
146.201
146.201
146.473
146.204
146.467
146.409
146.202
146.207
146.226
146.342
146.201
146.395
146.203
146.253
146.404
146.201
146.404
3025.74
154.228
146.421
146.201
146.409
154.165
146.202
146.201
146.201
146.203
146.417
146.201
146.565
152.325
321.009
147.189
150.545
146.201
146.201
312.09
146.202