/*--------------------------------*- C++ -*----------------------------------*\
| =========                 |                                                 |
| \\      /  F ield         | OpenFOAM: The Open Source CFD Toolbox           |
|  \\    /   O peration     | Version:  v2012                                 |
|   \\  /    A nd           | Website:  www.openfoam.com                      |
|    \\/     M anipulation  |                                                 |
\*---------------------------------------------------------------------------*/
FoamFile
{
    version     2.0;
    format      ascii;
    class       volScalarField;
    location    "3.5";
    object      ILambda_14_0;
}
// * * * * * * * * * * * * * * * * * * * * * * * * * * * * * * * * * * * * * //

dimensions      [1 0 -3 0 0 0 0];


internalField   nonuniform List<scalar> 
108993
(
146.189
146.204
146.201
146.201
146.199
146.202
146.213
146.199
146.201
146.255
146.217
146.206
146.2
146.202
146.222
146.314
146.242
146.212
146.2
146.202
146.181
146.201
146.203
146.165
146.2
146.203
146.201
146.202
146.202
146.201
146.201
146.21
146.201
146.21
146.201
146.194
146.201
146.202
426.387
1432.95
146.202
146.201
146.203
146.201
146.292
1644.79
146.201
146.217
146.203
146.201
146.201
146.644
146.203
146.201
146.222
146.15
146.201
146.201
146.2
146.201
146.201
146.201
146.201
146.201
146.201
146.203
146.201
146.2
146.209
149.081
146.153
146.2
146.197
146.2
146.202
146.201
146.201
146.248
146.201
146.2
146.201
146.22
146.201
146.202
146.219
146.204
146.203
146.206
146.2
146.201
146.201
146.201
146.201
146.199
146.201
146.227
146.201
146.217
146.201
146.201
146.201
146.201
146.2
146.258
146.198
146.201
146.2
146.201
146.201
1034.27
146.364
146.201
146.503
146.642
146.204
146.897
146.199
146.267
146.245
146.201
146.202
146.201
147.871
146.229
146.193
146.315
146.202
146.192
146.201
146.201
146.234
146.201
146.201
146.619
146.201
146.201
146.201
146.205
146.201
146.203
146.229
146.201
146.221
146.201
146.201
146.199
146.199
3875.32
146.229
148.933
148.769
146.202
146.205
148.684
146.201
146.337
146.216
146.201
146.201
146.294
148.725
146.201
146.201
146.158
146.217
146.578
146.201
146.201
146.201
146.217
146.2
146.17
146.368
146.201
146.202
146.204
146.348
146.201
146.21
146.201
146.231
146.201
146.201
146.229
146.224
146.203
146.201
146.208
146.214
146.229
146.251
146.201
146.245
146.312
146.213
146.218
146.202
146.232
146.203
146.229
146.201
146.329
146.166
146.201
146.347
149.53
146.201
1037.17
146.203
1015.23
146.409
146.222
146.349
153.814
11134.3
146.202
146.212
146.201
146.201
146.201
146.205
148.753
146.243
146.316
146.201
146.201
146.201
146.201
146.681
146.201
151.207
146.148
146.201
146.201
146.201
146.201
146.201
146.201
147.272
146.201
146.201
146.201
146.201
146.201
146.201
146.46
150.23
147.67
146.201
146.201
146.201
146.201
146.201
146.215
146.201
146.201
146.201
146.204
146.201
146.202
146.201
146.202
146.241
146.358
146.201
146.202
146.201
146.203
146.202
146.201
146.201
146.201
592.975
4484.37
2706.42
146.214
146.201
147.742
146.265
146.203
146.203
849.855
1630.96
146.204
146.201
146.222
146.2
146.204
146.257
1748.68
146.202
146.201
146.203
146.201
146.201
146.201
146.201
146.201
146.228
146.201
148.237
147.586
146.195
146.201
146.201
146.202
146.201
146.202
146.202
429.375
146.201
146.201
146.266
146.195
146.202
148.021
146.201
146.28
1588.95
146.201
146.202
146.201
146.202
146.202
146.219
147.051
8180.39
149.872
146.201
146.215
146.201
148.502
147.921
146.201
388.399
146.194
146.201
146.201
146.206
146.201
146.201
146.592
146.204
146.198
146.243
146.233
146.201
146.201
146.201
146.201
146.201
146.202
334.21
917.85
146.201
146.198
146.2
1074.86
146.201
146.201
146.275
146.205
146.201
146.201
146.202
146.202
146.201
146.201
146.226
14275.7
146.212
146.231
146.201
149.104
146.202
417.681
146.258
146.202
178.112
146.23
185.607
195.79
146.203
146.487
146.24
146.209
146.217
337.468
146.203
1080.75
298.844
146.209
277.632
146.202
773.513
146.204
7983.43
146.201
146.368
146.201
146.203
150.795
169.756
146.201
146.204
146.209
146.207
146.205
146.203
1828
146.201
146.201
18388.5
146.199
146.207
146.201
147.695
146.24
146.856
146.201
2469.55
146.203
2663.06
146.201
146.201
1669.81
146.181
147.827
5173.43
146.201
7028.79
4513.51
6361.01
146.201
146.201
146.245
146.201
146.204
146.201
146.201
146.213
146.201
146.201
146.201
160.539
146.219
146.207
146.362
146.201
146.201
146.207
146.201
146.201
146.211
146.201
146.206
146.215
146.201
146.249
146.201
147.656
146.207
147.662
148.315
146.228
146.201
146.202
147.664
146.201
146.201
146.237
146.199
146.201
146.205
146.201
146.255
146.201
146.415
173.43
146.271
146.198
146.201
146.201
146.201
146.202
146.201
146.201
146.201
146.267
146.6
146.209
146.2
146.349
146.201
146.313
146.201
146.212
146.201
146.201
146.202
146.201
146.201
146.201
146.201
146.29
147.347
146.201
146.201
292.188
146.201
146.292
146.209
146.201
146.265
146.201
146.201
146.202
146.201
146.202
146.202
146.201
146.201
146.205
146.207
146.202
146.258
146.209
146.205
146.261
146.207
146.208
146.195
146.25
146.202
146.219
146.203
146.483
146.232
146.241
934.014
146.201
1634.63
146.2
146.201
146.215
146.201
146.201
146.247
146.247
146.201
147.994
146.208
805.65
146.194
146.21
146.201
146.201
146.202
155.548
146.202
146.191
146.201
146.201
146.205
146.318
163.441
146.214
146.201
146.202
146.201
146.21
146.206
7911.75
146.392
148.697
146.206
146.239
146.328
7212.68
146.314
146.253
146.173
146.201
146.201
146.249
146.382
1515.11
146.432
146.216
146.201
146.202
146.16
146.202
146.201
3491.58
146.201
146.201
146.158
146.206
146.225
146.201
146.241
4215.31
146.262
146.202
146.156
4516.52
146.159
146.254
146.203
147.044
146.204
146.225
146.203
146.202
146.201
146.311
146.158
155.061
146.201
146.653
146.201
146.181
1328.36
146.202
146.201
146.201
146.507
1843.01
146.344
148.635
146.202
146.838
146.913
146.322
146.202
146.157
237.062
146.304
146.484
146.206
146.526
146.201
146.213
146.201
146.335
146.222
146.41
146.248
146.344
146.338
146.349
147.305
147.917
146.328
146.202
146.731
151.529
248.628
164.132
146.355
146.202
146.248
146.201
146.202
146.201
146.237
146.258
146.646
190.488
146.254
146.223
146.652
148.597
167.631
146.201
146.286
146.24
146.201
1572.73
146.206
164.938
146.205
146.308
1585.38
146.315
218.646
146.236
146.24
147.289
146.201
146.208
146.327
146.22
146.202
149.069
146.218
507.629
146.228
202.788
146.449
146.201
146.201
146.201
146.227
146.201
146.25
146.202
146.201
146.201
146.246
1024.66
3352.96
146.201
412.696
146.201
146.452
146.219
146.201
146.447
146.202
146.364
146.393
146.404
146.239
146.364
146.266
146.384
146.588
146.197
146.44
146.375
146.314
146.373
146.216
146.201
146.386
146.201
146.201
146.205
146.202
146.377
5577.66
616.25
146.255
146.234
146.255
146.259
146.249
146.282
146.217
146.201
146.201
146.263
146.201
146.234
146.201
146.228
146.245
146.202
146.327
146.201
146.259
146.288
229.546
146.201
146.202
804.184
146.2
146.201
146.286
146.523
146.201
147.499
147.692
146.208
146.286
11868.6
152.233
146.228
146.201
146.955
146.289
146.285
146.219
146.202
146.23
146.198
146.202
230.993
146.201
2298.63
146.201
146.261
1902.39
146.322
164.439
146.233
954.823
146.201
146.222
146.322
146.201
146.207
146.291
146.201
146.209
146.201
146.2
146.201
146.204
146.201
146.201
229.825
146.241
146.713
146.202
146.259
147.831
146.202
147.717
146.213
146.203
146.267
18585.4
146.245
146.202
196.13
146.56
146.202
146.297
855.977
159.107
146.247
146.291
146.202
146.216
225.954
1509.29
146.207
146.227
146.261
146.282
146.264
146.202
198.101
146.254
146.205
247.935
146.287
246.743
146.241
108.976
146.285
146.213
146.226
146.346
146.462
146.241
146.226
146.226
170.92
146.21
1521.18
146.201
146.201
146.204
146.3
146.243
146.37
146.2
146.201
146.412
1110.17
146.201
146.338
146.383
150.588
146.201
146.444
154.386
1790.15
146.265
146.748
146.204
147.574
146.201
148.019
4680.71
289.028
146.201
146.201
146.383
146.239
146.412
146.201
146.197
146.355
147.276
146.201
146.553
146.213
146.202
147.556
146.201
146.157
148.398
409.261
146.202
146.206
146.198
146.202
146.241
146.524
147.584
146.231
147.528
148.547
146.235
146.202
146.202
146.256
146.217
146.204
146.201
146.25
146.202
146.597
146.202
146.201
146.444
146.201
146.285
146.329
146.255
146.249
146.201
177.326
146.166
409.41
146.202
146.203
146.201
146.416
146.645
146.201
146.235
146.943
146.599
146.657
146.201
146.258
146.609
147.712
146.205
167.865
311.944
146.246
146.221
146.246
146.202
146.579
4291.72
146.679
146.638
146.367
146.27
146.226
146.202
146.206
146.434
148.522
146.237
146.201
146.205
146.446
146.201
146.164
146.201
146.466
146.248
146.201
146.248
146.205
146.28
146.251
146.203
147.11
146.241
146.203
146.226
146.2
1434.71
146.201
146.202
146.206
146.202
146.206
1310.83
146.228
146.201
146.248
146.2
146.65
146.217
146.546
146.201
146.254
146.416
146.203
146.293
146.338
150.747
146.202
146.246
146.253
146.177
146.208
146.226
146.202
146.202
146.228
146.201
147.462
146.226
146.227
146.201
146.216
146.249
146.451
146.226
146.232
146.219
146.202
146.207
146.316
146.254
146.201
146.201
4284.72
146.213
146.252
146.202
151.629
146.36
146.201
389.101
146.51
146.227
146.225
772.694
146.264
146.32
146.231
339.135
146.203
146.2
146.186
146.447
146.431
272.181
146.229
146.204
146.248
146.202
147.123
146.248
148.877
146.611
147.502
146.184
146.965
146.436
146.291
146.201
146.201
146.201
146.201
146.201
146.2
146.362
146.762
146.202
1341.48
146.166
146.278
146.201
146.25
147.077
146.201
146.662
146.198
146.299
146.201
146.254
149.221
146.353
146.201
146.44
146.201
146.201
146.201
146.201
146.201
146.202
14276.2
146.326
146.2
146.2
146.201
146.245
146.215
146.201
147.498
146.201
146.198
146.201
146.242
146.244
146.184
146.208
146.201
146.201
146.208
147.866
146.259
150.86
146.713
146.638
844.647
146.274
146.198
146.249
146.201
146.206
146.254
146.202
146.201
146.263
146.611
146.224
146.221
146.202
146.202
146.253
146.214
12065.7
3787.06
146.223
146.199
146.201
146.204
146.204
146.201
146.516
146.201
146.202
146.201
146.201
146.201
146.218
147.495
146.202
146.675
146.203
146.203
146.208
210.4
146.233
146.954
146.203
146.202
148.728
146.2
146.291
146.211
146.211
146.207
147.386
146.29
146.201
148.886
146.2
152.254
149.864
146.208
146.201
146.202
146.294
146.202
146.236
146.2
147.911
1099.17
150.125
146.201
146.201
153.769
146.202
146.201
146.202
146.201
146.202
146.972
155.276
148.465
146.206
146.245
146.196
146.232
146.504
146.202
146.201
154.629
146.312
157.352
151.819
146.315
146.567
146.201
146.201
146.256
146.201
146.28
5924.81
146.202
146.276
146.198
162.1
146.222
146.201
146.211
146.201
146.524
797.944
146.201
146.259
146.178
146.293
146.158
146.18
146.201
146.254
146.201
146.766
146.232
146.151
178.32
146.166
146.201
146.201
146.254
971.064
146.204
146.226
146.4
7583.62
169.577
146.201
146.198
146.364
146.201
146.521
146.409
146.4
146.462
146.396
146.201
146.529
146.529
146.209
146.209
146.202
146.372
146.201
146.201
146.201
146.21
146.201
146.202
146.201
146.4
146.201
146.2
146.202
146.164
146.202
146.201
146.201
146.422
147.032
146.201
147.458
146.206
146.201
146.202
146.203
146.256
146.203
146.202
146.472
146.201
146.19
146.182
146.201
146.158
158.06
146.181
146.249
146.217
146.224
146.549
146.167
146.201
146.208
146.202
146.172
146.201
146.201
146.31
146.208
146.253
146.202
148.456
146.153
146.526
796.003
146.201
147.127
146.201
146.207
146.208
146.209
146.207
1523.32
243.172
146.432
146.411
808.51
146.615
146.196
146.179
146.199
146.157
146.175
146.205
148.695
146.201
146.201
146.204
146.197
146.208
146.201
146.213
1521.67
1522.6
146.208
146.201
146.786
146.202
146.202
146.312
146.211
146.311
146.201
146.202
146.24
146.198
1070.77
146.222
146.257
146.728
146.369
146.202
146.282
148.563
146.202
146.229
146.235
146.456
146.302
146.2
146.234
146.479
146.435
845.571
146.234
146.233
736.894
146.21
146.201
897.976
146.217
146.201
146.216
146.219
2517.23
146.202
146.15
146.911
146.224
3187.29
146.212
1685.09
146.223
146.227
1359.66
164.365
146.226
1637.41
146.27
146.202
146.717
146.202
146.201
146.176
874.448
146.434
146.202
147.306
146.201
183.916
675.935
148.888
152.814
375.779
146.201
149.081
146.201
146.201
146.201
146.201
146.201
146.201
146.201
146.201
146.58
149.016
146.374
146.505
146.201
146.203
146.202
146.201
146.201
146.201
256.74
171.153
146.204
146.201
146.202
146.572
146.208
146.201
146.677
146.201
146.201
146.201
146.257
1836.15
146.605
625.07
147.245
146.201
148.282
148.79
146.201
146.201
146.203
436.564
1419.67
147.902
276.307
146.201
146.201
69278.4
146.201
146.261
146.203
146.201
146.208
146.201
146.235
146.198
146.26
260.503
146.618
146.262
146.839
146.368
146.201
146.652
146.201
146.192
146.201
146.201
146.201
146.201
146.204
146.201
146.222
146.808
147.137
148.277
146.202
146.201
8539.81
148.934
146.201
147.959
146.201
146.199
146.262
160.258
7612.5
155.167
146.201
1088.55
5366.01
148.82
146.201
257.881
146.259
146.261
476.666
146.214
4693.49
146.255
146.201
146.243
151.379
146.25
146.273
146.553
146.319
146.207
186.102
3161.9
7332.29
146.201
146.201
10752.1
146.201
146.204
147.567
146.201
147.603
146.264
146.201
146.372
146.201
146.201
146.264
148.625
962.448
147.09
164.83
146.2
146.686
146.311
146.227
146.253
146.203
146.295
146.202
146.205
146.203
146.269
146.201
146.201
146.304
690.422
146.29
146.235
1268.81
146.331
146.204
156.769
146.201
146.216
146.202
146.201
146.2
146.226
265.538
146.678
146.479
146.621
626.998
146.218
146.224
146.346
148.269
146.238
471.872
146.202
146.332
146.201
148.7
146.215
151.604
146.255
146.201
146.196
146.2
146.753
146.201
146.404
146.201
223.806
148.475
146.202
146.201
503.984
150.053
353.38
148.904
146.203
147.77
5495.59
146.201
146.216
146.394
146.355
146.348
146.201
146.355
149.63
234.625
146.346
1094.63
200.423
146.452
146.211
2789.01
165.746
146.272
169.164
146.211
173.76
163.497
146.249
167.004
146.289
146.226
146.202
146.205
152.647
146.202
146.205
146.204
146.203
146.201
146.254
146.204
146.202
1428.69
185.116
146.227
158.957
192.549
146.201
146.362
150.886
2011.26
146.611
146.482
230.405
147.783
11917
146.683
146.203
830.794
146.202
146.218
146.278
1019.22
146.205
147.571
146.862
146.926
146.98
155.818
146.203
146.382
146.207
146.202
146.201
146.203
146.201
146.204
146.255
185.092
148.068
3406.74
146.255
287.235
146.253
1117.14
146.297
146.655
147.079
147.145
146.202
146.203
146.2
146.201
146.201
146.201
146.215
201.817
146.269
192.475
146.393
146.466
628.625
147.929
992.438
160.924
146.195
147.17
146.447
146.201
146.255
149.235
149.186
146.201
146.202
146.202
146.239
146.198
147.143
147.219
147.334
149.163
146.201
151.817
146.724
146.201
146.372
146.201
146.233
170.069
146.218
146.222
163.794
146.234
146.247
146.235
146.235
146.201
146.202
147.325
146.213
146.202
147.511
146.471
666.336
146.26
146.204
146.202
146.202
146.271
146.198
147.078
632.049
146.177
146.201
1779.79
146.193
146.201
146.181
146.181
146.558
1854.31
1900.45
148.248
147.069
146.201
795.961
146.197
226.148
871.199
146.201
420.176
146.201
146.201
1042
146.201
146.204
1499.96
621.066
1109.11
1889.66
146.202
147.84
148.475
146.656
146.211
146.224
1107.4
1105.48
547.445
311.955
146.223
146.246
146.829
330.882
832.032
149.01
146.794
1877.51
146.203
146.201
20631.3
1100.27
148.427
147.249
148.061
944.501
1541.46
146.201
146.642
146.202
1285.28
146.201
146.563
146.981
146.201
3261.09
146.201
1304.8
1490.59
146.202
146.201
760.449
146.201
146.201
146.201
146.202
815.832
146.202
1502.23
1685.48
146.201
146.201
490.961
146.209
146.202
148.611
146.203
146.203
146.201
146.25
146.283
146.284
1162.81
146.216
146.203
2157.62
146.201
209.392
172.182
146.201
146.201
146.205
146.201
638.781
146.2
146.202
146.201
146.201
146.201
202.56
194.781
146.22
146.202
15545.5
146.202
146.482
146.2
148.404
146.204
169.576
146.672
146.205
146.192
146.203
146.619
201.949
146.2
150.15
147.597
146.201
146.226
153.705
146.201
146.238
146.201
934.532
146.201
146.2
146.202
146.203
146.202
799.467
163.162
146.2
146.2
261.663
146.201
161.797
146.202
146.201
1878.44
6339.12
146.369
146.202
146.168
185.008
5034.49
146.201
972.886
146.201
999.632
147.854
146.202
470.406
1385.17
2005.65
1899.99
885.323
146.212
146.201
146.202
157.572
221.233
146.217
1343.13
146.203
146.216
146.201
146.706
2275.21
1823.98
146.201
146.672
146.404
146.201
147.328
146.201
146.201
146.202
2275.22
258.302
677.565
146.203
146.203
146.202
1683.55
146.215
4969.53
146.201
146.201
184.11
148.635
146.189
146.201
1790.66
146.201
146.203
146.236
2058.37
146.606
146.683
146.189
1843.42
399.204
162.396
148.633
146.226
148.008
146.202
146.278
1395.68
603.244
154.047
147.96
147.108
147.073
146.192
13731.3
1097.18
148.44
146.189
146.872
1636.3
146.201
805.21
147.378
146.201
392.843
146.192
7629.9
146.777
146.64
170.608
655.825
146.201
146.192
146.202
146.208
71637.1
146.203
500.092
185.6
146.201
146.201
146.201
146.208
146.206
146.196
146.292
146.202
2966.47
146.203
168.671
146.201
146.394
146.201
146.248
146.503
146.201
146.201
146.207
146.288
146.224
557.281
3174.93
148.5
146.356
146.202
146.206
146.202
146.208
146.24
146.214
146.237
146.813
146.505
4725.71
146.207
146.203
146.201
146.587
146.221
146.201
146.262
146.218
146.312
2396.69
146.28
147.421
146.202
146.219
147.001
148.577
146.203
146.22
146.273
146.202
146.332
146.215
146.202
146.393
146.202
146.201
146.227
146.221
146.57
146.2
200.298
146.201
146.351
146.2
146.199
146.408
146.748
146.655
146.206
146.202
146.203
151.717
104.915
146.202
154.327
149.374
146.209
146.283
146.217
146.241
105.089
146.201
146.224
146.334
146.225
173.3
146.278
146.201
146.238
146.262
146.199
146.201
146.201
146.2
146.201
150.613
146.201
146.201
146.361
146.201
146.258
147.787
146.2
146.201
163.461
153.506
146.201
146.221
146.201
146.203
146.434
146.202
146.262
146.633
146.213
146.2
146.201
146.2
146.223
146.215
146.236
146.38
734.383
146.717
490.413
146.246
146.259
146.221
146.201
581.935
146.217
146.248
180.164
146.22
718.603
146.201
146.218
146.242
146.261
147.269
146.278
147.319
146.201
146.245
147.872
146.218
146.524
146.236
146.26
146.294
146.323
147.75
146.258
148.045
146.286
148.169
146.244
146.268
146.201
146.603
146.234
146.355
146.282
146.205
146.291
146.202
146.275
146.222
146.201
146.201
146.202
146.29
187.898
146.201
146.217
146.813
146.201
146.316
146.201
146.35
146.234
146.258
146.214
146.201
146.23
146.201
146.201
146.201
146.223
146.202
146.201
146.628
146.202
146.365
236.738
146.202
146.207
146.241
146.201
146.202
146.202
146.201
146.201
146.376
146.325
146.237
146.257
146.231
146.201
146.298
146.597
146.201
146.201
146.371
146.201
146.201
146.446
146.201
146.232
146.25
146.203
146.201
146.216
553.002
147.818
146.172
146.201
146.201
146.192
146.286
146.203
146.201
146.201
146.248
924.098
146.201
146.201
146.201
1655.39
147.837
146.229
1383.22
146.262
146.245
146.253
146.284
146.206
146.205
813.716
146.292
146.259
146.379
1399.42
146.251
146.247
1428.76
146.612
1628.25
146.265
146.242
146.242
146.202
1042.21
146.266
1070.04
146.236
146.233
606.696
146.246
146.205
146.394
1073.3
146.226
146.266
946.022
146.209
146.492
1239.33
147.817
146.334
146.203
147.881
146.993
147.545
537.169
146.201
146.234
146.407
146.203
146.385
187.765
146.203
146.205
146.203
190.652
146.203
146.202
146.207
146.199
146.336
146.201
163.256
1020.13
146.204
207.466
189.09
1037.25
146.218
146.43
1970.88
146.201
169.099
146.321
146.489
146.211
164.778
146.201
146.201
146.203
146.201
160.451
146.236
146.234
944.012
146.683
146.202
146.275
146.24
146.251
146.16
146.201
146.364
146.26
150.492
146.242
146.749
943.678
146.236
146.207
206.418
194.319
146.202
146.234
146.582
146.539
158.778
146.242
146.488
146.373
146.403
244.05
146.369
146.212
146.422
146.293
155.594
146.239
146.266
146.377
146.233
146.249
146.503
1005.45
146.402
146.202
749.647
146.202
146.202
149.457
146.202
1555.12
146.201
149.174
273.642
431.55
146.202
146.209
146.195
372.922
146.278
149.591
146.646
676.885
1427.43
146.57
146.201
147.354
147.661
154.22
369.757
194.602
146.225
146.257
146.216
146.284
146.201
146.203
146.201
146.202
146.207
146.201
146.197
53486.4
146.256
146.273
146.22
146.54
146.561
146.204
146.532
146.201
146.224
146.254
146.205
146.294
146.205
146.248
146.201
146.235
146.208
27375.4
146.201
146.395
146.322
7709.02
146.203
146.451
146.924
146.203
146.204
14557.4
146.201
146.307
146.203
146.216
146.296
146.236
146.204
146.202
146.252
146.2
146.521
246.417
146.204
146.221
146.204
146.656
146.443
146.2
146.201
1704.12
146.21
146.22
146.2
146.393
146.208
146.201
146.201
2353.73
7530.45
146.203
146.561
146.2
146.201
146.209
146.569
146.199
146.203
156.737
146.202
146.2
146.484
146.209
165.188
147.239
146.202
146.202
146.222
352.261
146.2
146.203
146.201
146.201
146.201
146.201
146.201
146.669
146.214
146.204
146.229
284.389
339.565
146.203
146.29
150.825
146.203
146.323
77065.7
146.201
146.715
147.147
146.203
146.202
146.202
146.617
146.306
146.207
146.205
146.201
146.262
146.212
146.334
146.642
146.553
146.369
146.202
146.277
258.527
146.206
146.204
146.202
592.739
239.214
146.201
146.202
146.201
146.206
146.277
1022.75
146.202
146.601
146.63
147.006
146.201
146.216
1738.43
146.201
146.201
146.202
146.201
202.81
146.198
146.209
146.232
146.228
146.202
146.201
146.202
987.083
154.547
146.202
146.48
146.202
146.203
146.201
2209.11
386.895
1613.09
146.165
146.202
146.201
146.203
146.217
154.532
174.747
146.202
146.202
146.203
1455.38
5423.17
146.22
146.203
186.946
183.829
149.542
147.478
152.888
146.214
646.666
147.625
146.201
146.24
146.201
146.249
146.174
146.224
1216.26
1818.03
148.681
152.015
152.733
149.301
146.249
146.259
146.673
146.217
174.088
146.235
1259.89
146.812
146.201
218.937
148.888
146.205
146.235
4006.71
146.217
146.201
182.567
215.45
146.195
146.209
146.206
146.206
146.201
146.201
146.182
208.949
1717.32
146.196
146.236
146.23
150.359
174.995
146.203
146.201
146.207
148.812
146.197
146.201
146.395
146.201
146.203
146.201
146.21
1863.4
146.217
146.201
146.199
146.201
146.234
146.202
146.225
146.201
146.244
146.202
146.201
146.435
146.201
146.164
146.201
146.227
146.204
146.202
146.221
146.201
146.201
1071.05
146.204
147.037
146.234
146.201
146.201
146.198
146.192
146.238
176.561
147.079
1441.91
147.054
146.265
207.377
146.312
147
147.079
147.214
146.929
146.201
146.235
146.201
146.201
146.201
146.197
146.26
151.233
146.201
475.666
146.202
146.205
146.22
146.201
146.222
146.202
146.259
2852.48
146.437
146.203
146.201
146.207
160.477
146.207
146.223
1053.62
146.221
1074.91
146.194
146.193
146.254
940.775
806.901
903.503
1081.42
266.312
156.83
1518.44
392.251
1183.81
146.224
146.202
146.202
146.202
146.415
819.385
146.442
146.281
757.068
751.543
146.218
808.739
146.706
146.221
146.199
146.201
146.936
150.94
146.374
146.201
146.926
917.418
146.547
2781.98
148.811
146.619
151.447
146.18
146.351
149.429
146.299
146.183
146.203
146.671
146.204
146.203
146.095
146.201
146.201
148.97
146.204
146.11
164.385
146.205
146.471
149.214
149.765
146.242
149.513
146.565
151.022
146.211
146.195
149.833
164.755
148.632
148.548
146.23
146.684
146.246
165.354
1794
146.2
146.202
155.106
146.154
875.707
146.169
146.201
146.2
153.374
146.201
146.257
146.201
146.199
146.618
152.739
152.951
146.252
146.201
146.642
1697.7
1506.87
146.201
1387.36
10301.2
148.827
1828.27
146.25
392.548
146.202
146.205
146.174
146.201
146.202
146.202
146.204
1818.02
146.201
146.237
146.201
146.201
146.202
146.193
146.201
146.468
150.533
146.201
146.201
185.797
146.202
1325.07
146.235
146.201
1440.21
146.266
146.201
146.201
1303.17
146.21
146.201
146.24
146.211
146.201
146.201
146.318
146.207
146.2
146.2
146.201
146.201
146.201
146.274
147.972
146.201
146.214
146.201
146.413
146.201
146.943
146.202
146.65
146.201
146.201
146.201
146.204
146.547
146.202
146.2
146.206
146.201
146.201
5711.44
146.201
146.201
146.152
146.201
146.226
163.01
146.208
146.213
146.202
146.306
146.201
146.205
146.201
146.212
146.201
146.201
146.205
146.646
146.232
146.209
146.201
146.225
146.201
146.206
7339.85
146.246
146.229
146.149
146.241
146.433
146.177
146.456
146.399
146.224
146.443
146.231
146.202
146.201
146.203
2186.07
146.296
146.201
2199.95
146.212
146.201
146.204
146.201
146.202
146.202
14110.6
146.203
146.201
146.201
2078.59
2703.04
2740.58
146.288
186.119
259.842
146.202
146.197
146.202
2720.2
146.201
146.207
146.201
146.201
2333.28
146.203
146.201
146.202
146.347
146.241
146.488
146.891
146.201
147.248
147.876
146.201
222.778
146.202
146.201
146.201
146.202
146.202
146.255
146.201
253.528
149.916
146.968
146.762
247.05
146.247
146.201
146.204
146.202
146.229
146.201
146.201
146.201
146.206
149.953
146.287
146.233
199.852
146.203
279.633
146.395
147.144
146.215
146.201
168.295
146.201
146.201
146.202
852.896
317.632
283.341
146.219
290.227
146.201
146.22
146.202
146.478
146.192
2820.27
146.514
146.201
146.201
146.66
146.343
146.201
148.476
146.201
146.201
687.573
146.201
146.232
146.201
146.428
146.202
146.211
146.202
146.201
146.249
146.202
1798.87
146.202
179.702
146.202
146.203
861.196
146.201
146.202
146.202
634.704
146.206
147.404
162.176
156.166
146.201
2766.07
146.504
146.202
146.202
855.207
146.623
146.201
146.516
210.372
146.203
146.206
146.203
146.671
146.21
146.212
146.201
146.207
146.977
146.207
211.808
146.202
146.635
146.206
146.201
146.49
146.206
146.208
146.203
146.202
146.338
214.666
146.524
181.388
146.912
601.33
146.674
146.203
146.201
146.201
1386.19
1390.47
1227.6
147.722
146.255
161.798
146.946
5502.21
710.993
146.201
1851.33
2329.37
146.54
146.201
162.403
160.522
163.684
220.132
252.657
146.842
283.223
146.204
636.474
146.217
160.172
146.284
2169.14
592.875
146.202
146.203
147.807
178.751
146.223
149.391
146.198
146.201
635.203
146.181
146.204
146.202
146.201
146.406
146.201
53899.6
148.908
146.201
146.203
781.884
146.249
1841.41
671.097
415.015
146.248
146.201
146.202
1910.3
146.201
146.201
146.306
146.25
146.205
843.182
146.217
146.209
1101.33
147.353
146.179
146.201
286.907
146.202
146.202
147.932
146.201
146.201
146.3
500.391
7022.51
885.81
146.203
146.237
146.201
147.488
227.515
147.049
9855.63
146.201
146.258
146.201
146.305
146.201
147.711
805.069
146.201
475.859
146.201
146.201
146.358
146.205
146.342
146.266
1567.03
7915.1
146.201
146.202
146.426
147.177
146.202
146.26
3017.69
146.201
146.262
146.258
146.201
146.201
146.203
146.201
146.201
146.201
146.191
146.202
146.807
146.203
789.788
15495.2
147.031
146.819
146.201
146.418
146.206
146.201
146.82
989.542
881.828
146.84
246.961
149.7
146.202
146.454
1237.78
147.725
146.822
146.641
146.202
147.063
146.201
146.201
146.201
146.191
146.548
146.202
247.965
146.201
146.214
146.203
526.728
258.247
146.204
146.977
147.166
148.567
147.386
146.969
146.201
146.203
148.665
146.21
146.201
146.201
146.204
146.201
146.207
146.201
325.147
916.844
148.994
146.62
146.405
146.596
146.202
146.201
146.201
148.219
146.189
146.203
146.186
147.133
146.231
1093.32
147.506
146.657
146.645
414.11
146.207
147.52
146.202
146.202
146.397
237.055
146.864
146.202
146.203
146.202
283.348
146.204
146.754
225.013
146.744
147.565
146.202
146.203
149.084
158.378
146.202
147.55
146.468
146.473
146.202
147.546
146.239
147.905
146.222
146.202
148.491
146.289
146.18
146.202
146.554
189.862
146.813
146.206
146.231
146.564
146.843
146.221
146.201
146.202
3723.59
149.427
236.672
146.698
146.234
261.462
190.569
146.202
146.234
146.208
146.204
146.206
146.21
910.806
146.202
146.211
146.203
147.134
146.202
146.202
146.201
146.202
595.547
905.889
146.202
154.25
146.221
146.399
146.203
146.394
146.202
283.247
146.984
146.209
146.21
146.546
146.207
146.206
146.202
146.203
146.202
146.781
146.201
146.419
146.202
146.202
146.21
146.79
146.202
146.215
1113.13
146.203
146.204
146.203
146.209
2729.29
146.203
150.509
146.206
146.464
146.215
146.203
146.204
146.202
146.215
146.218
146.203
146.781
1349.19
146.203
146.202
146.202
146.202
146.206
146.203
146.201
146.202
146.207
146.207
146.206
146.202
146.286
1026.52
313.892
146.356
147.7
146.206
146.202
626.114
146.206
548.274
146.239
146.576
146.202
146.201
146.201
146.201
146.207
146.201
146.244
148.214
146.202
146.204
146.201
146.205
146.202
146.212
146.201
146.205
146.203
146.43
146.244
146.332
146.207
146.203
146.249
146.256
146.288
146.206
146.202
146.204
146.292
146.201
146.394
146.267
146.219
146.254
146.396
149.812
146.248
146.99
220.342
146.204
154.672
146.202
147.229
146.201
147.296
146.479
147.006
896.548
146.203
146.201
146.203
147.156
1300.02
146.201
146.894
146.245
850.612
146.203
146.202
146.187
146.203
147.061
146.202
146.201
146.202
146.203
146.202
146.201
146.911
147.004
146.447
146.202
146.201
146.7
146.202
146.201
146.309
633.453
146.427
146.201
146.204
148.883
146.305
146.201
146.201
154.036
146.882
1465.69
146.201
147.076
146.226
146.187
146.208
146.199
146.201
146.202
146.202
146.201
146.201
146.202
146.201
146.203
146.202
146.204
146.201
146.201
146.202
146.205
146.204
146.201
146.201
146.2
146.202
146.581
146.676
146.551
146.201
146.201
146.202
146.202
146.508
146.202
146.202
146.202
146.202
146.202
146.202
146.261
146.202
146.2
146.203
146.202
146.202
146.314
146.201
146.315
146.314
146.475
146.201
146.201
146.342
146.201
146.201
146.201
146.203
146.202
146.202
146.2
146.201
146.202
146.202
313.467
381.862
146.201
146.202
146.201
146.2
146.202
146.201
146.201
146.199
737.465
149.647
146.202
149.674
146.205
146.203
150.013
148.45
146.21
146.466
154.026
146.211
146.202
146.201
146.203
146.203
150.585
146.202
148.594
146.201
146.201
146.201
146.671
146.668
146.621
146.202
146.201
146.201
146.202
146.201
146.202
146.202
146.204
146.202
146.201
146.577
146.201
146.202
146.202
146.201
146.201
146.188
146.202
146.631
147.224
146.583
146.215
146.202
146.204
146.201
146.201
146.215
146.202
146.213
147.23
146.202
146.202
146.203
146.342
146.201
146.475
146.202
146.203
146.411
146.202
146.424
3150.64
229.25
146.237
146.2
146.476
229.392
146.202
146.201
146.202
146.204
146.455
146.202
146.252
230.586
1203.51
146.892
622.872
146.201
146.202
1206.7
146.202
146.202
146.201
146.204
146.202
146.202
146.825
4778.92
146.792
147.409
146.995
146.201
146.203
146.201
1274.91
146.644
146.203
4320.56