/*--------------------------------*- C++ -*----------------------------------*\
| =========                 |                                                 |
| \\      /  F ield         | OpenFOAM: The Open Source CFD Toolbox           |
|  \\    /   O peration     | Version:  v2012                                 |
|   \\  /    A nd           | Website:  www.openfoam.com                      |
|    \\/     M anipulation  |                                                 |
\*---------------------------------------------------------------------------*/
FoamFile
{
    version     2.0;
    format      ascii;
    class       volScalarField;
    location    "3.5";
    object      k;
}
// * * * * * * * * * * * * * * * * * * * * * * * * * * * * * * * * * * * * * //

dimensions      [0 2 -2 0 0 0 0];


internalField   nonuniform List<scalar> 
108993
(
7.82145e-05
7.35043e-05
8.70448e-05
7.78967e-05
7.40311e-05
6.19029e-05
7.62797e-05
7.00358e-05
7.54939e-05
7.2669e-05
7.48547e-05
7.45073e-05
7.28901e-05
7.07427e-05
7.20468e-05
7.2516e-05
8.02523e-05
7.2466e-05
7.24903e-05
7.28821e-05
9.9225e-05
7.84029e-05
6.97529e-05
7.58567e-05
7.81173e-05
7.21487e-05
9.81458e-05
7.40172e-05
7.61522e-05
6.50751e-05
8.01949e-05
7.45916e-05
0.000133406
7.52185e-05
0.000581679
7.40938e-05
7.87254e-05
8.27551e-05
0.262355
0.131203
7.66815e-05
7.56344e-05
7.24484e-05
0.0001603
7.41481e-05
0.363139
0.000133862
0.000159361
8.01757e-05
7.42463e-05
7.75596e-05
0.000113852
7.39168e-05
7.61912e-05
7.46552e-05
7.51442e-05
8.65352e-05
7.31111e-05
6.95785e-05
7.62403e-05
7.42314e-05
7.48566e-05
7.30858e-05
7.16888e-05
8.59606e-05
7.58031e-05
0.000101407
7.50218e-05
7.64019e-05
0.00014382
7.26821e-05
7.35862e-05
7.36526e-05
7.40599e-05
7.4516e-05
7.58955e-05
7.87976e-05
7.62739e-05
9.22806e-05
7.95331e-05
7.18952e-05
7.14845e-05
7.11387e-05
9.35579e-05
7.52652e-05
7.21058e-05
7.55864e-05
7.20103e-05
7.27965e-05
7.9669e-05
7.43091e-05
7.15442e-05
7.68945e-05
8.61573e-05
7.63689e-05
7.39314e-05
7.08506e-05
6.72357e-05
7.09949e-05
7.39172e-05
7.50941e-05
7.8733e-05
7.60263e-05
7.51948e-05
6.90276e-05
8.27789e-05
7.51758e-05
0.00026824
7.75564e-05
0.138745
8.22106e-05
7.70291e-05
0.000277994
7.61057e-05
7.40037e-05
0.0171494
7.14087e-05
7.00945e-05
8.26841e-05
7.38995e-05
7.27601e-05
7.43661e-05
0.00894407
6.59659e-05
8.73141e-05
7.33982e-05
7.47246e-05
7.1387e-05
7.56538e-05
8.42216e-05
7.18153e-05
7.72793e-05
7.56163e-05
0.00156394
7.39461e-05
6.9894e-05
7.34242e-05
7.04934e-05
7.23209e-05
7.22704e-05
6.93682e-05
7.4062e-05
0.000122771
7.41987e-05
7.58301e-05
7.55736e-05
6.97378e-05
2.14625
7.19769e-05
0.000711326
0.00059358
6.94077e-05
7.14029e-05
0.000626629
7.29652e-05
7.34396e-05
7.60791e-05
8.27084e-05
0.000444567
0.0028094
0.000605159
0.000165403
7.59609e-05
7.42675e-05
7.26477e-05
8.19886e-05
7.30531e-05
7.47828e-05
7.59828e-05
7.56045e-05
7.47251e-05
7.43209e-05
9.86278e-05
7.39389e-05
8.05579e-05
7.23007e-05
0.00821987
7.08447e-05
7.42261e-05
7.67763e-05
7.13705e-05
7.00559e-05
9.51385e-05
4.84598e-05
7.6071e-05
7.35027e-05
9.39111e-05
7.38456e-05
7.3374e-05
5.10625e-05
7.35813e-05
9.47163e-05
7.12494e-05
0.00015416
7.41186e-05
7.32002e-05
7.58755e-05
7.36245e-05
7.42418e-05
5.32881e-05
7.46567e-05
0.000183653
0.00011708
8.12727e-05
8.19247e-05
0.0576868
7.393e-05
0.0911691
7.3338e-05
0.0421357
0.000304866
8.87274e-05
0.00432318
0.106262
0.151
6.65208e-05
7.14382e-05
7.34634e-05
8.28709e-05
7.87134e-05
7.49538e-05
0.000616763
0.000182758
0.000670779
7.31326e-05
6.86627e-05
8.97732e-05
7.51239e-05
0.000527183
6.964e-05
0.31884
7.36857e-05
7.13648e-05
7.56971e-05
7.24771e-05
7.53485e-05
7.47461e-05
7.33826e-05
0.104881
8.80088e-05
7.43192e-05
7.40542e-05
6.50996e-05
8.78832e-05
8.40249e-05
7.88256e-05
0.141984
0.00155753
9.0926e-05
7.53675e-05
8.46049e-05
8.16232e-05
7.28465e-05
7.44026e-05
8.08116e-05
9.81062e-05
7.9363e-05
7.29069e-05
7.99746e-05
6.49633e-05
7.34813e-05
8.79415e-05
7.60547e-05
7.29257e-05
0.00055296
7.36326e-05
7.46899e-05
7.68019e-05
6.4662e-05
7.23781e-05
6.70017e-05
7.85258e-05
0.107727
0.0531034
1.70405
7.23651e-05
7.52011e-05
0.00653353
7.50338e-05
7.34022e-05
7.34076e-05
0.173707
0.229618
7.17373e-05
7.49458e-05
7.38281e-05
7.09119e-05
7.53915e-05
7.57034e-05
0.132107
7.24313e-05
7.01729e-05
7.61999e-05
7.4004e-05
7.5723e-05
7.02592e-05
7.77208e-05
7.284e-05
0.000161139
6.28545e-05
0.0176103
0.00657837
7.48949e-05
6.82654e-05
7.41482e-05
7.08785e-05
7.68967e-05
7.20702e-05
6.84723e-05
0.115264
7.49293e-05
7.54541e-05
7.07253e-05
7.26912e-05
7.50723e-05
0.000457021
7.97775e-05
7.1738e-05
0.454614
7.64662e-05
7.12468e-05
6.92798e-05
6.80827e-05
8.89696e-05
6.88005e-05
0.00872033
0.0529382
0.00125102
7.32567e-05
7.59438e-05
7.73749e-05
0.00288179
0.0112157
7.40897e-05
0.3227
8.60998e-05
7.32424e-05
7.54707e-05
7.36462e-05
7.24795e-05
7.34169e-05
0.00180007
7.29481e-05
7.40201e-05
7.20787e-05
7.31247e-05
7.15223e-05
7.19034e-05
7.19312e-05
7.39558e-05
7.37485e-05
6.59889e-05
0.104866
0.00981365
7.69547e-05
7.3125e-05
7.12798e-05
0.315541
8.01638e-05
6.29511e-05
7.72165e-05
7.25076e-05
7.74976e-05
7.2252e-05
7.76219e-05
7.5633e-05
7.44924e-05
7.14796e-05
7.96948e-05
0.0447563
7.31278e-05
7.49416e-05
7.26495e-05
0.000550859
7.76368e-05
0.0245863
7.55435e-05
7.84556e-05
0.0562408
7.50467e-05
0.0362969
0.00889757
7.5589e-05
7.92692e-05
7.27739e-05
6.58515e-05
7.21068e-05
0.401296
7.16353e-05
0.151325
0.159491
6.6893e-05
0.0358164
7.1454e-05
0.0477554
7.92543e-05
0.00679674
7.45891e-05
7.25641e-05
7.42433e-05
7.85159e-05
0.0992778
0.0801297
7.33833e-05
7.53998e-05
7.32009e-05
7.07988e-05
6.42702e-05
7.30123e-05
0.0723626
7.1974e-05
7.24295e-05
0.121707
7.25862e-05
7.37025e-05
7.51402e-05
0.00312525
9.044e-05
0.0445231
7.47011e-05
0.0327308
7.276e-05
0.00318294
6.89339e-05
7.48873e-05
0.0278182
7.4063e-05
0.00129103
0.0416876
6.53019e-05
0.0073848
0.931129
0.0057208
7.96509e-05
7.2308e-05
7.31621e-05
8.22282e-05
7.39934e-05
7.70793e-05
7.13568e-05
7.23379e-05
7.2192e-05
7.56849e-05
6.62397e-05
0.0826574
7.80888e-05
7.17751e-05
8.85526e-05
7.22783e-05
6.81523e-05
7.28854e-05
7.34059e-05
7.44606e-05
7.84007e-05
7.68657e-05
7.282e-05
7.29164e-05
7.198e-05
7.61428e-05
7.08116e-05
0.0312553
7.39236e-05
0.0323885
0.000598144
7.47554e-05
6.78244e-05
8.19095e-05
0.019212
6.74366e-05
7.12086e-05
0.000734842
7.41597e-05
7.74352e-05
7.38395e-05
8.15604e-05
0.000116859
6.98321e-05
0.000122423
0.0121874
8.1025e-05
7.17547e-05
7.59502e-05
7.5125e-05
7.42491e-05
0.000441276
7.35745e-05
7.06565e-05
8.01287e-05
0.0001009
7.82695e-05
7.32888e-05
7.46456e-05
0.000123361
8.1537e-05
7.53854e-05
6.56517e-05
0.000273125
7.45066e-05
6.79104e-05
7.39373e-05
8.03434e-05
7.32602e-05
6.91893e-05
7.28964e-05
7.8551e-05
0.00155873
7.11373e-05
6.9852e-05
0.276359
7.25893e-05
7.71607e-05
7.55918e-05
7.41229e-05
7.54971e-05
7.27086e-05
8.77457e-05
7.02207e-05
7.33142e-05
7.64329e-05
7.62443e-05
0.000513774
0.000728829
7.58957e-05
7.46495e-05
7.66397e-05
0.000140341
7.56908e-05
7.37546e-05
0.000112214
7.5177e-05
8.23606e-05
7.22469e-05
0.000103578
7.19566e-05
9.14035e-05
7.5775e-05
7.188e-05
7.39937e-05
7.5056e-05
0.026228
9.01132e-05
0.134248
7.36827e-05
7.54825e-05
7.53212e-05
7.31199e-05
6.88699e-05
0.000132383
7.52352e-05
6.86919e-05
0.0183105
7.09502e-05
0.39532
7.63721e-05
7.48622e-05
9.05689e-05
7.69961e-05
7.6207e-05
0.0367823
7.22574e-05
7.55526e-05
7.34022e-05
9.48937e-05
7.385e-05
0.010305
0.0979632
7.39655e-05
6.97695e-05
7.80035e-05
7.56476e-05
7.38563e-05
6.90284e-05
0.106367
0.00335135
0.00222901
7.37147e-05
7.56931e-05
0.0345605
0.067622
0.000108886
7.60895e-05
7.13055e-05
7.57954e-05
7.80672e-05
7.38658e-05
8.18349e-05
0.485165
0.0132281
7.53084e-05
6.87555e-05
7.62664e-05
6.79235e-05
7.73039e-05
7.1995e-05
0.0604812
7.33663e-05
7.64846e-05
7.64479e-05
7.83016e-05
8.53585e-05
7.33735e-05
7.52538e-05
0.113158
7.10765e-05
7.05936e-05
7.73602e-05
0.0522857
0.000103532
7.32419e-05
7.43551e-05
0.00133998
7.40904e-05
0.000185925
7.26568e-05
7.68561e-05
7.5949e-05
7.65072e-05
0.000110249
0.140863
7.05883e-05
9.36328e-05
7.26918e-05
7.4296e-05
0.180447
7.65161e-05
7.54743e-05
7.64183e-05
0.000169492
0.330879
7.43214e-05
0.00203725
7.28234e-05
0.000258329
0.00153036
7.47392e-05
7.01009e-05
6.80214e-05
0.160257
8.02702e-05
7.76623e-05
7.18813e-05
7.84423e-05
7.76776e-05
7.31348e-05
7.04004e-05
7.35733e-05
7.33536e-05
0.000162525
7.44061e-05
7.39966e-05
7.42852e-05
7.57507e-05
0.397967
0.0443737
0.00015343
0.000106951
0.000885424
0.0751571
0.0466617
0.164734
0.0412983
7.36066e-05
6.96344e-05
7.26778e-05
7.23985e-05
0.00019215
7.26109e-05
7.78281e-05
0.262649
0.0315616
7.66872e-05
7.7139e-05
7.93316e-05
0.0936586
0.113838
7.74318e-05
0.000195564
8.47473e-05
7.32112e-05
0.253125
7.37463e-05
0.223986
7.84852e-05
7.45362e-05
0.338281
7.94137e-05
0.0800809
0.000462732
7.08357e-05
0.0061655
0.000111256
7.3686e-05
0.00010042
6.97864e-05
8.91682e-05
0.0150515
0.000237641
0.0897915
7.02734e-05
0.0141473
0.00017155
9.67112e-05
6.34856e-05
7.02198e-05
7.82297e-05
7.07215e-05
7.56149e-05
7.07149e-05
7.3808e-05
7.08658e-05
7.46624e-05
0.0207465
1.3129
7.49906e-05
0.0384049
6.99099e-05
0.000225793
8.58892e-05
6.75349e-05
7.45742e-05
8.16783e-05
7.52552e-05
8.47477e-05
7.2602e-05
7.17788e-05
7.46265e-05
8.60395e-05
7.33972e-05
0.000347755
7.44096e-05
7.82731e-05
7.47435e-05
7.26619e-05
7.22253e-05
7.48024e-05
6.84343e-05
0.000343287
6.98223e-05
7.3706e-05
7.81299e-05
7.37106e-05
7.12971e-05
1.25699
0.0181315
7.60388e-05
7.7614e-05
8.18422e-05
7.96713e-05
7.62019e-05
8.52905e-05
7.46479e-05
6.80208e-05
7.09345e-05
7.9792e-05
6.86948e-05
7.83915e-05
6.9391e-05
0.000313653
7.95477e-05
7.43314e-05
8.34737e-05
7.29833e-05
8.36188e-05
7.27569e-05
0.00023741
7.63251e-05
8.25263e-05
0.0278213
8.08513e-05
7.42722e-05
7.20553e-05
0.00383178
7.36895e-05
0.00129061
0.00044184
7.67781e-05
7.32645e-05
0.0149651
0.0834708
7.21511e-05
9.26889e-05
0.00259627
7.55018e-05
7.32858e-05
7.48317e-05
0.000218858
7.81109e-05
6.91932e-05
7.45476e-05
0.00307228
7.29257e-05
0.337126
7.51471e-05
7.24408e-05
0.561015
7.78249e-05
0.0732937
7.58471e-05
0.0476847
7.45105e-05
7.50684e-05
7.27279e-05
7.67339e-05
7.67849e-05
7.45283e-05
7.48287e-05
7.41795e-05
7.23193e-05
6.98932e-05
7.1323e-05
0.000116372
7.44266e-05
7.36206e-05
0.00014793
6.96232e-05
0.0051822
7.23423e-05
7.29748e-05
5.92967e-05
6.89435e-05
0.0206024
8.53727e-05
7.29154e-05
7.50609e-05
0.00656436
8.44461e-05
8.21108e-05
0.000248113
7.47795e-05
7.73412e-05
9.52099e-05
0.0965782
7.30387e-05
7.78299e-05
8.12459e-05
8.48048e-05
9.28441e-05
0.00226763
0.527434
0.000161445
6.94212e-05
7.60034e-05
8.9608e-05
8.23683e-05
7.39538e-05
5.48091e-05
7.32735e-05
7.47529e-05
0.0714706
7.42821e-05
0.0489421
7.62485e-05
0.0987139
7.54422e-05
7.69428e-05
6.29092e-05
8.66745e-05
7.43745e-05
7.75328e-05
6.32259e-05
6.63197e-05
0.00179409
7.47358e-05
0.529303
7.24876e-05
7.56333e-05
7.38046e-05
8.36944e-05
7.55667e-05
0.000111779
7.13308e-05
7.23474e-05
7.5396e-05
0.490458
7.22419e-05
9.12079e-05
7.67829e-05
0.00377757
7.23788e-05
0.000295253
0.18768
0.48161
7.10796e-05
7.72937e-05
9.88344e-05
0.00750533
7.30614e-05
0.0130337
1.10654
0.238917
7.36722e-05
7.6485e-05
0.000281225
7.3278e-05
0.000138131
8.0427e-05
7.46154e-05
7.53879e-05
0.000290656
7.8279e-05
0.000192351
7.46675e-05
7.217e-05
0.00546349
7.86067e-05
7.34315e-05
0.0135627
0.0641948
7.49126e-05
7.55181e-05
7.33151e-05
7.46339e-05
7.94772e-05
0.000102793
0.00476536
6.98218e-05
0.00730193
0.000111935
7.70974e-05
0.000100683
6.87291e-05
7.68493e-05
7.1443e-05
7.49161e-05
0.000129
7.68041e-05
6.88245e-05
0.000103028
7.37563e-05
8.56168e-05
0.000148297
7.10508e-05
7.33041e-05
7.66821e-05
7.79271e-05
7.0861e-05
7.21045e-05
0.00247232
7.45049e-05
0.282985
8.38766e-05
7.63494e-05
8.83677e-05
0.000131657
8.86437e-05
7.02369e-05
6.9468e-05
0.00264266
7.70905e-05
0.000210808
7.33555e-05
7.46095e-05
4.90649e-05
0.0107019
7.20764e-05
0.00088871
0.185796
7.22032e-05
9.90717e-05
7.51423e-05
7.53737e-05
7.3687e-05
2.02465
8.0595e-05
0.000227413
0.000218325
7.51272e-05
7.57504e-05
7.64629e-05
7.21587e-05
0.000213016
0.000647613
6.69658e-05
7.36708e-05
7.43677e-05
0.000511883
7.25791e-05
7.37044e-05
7.97093e-05
0.00046684
7.16344e-05
7.09759e-05
7.12782e-05
6.81434e-05
7.15794e-05
7.33972e-05
7.3875e-05
0.000263541
7.53124e-05
8.30465e-05
8.10794e-05
7.58017e-05
0.216443
7.38523e-05
7.10885e-05
9.8975e-05
7.70668e-05
6.82214e-05
0.188749
0.000525197
0.000119766
7.00353e-05
7.1981e-05
0.000126228
0.000182025
8.0522e-05
7.44886e-05
7.14661e-05
0.0520784
7.16297e-05
0.000422037
0.000114559
0.0153663
6.09999e-05
7.35498e-05
7.33973e-05
7.13227e-05
9.44428e-05
7.47613e-05
6.76355e-05
6.69704e-05
7.15389e-05
7.28939e-05
0.00141215
7.47428e-05
7.5906e-05
0.000214956
7.21181e-05
7.70511e-05
0.000137069
7.56585e-05
7.507e-05
7.42792e-05
7.50324e-05
7.60495e-05
8.1053e-05
7.39865e-05
0.000113654
7.52836e-05
0.11916
6.981e-05
8.28428e-05
7.49677e-05
0.000221714
0.000105681
9.66568e-05
0.128914
0.000108405
0.000152715
7.22305e-05
0.114346
7.14286e-05
8.2381e-05
7.74198e-05
0.149027
7.38334e-05
7.47337e-05
7.09871e-05
7.36432e-05
8.84751e-05
0.113264
9.54958e-05
7.29989e-05
7.7991e-05
7.74667e-05
0.000174186
7.35557e-05
0.000111845
0.000189977
0.00162182
7.78523e-05
0.00247091
0.000102425
0.000104683
7.63509e-05
6.79032e-05
6.4948e-05
7.25952e-05
6.87745e-05
7.10507e-05
8.76443e-05
0.0244582
7.04329e-05
0.665143
7.81857e-05
7.49712e-05
7.4508e-05
8.32372e-05
0.000309659
6.91128e-05
7.69974e-05
7.53411e-05
7.43106e-05
6.74115e-05
7.80748e-05
0.0225174
0.000141686
8.72932e-05
0.0018781
7.33675e-05
7.93987e-05
7.76802e-05
0.000233286
0.000112848
7.53016e-05
0.116376
7.15563e-05
7.14686e-05
7.49001e-05
6.91711e-05
7.57544e-05
7.21274e-05
6.41068e-05
0.000608109
7.56177e-05
7.84385e-05
6.82872e-05
7.39499e-05
7.56931e-05
7.20612e-05
7.15028e-05
7.3991e-05
6.56245e-05
7.15036e-05
0.00162268
7.47563e-05
0.037891
7.26398e-05
7.4426e-05
0.523227
7.28768e-05
8.03701e-05
7.43433e-05
7.42025e-05
7.49871e-05
7.53465e-05
6.79372e-05
7.40011e-05
7.55969e-05
9.99539e-05
7.43233e-05
7.64772e-05
0.00013002
8.99722e-05
7.42829e-05
7.70036e-05
0.0423982
0.0300473
7.42395e-05
7.37225e-05
7.48012e-05
7.66643e-05
8.62166e-05
7.29905e-05
0.00448092
7.40394e-05
7.34534e-05
7.44943e-05
7.57421e-05
6.72349e-05
7.08148e-05
8.03819e-05
0.000110412
0.00374534
7.41042e-05
7.26065e-05
7.42152e-05
0.0703732
7.98604e-05
7.72961e-05
6.57566e-05
6.98073e-05
0.000252677
7.48314e-05
0.000209297
6.74404e-05
6.67378e-05
7.3538e-05
0.0115853
0.000104204
7.32754e-05
0.00034259
7.64378e-05
0.00159319
0.000341653
7.04962e-05
7.37058e-05
0.000108673
7.15419e-05
6.87082e-05
7.67034e-05
7.30263e-05
0.000319733
0.0400713
0.00011507
7.21782e-05
7.34355e-05
0.000186213
6.92097e-05
7.47125e-05
6.60656e-05
7.10096e-05
7.26051e-05
0.00420957
0.000217418
0.00417035
7.48198e-05
7.15315e-05
7.33231e-05
0.000238948
8.97982e-05
7.32556e-05
7.29465e-05
2.32854e-05
7.64542e-05
0.0654166
0.00267203
6.9847e-05
0.0123216
7.39261e-05
7.27768e-05
7.38553e-05
7.6057e-05
0.000152803
0.186826
7.53664e-05
7.94775e-05
7.41072e-05
0.343986
7.74074e-05
9.47072e-05
7.3051e-05
0.000268153
0.000912996
0.0180835
7.74727e-05
7.702e-05
7.41577e-05
0.000107139
7.26871e-05
7.83067e-05
7.57915e-05
7.73388e-05
7.64498e-05
0.0155144
7.53088e-05
7.22218e-05
0.301133
7.06339e-05
7.63849e-05
7.46372e-05
7.46702e-05
0.0472985
7.46123e-05
8.90344e-05
6.73652e-05
0.0146055
7.91961e-05
9.31828e-05
7.29437e-05
0.000118008
7.54187e-05
0.142493
0.387155
0.274213
0.000309766
0.402212
7.80586e-05
0.18137
0.175562
6.64907e-05
6.81698e-05
7.28206e-05
7.17319e-05
7.58585e-05
7.50509e-05
7.43322e-05
6.94959e-05
7.73231e-05
7.42772e-05
7.42282e-05
8.55876e-05
7.60429e-05
7.71145e-05
0.000929093
8.73199e-05
0.00111003
0.000475544
7.38547e-05
7.41943e-05
0.0345402
0.000276068
0.0574526
7.84443e-05
7.45182e-05
7.38267e-05
7.33422e-05
7.74387e-05
7.30734e-05
6.87958e-05
7.51623e-05
0.000745109
7.56114e-05
8.52615e-05
0.000331411
8.23888e-05
0.00157756
7.79231e-05
8.22925e-05
8.28727e-05
7.4474e-05
0.000102053
7.79263e-05
7.32218e-05
8.23747e-05
7.28346e-05
7.76275e-05
7.24687e-05
7.53807e-05
7.98276e-05
6.86791e-05
7.27983e-05
7.28814e-05
0.000736077
8.04178e-05
0.00252242
0.0378259
7.38575e-05
0.0103465
7.38667e-05
7.85476e-05
0.000124182
7.07159e-05
7.44009e-05
0.604281
0.00485337
0.000188609
8.71575e-05
0.187063
0.000206406
7.31379e-05
7.53955e-05
7.48809e-05
8.02182e-05
8.17796e-05
7.69497e-05
0.000569678
7.68124e-05
7.32055e-05
7.27308e-05
7.64765e-05
0.000125957
0.000661359
0.000363625
0.427669
0.781228
7.86837e-05
7.41486e-05
0.00116661
7.32816e-05
7.35546e-05
0.00012327
8.30115e-05
7.40568e-05
8.56839e-05
7.36876e-05
8.0095e-05
7.59454e-05
0.0696078
7.35429e-05
7.3164e-05
0.000206256
0.000287777
7.12286e-05
7.86528e-05
0.00413747
7.61747e-05
7.4279e-05
8.29096e-05
7.63282e-05
7.18506e-05
7.07713e-05
7.64017e-05
7.44365e-05
0.000160957
0.0497291
0.000106774
9.52994e-05
0.0414005
7.09402e-05
7.37308e-05
0.137162
6.82174e-05
7.40567e-05
9.1858e-05
7.82981e-05
0.600534
7.53952e-05
7.39936e-05
0.0182619
7.09854e-05
0.808767
9.11912e-05
0.173558
7.03389e-05
6.48555e-05
0.3618
0.000113665
8.68599e-05
0.170485
7.4372e-05
7.44511e-05
8.24576e-05
6.47883e-05
9.51339e-05
7.5696e-05
0.162036
7.55812e-05
7.18383e-05
0.00589703
7.46427e-05
0.00519149
0.118632
0.00102621
8.44226e-05
0.311872
7.09222e-05
0.014031
7.58569e-05
7.1078e-05
7.92714e-05
8.31443e-05
8.47592e-05
8.27857e-05
7.35648e-05
7.00818e-05
0.00869132
0.0277442
0.000218469
0.000242164
7.25565e-05
7.16157e-05
7.31451e-05
7.12002e-05
7.09513e-05
7.56323e-05
0.386021
0.00307916
7.55785e-05
8.54053e-05
7.69239e-05
8.16045e-05
0.000125502
7.1475e-05
7.58197e-05
7.22172e-05
7.27396e-05
8.88827e-05
0.000134766
0.353484
7.3566e-05
0.00398263
0.00194558
7.40223e-05
5.93624e-05
0.0482524
7.09967e-05
7.14875e-05
7.08412e-05
0.0154307
0.0599352
0.0918354
0.00960796
7.21404e-05
7.50777e-05
0.431952
7.49743e-05
0.000995917
7.5823e-05
7.00368e-05
7.33343e-05
7.27006e-05
0.000503789
7.34268e-05
0.00120729
0.0265375
0.000114956
0.00118188
0.000249462
7.55662e-05
7.46351e-05
0.000165358
7.54452e-05
7.42598e-05
7.56619e-05
7.41092e-05
7.41487e-05
7.38355e-05
7.73221e-05
7.62349e-05
7.86173e-05
0.0124296
0.00137594
0.00239347
7.52772e-05
7.5688e-05
1.38199
0.0179783
7.44378e-05
0.0349015
7.18642e-05
7.5634e-05
0.00034257
0.0212122
0.516177
0.00475948
7.07236e-05
0.165383
1.04656
0.00539522
7.30828e-05
0.000155853
0.00165885
0.000141682
0.000974895
6.92755e-05
0.230936
0.000196379
0.000150648
0.00470584
0.0199013
0.00359341
0.000146439
0.00616544
7.27186e-05
7.66559e-05
0.10018
0.786241
0.337426
7.72746e-05
7.42181e-05
2.06602
6.83939e-05
7.28959e-05
0.0255396
8.55392e-05
0.0322117
0.000251927
7.86247e-05
7.37678e-05
6.98261e-05
6.52355e-05
0.000304328
0.00529886
0.110718
0.005229
0.0815812
7.25399e-05
0.000632473
6.68648e-05
7.37977e-05
6.71031e-05
7.30626e-05
0.000103508
8.22997e-05
7.75503e-05
7.30266e-05
8.99773e-05
9.33703e-05
7.13992e-05
7.62529e-05
0.0524392
7.43051e-05
0.00013603
0.177932
7.35179e-05
6.87597e-05
0.0111133
6.52429e-05
7.2029e-05
7.12423e-05
8.87104e-05
7.63949e-05
7.3754e-05
0.00088786
0.00676373
0.000198574
0.0198633
0.0549998
0.000463143
7.30024e-05
0.0142501
0.000766083
7.7148e-05
0.0594707
7.80651e-05
0.00019307
9.19334e-05
0.000671462
7.49308e-05
0.00248038
6.68009e-05
7.81897e-05
7.3452e-05
7.2529e-05
0.00506621
7.53095e-05
0.0309146
7.24683e-05
0.0398477
0.000997782
6.95689e-05
0.000245551
0.199817
0.00132323
0.0168625
0.00160166
6.20574e-05
0.0224413
1.5109
7.42779e-05
7.69219e-05
0.000139785
7.43935e-05
0.0264842
9.45044e-05
0.0279778
0.00163581
0.0478543
0.00515323
0.178481
0.0761374
0.0426029
8.48474e-05
0.108626
0.188219
7.90554e-05
0.0600244
7.04979e-05
0.000194856
0.00416796
7.3435e-05
0.0535835
7.64405e-05
7.41819e-05
7.8969e-05
7.38254e-05
0.0046375
7.03105e-05
7.53932e-05
7.35672e-05
6.66498e-05
8.57799e-05
6.92529e-05
7.19731e-05
7.52485e-05
0.369065
0.0524467
8.89401e-05
0.0203071
0.000381912
7.40477e-05
8.80919e-05
0.00280287
0.157541
0.000293034
0.000138711
0.0277215
0.00535434
0.824898
0.000655599
0.000102609
0.254724
7.52074e-05
7.36822e-05
7.04742e-05
0.0538061
7.54397e-05
0.0310575
0.000697678
0.000384269
0.00375447
0.120449
6.64163e-05
0.0309161
7.78042e-05
6.78089e-05
8.28705e-05
0.000267737
8.62829e-05
0.00015283
9.18204e-05
0.00822717
0.0111077
0.071658
6.86495e-05
0.469009
7.18836e-05
0.350321
8.40889e-05
0.000599853
0.000612598
0.00228513
7.10864e-05
0.000373998
7.36469e-05
7.93508e-05
7.72178e-05
7.72023e-05
0.000515164
0.000175777
7.31089e-05
0.148722
0.00954848
7.76084e-05
0.0958967
0.279836
0.245251
0.0344933
7.44943e-05
0.00101862
0.00724916
9.37396e-05
6.90634e-05
0.00226786
0.389939
7.0799e-05
7.23418e-05
6.90708e-05
7.6269e-05
7.1678e-05
0.01318
0.00745122
0.00827212
0.0216151
9.38532e-05
0.0606124
0.000118488
7.57856e-05
9.37522e-05
6.55781e-05
6.86203e-05
0.0275763
0.000393561
0.000119736
0.0185922
7.54041e-05
7.66893e-05
6.55619e-05
7.70511e-05
0.000278736
7.51514e-05
0.0023772
6.94339e-05
7.46156e-05
0.00423063
0.000836718
0.0851092
7.22238e-05
7.72159e-05
7.32446e-05
8.26458e-05
9.65583e-05
7.50546e-05
0.00422608
0.343703
7.47415e-05
7.20321e-05
1.08716
7.91703e-05
7.69548e-05
7.4851e-05
8.23292e-05
0.00613847
0.208642
0.675297
0.00114638
0.0363964
7.79026e-05
0.0126993
9.496e-05
0.319408
0.0780201
7.39243e-05
0.163255
7.30078e-05
7.4832e-05
0.241605
0.000102811
7.27683e-05
0.0848612
0.261407
0.169422
0.257041
7.33042e-05
0.00250575
0.077575
0.42647
7.54165e-05
0.000105542
0.0179018
0.168092
0.0185086
0.124082
0.000218094
7.45609e-05
0.00167103
0.219445
0.000323906
0.00409936
0.000152839
0.15148
7.37725e-05
7.65835e-05
0.36342
0.153416
0.00096898
0.000300818
0.000922834
0.00110815
0.495601
7.71175e-05
0.011639
7.31968e-05
0.207943
9.45294e-05
0.00988417
0.0149653
7.23828e-05
0.449063
7.36191e-05
0.0375482
0.122191
7.16249e-05
7.38507e-05
0.0404338
7.30663e-05
7.33757e-05
7.41469e-05
6.12794e-05
0.0556484
7.35538e-05
0.194391
0.183657
7.67878e-05
7.02188e-05
0.206694
7.67211e-05
6.48182e-05
0.0980325
6.41759e-05
6.97065e-05
7.50083e-05
7.50813e-05
0.00431992
0.000221888
0.179868
7.6846e-05
7.51088e-05
0.796118
7.55387e-05
0.0323725
0.15439
7.78747e-05
6.49424e-05
0.000119177
0.000262403
0.0273157
6.8268e-05
7.14151e-05
6.65592e-05
0.000326966
7.52458e-05
0.405897
0.0464992
0.000111204
7.15698e-05
0.0249955
7.46926e-05
7.55883e-05
6.72866e-05
0.00753522
7.13508e-05
0.0725332
0.703404
7.28099e-05
8.42002e-05
0.000116887
7.14335e-05
0.157317
6.82836e-05
0.002403
8.10964e-05
7.63398e-05
7.70049e-05
0.000422931
7.20253e-05
7.76025e-05
7.24186e-05
0.156687
7.21219e-05
6.7267e-05
7.1707e-05
7.4162e-05
7.65014e-05
0.0356577
0.0633622
6.99082e-05
7.10852e-05
0.580426
6.73459e-05
0.0202996
7.98318e-05
6.70917e-05
0.396283
1.52257
0.00154451
7.51845e-05
7.44232e-05
9.37665e-05
3.98018
7.18569e-05
0.413183
7.03639e-05
0.398916
0.0166243
8.39376e-05
0.0618185
0.26168
0.988262
0.452099
0.919693
7.37058e-05
7.38714e-05
6.84788e-05
0.000168925
0.000528353
9.94099e-05
0.178652
0.000106562
0.000113405
7.1396e-05
0.000640627
0.973611
1.05158
7.42031e-05
7.97349e-05
0.0144853
7.18983e-05
0.156474
7.57354e-05
8.03049e-05
7.25376e-05
0.836405
0.0225331
0.00961871
7.33439e-05
7.54808e-05
7.66611e-05
0.440202
7.50044e-05
0.923969
7.10403e-05
7.17742e-05
0.261075
0.065698
7.4252e-05
7.35523e-05
0.98314
7.22881e-05
7.47193e-05
0.000109048
1.01364
7.96171e-05
0.00295074
9.45507e-05
0.354681
0.164185
0.00677816
0.000355473
7.1304e-05
0.00649019
0.000575644
0.00032503
0.716771
0.0813204
0.0100886
0.00633907
0.00519769
0.0048628
7.24079e-05
0.290616
0.133004
0.074356
9.73321e-05
0.000282208
0.20694
6.85117e-05
0.00265455
0.00754611
7.31649e-05
0.0179831
6.76078e-05
1.45101
0.0428901
0.0111359
0.0282489
0.022957
8.76269e-05
6.86005e-05
7.55111e-05
0.000109114
0.624174
7.19763e-05
0.00137196
0.219743
7.06842e-05
7.44474e-05
7.51364e-05
7.24623e-05
6.64859e-05
7.60056e-05
0.00026619
7.33438e-05
0.396148
7.26698e-05
0.0971273
7.0173e-05
0.000311416
7.17755e-05
7.30672e-05
0.00130691
6.89089e-05
6.93838e-05
7.66026e-05
7.10919e-05
7.00621e-05
0.279556
0.430864
0.0152973
6.06809e-05
7.33396e-05
7.29273e-05
7.25753e-05
7.02077e-05
9.37517e-05
7.28659e-05
7.55315e-05
7.96299e-05
7.56807e-05
1.09899
7.08966e-05
7.34236e-05
7.30992e-05
7.5431e-05
0.00015391
0.000118765
7.56975e-05
7.33796e-05
7.9295e-05
1.01145
7.12809e-05
0.01766
8.69936e-05
0.000127402
0.000422059
0.000450524
7.69365e-05
0.00010351
7.57152e-05
7.51995e-05
7.48589e-05
7.21928e-05
7.43749e-05
0.000140164
7.69695e-05
7.54654e-05
7.34658e-05
7.13204e-05
0.000354077
7.59474e-05
0.000660427
7.4802e-05
0.00015681
7.42038e-05
7.51626e-05
0.000147229
0.00080265
0.00023424
7.70927e-05
7.14349e-05
7.03655e-05
0.0442982
0.0445983
7.40609e-05
0.0951123
0.0499913
7.02037e-05
8.14201e-05
0.000294257
9.23831e-05
0.0407868
7.30256e-05
7.62094e-05
8.31546e-05
7.45563e-05
0.0260944
7.2051e-05
0.000113004
7.46556e-05
7.03597e-05
7.83285e-05
8.26213e-05
7.61875e-05
7.50781e-05
6.52881e-05
0.000810372
6.81673e-05
7.4819e-05
0.000110064
6.99057e-05
7.98485e-05
0.0017411
7.68899e-05
0.000276926
0.131488
0.0903347
7.42154e-05
6.45399e-05
7.31949e-05
7.22354e-05
8.24251e-05
7.44994e-05
7.55655e-05
0.000167595
7.82371e-05
7.32658e-05
7.45067e-05
7.47693e-05
7.19338e-05
7.26964e-05
7.72428e-05
7.61572e-05
0.158988
0.000111959
0.295761
7.47651e-05
0.000289896
6.6111e-05
7.37348e-05
0.131575
6.67352e-05
7.17313e-05
0.141209
6.59043e-05
0.052078
7.10178e-05
6.59723e-05
0.000101852
0.000300594
0.00138593
0.000108797
0.00463481
7.36065e-05
0.000793467
0.00229093
7.35698e-05
0.000360036
7.46135e-05
0.000199087
7.67788e-05
7.63869e-05
0.00212588
0.00177047
0.000492367
7.61639e-05
0.000851188
0.0012855
8.18222e-05
7.3919e-05
0.000373246
7.42386e-05
7.41865e-05
7.29318e-05
7.51312e-05
0.000105106
8.20966e-05
8.27326e-05
7.53194e-05
7.56942e-05
7.68567e-05
9.24992e-05
7.56084e-05
0.343961
7.48393e-05
0.000164817
0.000105655
7.35534e-05
7.24718e-05
7.32995e-05
7.35716e-05
7.529e-05
7.38754e-05
7.48262e-05
7.38825e-05
8.47679e-05
7.45245e-05
0.000103619
7.83327e-05
7.92683e-05
7.08979e-05
7.49951e-05
0.00818868
7.12827e-05
0.00013218
0.0582396
6.62163e-05
7.3083e-05
8.24823e-05
7.08421e-05
7.32112e-05
7.51508e-05
6.59294e-05
7.14115e-05
8.52871e-05
9.27165e-05
8.02791e-05
7.67413e-05
8.21458e-05
7.42946e-05
7.80522e-05
0.000749543
7.29038e-05
7.11065e-05
0.000879057
9.23293e-05
7.26313e-05
0.000131333
7.50419e-05
0.000277081
0.0006207
7.23374e-05
0.000100421
0.000184518
0.0275005
0.013784
7.61367e-05
7.39033e-05
6.77559e-05
7.38122e-05
8.38051e-05
7.73881e-05
7.27985e-05
7.30779e-05
7.36265e-05
0.0275938
6.58288e-05
7.37061e-05
7.30132e-05
0.584624
0.0462906
0.000126728
0.447048
0.000251433
7.17991e-05
8.81229e-05
7.32584e-05
0.000174331
7.25695e-05
0.00185281
7.10657e-05
7.46414e-05
0.00190342
0.217648
7.6124e-05
7.31926e-05
0.463552
7.82088e-05
0.576221
7.64647e-05
7.17497e-05
7.63362e-05
7.36171e-05
0.254894
7.5472e-05
0.244449
7.44652e-05
7.18507e-05
0.210584
7.39455e-05
7.34059e-05
9.03467e-05
0.303432
7.47222e-05
8.19758e-05
0.217613
7.0386e-05
8.99573e-05
0.318759
0.0367121
8.66138e-05
7.69758e-05
0.0211686
0.000543975
0.021701
0.208135
7.89688e-05
7.54776e-05
6.77686e-05
0.000109768
0.000101432
0.000896514
7.54916e-05
7.63574e-05
7.46331e-05
0.000660005
7.32659e-05
7.45146e-05
7.32383e-05
7.60277e-05
7.53641e-05
0.000150203
0.000504163
0.0330421
7.69023e-05
0.00335415
0.00108663
0.0376082
7.1663e-05
9.84008e-05
1.15236
8.06569e-05
0.00261461
0.000110142
0.000172929
7.24949e-05
0.000938402
6.2246e-05
7.46731e-05
7.35139e-05
0.000103114
0.132594
7.92295e-05
0.000276917
0.0409349
0.017761
7.34593e-05
7.34604e-05
0.000101814
7.52475e-05
7.36043e-05
7.54734e-05
0.000127029
7.17146e-05
0.000124189
7.80716e-05
9.27436e-05
0.0482704
0.000745509
7.59388e-05
0.101161
0.168006
7.51197e-05
0.000165908
0.00289899
0.000107762
0.0169402
7.53265e-05
0.00188976
7.8662e-05
9.77261e-05
0.609087
0.00194124
0.000102244
7.55321e-05
0.014872
0.166895
7.13898e-05
7.34237e-05
0.00150674
7.10986e-05
7.39095e-05
7.87019e-05
0.334305
7.50583e-05
7.21281e-05
0.352865
7.46303e-05
8.46493e-05
0.0379203
7.6419e-05
0.214224
7.18913e-05
0.00166372
0.418414
0.164363
7.31425e-05
7.16428e-05
7.14392e-05
0.549326
7.92253e-05
0.00123026
8.47718e-05
0.314365
0.196558
8.6529e-05
9.36331e-05
0.00766985
0.0478634
0.0876466
0.0201585
0.0490187
7.32835e-05
8.03093e-05
7.38138e-05
7.77136e-05
7.94032e-05
7.01315e-05
0.000143897
7.48653e-05
7.24295e-05
9.30571e-05
7.46199e-05
2.82166
7.71029e-05
7.02454e-05
7.32856e-05
7.86022e-05
7.12735e-05
7.24624e-05
0.0929636
0.000162196
7.47115e-05
0.000119844
6.80749e-05
7.63639e-05
7.41703e-05
7.96599e-05
6.51982e-05
7.54121e-05
7.94397e-05
0.044575
6.54803e-05
0.00857787
0.000716782
1.92468
6.47682e-05
0.000117133
0.0528389
6.57191e-05
7.43922e-05
0.838986
7.04844e-05
7.79824e-05
6.56302e-05
7.15426e-05
7.43112e-05
7.4964e-05
6.60787e-05
7.42538e-05
7.53327e-05
7.23327e-05
6.99506e-05
0.0415881
6.37767e-05
0.000139384
6.42442e-05
8.14275e-05
8.8859e-05
7.46396e-05
7.42888e-05
0.273378
7.49111e-05
6.79463e-05
6.8792e-05
7.10633e-05
6.90865e-05
7.42891e-05
6.86643e-05
0.574702
3.8158
7.66386e-05
0.00238148
8.40609e-05
7.58066e-05
6.96722e-05
0.000361294
8.73528e-05
7.42443e-05
0.000585393
7.32749e-05
7.05047e-05
0.00010086
6.60496e-05
0.149176
0.171886
7.74477e-05
0.00199515
6.77236e-05
0.203964
7.14657e-05
9.87147e-05
7.23832e-05
7.2326e-05
7.4336e-05
7.09919e-05
7.22666e-05
0.00403306
7.08671e-05
7.32857e-05
0.000113254
0.121184
0.203239
7.34497e-05
0.00380269
0.128373
8.08609e-05
0.00695345
0.792498
0.000101746
0.00925498
0.000156954
7.74072e-05
7.8054e-05
0.000430187
0.000165941
0.000368452
6.62076e-05
6.54244e-05
7.57757e-05
7.22526e-05
6.99016e-05
9.46047e-05
0.00658742
7.73748e-05
7.51816e-05
7.59219e-05
0.00126226
0.0467887
7.05359e-05
7.07303e-05
7.3623e-05
0.0251472
0.161035
7.38122e-05
8.34666e-05
0.000103037
7.55791e-05
0.000143725
0.0579998
7.39267e-05
7.7202e-05
7.63735e-05
0.0114725
8.06731e-05
7.62991e-05
0.300235