/*--------------------------------*- C++ -*----------------------------------*\
| =========                 |                                                 |
| \\      /  F ield         | OpenFOAM: The Open Source CFD Toolbox           |
|  \\    /   O peration     | Version:  v2012                                 |
|   \\  /    A nd           | Website:  www.openfoam.com                      |
|    \\/     M anipulation  |                                                 |
\*---------------------------------------------------------------------------*/
FoamFile
{
    version     2.0;
    format      ascii;
    class       volScalarField;
    location    "3.5";
    object      nut;
}
// * * * * * * * * * * * * * * * * * * * * * * * * * * * * * * * * * * * * * //

dimensions      [0 2 -1 0 0 0 0];


internalField   nonuniform List<scalar> 
108993
(
9.05818e-05
8.36031e-05
7.21794e-05
9.36197e-05
9.14571e-05
4.85598e-05
8.16274e-05
7.21488e-05
9.1294e-05
8.39428e-05
9.62133e-05
9.5262e-05
7.58859e-05
7.55541e-05
8.06174e-05
6.87495e-05
7.56818e-05
8.15863e-05
7.70012e-05
8.1997e-05
7.86518e-05
8.90806e-05
7.22467e-05
9.17891e-05
9.09484e-05
8.15948e-05
9.06539e-05
8.78301e-05
9.84993e-05
5.71794e-05
0.000101259
9.43517e-05
0.000106929
9.33102e-05
0.000218376
9.15113e-05
8.21745e-05
9.57319e-05
0.00446854
0.00343512
0.000103692
9.79396e-05
8.31129e-05
0.000132495
8.23378e-05
0.00435505
0.000107105
0.000118392
0.00010867
8.96793e-05
9.34354e-05
0.000124627
8.55545e-05
8.93297e-05
9.38822e-05
9.69794e-05
8.94914e-05
8.5254e-05
7.11687e-05
9.91875e-05
8.75731e-05
8.94268e-05
8.62653e-05
7.6877e-05
9.06022e-05
9.86721e-05
8.46375e-05
9.48111e-05
0.000102797
0.000125443
8.45194e-05
8.19508e-05
9.02438e-05
8.78233e-05
7.99415e-05
9.71736e-05
7.66969e-05
0.000105041
9.67886e-05
8.96043e-05
8.23717e-05
7.80935e-05
7.57301e-05
8.52419e-05
9.80692e-05
8.13571e-05
9.84924e-05
7.89958e-05
8.34171e-05
9.8101e-05
8.53955e-05
7.31519e-05
9.61636e-05
7.38189e-05
9.27408e-05
8.99332e-05
7.24306e-05
6.27455e-05
7.10144e-05
7.61308e-05
9.35846e-05
0.000106659
0.00010248
9.79667e-05
6.79056e-05
9.8503e-05
9.7959e-05
0.000187997
9.75225e-05
0.00423195
8.12265e-05
8.62184e-05
0.000161727
8.99123e-05
9.01966e-05
0.00118135
7.75146e-05
7.21608e-05
0.000106727
8.75236e-05
8.54346e-05
8.20226e-05
0.000907336
5.80393e-05
8.7902e-05
8.69876e-05
9.07675e-05
7.84327e-05
7.54662e-05
9.9363e-05
7.94018e-05
9.65009e-05
9.99843e-05
0.000340348
8.69853e-05
7.28458e-05
8.28037e-05
7.70595e-05
7.69611e-05
8.2591e-05
7.50708e-05
7.12596e-05
0.000107645
8.46708e-05
9.36404e-05
9.03171e-05
7.19396e-05
0.0124454
8.28165e-05
0.000264294
0.000242977
7.08061e-05
7.14382e-05
0.000270272
8.84386e-05
8.48446e-05
0.000104339
9.64643e-05
0.000218324
0.000538126
0.000269496
0.000121411
9.98029e-05
8.25418e-05
8.3358e-05
9.75241e-05
8.40356e-05
7.44329e-05
7.40718e-05
0.00010103
9.31426e-05
9.26583e-05
0.000106878
7.83844e-05
8.86117e-05
8.1965e-05
0.000831922
7.72147e-05
9.42784e-05
7.83873e-05
7.80532e-05
7.26404e-05
9.25466e-05
2.59477e-05
0.000102819
8.93323e-05
9.32447e-05
8.91813e-05
8.90769e-05
2.93735e-05
8.90709e-05
0.00010004
7.73443e-05
0.000127271
9.46585e-05
8.43635e-05
9.99824e-05
9.03003e-05
9.66e-05
3.28625e-05
9.44276e-05
0.000147439
8.51069e-05
7.98579e-05
9.65943e-05
0.00186833
8.04523e-05
0.00315909
8.46154e-05
0.00171382
0.000154997
9.01419e-05
0.000569201
0.00308315
0.00323407
6.0911e-05
7.79458e-05
8.79392e-05
8.85592e-05
0.000108537
8.7993e-05
0.000223616
0.000146191
0.000253244
7.89302e-05
6.74555e-05
8.72324e-05
9.81594e-05
0.00024743
7.16421e-05
0.00313169
8.91603e-05
7.3494e-05
7.50175e-05
8.15987e-05
7.00695e-05
9.28093e-05
8.10684e-05
0.00312404
8.88324e-05
6.17257e-05
9.3746e-05
5.67489e-05
9.50457e-05
0.000102653
8.56985e-05
0.00374548
0.000390464
9.82786e-05
9.74645e-05
8.18881e-05
9.18181e-05
8.41998e-05
9.34939e-05
9.36084e-05
9.96589e-05
9.11522e-05
8.50572e-05
0.000103123
5.63304e-05
8.7368e-05
8.25055e-05
9.86634e-05
7.32693e-05
0.000182471
8.70694e-05
9.71433e-05
0.000102773
5.59521e-05
8.54573e-05
6.19059e-05
7.23494e-05
0.00341535
0.00212133
0.0125294
8.18912e-05
9.41087e-05
0.000941455
9.67344e-05
8.65973e-05
9.32549e-05
0.00341309
0.00343843
7.90687e-05
9.27612e-05
8.8406e-05
6.84395e-05
9.3876e-05
0.000100396
0.00228479
8.45876e-05
7.29956e-05
9.72065e-05
9.21199e-05
8.90413e-05
7.24733e-05
0.000101517
8.55618e-05
0.00010988
5.00583e-05
0.00117748
0.000685468
9.45814e-05
6.80654e-05
9.03938e-05
7.1573e-05
6.73921e-05
7.61396e-05
6.62245e-05
0.00378363
9.51765e-05
9.51549e-05
7.51079e-05
8.27341e-05
9.64808e-05
0.000193502
6.67054e-05
7.81167e-05
0.00648236
0.00010334
8.20104e-05
6.35145e-05
6.29045e-05
6.87325e-05
6.97974e-05
0.000893057
0.00219501
0.000404316
8.13716e-05
9.96965e-05
0.000106265
0.000634505
0.000720251
8.3644e-05
0.00553577
8.84755e-05
8.8148e-05
9.20972e-05
9.01211e-05
7.9571e-05
8.4565e-05
0.000410491
7.98718e-05
9.30516e-05
7.98468e-05
8.31582e-05
7.83065e-05
7.80185e-05
7.67897e-05
7.49623e-05
9.09228e-05
6.00176e-05
0.0023889
0.000954679
8.34205e-05
8.63281e-05
7.81756e-05
0.00387599
8.50563e-05
4.96904e-05
0.000106506
7.9005e-05
7.1054e-05
8.25766e-05
9.1022e-05
9.53805e-05
9.35414e-05
7.84408e-05
8.75848e-05
0.00225768
7.30936e-05
9.36686e-05
7.59209e-05
0.000236101
0.000108549
0.00165336
9.71761e-05
0.000118308
0.001986
9.33401e-05
0.001494
0.000771238
9.79019e-05
7.7172e-05
8.32562e-05
5.76922e-05
7.97473e-05
0.0053648
8.22688e-05
0.00436933
0.00325096
6.10246e-05
0.00152076
7.54701e-05
0.00187705
0.00012182
0.000760072
8.84548e-05
8.2186e-05
8.60505e-05
0.00011922
0.00297019
0.00239816
8.8293e-05
9.17654e-05
6.46064e-05
7.81787e-05
5.40757e-05
8.11057e-05
0.00227545
8.04344e-05
7.79824e-05
0.00292829
7.74055e-05
8.9211e-05
9.8307e-05
0.000577212
8.89353e-05
0.00132902
8.2406e-05
0.00180737
8.4539e-05
0.000432377
6.65495e-05
9.43841e-05
0.00112464
9.22479e-05
0.000270284
0.00174553
5.70609e-05
0.00072091
0.00959395
0.000709475
8.44804e-05
8.09543e-05
8.80546e-05
8.384e-05
9.12914e-05
9.77682e-05
7.80667e-05
8.25581e-05
8.10724e-05
0.000100835
5.81054e-05
0.00305662
9.87e-05
7.70246e-05
0.000104492
8.24617e-05
6.33484e-05
8.49807e-05
8.72285e-05
9.52967e-05
0.000113479
0.000105745
8.57171e-05
8.58448e-05
8.2227e-05
0.000104251
7.61742e-05
0.00113646
8.54438e-05
0.00121596
0.000252232
8.64532e-05
6.54182e-05
7.72059e-05
0.0011253
6.16222e-05
7.61524e-05
0.000184859
9.22738e-05
9.25607e-05
8.31537e-05
0.000102512
9.74538e-05
7.31147e-05
0.000121938
0.00100089
9.7149e-05
7.80016e-05
0.000102441
9.80017e-05
9.29636e-05
0.000150151
7.71404e-05
7.54976e-05
7.32892e-05
9.48035e-05
9.91631e-05
8.67049e-05
9.55487e-05
9.37785e-05
7.74831e-05
8.49432e-05
5.89505e-05
0.000141145
9.35832e-05
6.60276e-05
8.44322e-05
7.42851e-05
8.70971e-05
6.79275e-05
8.7271e-05
9.5405e-05
0.000423568
8.26829e-05
7.52891e-05
0.00474168
8.52129e-05
9.37816e-05
8.1659e-05
9.37806e-05
9.93322e-05
8.62673e-05
8.90393e-05
7.34565e-05
8.59205e-05
0.000101147
0.000104817
0.000171036
0.000199935
8.97606e-05
9.2044e-05
0.000100872
0.000112978
8.38948e-05
9.13316e-05
0.000103043
9.86684e-05
7.47114e-05
8.04597e-05
9.05089e-05
7.92302e-05
9.1246e-05
9.93535e-05
7.97258e-05
9.15313e-05
9.58804e-05
0.0015142
7.80793e-05
0.0037158
8.48711e-05
9.93539e-05
9.88016e-05
8.342e-05
6.87338e-05
0.000104054
9.72484e-05
6.822e-05
0.00121139
7.24351e-05
0.00536406
0.000105159
9.6639e-05
7.85658e-05
9.51131e-05
0.000101026
0.00179995
7.38076e-05
9.04939e-05
8.775e-05
8.22901e-05
9.28609e-05
0.000736668
0.00288388
9.17847e-05
7.23495e-05
0.000116104
9.66148e-05
9.1681e-05
6.60193e-05
0.00251255
0.000441168
0.000477275
8.72604e-05
0.000102271
0.00137323
0.00213127
0.000106507
9.95725e-05
7.95493e-05
0.000100519
0.00010862
9.20409e-05
7.94918e-05
0.00624922
0.000879064
9.78886e-05
6.2938e-05
0.000104228
6.4918e-05
8.44255e-05
8.50793e-05
0.00214389
7.90525e-05
0.000107663
7.03681e-05
0.000101461
8.91175e-05
9.0572e-05
9.88653e-05
0.00368049
7.66597e-05
7.43257e-05
6.4781e-05
0.00241562
7.943e-05
8.54098e-05
9.14274e-05
0.000343557
9.08743e-05
0.000159632
8.37528e-05
0.000107782
8.28996e-05
9.36319e-05
8.19646e-05
0.00330314
7.61687e-05
0.000114189
8.58985e-05
9.22321e-05
0.00459632
9.87759e-05
9.76868e-05
0.000104757
0.000136474
0.00518164
9.01752e-05
0.000486882
8.5523e-05
0.000170735
0.000339206
8.40039e-05
7.34844e-05
6.56545e-05
0.00460004
8.51108e-05
9.58379e-05
8.17988e-05
9.45579e-05
8.33119e-05
7.75685e-05
7.30305e-05
7.885e-05
8.67123e-05
0.000109272
7.98446e-05
8.38129e-05
8.93229e-05
7.57734e-05
0.00605224
0.00139464
0.000139427
9.55354e-05
0.000229805
0.00160751
0.00210826
0.00255158
0.00104414
8.79211e-05
6.63556e-05
8.4314e-05
7.58921e-05
0.000142049
7.03166e-05
9.6654e-05
0.00428838
0.00163167
0.000103653
0.000105773
0.000102015
0.00227637
0.00231934
0.000103994
0.000126795
6.33424e-05
8.80131e-05
0.00564636
8.14111e-05
0.00520059
8.73169e-05
9.03767e-05
0.00389916
0.000120452
0.00334244
0.000143138
5.79982e-05
0.000771561
9.61693e-05
8.60147e-05
0.000107253
7.02005e-05
9.63885e-05
0.00103187
0.000125279
0.00261435
6.90921e-05
0.00117608
0.000135101
9.02219e-05
5.02376e-05
5.61419e-05
0.000110193
5.86345e-05
9.18495e-05
7.54173e-05
9.121e-05
7.65823e-05
8.99138e-05
0.00153829
0.011762
9.64489e-05
0.00188068
6.80178e-05
0.000132896
9.42866e-05
6.45741e-05
9.48771e-05
0.000100429
9.18825e-05
0.000116501
7.58729e-05
7.68223e-05
9.15418e-05
0.00010199
7.08514e-05
0.000163721
9.25031e-05
8.67439e-05
8.82517e-05
7.06702e-05
7.79805e-05
9.33895e-05
6.94317e-05
0.000217831
7.13926e-05
9.10754e-05
0.00010679
7.77601e-05
6.62473e-05
0.0118166
0.00127483
9.60078e-05
9.93799e-05
0.000105559
0.00011476
9.36235e-05
0.000127019
9.4601e-05
6.35531e-05
7.37323e-05
0.000109471
6.57556e-05
7.98857e-05
6.87921e-05
0.000103164
0.000108384
7.96206e-05
8.94502e-05
8.37083e-05
0.00011353
8.43809e-05
0.000108627
9.58407e-05
9.85997e-05
0.00143834
9.51292e-05
9.13645e-05
7.96026e-05
0.000624855
9.05188e-05
0.000394362
0.000200939
0.000106255
8.51073e-05
0.00113821
0.0021634
7.97938e-05
6.41272e-05
0.000405297
9.23322e-05
8.40029e-05
8.60636e-05
0.000132431
8.96565e-05
6.85297e-05
9.11337e-05
0.000389541
8.69634e-05
0.0050953
8.55227e-05
8.42632e-05
0.00849292
0.000110323
0.00247591
9.72869e-05
0.00164633
9.5568e-05
7.8588e-05
8.01271e-05
9.698e-05
8.41714e-05
9.18291e-05
9.54482e-05
9.15054e-05
8.30992e-05
7.35961e-05
7.71449e-05
9.54551e-05
8.89567e-05
8.89165e-05
9.60143e-05
7.07925e-05
0.000681183
6.89126e-05
8.63596e-05
7.41726e-05
6.86779e-05
0.00127825
7.52817e-05
8.55037e-05
9.23562e-05
0.000799225
8.28211e-05
7.2019e-05
0.000136063
7.32272e-05
0.000106902
9.72459e-05
0.00331309
8.76352e-05
0.000110535
8.1841e-05
7.34219e-05
9.22787e-05
0.000370555
0.00869777
0.000112685
6.97843e-05
9.99651e-05
8.94956e-05
0.000109012
8.80043e-05
7.59316e-05
8.5578e-05
9.52751e-05
0.00152764
8.88403e-05
0.00137923
8.9739e-05
0.00185388
9.33689e-05
9.05157e-05
5.10919e-05
8.90433e-05
8.82177e-05
0.000111497
5.21657e-05
5.92658e-05
0.000400802
8.65668e-05
0.0050549
8.12652e-05
9.52598e-05
8.60486e-05
6.90504e-05
9.66435e-05
9.51208e-05
7.37272e-05
8.05767e-05
7.64934e-05
0.00474804
8.22815e-05
8.64878e-05
9.59899e-05
0.00045927
8.06359e-05
0.000135038
0.00253793
0.00491641
7.34266e-05
8.97659e-05
9.14475e-05
0.000586288
8.29782e-05
0.000796049
0.00986853
0.00465771
8.53745e-05
8.21052e-05
0.000133012
7.93942e-05
0.000111906
7.67734e-05
8.27733e-05
9.06626e-05
0.000148622
0.000110643
0.000137505
8.22193e-05
7.96822e-05
0.000510212
9.91281e-05
8.76636e-05
0.00092129
0.0022513
6.9547e-05
9.73252e-05
8.63525e-05
8.9866e-05
0.000116648
0.000116559
0.000594288
7.13072e-05
0.000719112
0.000110892
0.000103249
9.21322e-05
6.84679e-05
9.72022e-05
8.0128e-05
9.85676e-05
0.000120638
9.94329e-05
6.83011e-05
0.000125763
8.59781e-05
6.30844e-05
0.000105331
6.93776e-05
7.36712e-05
9.55983e-05
0.000113704
7.52634e-05
8.04728e-05
0.000436452
9.32015e-05
0.00353289
7.65286e-05
8.14458e-05
8.01808e-05
0.000107912
9.61451e-05
7.06749e-05
6.35741e-05
0.000441649
9.99865e-05
0.00014205
8.8712e-05
9.25043e-05
6.00933e-05
0.00107822
8.04301e-05
0.000294493
0.00399841
8.17695e-05
7.32245e-05
9.19594e-05
7.83569e-05
7.81448e-05
0.0126381
0.000102453
0.000109945
0.000134222
9.52152e-05
9.03685e-05
8.53458e-05
8.14837e-05
0.000110793
0.000255181
6.35966e-05
8.52522e-05
6.60294e-05
0.000184152
8.1144e-05
9.19486e-05
9.29661e-05
0.00017393
7.74337e-05
7.59326e-05
7.86203e-05
6.66241e-05
8.06144e-05
8.9632e-05
8.95211e-05
0.000152074
9.79097e-05
8.88754e-05
7.58771e-05
9.62636e-05
0.00474662
7.18364e-05
7.66733e-05
7.91323e-05
8.18713e-05
6.43624e-05
0.00459416
0.000184753
0.000103052
7.15067e-05
8.14976e-05
9.97601e-05
0.000137808
0.000118194
8.42359e-05
7.60289e-05
0.0018734
7.72512e-05
0.000205151
0.000106854
0.00137185
4.63879e-05
8.8573e-05
8.88226e-05
7.75239e-05
8.74872e-05
8.83682e-05
6.20284e-05
6.48018e-05
7.98742e-05
8.48242e-05
0.000372029
9.58945e-05
9.85558e-05
0.000146417
8.30805e-05
0.000104546
0.000110543
9.98307e-05
9.59049e-05
9.35027e-05
9.5061e-05
0.000102746
0.000127506
9.24247e-05
0.000107383
9.80476e-05
0.00329266
7.16638e-05
9.34527e-05
8.97306e-05
0.000168324
0.000104292
8.51171e-05
0.00302777
9.57886e-05
0.000116608
7.90894e-05
0.0033526
8.02904e-05
9.758e-05
8.81492e-05
0.00276146
8.81681e-05
8.55101e-05
7.70722e-05
6.40937e-05
0.000106972
0.00271053
9.26728e-05
8.49654e-05
0.000104247
0.000109309
0.000123998
7.99666e-05
8.95116e-05
0.000120817
0.000354909
0.000105175
0.000423763
0.000136239
0.000116727
0.000105498
6.56795e-05
5.50767e-05
8.21343e-05
6.87967e-05
7.9264e-05
9.40787e-05
0.00136488
7.1334e-05
0.00854858
9.45853e-05
9.51025e-05
7.08213e-05
9.78235e-05
0.000170711
7.14361e-05
8.62969e-05
9.66911e-05
9.35427e-05
5.80367e-05
0.000110554
0.00161025
9.85947e-05
8.77292e-05
0.000432617
8.76712e-05
0.000126337
0.000113238
0.000143419
9.90438e-05
0.000101931
0.00290105
6.76912e-05
7.39691e-05
9.57025e-05
7.00826e-05
9.91012e-05
8.20385e-05
5.42327e-05
0.000196549
0.000101111
0.000118513
6.46455e-05
8.97843e-05
0.000100665
8.1246e-05
7.95993e-05
8.54724e-05
5.75368e-05
7.84295e-05
0.00026216
9.40872e-05
0.00207277
7.77801e-05
9.25828e-05
0.0057597
8.52818e-05
8.37512e-05
8.34745e-05
9.2056e-05
7.96106e-05
9.4275e-05
5.95729e-05
8.85369e-05
0.000101698
0.000110245
9.31643e-05
9.54971e-05
9.25537e-05
6.3807e-05
9.11331e-05
0.000106231
0.00180819
0.00165976
9.29399e-05
8.91959e-05
9.45182e-05
0.000104585
7.32466e-05
8.58415e-05
0.000474739
8.40089e-05
7.54364e-05
5.62651e-05
9.5806e-05
6.36921e-05
7.55767e-05
0.000106282
9.54583e-05
0.000469417
7.83763e-05
8.10312e-05
8.23064e-05
0.00230826
0.000103058
8.37919e-05
5.92766e-05
7.07679e-05
0.000163626
9.53163e-05
0.00014674
6.3295e-05
6.08355e-05
6.45895e-05
0.00103768
0.000100243
8.31597e-05
0.000165805
0.000105589
0.000333441
0.000171642
7.56781e-05
9.10537e-05
6.41966e-05
7.67656e-05
6.39988e-05
0.00010394
8.14017e-05
0.000203969
0.00188995
0.000115059
8.54513e-05
8.12419e-05
0.000133617
6.47317e-05
9.28466e-05
5.84882e-05
7.4401e-05
8.26656e-05
0.000587428
0.00015468
0.00058128
9.31395e-05
7.35992e-05
8.87707e-05
0.000135002
9.15029e-05
8.49468e-05
8.02882e-05
4.3885e-05
9.38803e-05
0.00255294
0.000452506
7.87818e-05
0.000824293
9.12985e-05
8.39797e-05
8.55456e-05
0.000100884
0.000110233
0.00366003
9.44422e-05
7.6091e-05
9.22766e-05
0.0047968
0.000111917
8.45844e-05
8.07884e-05
0.000107744
0.000287596
0.00182231
0.000109962
0.000102941
8.80904e-05
8.6885e-05
8.60418e-05
0.000111612
0.000102887
0.000103445
9.3798e-05
0.00123089
9.16219e-05
8.17731e-05
0.004982
7.41933e-05
9.19966e-05
9.64395e-05
9.48083e-05
0.00177545
9.30485e-05
8.90719e-05
6.07036e-05
0.00114162
9.20777e-05
9.20676e-05
8.44811e-05
9.69558e-05
9.61755e-05
0.00244489
0.00357967
0.00316981
0.000155729
0.0040909
9.94122e-05
0.00252994
0.00298713
5.85859e-05
6.49006e-05
8.24328e-05
7.78508e-05
0.000101982
9.33485e-05
7.72586e-05
7.13027e-05
7.79421e-05
8.54097e-05
8.13224e-05
0.000106793
0.00010132
0.000105657
0.000268391
0.000106547
0.0002806
0.000172681
8.84646e-05
9.04812e-05
0.000874308
0.000143028
0.00219994
8.53978e-05
9.09779e-05
7.79996e-05
8.75658e-05
8.90469e-05
8.71008e-05
6.98456e-05
8.6103e-05
0.000246695
8.80942e-05
9.72902e-05
0.000150087
0.000110823
0.000412247
9.90437e-05
9.0163e-05
0.00011086
8.22372e-05
8.96364e-05
9.85074e-05
8.69284e-05
6.97802e-05
8.72963e-05
9.74744e-05
8.11318e-05
8.53182e-05
0.000105291
6.66137e-05
8.36419e-05
8.64057e-05
0.000280107
0.000115245
0.000448563
0.00212745
9.13199e-05
0.00100878
8.35819e-05
9.64142e-05
8.91167e-05
7.26656e-05
9.46095e-05
0.00779617
0.000692114
0.000170565
8.02281e-05
0.00401989
0.000131065
8.57998e-05
9.57705e-05
9.00149e-05
0.000102627
0.0001033
0.0001103
0.000216117
9.93761e-05
8.55637e-05
7.71153e-05
9.54241e-05
8.94659e-05
0.00018492
0.000167944
0.00641513
0.00934823
0.000104852
9.15656e-05
0.000347447
8.1602e-05
6.88201e-05
9.59925e-05
9.8995e-05
8.68136e-05
8.95344e-05
7.6181e-05
0.000108518
9.45349e-05
0.00237928
8.2714e-05
8.09981e-05
0.000131732
0.000175975
7.56537e-05
9.95589e-05
0.00056792
7.88335e-05
8.63612e-05
9.80859e-05
8.22334e-05
7.19219e-05
7.63708e-05
9.5718e-05
8.13545e-05
0.000105065
0.00273038
0.00011741
0.000105464
0.00186116
6.39518e-05
8.91273e-05
0.00378479
6.73277e-05
8.47609e-05
7.15563e-05
0.000114492
0.00799564
9.83026e-05
9.02724e-05
0.000700409
7.76505e-05
0.00739587
7.10698e-05
0.00476696
6.63049e-05
5.37188e-05
0.00609278
9.45711e-05
6.07327e-05
0.00342894
9.03598e-05
9.18354e-05
8.90353e-05
5.69896e-05
9.44018e-05
0.000100959
0.00362027
8.67985e-05
7.88471e-05
0.000793105
7.899e-05
0.000563868
0.00308062
0.000362666
9.83735e-05
0.0041523
7.61527e-05
0.00105639
0.000102797
7.73082e-05
7.8725e-05
7.3621e-05
8.23383e-05
9.69045e-05
8.84111e-05
7.12934e-05
0.000858051
0.00157193
0.000134417
0.00013713
6.60367e-05
7.94259e-05
8.55262e-05
6.55007e-05
7.49806e-05
9.93747e-05
0.00269294
0.000527563
0.000100997
7.9035e-05
0.000107752
9.54581e-05
0.000105944
7.87752e-05
7.84705e-05
8.27125e-05
8.30494e-05
8.58565e-05
8.68442e-05
0.0062183
8.12917e-05
0.000749762
0.000481821
9.37645e-05
8.05865e-05
0.00210402
7.77112e-05
8.04787e-05
7.63535e-05
0.000975934
0.00240059
0.00286776
0.000933711
8.22457e-05
9.51737e-05
0.00731207
8.5077e-05
0.000214285
9.04236e-05
7.35124e-05
8.55785e-05
8.37491e-05
0.000147407
8.74989e-05
0.000235372
0.00151293
9.85743e-05
0.000226304
0.000150348
8.24638e-05
7.76873e-05
0.000128143
9.75036e-05
9.33322e-05
0.000102124
7.68619e-05
8.34528e-05
8.80646e-05
0.00011085
0.000103322
9.25857e-05
0.000977146
0.000338407
0.000524306
9.77915e-05
0.000100451
0.0127998
0.00115828
9.57847e-05
0.00180005
8.0631e-05
0.000101451
0.000149392
0.00146217
0.00561828
0.000677285
7.39295e-05
0.00314903
0.0105038
0.000670241
8.58885e-05
0.000130847
0.000350188
9.39959e-05
0.000298666
7.09021e-05
0.00399579
0.000108425
0.000135283
0.000542901
0.001309
0.000474715
8.69477e-05
0.000689574
5.59473e-05
8.31854e-05
0.003179
0.00832239
0.00503223
0.000110027
8.9228e-05
0.0158134
6.71612e-05
8.50865e-05
0.00134504
0.000102101
0.00222668
0.000117102
7.72112e-05
8.71987e-05
5.65715e-05
5.47134e-05
0.000128852
0.000757121
0.00327185
0.000732969
0.00256049
8.5576e-05
0.000229781
6.00215e-05
8.93084e-05
6.11981e-05
8.48953e-05
9.30667e-05
8.06616e-05
0.000103801
8.27069e-05
8.84298e-05
8.01079e-05
5.7968e-05
0.000100726
0.00222579
6.48502e-05
0.000129042
0.00409138
6.49169e-05
6.29304e-05
0.000769008
5.497e-05
8.09138e-05
7.33619e-05
8.3435e-05
0.000104502
8.82804e-05
0.000336942
0.00045329
0.000129835
0.00119426
0.00263612
0.000195714
8.51613e-05
0.000866354
0.000280227
8.51693e-05
0.00216499
0.000110516
0.000140536
9.2112e-05
0.000249204
9.30901e-05
0.000414205
6.18083e-05
0.000102861
8.68963e-05
8.243e-05
0.000728701
9.18311e-05
0.00130927
7.87665e-05
0.00179547
0.00032585
5.695e-05
0.000147767
0.0045122
0.000388906
0.00141457
0.000398107
4.94511e-05
0.0012167
0.0131811
9.34162e-05
0.000104677
8.45047e-05
9.34651e-05
0.00118696
8.34995e-05
0.0013472
0.000396053
0.00202161
0.000523898
0.00442497
0.002508
0.0015448
8.10028e-05
0.00313368
0.0039211
0.000102517
0.00209398
6.87737e-05
0.000120776
0.000649548
8.4606e-05
0.00210045
8.21947e-05
8.29544e-05
8.90897e-05
7.85359e-05
0.000542454
7.66971e-05
9.46996e-05
8.78004e-05
5.66847e-05
6.78133e-05
6.81827e-05
8.19657e-05
8.03264e-05
0.00507121
0.00247454
8.02259e-05
0.00155548
0.000130274
9.09208e-05
7.59947e-05
0.000543379
0.0041621
0.000141533
0.000105123
0.00203653
0.000642249
0.0113868
0.000247543
6.8342e-05
0.00533115
9.7439e-05
8.57168e-05
7.19568e-05
0.00205909
6.32337e-05
0.00191169
0.000196685
0.000145022
0.00058722
0.00293748
5.63634e-05
0.00161823
8.31511e-05
6.18444e-05
7.61002e-05
0.000100127
6.24759e-05
8.35625e-05
7.67898e-05
0.000848522
0.00105161
0.00266902
6.53601e-05
0.00668015
7.67041e-05
0.00571343
0.000112864
0.000282523
0.00025723
0.000477398
7.41482e-05
0.000152974
8.74578e-05
8.44086e-05
0.000103892
9.9581e-05
0.00021397
0.000117748
8.38777e-05
0.00280993
0.000932022
8.45654e-05
0.00313631
0.00349519
0.00456777
0.00160392
8.60888e-05
0.000329106
0.000783194
8.65916e-05
6.76206e-05
0.000420667
0.0059914
6.91326e-05
8.21286e-05
6.90799e-05
0.000101589
7.16355e-05
0.00107905
0.000917508
0.000975608
0.00144155
9.21278e-05
0.00209371
0.000106796
7.76826e-05
8.5545e-05
5.89179e-05
6.0901e-05
0.00161614
0.000134177
7.84762e-05
0.00135877
9.68574e-05
9.75165e-05
6.09045e-05
0.000106454
0.000163271
9.47801e-05
0.000455513
7.2683e-05
8.93362e-05
0.000558776
0.000255474
0.00320869
8.1344e-05
0.00010674
8.36465e-05
9.14111e-05
9.02865e-05
9.47484e-05
0.000616602
0.00534936
9.27216e-05
8.22723e-05
0.00991836
8.58265e-05
8.30773e-05
8.36713e-05
8.71748e-05
0.000694198
0.00292006
0.00649102
0.000382534
0.00164454
9.00664e-05
0.00125728
8.93884e-05
0.00531028
0.00239591
9.06419e-05
0.00359167
8.53297e-05
9.09362e-05
0.00488542
9.87284e-05
8.12318e-05
0.00203535
0.0043419
0.00405304
0.0035617
8.57874e-05
0.000481039
0.00217975
0.0055831
9.46959e-05
0.000110181
0.0017461
0.00386286
0.00167064
0.00185776
0.000104286
8.86568e-05
0.000396398
0.00418788
0.000177204
0.00069821
0.00011436
0.00267274
9.11854e-05
0.000107648
0.00642982
0.00469282
0.000295739
0.000176766
0.00029933
0.000358245
0.00733674
8.96573e-05
0.0011549
8.82767e-05
0.00476284
9.1409e-05
0.00101746
0.00110397
8.51863e-05
0.00702181
8.21292e-05
0.00125545
0.00264437
7.70122e-05
8.85336e-05
0.00184197
8.51274e-05
8.16672e-05
9.08364e-05
4.77725e-05
0.00207407
8.84635e-05
0.00341346
0.00387441
0.000106897
7.04985e-05
0.00436458
0.000107328
5.58506e-05
0.00258714
5.43372e-05
7.23158e-05
9.82482e-05
9.52404e-05
0.000565906
0.000116528
0.00400605
0.000109966
9.40995e-05
0.00903267
9.84157e-05
0.00145522
0.00396059
0.000113218
5.5468e-05
0.000110641
0.000149155
0.00205882
6.66734e-05
7.96813e-05
6.14252e-05
0.000189124
9.33305e-05
0.00643654
0.00267444
9.67363e-05
7.85685e-05
0.00159007
9.42015e-05
8.41116e-05
6.31885e-05
0.000895902
7.7375e-05
0.00248771
0.0072899
8.49816e-05
8.84402e-05
9.32213e-05
6.65519e-05
0.00405473
6.57206e-05
0.000528069
0.000107743
0.00010272
8.59874e-05
0.000204974
8.14611e-05
0.000103334
8.29695e-05
0.00390059
8.26551e-05
6.34283e-05
7.84669e-05
8.68913e-05
7.8588e-05
0.00168456
0.00250116
7.22965e-05
7.6083e-05
0.00652688
6.32702e-05
0.00130746
0.000114395
6.16658e-05
0.00573548
0.0106173
0.000374202
9.52131e-05
9.4999e-05
0.000100597
0.0175811
8.13961e-05
0.00579412
7.31864e-05
0.00583478
0.00114711
7.82145e-05
0.00243233
0.00533347
0.00890994
0.00570422
0.00823083
8.01763e-05
9.13063e-05
6.92306e-05
0.000114646
0.0001949
8.99091e-05
0.00394204
8.45901e-05
9.80892e-05
8.37326e-05
0.000197329
0.00883096
0.0111957
9.36261e-05
8.04326e-05
0.00119675
7.0086e-05
0.00239286
0.000102438
7.61804e-05
8.1255e-05
0.00792688
0.00143756
0.00119035
8.56805e-05
9.90205e-05
0.000106846
0.00645273
7.98497e-05
0.00957421
6.91297e-05
7.83823e-05
0.00426988
0.00196567
6.46271e-05
9.10201e-05
0.0092215
8.15611e-05
9.45514e-05
0.000112075
0.00789544
7.89227e-05
0.000460047
7.50713e-05
0.00548978
0.00421779
0.000724956
0.000169362
7.86162e-05
0.000782563
0.000238105
0.000143074
0.00775717
0.00304459
0.000904085
0.00076885
0.00071112
0.000692849
6.41122e-05
0.0050405
0.00440477
0.00236885
7.60147e-05
0.000145973
0.00431194
6.7271e-05
0.000509946
0.000792717
8.72019e-05
0.00121076
6.42636e-05
0.0110457
0.0020384
0.00060899
0.00146499
0.0013671
8.44807e-05
6.73199e-05
9.71832e-05
9.87133e-05
0.00781552
8.20425e-05
0.00032771
0.00552586
7.40372e-05
7.63668e-05
7.17033e-05
8.47713e-05
5.86763e-05
0.000103561
0.000142553
8.70529e-05
0.00486235
8.54517e-05
0.00234803
7.0407e-05
0.000192698
8.12828e-05
8.30105e-05
0.000363201
6.49836e-05
6.99017e-05
0.000106242
7.02621e-05
6.36505e-05
0.00474029
0.00667943
0.00122152
7.54433e-05
8.58822e-05
8.48055e-05
8.28965e-05
7.62223e-05
9.95207e-05
8.32771e-05
0.000100521
8.36522e-05
8.54089e-05
0.01049
7.49711e-05
8.77848e-05
8.47295e-05
9.00453e-05
0.000114514
0.000114447
8.39275e-05
8.43445e-05
9.67078e-05
0.00911584
7.79771e-05
0.0013109
0.000127185
9.05613e-05
0.000212662
0.000241279
0.000108172
0.000101341
9.81128e-05
9.47813e-05
9.17286e-05
7.9652e-05
9.09378e-05
7.91044e-05
0.000107984
9.84134e-05
9.04095e-05
7.77415e-05
0.000187436
0.000100345
0.00020462
9.28812e-05
7.92867e-05
8.99399e-05
9.48553e-05
9.23829e-05
0.000266119
0.000131999
0.000109448
7.58013e-05
7.61904e-05
0.00112612
0.00109409
9.11158e-05
0.00228293
0.00129602
7.26309e-05
7.37841e-05
0.000132723
9.26952e-05
0.0010586
8.1415e-05
0.000101872
0.000105732
9.24433e-05
0.000986687
7.98477e-05
8.51756e-05
9.34296e-05
7.14094e-05
0.000117759
7.24531e-05
8.09928e-05
9.40819e-05
5.95196e-05
0.000248225
6.72749e-05
6.8323e-05
9.40009e-05
6.48287e-05
8.88815e-05
0.000498032
0.000106109
0.000123133
0.00303856
0.00243847
8.95496e-05
5.50783e-05
6.54737e-05
8.04541e-05
8.91811e-05
9.14768e-05
9.84911e-05
0.000120468
0.000114613
8.25494e-05
9.01433e-05
9.25667e-05
7.94885e-05
8.13089e-05
9.48696e-05
7.66924e-05
0.00372355
9.0651e-05
0.00508134
8.50952e-05
0.000202898
6.01536e-05
9.16056e-05
0.00318187
6.01906e-05
7.84281e-05
0.00280385
5.83282e-05
0.00219136
7.56698e-05
6.04911e-05
9.32913e-05
0.000155576
0.000367012
7.63194e-05
0.000712053
8.61052e-05
0.000216156
0.000524148
8.81135e-05
0.000163542
9.58556e-05
0.000143839
6.7966e-05
9.55174e-05
0.000417666
0.000313128
0.000207626
9.34317e-05
0.000264897
0.000266895
9.94212e-05
8.7732e-05
0.000193713
9.12024e-05
8.59675e-05
8.53959e-05
9.71866e-05
8.54094e-05
0.000107252
9.37396e-05
7.37753e-05
9.97826e-05
0.000106319
9.96747e-05
9.24988e-05
0.00551943
9.33278e-05
0.000115081
0.000109771
6.87703e-05
8.07416e-05
8.67176e-05
8.7187e-05
8.78431e-05
8.78324e-05
9.50154e-05
8.88644e-05
6.77279e-05
9.37121e-05
0.000106958
0.000119566
8.69993e-05
7.66077e-05
9.45747e-05
0.000513191
7.63217e-05
0.000102097
0.00245576
5.98007e-05
8.72497e-05
0.000106841
7.71342e-05
8.54012e-05
9.56693e-05
5.18031e-05
7.98691e-05
9.20461e-05
9.74863e-05
8.51141e-05
0.000110061
0.000106483
5.3919e-05
0.000115714
0.000311653
5.22564e-05
7.82421e-05
0.000323472
5.62491e-05
8.54399e-05
0.000104021
9.79313e-05
0.000169685
0.00020911
7.91432e-05
6.08536e-05
0.000143615
0.00168326
0.000716623
0.000104131
8.93034e-05
5.41667e-05
9.21075e-05
9.35112e-05
0.000109005
8.37842e-05
8.51078e-05
8.67756e-05
0.00156304
5.84824e-05
9.16556e-05
8.5553e-05
0.00555058
0.00225491
0.000116555
0.00460533
0.000141494
7.90779e-05
8.42684e-05
8.43805e-05
0.000128106
8.14661e-05
0.000516594
7.76521e-05
9.14951e-05
0.000437751
0.00300111
0.000104134
8.60555e-05
0.0044098
7.57759e-05
0.00520754
0.000104555
7.79281e-05
0.000103905
8.51126e-05
0.00305209
9.77854e-05
0.00317951
9.34279e-05
8.03507e-05
0.00301113
9.08388e-05
8.60154e-05
9.96567e-05
0.00384671
9.47711e-05
9.01694e-05
0.00294075
7.32156e-05
8.98006e-05
0.00390246
0.00124718
8.76698e-05
0.000105402
0.00112303
0.000221975
0.000921331
0.00413013
0.000110024
9.74228e-05
6.05538e-05
0.00011041
8.14019e-05
0.000198046
9.85042e-05
8.53141e-05
9.48154e-05
0.000166222
9.06613e-05
9.10264e-05
8.82773e-05
9.84882e-05
8.67016e-05
0.000134125
0.000139733
0.00170457
0.00010584
0.000402139
0.000222324
0.00190401
7.94356e-05
9.10426e-05
0.011734
0.000132067
0.000300038
9.41634e-05
0.000108585
8.46464e-05
0.000206135
4.71499e-05
5.25991e-05
8.38888e-05
6.42159e-05
0.00353044
5.87583e-05
0.000113241
0.00194765
0.00138508
8.91085e-05
8.67607e-05
7.17408e-05
9.71167e-05
8.91572e-05
9.5036e-05
0.000105875
8.03587e-05
0.000138746
0.00010829
0.000104163
0.00227418
0.00019814
0.000102666
0.00346448
0.00461751
9.43813e-05
8.0768e-05
0.000332607
9.21457e-05
0.00126115
7.81371e-05
0.000430604
7.43603e-05
9.4799e-05
0.00690021
0.000326599
7.62569e-05
7.63123e-05
0.000856975
0.00401773
7.81252e-05
8.49118e-05
0.000289912
7.96765e-05
8.74338e-05
8.0721e-05
0.00589662
9.00612e-05
8.14488e-05
0.00408735
9.38075e-05
9.22157e-05
0.00174329
0.000105132
0.00303638
8.21893e-05
0.000424647
0.00653072
0.00349155
8.67356e-05
7.92229e-05
7.7907e-05
0.00548219
8.27027e-05
0.000393012
9.81332e-05
0.00448447
0.00314765
8.77492e-05
6.40457e-05
0.000713471
0.00240581
0.00347921
0.00122558
0.00269865
8.5766e-05
9.00237e-05
8.88668e-05
0.000110217
0.000104802
7.03746e-05
7.98099e-05
9.30007e-05
7.25337e-05
6.43211e-05
9.45581e-05
0.018667
0.000108192
7.45763e-05
8.72765e-05
9.98117e-05
7.8878e-05
8.16192e-05
0.00301051
8.7302e-05
9.21526e-05
9.43988e-05
6.45778e-05
0.000101722
9.31265e-05
0.000107013
5.63945e-05
8.59577e-05
0.000117243
0.00202487
5.86956e-05
0.000759054
0.0002233
0.0132688
5.64099e-05
8.81076e-05
0.0020495
5.38006e-05
8.79159e-05
0.00997764
7.68893e-05
0.000110459
5.85996e-05
7.94258e-05
9.0585e-05
8.97398e-05
5.49357e-05
9.43161e-05
7.92584e-05
8.02313e-05
6.44607e-05
0.00212118
5.33398e-05
0.000111298
5.51188e-05
0.00010669
9.02298e-05
7.86348e-05
7.29792e-05
0.00597654
9.47765e-05
6.43491e-05
6.56791e-05
7.26176e-05
6.89612e-05
8.84426e-05
5.667e-05
0.00548727
0.0180585
7.86336e-05
0.000400567
8.16584e-05
9.30369e-05
7.07529e-05
0.00013784