/*--------------------------------*- C++ -*----------------------------------*\
| =========                 |                                                 |
| \\      /  F ield         | OpenFOAM: The Open Source CFD Toolbox           |
|  \\    /   O peration     | Version:  v2012                                 |
|   \\  /    A nd           | Website:  www.openfoam.com                      |
|    \\/     M anipulation  |                                                 |
\*---------------------------------------------------------------------------*/
FoamFile
{
    version     2.0;
    format      ascii;
    class       volScalarField;
    location    "3.5";
    object      p_rgh;
}
// * * * * * * * * * * * * * * * * * * * * * * * * * * * * * * * * * * * * * //

dimensions      [1 -1 -2 0 0 0 0];


internalField   nonuniform List<scalar> 
108993
(
0.249036
0.248163
0.234666
0.0798458
0.112028
0.168106
0.311001
0.114609
0.101669
0.279742
0.22495
0.220278
0.0935207
0.244643
0.211632
0.500255
0.305161
0.230155
0.0874851
0.171982
0.138814
0.0669452
0.245626
0.182625
0.0903732
0.165058
0.070751
0.180194
0.165226
0.147471
0.0849429
0.240864
0.0689445
0.287596
0.0610575
0.132845
0.0763705
0.146545
-4.69476
-6.34581
0.221032
0.144128
0.242469
0.0728698
0.545762
-5.73441
0.0717178
0.302202
0.169587
0.153079
0.080701
0.411919
0.242366
0.0833458
0.237419
0.201932
0.0684658
0.113242
0.117133
0.112201
0.1154
0.0982888
0.144728
0.128204
0.0829437
0.168416
0.0907865
0.108948
0.246893
0.466802
0.179974
0.104172
0.126902
0.107836
0.185435
0.0986945
0.129528
0.313928
0.0681978
0.0923049
0.167142
0.249313
0.102507
0.197677
0.228328
0.243663
0.192704
0.226479
0.111892
0.0974178
0.100339
0.0939995
0.102516
0.103895
0.10307
0.253194
0.09225
0.161555
0.0871508
0.102996
0.103679
0.0881996
0.197819
0.241812
0.150761
0.100853
0.150604
0.0315974
0.0782346
-4.90571
0.480594
0.0981765
0.306308
0.456242
0.145805
1.56153
0.117187
0.198797
0.464244
0.091477
0.243835
0.0820261
2.136
0.22796
0.141191
0.451041
0.227273
0.19356
0.077422
0.0681799
0.260601
0.076096
0.131253
0.673305
0.136697
0.204
0.0833483
0.140097
0.146549
0.245318
0.221106
0.116669
0.482382
0.0788495
0.0713818
0.132908
0.155889
-8.7216
0.226535
0.992668
0.965347
0.162012
0.297737
0.871301
0.11919
0.32915
0.217885
0.0221928
0.0409804
0.084017
0.89613
0.0163671
0.0953252
0.167793
0.236846
0.368751
0.114399
0.132871
0.131499
0.158059
0.0938506
0.194456
0.406139
0.179983
0.123232
0.15036
0.391455
0.133891
0.163827
0.112965
0.294989
0.110244
0.0394331
0.223115
0.245819
0.166989
0.0499017
0.227372
0.227097
0.22474
0.191174
0.0507713
0.194686
0.349979
0.146213
0.24462
0.222176
0.168504
0.143963
0.220787
0.115281
0.374963
0.151911
0.00760068
0.377772
1.69883
0.148826
-6.25996
0.150487
0.918559
0.099198
0.15652
0.350889
0.471182
6.59277
0.150207
0.215982
0.148345
0.0359427
0.0827343
0.101351
1.11608
0.316284
0.37988
0.0952485
0.135922
0.0221391
0.17639
0.61955
0.159987
2.66391
0.17924
0.135085
0.219942
0.111928
0.088647
0.0729877
0.0866675
-2.47514
0.021803
0.101317
0.153512
0.116466
0.0146569
0.0436626
0.49899
0.568128
2.2122
0.0227073
0.0872446
0.107976
0.0801668
0.122211
0.152365
0.0330017
0.0157722
0.0331217
0.231713
0.082828
0.168034
0.162365
0.186454
0.409913
0.469492
0.0543754
0.171234
0.163941
0.159842
0.167942
0.140049
0.114126
0.216788
3.72623
1.06612
-8.42836
0.15853
0.0927769
1.95653
0.224282
0.174755
0.170694
0.402685
-5.25536
0.160651
0.091573
0.3443
0.0930273
0.154377
0.250528
6.30864
0.246362
0.147221
0.156118
0.149951
0.147257
0.167594
0.0910594
0.155894
0.40367
0.116948
2.03914
1.39504
0.152772
0.116577
0.126251
0.249363
0.0498752
0.204762
0.250248
2.44619
0.117351
0.104185
0.350967
0.138839
0.248304
1.54694
0.129385
0.336422
-2.78126
0.136506
0.227064
0.128035
0.198215
0.19737
0.169412
0.528843
1.07601
1.3135
0.0923465
0.247426
0.0899525
1.66806
0.912909
0.126902
1.01494
0.160021
0.130337
0.109198
0.148805
0.0870151
0.118101
2.12111
0.122531
0.159125
0.216316
0.222249
0.188228
0.131228
0.09236
0.191647
0.148803
0.167886
4.79787
7.66961
0.0594697
0.145993
0.160972
-6.8065
0.212706
0.138179
0.326795
0.11701
0.187395
0.188174
0.181329
0.164924
0.181163
0.0940461
0.219098
2.19235
0.298064
0.317242
0.193913
0.988675
0.165684
0.729706
0.257303
0.150944
1.28218
0.192107
0.976174
1.21649
0.15302
0.544996
0.222343
0.249525
0.30734
-1.79502
0.177213
-6.95436
1.03547
0.249511
0.877683
0.255105
5.25863
0.145537
1.08425
0.092062
0.479983
0.102452
0.156508
1.55255
1.73227
0.128893
0.0832819
0.249542
0.249403
0.160016
0.251195
1.38841
0.237058
0.195629
0.717004
0.167391
0.232712
0.112856
0.731165
0.479239
4.52642
0.118775
1.93198
0.238385
1.05026
0.136509
0.112797
1.06522
0.148924
1.52584
1.07494
0.114164
0.699543
-9.49955
1.15268
0.0736672
0.146146
0.280078
0.036157
0.135547
0.137456
0.124547
0.224239
0.172215
0.180755
0.125907
-2.39683
0.301444
0.272029
0.417693
0.175584
0.125924
0.254471
0.109186
0.17811
0.285348
0.13843
0.203777
0.227913
0.124626
0.197376
0.10689
2.03055
0.246171
2.02728
1.15861
0.428022
0.215713
0.178594
2.10046
0.220509
0.233835
0.450671
0.120523
0.10253
0.309098
0.0481404
0.447606
0.126063
0.302254
8.62092
0.50664
0.14686
0.110319
0.118072
0.178188
0.308076
0.223161
0.226611
0.219359
0.419149
0.270791
0.228305
0.196132
0.482163
0.233343
0.530983
0.145246
0.314097
0.167932
0.192408
0.212784
0.0803943
0.119587
0.137496
0.202051
0.535608
1.6093
0.18852
0.12973
-3.73655
0.189547
0.450489
0.275698
0.111679
0.296366
0.186524
0.0150316
0.17019
0.182336
0.205228
0.231582
0.0248844
0.00958332
0.265463
0.255691
0.163795
0.549567
0.253309
0.186258
0.549775
0.255017
0.151675
0.136096
0.538094
0.251412
0.150113
0.149582
0.296895
0.233225
0.332907
6.85375
0.153375
6.6197
0.115509
0.145988
0.203044
0.153269
0.13618
0.536189
0.169776
0.101957
2.07263
0.148507
2.54223
0.155228
0.225054
0.151132
0.0951083
0.22146
-0.081816
0.197677
0.282305
0.115426
0.22114
0.26541
1.45
1.11289
0.217555
0.127464
0.216598
0.217021
0.228117
0.250094
8.28
1.40153
1.39936
0.274092
0.210889
1.63563
1.09186
0.300653
0.304975
0.209727
0.182984
0.0917513
0.190319
0.52687
-3.44812
1.26321
0.248418
0.137404
0.233914
0.16499
0.20738
0.188442
1.08574
0.104703
0.111228
0.163986
0.265044
0.42706
0.202095
0.229448
-0.339262
0.368381
0.242853
0.170659
0.264986
0.168549
0.358012
0.23528
0.810865
0.252981
0.481966
0.237095
0.24691
0.193524
0.414982
0.165769
-0.646808
0.0997359
0.491881
0.0996332
0.204585
-7.07012
0.228743
0.114759
0.118792
2.28064
-5.79203
0.423815
1.20197
0.189323
2.13379
0.766943
0.411999
0.169171
0.167402
-6.403
0.550469
0.415877
0.238192
0.409297
0.168931
0.340204
0.131221
0.421094
0.297452
0.311372
0.520882
0.420624
0.408701
0.544954
3.73322
7.21789
0.553003
0.210703
0.648505
4.04976
-1.56099
-0.60002
7.71488
0.160445
0.349197
0.145729
0.15816
0.202586
0.262632
0.411055
2.17386
6.8076
0.430094
0.275645
0.387309
5.2785
4.22604
0.0998825
0.377698
0.443242
0.148201
-8.22107
0.267611
-5.6466
0.428903
0.405895
-4.46802
0.414198
-3.27873
0.43958
0.435833
0.550311
0.0545095
0.205247
0.442174
0.260855
0.202853
1.34068
0.369263
1.28306
0.37037
0.89013
0.405333
0.134467
0.120051
0.11945
0.454066
0.121831
0.537811
0.232907
0.129219
0.119552
0.343678
5.48706
-7.04091
0.177042
-1.79572
0.206169
0.383295
0.461053
0.11651
0.41679
0.208339
0.437208
0.320486
0.492278
0.24368
0.460852
0.322757
0.454157
2.1988
0.119641
0.412972
0.442557
0.507636
0.468705
0.271358
0.116818
0.588662
0.132799
0.213561
0.274945
0.233281
0.491111
-11.3912
1.08867
0.346945
0.301563
0.376962
0.392087
0.357834
0.423704
0.218212
0.13359
0.129412
0.337719
0.132756
0.311071
0.128957
0.439643
0.500681
0.183604
0.396236
0.132763
0.339827
0.278771
0.493995
0.191187
0.250002
5.34838
0.0847904
0.178518
0.283697
0.037985
0.127271
2.08878
1.86211
0.268496
0.292447
1.52207
1.5783
0.303086
0.19297
0.637445
0.296339
0.29192
0.287398
0.139026
0.301908
0.11746
0.13751
0.496318
0.100832
-9.42097
0.135321
0.200536
-8.97542
0.422877
-0.901794
0.266692
1.12827
0.147732
0.304098
0.452366
0.100435
0.28722
0.426638
0.124728
0.208396
0.238741
0.169624
0.168163
0.273455
0.212549
0.105194
0.498988
0.181706
0.727615
0.244096
0.234536
1.47243
0.244565
0.78168
0.285784
0.252202
0.32632
1.13836
0.341144
0.247702
0.458623
0.377456
0.251996
0.33389
-2.46123
0.440171
0.270532
0.537169
0.245545
0.283629
0.502548
-6.40015
0.286499
0.20226
0.310268
0.407727
0.316602
0.249245
0.423303
0.280237
0.234672
0.312653
0.278362
0.894081
0.286733
-0.720894
0.288147
0.28834
0.250044
0.542716
0.287732
0.243526
0.250049
0.250055
0.209426
0.27843
-5.70473
0.0784474
0.0751308
0.261863
0.558462
0.364558
0.553746
0.0989506
0.180883
0.518551
-5.50726
0.159328
0.533129
0.53584
0.480688
0.212127
0.374457
4.53779
-5.89456
0.352209
0.54628
0.276598
0.929416
0.113564
0.964455
-12.8071
-2.28815
0.0989315
0.0906292
0.515197
0.425019
0.363714
0.0287368
0.118332
0.5133
1.91986
0.103632
0.646695
0.293442
0.189676
0.891222
0.0934336
0.186978
1.00948
-0.64704
0.199443
0.286034
0.116089
0.235358
0.445403
0.403493
1.00107
0.218984
0.984607
0.465898
0.443406
0.218264
0.243209
0.419359
0.249337
0.171029
0.0250635
0.379194
0.195085
0.412944
0.127878
0.149675
2.30654
0.149003
0.496177
0.518914
0.402165
0.40511
0.115839
1.19814
0.189852
-1.17039
0.247111
0.21247
0.0215738
0.345071
0.362807
0.150465
0.307226
0.999912
0.340549
1.95356
0.153553
0.38229
2.17457
1.4438
0.238562
0.45253
0.426139
0.399221
0.305065
0.393375
0.286027
0.378097
-11.3133
0.355729
0.609038
0.557137
0.336845
0.485405
0.244981
0.295116
0.571239
1.38267
0.303776
0.0891668
0.134649
0.581293
0.0939874
0.169136
0.073501
0.600675
0.253934
0.226557
0.243423
0.134655
0.239538
0.23903
0.181222
0.591379
0.236821
0.265094
0.273067
0.099018
-8.48512
0.179568
0.187804
0.136236
0.178667
0.136662
-2.5023
0.318872
0.18887
0.249561
0.121552
0.421036
0.448372
0.32
0.133375
0.249098
1.80154
0.233215
0.265662
0.580829
0.104499
0.16825
0.257713
0.254051
0.176691
0.321896
0.311339
0.242152
0.168134
0.230861
0.124004
1.58583
0.223989
0.310396
0.0122981
0.223177
0.32915
0.414533
0.256114
0.264869
0.222267
0.173513
0.273312
0.308069
0.185613
0.0758385
0.115112
0.0606655
0.281677
0.312203
0.148232
0.454002
0.466747
0.0901109
5.99624
0.432197
0.469303
0.282277
-6.36426
0.399709
0.533575
0.313808
0.148769
0.143917
0.181016
0.181382
0.364565
0.437533
2.16249
0.50539
0.24595
0.346339
0.226447
0.493617
0.290969
0.503572
0.359365
0.494403
0.36024
0.670885
0.492296
0.445398
0.157719
0.137627
0.139069
0.172482
0.137939
0.107961
0.312109
0.567852
0.149542
-9.05474
0.363197
0.223031
0.181547
0.466156
0.671566
0.137998
0.362986
0.216322
0.318005
0.138987
0.373215
0.572701
0.536367
0.185565
2.05707
0.128092
0.19536
0.210805
0.0134951
0.0697465
0.227333
8.01355
0.532012
0.0933548
0.205522
0.139371
0.267582
0.252296
0.138504
0.284387
0.218284
0.205367
0.0987524
0.229003
0.230268
0.177224
0.226895
0.055368
0.175578
0.17181
0.289322
0.245774
-0.949945
0.453164
0.387674
-0.843213
0.247201
0.114667
0.40917
0.162925
0.241968
0.238968
0.197004
0.249014
0.228132
0.513558
0.273183
0.283911
0.199996
0.19612
0.232083
0.260551
1.25848
1.01058
0.184085
0.153121
0.14983
0.255505
0.308046
0.146672
8.57122
0.120502
0.110523
0.116948
0.104967
0.137983
0.256839
0.395596
0.209328
8.63818
0.256141
0.254636
0.284436
1.35388
0.289069
0.381292
0.175507
0.22224
1.11574
0.11644
0.357492
0.249604
0.249617
0.249437
0.12648
0.338171
0.0885469
0.54517
0.119487
0.599023
0.514764
0.2492
0.199027
0.226866
0.306981
0.228074
0.315989
0.111197
1.50111
-4.66154
0.483342
0.158268
0.0895377
0.476328
0.128004
0.0915163
0.128092
0.129617
0.126631
0.801398
0.474931
0.892274
0.202953
0.530682
0.162734
0.464
2.08411
0.238073
0.0710293
0.526565
0.41464
-0.778719
0.578252
0.323949
0.544434
0.192911
0.191176
0.335406
0.119937
0.269201
8.13924
0.168538
0.2627
0.15631
0.178846
0.186155
0.143231
0.287945
0.267712
2.17326
-2.00883
0.13946
0.311859
0.272007
0.362516
0.171565
0.28683
0.125726
0.338612
0.0939309
1.94446
0.405002
0.172163
0.356551
0.173514
0.0519907
0.112853
0.295017
1.10739
0.254049
0.48795
0.455717
1.09492
0.435443
0.227319
0.147376
0.509883
0.195914
1.53848
1.65365
1.47521
2.05301
1.64282
0.0512668
1.65244
1.49274
0.249555
0.249522
0.16274
0.464083
0.201136
0.11239
0.153546
0.249948
0.0755721
0.212857
0.204207
0.571825
0.116158
0.196074
0.0413417
0.285068
0.046298
0.0106725
0.170325
0.347404
0.59933
0.00614243
0.026447
0.363405
0.210819
0.249006
0.160513
0.526477
0.221962
0.209601
0.292678
0.0211985
0.268265
0.278254
0.0206726
0.278413
0.8077
0.271124
0.537318
0.29644
0.465634
0.541456
0.323067
0.146789
0.145131
0.188889
0.327884
0.127176
0.0842407
0.35467
0.145207
0.339323
0.279148
1.42376
0.310476
1.96326
0.747852
0.134517
2.33277
0.0815306
0.148363
0.150004
0.277717
0.243196
-2.45444
1.61729
0.468544
0.36879
-4.14337
2.19764
0.159273
0.246528
0.110941
0.333453
0.337274
0.255491
1.0474
0.0798038
0.0982311
0.294182
0.376451
0.147546
0.311465
0.319187
-5.08255
-6.45436
0.378135
0.102028
1.9767
0.128746
0.213611
0.524371
0.297153
0.295894
0.197507
0.213806
0.315361
0.367221
-4.26342
0.474083
0.318833
2.03406
0.275328
0.212029
0.534431
0.723386
0.198845
0.270947
0.327159
0.338088
0.46661
0.11394
0.311509
0.46764
2.31936
1.77353
0.317697
0.320753
1.37469
0.254587
0.153691
-4.23515
0.255327
0.0855083
0.261116
0.280012
-9.97332
0.167062
0.18437
0.698747
0.261927
-9.76695
0.257375
-7.89707
0.259549
0.3292
1.21379
0.41932
0.328048
-5.31356
0.327963
0.267741
0.549043
0.168238
0.123733
0.191833
-5.53417
0.475555
0.192248
2.29259
0.152958
0.30783
-0.161819
1.04295
0.437272
-0.811661
0.173014
1.32564
0.185949
0.18493
0.215273
0.1029
0.0846868
0.0713309
0.119506
0.124521
2.27353
0.827786
2.33023
0.540435
0.12531
0.167174
0.159061
0.12494
0.125069
0.14486
-1.52147
0.0894186
0.154932
0.159929
0.17845
0.487178
0.257969
0.189168
0.346056
0.180146
0.184182
0.17938
0.330596
-6.24243
0.318646
1.60865
0.64853
0.187499
0.35626
0.848249
0.175263
0.162032
0.162047
8.66378
-7.9212
-1.06412
0.796995
0.149285
0.117176
-1.5651
0.158216
0.331884
0.239828
0.160908
0.278855
0.14997
0.307917
0.151296
0.315537
-0.322004
0.603979
0.325544
2.25344
0.564131
0.118147
0.468623
0.179768
0.170539
0.149865
0.171579
0.0884685
0.160657
0.252884
0.122864
0.429838
0.771095
1.64385
1.94733
0.128452
0.16035
-6.66122
0.869368
0.122757
2.1146
0.150315
0.164198
0.666064
2.92149
0.707927
1.56269
0.159026
-3.2674
-10.7274
0.828713
0.162327
1.39871
0.684586
0.610445
0.545362
0.249446
1.26517
0.583319
0.0470273
0.592636
1.78015
0.647672
0.334923
-0.0380994
0.331335
0.248833
-1.11579
-8.49024
-0.40243
0.109906
0.095839
-7.8644
0.11612
0.24225
1.31847
0.0663224
-1.33341
0.327735
0.213539
0.23763
0.234071
0.221229
0.317375
1.79202
-5.62808
1.5709
-0.533108
0.159309
0.731804
0.323045
0.268497
0.222732
0.244159
0.25424
0.22519
0.127381
0.241369
0.340048
0.236
0.217778
0.418865
0.76248
0.31607
0.40443
-5.09426
0.556437
0.131883
0.283156
0.21387
0.221807
0.187832
0.199387
0.129013
0.245346
1.3678
0.778151
0.431369
0.567101
-5.68753
0.444316
0.220627
2.0209
1.54905
0.319121
-0.96418
0.0683413
0.486896
0.0740913
1.25128
0.26204
0.410933
0.221471
0.122984
0.13199
0.121556
0.884531
0.0964299
1.53951
0.0869493
0.376095
1.44563
0.18077
0.0136489
-4.32985
1.19123
0.370318
1.33829
0.167719
1.06695
-7.29181
0.141135
0.253724
2.14421
0.47728
1.72526
0.189754
1.43559
0.322821
8.09529
1.94691
-5.40109
1.85446
0.551968
0.247421
3.56771
0.973727
0.523535
-0.548869
0.267293
0.447161
0.55934
0.281333
0.214851
0.545885
0.396154
0.180437
0.261864
0.248933
0.229943
0.139246
0.24952
0.332895
0.121902
0.225748
0.256806
0.202003
-5.0084
0.338436
0.358253
0.115987
0.437526
0.116785
0.472554
0.896669
-7.71487
0.602249
0.586141
0.567872
0.289903
-5.24964
0.727181
0.332524
-3.76788
0.201809
0.257525
0.28034
-2.17807
0.355228
-0.0705765
0.636326
0.585902
0.864105
1.90765
0.340211
-0.0909864
0.262507
0.128845
0.154028
0.338691
0.189466
0.354143
0.44068
-0.117761
0.906067
2.38981
0.44043
-1.69147
0.278092
-5.67539
0.358586
0.632726
0.865682
0.864361
0.207547
0.27172
0.169497
0.0990596
0.110032
0.0498486
0.423593
0.43025
0.284098
-0.843179
0.434284
0.510673
-3.38678
3.04747
-5.2769
-0.00154885
0.133537
0.916269
2.02748
0.14221
0.226681
0.0896163
-0.78742
0.124132
0.244333
0.23988
0.266001
0.109202
0.369919
0.521344
0.385537
-0.184401
0.10019
0.578274
0.479518
0.126347
0.516653
0.1825
0.323654
0.659607
0.388286
0.322309
2.66239
0.26571
0.27761
0.319388
0.252303
0.0319755
0.176137
2.32834
0.268297
0.226331
1.56633
0.761357
0.643987
0.279401
0.252878
0.176863
0.263606
0.278542
0.236396
1.42412
1.71275
0.239988
0.103028
-8.08807
0.274758
0.0831162
0.270679
0.278492
0.360721
3.04338
-6.54242
1.36824
1.45018
0.0897453
1.32748
0.284406
0.34898
5.10006
0.132296
1.93523
0.128539
0.149683
-6.76212
0.0547413
0.243854
6.63702
2.42407
3.03709
5.10639
0.191404
2.10958
1.98734
1.40779
0.254197
0.479745
6.32306
5.12182
3.74421
-1.28753
0.287276
0.269733
2.26738
-0.0459697
4.96204
1.1212
2.19482
6.48871
0.154015
0.124609
1.44258
2.10456
1.96629
1.60734
1.7802
1.04908
-7.5798
0.0953762
1.73679
0.133863
0.885456
0.207898
1.90248
1.57157
0.178418
-9.43965
0.202612
6.61687
4.4935
0.169362
0.210001
3.23776
0.201461
0.183047
0.10012
0.168326
5.35428
0.130866
1.78529
-5.92942
0.100559
0.109675
-1.39961
0.250527
0.241795
1.91868
0.242292
0.241756
0.142683
0.204395
0.892718
0.873191
-6.96135
0.205068
0.122462
-2.29711
0.147282
-1.61581
-4.26544
0.100471
0.138119
0.354037
0.217346
-0.608913
0.114364
0.180836
0.11631
0.0136716
0.0997203
-5.69805
-0.0094994
0.363856
0.173109
0.92705
0.26046
0.471364
0.114497
1.86776
0.140548
-0.437909
2.00069
0.244498
0.155579
0.229915
0.524349
6.53266
0.114653
1.62225
0.416052
0.116598
0.447885
0.467554
0.151672
0.291438
0.167296
-7.17695
0.165704
0.114192
0.149186
0.235794
0.176861
1.23067
-0.983002
0.114641
0.114672
-3.58619
0.135886
0.49304
0.314366
0.13665
-5.94981
-10.0108
0.584007
0.230022
0.230192
0.474109
-12.3464
0.208965
-5.20089
0.199983
-8.62821
8.5401
0.188975
-1.04309
2.00625
-6.72995
-6.67004
-4.83449
0.285126
0.185258
0.145279
0.486128
0.473775
0.440039
-5.99815
0.21618
0.431983
0.18946
0.668949
-5.46363
-7.60441
0.187361
0.554341
0.643675
0.135328
3.49244
0.231951
0.139115
0.163
-6.03026
2.09331
1.55019
0.169926
0.137058
0.19458
-6.56914
0.278304
-10.1946
0.13499
0.134639
-3.37041
0.66395
0.136489
0.216611
-6.98586
0.231212
0.235429
0.325443
-2.22552
0.553049
1.98079
0.134837
-5.56554
-2.08789
0.130201
0.940777
0.273313
0.724101
0.0996073
0.265544
-6.84707
-2.19372
0.691581
0.746137
0.53948
0.785938
0.130744
3.64403
-6.64713
0.930907
0.1325
0.968583
-1.0136
0.120027
3.90105
1.18064
0.13913
0.344794
0.130845
-8.37127
1.42496
0.767674
4.49144
1.43748
0.17005
0.132765
0.219433
0.25344
1.52698
0.163197
0.725693
-4.90489
0.121947
0.12234
0.121457
0.221045
0.24804
0.159496
0.391059
0.186002
-1.53614
0.217717
-1.01409
0.122489
0.425644
0.238071
0.385799
0.166541
0.120466
0.120639
0.199002
0.309765
0.361426
-5.24381
-6.37689
0.539214
0.412123
0.308286
0.316515
0.165413
0.249435
0.433949
0.312518
0.252702
0.509137
0.535158
-6.89912
0.313053
0.296079
0.208781
0.361371
0.491868
0.0521781
0.33777
0.276463
0.552533
-6.16628
0.274267
0.327034
0.147191
0.361257
0.706445
0.671302
0.158659
0.311326
0.272165
0.224113
0.284907
0.254914
0.233456
2.34524
0.20973
0.199937
0.231715
0.303631
0.865727
0.186877
0.474701
0.181647
2.34916
0.187002
0.109637
2.34376
0.486517
0.455217
0.251104
0.159921
0.164023
6.538
-1.66918
0.143349
-0.579479
-0.835
0.255263
0.364938
0.381658
0.501258
-0.538053
0.14316
0.257735
0.356438
0.226279
0.142986
0.304595
0.00737928
0.261219
0.291982
0.207134
0.0146168
0.179946
0.191637
0.0108375
0.537946
0.21683
0.0159974
0.5068
0.00864004
0.40761
1.9475
0.191375
0.00295922
1.19855
1.28262
0.232491
0.249949
0.0486974
0.223144
0.337653
0.22524
0.207893
0.62777
0.254126
0.229259
0.238851
0.242521
0.304548
0.224947
0.520844
0.560892
-1.92795
0.61746
0.998121
0.520451
0.508649
0.249864
0.204384
0.984296
0.249804
0.262116
1.25941
0.249895
-1.09058
0.239015
0.249731
0.350986
0.628868
2.28009
0.472927
2.2421
0.239313
0.477493
2.10955
0.230516
0.639293
0.222484
0.442346
0.445642
0.501272
2.15811
0.430498
1.81347
0.492518
1.88149
0.45608
0.331227
0.140106
0.664756
0.369663
0.426326
0.287567
0.245789
0.428327
0.269882
0.396354
0.492236
0.145365
0.140366
0.246872
0.440445
-5.63281
0.154831
0.372882
0.323097
0.183463
0.313433
0.160235
0.34683
0.292628
0.297777
0.241308
0.15431
0.251895
0.161191
0.170003
0.175142
0.36131
0.233608
0.156106
0.773939
0.233788
0.523635
-1.3439
0.168331
0.2616
0.432548
0.168792
0.179723
0.203732
0.0794151
0.165828
0.547436
0.545199
0.413034
0.206906
0.349469
0.0790337
0.464998
0.50964
0.0845341
0.166097
0.296162
0.082973
0.168452
0.553301
0.150576
0.461351
0.143038
0.213755
0.080461
0.365918
-2.26521
7.92005
0.259117
0.144978
0.0812147
0.178375
0.273242
0.243411
0.142958
0.123387
0.283564
5.70331
0.193263
0.125404
0.127873
-6.06507
-1.31786
0.487113
-5.53055
0.181426
0.260348
0.349524
0.3235
0.00714023
0.246605
1.09726
0.273899
0.203216
0.615721
-4.6806
0.216737
0.206917
-5.7237
0.323193
-5.72425
0.217175
0.368683
0.219965
0.24306
-4.54586
0.218224
-4.39352
0.28897
0.231992
-1.83431
0.270693
0.240863
0.256422
-4.65887
0.272774
0.51473
-2.47717
0.257637
0.56763
-5.95876
2.0308
0.470498
0.149644
2.0939
0.807886
2.07825
-2.84505
0.0849941
0.235383
0.432168
0.258876
0.433857
0.735681
0.2408
0.236278
0.148009
0.722851
0.240678
0.264667
0.294675
0.131272
0.421667
0.0189504
0.793657
-3.82486
0.151652
0.572095
0.731975
-3.88356
0.232039
0.275627
-9.53839
0.0948655
0.757029
0.501922
0.289757
0.218925
0.766163
0.118247
0.118627
0.335071
0.116862
-3.00256
0.421517
0.423302
-4.61429
-0.319252
0.238833
0.292087
0.429035
0.262034
0.176468
0.226486
0.330157
0.296827
0.458709
0.266359
0.521196
-3.77767
0.430684
0.249535
-4.36282
-4.09128
0.184812
0.426138
0.669512
0.521311
0.384257
0.520222
0.583644
0.530936
0.337561
-4.81204
1.13219
0.409936
0.527233
1.09566
-3.60654
0.237185
0.271916
0.98252
0.366788
0.286634
0.591361
-6.2279
0.356348
0.20638
1.07222
0.254266
0.225152
-0.454401
0.181765
-1.41033
0.175382
0.355216
-4.14072
-3.76448
0.162123
0.21858
0.132296
1.99022
0.339191
0.421145
0.314926
0.0741823
-2.8917
0.356658
0.192829
0.495188
-0.266324
-1.5928
-0.796446
-1.63247
0.274533
0.493738
0.2546
0.412443
0.0723581
0.245847
0.189265
0.217366
0.255795
0.181757
0.25498
-6.4926
0.254114
0.338912
0.232777
0.426789
0.431508
0.246044
-0.373309
0.184981
0.271116
0.383768
0.239831
0.269051
0.238241
0.330341
0.185856
0.412883
0.350628
2.78362
0.182293
0.410335
0.255807
-11.0845
0.166183
0.286625
2.37314
0.165835
0.251103
-6.15973
0.191822
0.360256
0.165438
0.234528
0.259065
0.333026
0.165489
0.238571
0.298533
0.171451
0.520329
0.0901137
0.165128
0.350433
0.165056
0.377648
0.412881
0.180056
0.0720062
-9.02914
0.244386
0.2589
0.121914
0.296834
0.256398
0.120168
0.114885
-6.99326
-8.30095
0.140378
0.350303
0.177587
0.0935592
0.256793
0.33017
0.174484
0.249301
0.517657
0.233584
0.172371
0.4723
0.256756
-2.34772
7.91882
0.187485
0.0763072
0.258976
-0.0366269
0.170117
0.223594
0.184882
0.18375
0.184845
0.17449
0.177205
0.448011
0.25723
0.239343
0.299716
-3.28055
-2.00552
0.177589
0.909394
-2.58541
0.0653991
1.18583
-1.73287
0.0435591
0.286836
1.63256
0.271591
0.186431
0.0661916
0.265776
1.18717
0.24747
0.247277
0.186886
0.232201
0.248697
0.294971
0.304796
0.377108
0.460277
0.182288
0.3036
-1.50789
0.24804
0.266702
0.164487
0.608406
-4.60196
0.155995
0.250996
0.0618817
0.262598
0.663102
-5.84887
0.242025
0.320884
0.4248
-0.311433
0.106899
0.2375
-5.92511
0.153379
0.158282
0.157839
0.152728
0.455935
0.379377
0.254275
0.364798
0.275412
0.235833
0.232741
0.158171
-7.00501
0.698704
0.168827
0.329598
0.158809
0.159332
0.150657
-9.8941
2.51959
-0.150206
0.256614
0.18339
0.0414338
0.179126
0.303083
0.402729
0.547091
0.200043
0.158327
0.253753
-6.22145
-7.32295
0.292844
0.159142
0.630571
0.872048
-2.12522
0.795287
-1.56883
0.316308
-2.23537
1.78572
0.137336
0.233185
0.138811
0.253059
0.161124
0.263406
0.419683
-8.97799
0.301409
1.61975
-1.40718
0.311773
0.576536
0.562072
0.771417
0.369045
-1.06272
0.387273
-3.99897
0.763849
0.123791
-0.363666
0.0109485
0.282122
0.204104
-8.3266
0.25771
0.117866
-4.5009
-1.22776
0.126228
0.236927
0.0655322
0.13781
0.289457
0.117213
0.158115
0.414079
-5.83024
0.160912
0.330798
0.344083
-0.719428
-3.53005
0.250258
0.122542
0.137872
-0.532727
0.180541
0.211963
0.403167
0.121776
0.252611
0.15123
0.177879
-9.09313
0.337549
0.17208
0.113983
0.168542
0.241113
0.251217
0.335125
0.149019
0.288778
0.237786
0.166002
0.285051
0.147137
0.183328
0.150259
0.25586
0.23958
0.186202
0.289509
0.163875
0.181812
6.3955
0.186183
0.761219
0.28996
0.109473
0.152694
0.194574
0.200004
0.294755
-4.84932
0.757254
-5.90627
0.841781
0.268119
-1.30381
0.122065
0.82154
0.778562
0.185422
0.96776
0.204287
0.30016
0.135921
0.209404
0.0816762
0.179485
0.282721
1.13309
0.115962
-6.20237
0.114097
0.256216
0.294267
0.118958
0.258225
0.174901
0.314003
-7.01211
0.622891
0.157994
0.12289
0.26644
0.728732
0.251366
0.366105
-4.02846
0.300597
-4.81939
0.12681
0.135764
0.291779
-5.27702
-3.43753
-4.86707
-5.37259
-0.156689
-0.555104
-6.15537
3.3556
-5.08956
0.233901
0.166791
0.183319
0.181926
-0.217046
-2.97937
-0.0128387
0.708961
-1.28805
0.216857
0.283253
-3.61724
0.672874
0.160157
0.115619
0.130108
0.724885
0.857963
2.3312
0.13909
0.716775
-6.30342
0.228551
-9.55539
1.64286
0.649285
5.86877
0.14917
0.59213
5.17246
0.198346
0.15532
0.253098
0.336095
0.165442
0.137318
6.67854
0.136007
0.110188
-0.289586
0.172494
6.63767
-2.25676
0.153246
0.259589
1.70275
1.5115
0.451836
1.53347
0.555786
1.07902
0.265983
0.12838
1.4249
0.475799
1.65693
1.80473
0.394069
0.322214
0.519323
-5.90739
-5.65245
0.12507
0.244487
1.49301
0.162314
-3.18452
0.165325
0.180298
0.136692
1.56029
0.2042
0.737082
0.0651436
0.19018
0.296898
1.50375
1.44646
0.182923
0.12073
0.59121
-6.08546
-5.67745
0.0767019
7.13634
-7.83206
0.836888
-5.91938
0.263522
6.79799
0.204534
0.239817
0.172839
0.128451
0.158097
0.111617
0.151136
-5.94251
0.123578
0.290511
0.133069
0.130536
0.17384
0.137824
0.193865
0.0787626
-2.8145
0.133214
0.108912
2.28238
0.175154
-5.15361
0.417014
0.10242
-7.39306
0.270965
0.107539
0.211795
2.9352
0.325589
0.119134
0.475672
0.259659
0.231194
0.12366
0.347416
0.164748
0.0905267
0.149483
0.0981241
0.130484
0.230626
0.282661
1.62807
0.105462
0.291354
0.140163
1.8674
0.142505
0.373628
0.24354
0.605044
0.236496
0.236017
0.232991
0.0211705
0.337454
0.246103
0.136024
0.159682
0.082632
0.174204
-3.2793
0.127454
0.112772
0.183533
0.234369
0.246567
-5.95305
0.161534
0.161988
0.157498
0.341385
0.185492
0.261072
0.154326
0.292638
0.144863
0.0999806
0.246344
0.0638951
0.215932
0.235464
0.0967352
0.243049
0.202061
0.243646
-9.13573
0.442464
0.265168
0.272522
0.212596
0.215853
0.192027
0.244106
0.144461
0.427296
0.357619
0.21447
0.214388
0.127365
0.168716
-6.37848
0.269924
0.0970181
-6.14632
0.24811
0.0171972
0.165585
0.107181
0.20766
0.240676
1.00609
0.249328
0.104034
0.196461
-6.50649
2.60588
-0.92692
0.280502
-1.55828
-0.392559
0.304195
0.210617
0.219844
-6.86909
0.185802
0.143422
0.19286
0.215424
0.551452
0.167446
0.18219
0.190494
0.292491
0.284398
0.1013
1.95633
0.0803197
1.51892
0.667835
0.0742476
0.464735
0.0177354
0.181279
0.0804992
0.170906
0.234086
0.340963
0.0744054
0.439087
-1.51214
0.211479
0.830294
-1.58674
0.291634
0.0714532
0.142744
0.0539536
0.250572
0.0716526
0.0504623
0.0509263
0.150457
-0.325501
0.267463
0.228371
-4.15627
0.169776
-0.35259
2.10181
1.39716
0.280205
0.0516886
1.6007
0.0882298
0.0509167
0.168794
1.14473
-0.53879
-1.051
0.219567
-0.776836
0.165093
0.364377
0.153396
0.531953
0.141607
-10.6521
2.05978
0.162549
0.158999
0.690558
0.219979
0.15561
0.801229
0.0526017
0.155543
-3.90548
0.116347
0.308219
0.0530521
2.10214
0.0128124
0.21203
0.00580431
0.11963
0.287696
0.0152716
-5.50205
0.186712
0.447382
0.00280059
0.253954
5.28392
0.19798
0.0114482
0.162585
-4.74239
0.248562
1.35369
-1.41689
0.704625
0.123133
-6.69621
1.77252
0.00543823
0.144559
-5.24186
2.01651
0.135831
8.56336
0.690635
0.311446
0.261836
0.258103
8.55955
0.22233
0.211934
0.185207
0.139393
0.636881
0.139363
-0.20855
0.177913
0.420258
0.137973
0.128483
0.363551
0.137925
0.247724
0.215773
0.169502
0.367003
-5.24129
7.27114
-1.3808
6.92156
2.19396
7.43954
0.235941
0.170851
0.127061
6.63838
-4.76837
-3.45224
0.719578
0.333939
-0.397889
7.32719
-9.92409
-3.87593
0.124187
-6.32916
-10.1624
6.93795
0.0999227
-0.218351
2.25449
-0.309969
-1.91669
0.888728
1.90809
-5.21611
0.309513
-2.71457
0.331069
2.10481
0.285353
-9.46921
-4.44363
0.220626
0.297812
1.81144
-0.806133
0.288857
0.475157
0.12672
0.110711
-5.79399
0.355921
0.239114
0.22319
0.112758
0.331625
0.148449
-2.58376
-0.0742188
0.116002
0.22639
-4.278
0.284189
-6.62879
-4.37587
-4.03587
0.284532
0.146704
0.189589
-6.96207
0.137097
0.133345
0.408753
0.366178
0.257027
-4.4015
0.308739
0.258645
-6.07919
4.29336
0.153913
0.218561
-3.8389
0.226423
0.237712
4.88324
0.113497
0.115483
0.371936
1.79779
5.73736
-5.35133
0.222102
0.313968
0.144639
3.71813
0.374121
2.09814
3.77221
0.106261
0.36425
0.106501
0.340299
0.0918689
0.161674
4.86782
0.0999517
-4.50246
0.111207
0.110315
1.54324
0.238731
0.289018
0.371182
5.11687
-0.790767
0.108781
0.176361
0.509472
0.727204
0.190483
0.270022
5.31471
0.117016
0.310447
0.435087
0.109597
0.209544
0.163462
0.205992
0.199287
0.0490414
0.140991
0.241084
0.779382
0.209537
3.45793
7.46434
1.88698
0.777623
0.161624
0.388433
0.0251263
0.198637
0.775956
-6.41266
-2.67512
0.76613
0.879392
-0.396036
0.183468
0.369524
-0.0340619
1.40432
0.887822
0.477604
0.154136
0.928865
0.202853
0.201337
0.0741494
0.372281
0.641013
0.237163
-1.74932
0.0732273
0.265012
0.215507
0.884384
-1.29814
0.16743
0.915547
0.867853
-2.08735
0.96504
0.9288
0.0890037
0.052482
1.03754
0.275504
0.109917
0.173219
0.100906
0.0760644
0.270545
0.0480975
0.641862
7.53262
0.966431
0.500621
0.452075
0.294655
0.187942
0.0736799
0.0764927
0.672587
0.141052
0.160917
0.143504
0.784757
0.351627
-5.97761
0.815354
0.558869
2.03421