/*--------------------------------*- C++ -*----------------------------------*\
| =========                 |                                                 |
| \\      /  F ield         | OpenFOAM: The Open Source CFD Toolbox           |
|  \\    /   O peration     | Version:  v2012                                 |
|   \\  /    A nd           | Website:  www.openfoam.com                      |
|    \\/     M anipulation  |                                                 |
\*---------------------------------------------------------------------------*/
FoamFile
{
    version     2.0;
    format      ascii;
    class       surfaceScalarField;
    location    "3.5";
    object      phi;
}
// * * * * * * * * * * * * * * * * * * * * * * * * * * * * * * * * * * * * * //

dimensions      [1 0 -1 0 0 0 0];
oriented        oriented;


internalField   nonuniform List<scalar> 
210647
(
0.00037197
-0.000265575
-0.00033629
0.000229779
-0.000234771
0.000226936
0.000825912
-0.000818076
-2.56759e-05
2.59125e-05
-1.85038e-05
1.82355e-05
-5.80712e-05
-8.28731e-05
0.000178153
-3.71658e-05
-1.94381e-05
4.28323e-05
-1.34572e-05
-9.87452e-06
2.23112e-06
7.64522e-06
-9.6e-07
-8.88262e-06
-0.0021032
0.000335593
0.00107257
0.000695
3.37154e-07
-6.85555e-07
3.86925e-07
6.07729e-05
9.09256e-05
4.34454e-05
-0.000195116
-2.46427e-05
0.000298409
-0.000262726
-1.11835e-05
-1.38629e-05
4.55089e-05
-2.06963e-05
-1.10684e-05
-3.0931e-06
2.97954e-05
1.48931e-05
-4.1703e-05
-4.51429e-05
2.77374e-05
3.12576e-06
1.43094e-05
-3.46124e-06
5.91872e-05
-4.38121e-05
-1.20035e-05
-5.74002e-05
1.86509e-05
-3.73227e-05
7.60115e-05
3.55868e-05
-3.72847e-05
6.70077e-05
-6.5358e-05
-0.000338823
0.000398292
-1.24624e-05
-4.70997e-05
3.4935e-05
-2.64826e-05
4.95679e-05
-5.81155e-05
-1.68558e-05
4.24148e-05
2.02396e-06
-2.75546e-05
-0.000147863
-5.87485e-05
-0.000162813
0.000369456
1.19248e-05
2.28173e-06
-1.41854e-05
3.02755e-05
0.000346357
-0.000227257
-0.000149353
-4.01711e-05
4.65696e-05
-5.93008e-05
5.28417e-05
6.49738e-05
-7.22809e-05
-6.27807e-05
7.00695e-05
-2.56655e-05
8.43017e-06
-1.00122e-05
2.72927e-05
4.31681e-05
-9.35496e-05
0.000145526
-9.50289e-05
6.26828e-05
8.28127e-05
-2.70281e-05
-0.000118451
0.000274713
0.000219685
-3.05433e-05
-0.00046384
-0.000506831
0.000303184
-0.000119579
0.000323298
3.35676e-05
-1.90699e-06
-3.0225e-05
-1.42446e-06
-8.34907e-05
2.77185e-05
-9.46872e-06
6.52792e-05
-4.15965e-05
6.82599e-05
3.24278e-05
-5.92451e-05
-3.32566e-05
9.59564e-05
-0.000134594
-0.000602374
0.000604083
0.000132712
0.000386609
0.000330784
-0.00122375
0.000506371
-2.02334e-05
3.48882e-06
6.05625e-05
-4.37613e-05
6.51148e-05
-1.70377e-05
6.75447e-06
-5.48122e-05
-2.66434e-05
7.47009e-05
-4.80241e-05
-0.0362276
-0.0181545
0.0333139
0.0199631
0.00238487
-0.0110473
-0.0162015
0.024873
0.000582574
0.000497744
-0.000399379
-0.000681029
-1.99576e-05
-1.20618e-05
-2.98144e-05
6.18539e-05
-4.84394e-05
4.68588e-05
1.46695e-06
-1.04611e-05
-9.77772e-05
0.000108277
-0.000106972
-0.000155054
-1.07798e-05
0.000272827
-0.0101179
-0.000429715
0.0052293
0.00530412
3.18761e-05
0.000620031
-0.00145846
0.000838363
0.000302373
-0.000319133
-0.000100266
0.000117165
5.22817e-05
5.29755e-06
-0.000285752
0.000228153
-8.09519e-05
4.90948e-05
-2.2183e-05
5.40727e-05
-0.00292148
-0.000296953
1.38782e-05
0.00320542
6.37084e-05
0.000143354
-0.000865133
0.00065807
-2.09252e-05
4.97681e-05
-3.65121e-05
7.69989e-06
6.21832e-05
3.03674e-05
6.13102e-05
-0.000154012
9.49106e-05
7.28558e-05
-3.9333e-05
-0.000128497
-8.89912e-05
0.000168675
7.18011e-06
-8.6844e-05
-2.3431e-05
1.51015e-05
-2.35273e-06
1.07321e-05
3.34255e-05
3.55007e-05
-4.77866e-05
-2.1119e-05
4.12043e-05
-6.00436e-05
6.63448e-07
1.82481e-05
4.85385e-05
-5.55176e-05
-9.71245e-06
1.67411e-05
2.8417e-07
2.30192e-05
-6.93076e-05
4.60487e-05
-1.2423e-05
4.43378e-05
-7.863e-05
4.67504e-05
-6.6014e-05
-1.18527e-05
-2.03979e-05
9.83548e-05
8.22138e-06
6.10317e-05
-6.17238e-05
-7.49393e-06
-0.000160019
0.000322455
4.46992e-05
-0.000206979
-2.6776e-05
-1.19521e-05
3.8753e-05
-4.02526e-05
6.08426e-05
1.27178e-05
-3.32512e-05
6.88748e-05
3.60312e-06
-0.000175561
0.000102883
-0.00921461
0.00406391
0.000651777
0.00449882
9.11336e-07
-9.37535e-05
1.58242e-05
7.70069e-05
-3.81318e-05
1.52723e-06
4.63153e-05
-9.67233e-06
4.25492e-05
-3.62904e-05
4.02059e-05
-4.64176e-05
6.16573e-06
-5.8463e-05
1.42135e-05
-0.000122323
0.000432116
0.000169357
-0.000479091
7.06278e-05
-3.93393e-05
-2.88394e-05
-2.4126e-06
-6.81959e-05
2.26084e-06
-0.000803569
0.000538755
2.70833e-05
0.000237429
0.000181256
-0.000120092
9.29443e-05
-0.000154084
1.05652e-05
-7.56847e-05
1.30198e-05
5.21444e-05
3.85663e-06
-7.4463e-05
-2.54225e-05
9.60349e-05
5.94101e-05
-9.03499e-05
9.93079e-05
-6.84669e-05
2.96123e-05
7.58472e-05
-4.95737e-05
-5.58639e-05
1.28513e-05
-6.51269e-06
-6.36962e-06
-5.10605e-05
6.21919e-06
-2.9245e-05
7.39356e-05
-1.84942e-05
2.47009e-05
8.76777e-06
-1.50826e-05
-4.06401e-05
-3.01624e-05
6.2652e-05
8.09582e-06
1.65135e-05
-1.16815e-05
-1.72119e-05
1.23078e-05
-8.37414e-06
-8.65095e-06
4.24793e-05
-2.54042e-05
4.65516e-05
1.73809e-05
-1.84199e-05
-4.54507e-05
-6.08807e-05
2.22277e-05
3.99234e-05
-1.22448e-06
3.07544e-05
3.37041e-05
7.32148e-06
-7.17626e-05
-1.27928e-06
-3.85794e-06
-5.56793e-05
-4.4181e-06
3.97765e-06
4.66335e-07
4.534e-05
-4.53166e-05
-2.41979e-05
2.42328e-05
-7.89061e-05
7.56254e-06
1.56603e-05
5.55362e-05
4.39846e-05
6.7959e-06
-2.00089e-05
2.1166e-05
3.52305e-06
2.09916e-05
-4.56772e-05
-4.19868e-05
4.03892e-05
-4.16801e-05
4.32933e-05
1.37435e-05
5.10228e-06
-2.01031e-05
1.27796e-06
3.30642e-05
-5.56936e-05
-1.364e-05
3.63291e-05
-6.82689e-05
2.03008e-05
0.000309825
-0.000261803
0.000100758
-9.42662e-05
-1.20774e-05
5.51807e-06
8.00773e-05
6.16207e-05
-9.1133e-05
-5.0725e-05
2.10561e-05
-4.82401e-05
2.83463e-05
-1.14983e-06
4.41214e-05
7.82147e-05
3.47178e-06
1.29602e-05
-9.46068e-05
-0.00108109
-0.000354421
-0.000163751
0.00159928
-1.12899e-05
7.04414e-05
-5.03315e-05
-8.78161e-06
-0.0103577
0.00693666
-0.0270437
0.0298223
-0.000327852
0.000172734
-0.00019274
0.000347986
2.23639e-05
4.4029e-05
-0.0014413
0.000173463
0.00126803
0.000339346
-0.000964064
-0.000273891
0.000899177
4.77057e-05
-9.6745e-06
9.06474e-06
-4.70799e-05
0.0036339
-0.0108718
-0.00394192
0.0111801
3.62206e-05
-1.80748e-05
1.71565e-06
-1.98217e-05
1.05428e-05
3.70008e-05
-1.04863e-05
-3.70834e-05
-0.00134311
0.00132846
0.000285577
-0.000271147
2.41588e-05
7.22783e-05
-6.27054e-05
-0.000105636
6.95251e-05
5.19771e-06
3.07884e-05
0.000137091
-2.1871e-05
-0.000133426
1.82305e-05
-0.0129527
0.00655918
-0.00376188
0.0101573
5.22346e-05
-2.74229e-05
-7.45164e-06
-1.73867e-05
-3.14304e-06
-3.25133e-05
3.56857e-05
-7.84684e-05
0.000106255
0.000210451
-0.00023837
-0.000168225
0.000467419
-0.000264609
-3.46514e-05
0.000113433
-3.43482e-05
-8.49434e-05
5.83664e-06
-8.52806e-06
0.000132477
1.31599e-05
-0.000281719
7.80237e-05
-4.26851e-05
0.000246411
-5.53765e-05
1.00503e-05
4.20654e-05
3.15499e-06
-3.31925e-05
-0.000264507
1.60144e-05
-4.13315e-05
-4.46359e-05
0.000108103
-2.20963e-05
-0.000344094
0.00221564
0.00113519
-0.00300678
5.64126e-05
-3.77928e-05
2.82361e-05
-4.68359e-05
-5.68574e-06
1.54904e-05
-1.10248e-05
1.1915e-06
-1.20664e-05
-0.000143553
0.000147117
-4.13283e-05
-4.37795e-05
5.51148e-06
7.96132e-05
-5.86672e-05
1.22698e-05
4.79445e-05
-1.52343e-06
-8.19465e-05
3.31448e-06
7.37573e-05
4.76116e-06
1.95495e-05
-3.5235e-05
1.19211e-05
3.7166e-06
6.29924e-06
-4.89497e-06
-2.34552e-05
2.20656e-05
0.000589666
-0.000462645
-0.000453037
0.00032591
0.000292364
-3.65303e-06
-0.000146784
-0.000141901
0.000270667
9.97512e-05
6.47073e-05
-1.66931e-05
1.97785e-05
-6.77519e-05
2.43915e-05
-1.10466e-05
-4.15629e-05
2.82285e-05
-0.0186489
-0.00538172
0.0258544
5.0823e-05
2.08955e-05
0.0191239
-0.0134415
-0.00664834
0.000965793
0.0189757
0.0037719
-0.00362384
3.03869e-05
6.74932e-05
-8.90146e-05
-8.78244e-06
2.60262e-05
3.01284e-05
1.27606e-05
-6.89402e-05
-0.0200436
-0.00278349
-0.00220763
0.0250314
-9.37797e-05
3.64546e-05
-1.23153e-05
6.96717e-05
0.000575996
-0.000409336
-6.88119e-05
-9.79336e-05
0.000102529
-9.04527e-05
0.000166114
-0.000178311
0.000732737
-0.000888432
-0.000255783
0.000411485
0.000308323
-2.35364e-05
2.16056e-05
-0.000306386
-0.0050375
-0.00507995
0.00308135
0.00707535
-0.0248744
0.0238053
0.000521191
0.000169741
0.000301048
3.16299e-06
1.24117e-06
-4.25909e-05
3.82295e-05
-7.46642e-07
6.00085e-05
-5.38214e-05
-5.43371e-06
6.44764e-05
-5.50985e-05
1.48163e-07
-9.63029e-06
0.000528975
-0.00168434
2.18666e-05
0.00113461
-4.78462e-06
7.83066e-06
-1.99118e-08
-2.97318e-06
4.78861e-05
-5.34762e-05
5.67099e-06
-2.02332e-05
3.73499e-05
1.03698e-05
-7.99231e-05
3.22114e-05
-2.37285e-05
6.83465e-05
-8.24893e-05
3.79154e-05
-0.000115892
7.35503e-05
6.63755e-05
-2.40765e-05
-0.00043415
-0.0015183
0.00060295
0.00134949
-2.33203e-05
-2.2287e-05
3.29962e-05
1.2595e-05
8.68686e-05
-2.63995e-05
0.000228204
-0.000288628
0.000282302
-5.78297e-05
-0.000143331
-8.10446e-05
-0.000506155
-0.00324555
0.00559741
-0.00184573
-6.29181e-05
-3.79626e-06
1.33372e-05
4.32183e-05
3.71068e-05
-3.01121e-05
-5.02141e-05
3.48158e-05
-1.16717e-05
-1.7379e-05
-5.74459e-06
0.00016409
0.000147714
-0.000342081
3.01531e-05
2.76289e-05
-8.82722e-05
3.23866e-05
2.82753e-05
0.000588329
-0.000251401
-0.000453964
0.000117047
1.34034e-06
-2.10022e-06
-3.60514e-06
4.36145e-06
-3.32678e-05
1.37368e-05
-8.12167e-05
0.000100549
-1.6775e-05
-7.24043e-05
-1.21293e-05
0.000101316
-4.06089e-05
-0.000276851
0.000311711
5.76445e-06
3.29258e-05
5.3505e-05
-6.4287e-05
-2.22533e-05
-7.21881e-05
-7.9436e-05
4.67728e-05
0.000104745
-5.15568e-06
1.3802e-05
-7.31083e-06
-3.84468e-05
7.98379e-05
-4.0087e-05
-1.34137e-06
-0.000253201
0.000401832
-2.23514e-05
-0.000126261
5.56069e-05
-1.64533e-05
-4.72746e-05
8.09163e-06
0.00142623
-0.00285516
0.00265317
-0.00122432
-1.66525e-05
6.85199e-05
1.2391e-05
-6.42379e-05
-0.000106175
7.74906e-05
1.06033e-05
1.8004e-05
-0.000197429
0.000611698
-6.54817e-06
-6.45233e-05
1.06508e-05
6.04225e-05
2.03885e-05
-8.79104e-05
1.21788e-05
5.53787e-05
-1.56008e-05
3.28534e-05
-1.93589e-05
-1.27426e-05
-1.05422e-05
2.25682e-05
7.88918e-07
0.00226541
0.000302242
0.000485436
-0.00305336
3.17012e-06
-3.70006e-06
5.43985e-07
-0.000387748
-0.000815665
7.48319e-05
0.000253577
0.00294924
0.00135702
-0.00455998
-0.000542655
-0.00778463
0.0083276
-3.25286e-05
3.60974e-05
-5.38149e-05
5.0253e-05
0.0358374
-0.00895819
-0.0256933
0.00206385
6.16231e-05
4.10769e-05
-7.94944e-05
-2.31928e-05
0.00297436
-0.00243315
0.00532654
-0.00585848
0.00188762
0.00536107
-0.00643654
-0.000809906
-2.67269e-05
-2.7978e-05
5.47187e-05
0.00726422
-0.00402614
-0.00374433
0.0480901
-0.0586545
0.00843114
0.00213549
-0.0080048
-0.00269201
0.00982301
3.66588e-05
-2.03171e-05
-1.76578e-05
1.32545e-06
3.60851e-06
1.52308e-05
5.75302e-05
-7.64278e-05
6.40085e-05
-3.41176e-05
-5.15042e-05
2.16222e-05
0.000778282
-0.000364305
-0.000264038
-0.000149929
-5.18803e-05
4.89211e-05
-1.71386e-05
2.0142e-05
-0.000391077
0.000572453
-0.000374685
0.000193373
-0.0134015
0.00232867
-0.00693442
0.0180075
0.000235882
-0.0002611
-0.000338031
0.000363088
-0.00125436
-0.000749965
0.00377446
-0.00177018
0.000156107
3.15008e-05
-2.47631e-05
-0.000162785
3.77232e-05
-3.01831e-05
8.83624e-06
-1.63056e-05
0.000380002
0.000610006
-0.000211721
1.06469e-05
1.56901e-05
-4.20055e-05
1.56459e-05
0.000231338
-0.00625138
0.00373045
0.00229252
-5.99248e-05
2.34092e-06
4.06776e-05
1.69813e-05
-0.000812177
-0.00857088
0.00938946
-0.000103271
3.96298e-05
1.96051e-05
4.40256e-05
-2.51094e-05
-0.000168188
0.000255717
-0.000199356
0.000111804
3.78762e-05
5.22656e-06
-4.76505e-05
4.57218e-06
-3.32886e-06
1.33067e-06
2.01287e-06
5.96064e-05
-9.59506e-05
-0.000242282
0.000278652
2.5542e-05
7.06918e-05
-4.01002e-05
-5.61052e-05
0.012755
0.00110926
-0.0167694
0.00474556
0.000579709
0.00040638
-0.000863591
-0.000122493
4.74581e-06
-1.82962e-06
-2.90537e-06
2.78836e-05
-5.30441e-05
-5.79313e-05
8.31004e-05
-9.3544e-08
-1.26328e-07
2.39673e-07
0.000731111
0.00058134
0.000972853
-0.000115221
-0.000214272
-0.00064334
1.0441e-05
-0.000227831
0.000360462
-0.000143155
-0.0126495
0.0207622
-0.0523732
0.0442633
0.0129839
0.00306895
-0.00820469
-0.00784665
0.000866954
-0.000607226
0.000868733
-0.00112845
-1.60231e-05
-0.000115814
0.000209104
-7.72279e-05
1.2728e-05
-6.11007e-06
-6.59836e-06
0.000172111
-0.000120313
-0.000117417
6.56558e-05
-8.6978e-05
-6.3074e-05
8.87271e-05
6.13466e-05
-3.7607e-05
8.06466e-05
8.74696e-06
-5.17735e-05
-8.88031e-05
-4.85924e-05
-0.000831033
0.000968441
0.00110212
0.00017122
0.000867706
-0.000132926
-0.000823571
-3.948e-05
-2.30747e-05
5.10297e-05
1.14412e-05
-6.94404e-05
0.000124718
3.58082e-05
-9.10504e-05
1.35679e-06
1.00745e-05
-5.81744e-06
-5.56463e-06
-2.69138e-05
4.2752e-06
2.39246e-05
-1.28946e-06
0.000184118
-0.00030639
0.000558436
-9.23527e-06
-0.000316303
-0.000233013
0.000161989
2.1865e-05
3.76441e-05
-0.000221568
-0.000473818
0.000141168
0.000139199
0.00019346
0.000110262
2.02277e-05
-6.94548e-05
-6.09283e-05
-1.36769e-05
9.01193e-06
-2.42061e-05
2.88637e-05
0.000160495
-3.74332e-05
0.000302027
-0.000424966
-4.22395e-06
-9.33175e-06
1.49609e-05
-7.16353e-05
-1.78066e-05
0.000115032
-2.55705e-05
-1.26964e-06
-4.98621e-06
9.32105e-07
5.34898e-06
2.07617e-05
2.62867e-05
-2.42207e-05
-2.28566e-05
0.0240855
-0.0207357
-0.0239469
0.0205981
0.0128954
2.64408e-05
-0.0065229
-0.00643643
-0.00559637
-0.000547514
0.0491277
-0.0402097
-5.62156e-05
-2.8445e-05
1.98418e-05
6.48232e-05
5.92658e-05
1.36073e-06
1.41351e-09
-6.05917e-05
0.0086949
-0.0370958
0.00548839
0.0229163
-6.54079e-05
6.75606e-05
-4.95619e-05
4.73067e-05
-0.000279808
-0.000172068
0.000244894
0.000207043
8.59048e-05
0.000270019
3.52473e-05
-0.000391098
-0.00429733
-0.00710016
0.00244027
0.0093287
-0.00952416
0.00792969
-0.00272246
-0.000107295
2.92721e-05
-1.51431e-05
9.32707e-05
-7.39573e-05
2.12405e-05
-2.76076e-05
8.03575e-05
6.47437e-05
-0.000146881
-8.11046e-05
0.000163079
-3.95793e-06
-1.11099e-05
5.29194e-05
-3.78299e-05
-0.000165527
0.000356324
-0.000281309
9.05644e-05
0.000129145
-0.000106244
-4.90061e-05
2.59471e-05
-0.00235816
0.00507074
-0.0031264
0.00073138
0.000119019
1.15766e-05
-6.37377e-05
-6.69824e-05
-1.94855e-05
1.51661e-05
-7.12663e-06
1.14513e-05
0.000451051
-1.19525e-05
-0.000604575
-3.41487e-05
-1.45456e-06
1.34527e-06
3.42655e-05
3.49321e-05
-9.05968e-05
0.000207316
-0.000151519
-2.42485e-05
3.67893e-05
-1.39055e-05
1.35971e-06
5.69774e-05
-3.27925e-05
6.59289e-05
-9.00752e-05
-6.75603e-06
1.55399e-05
-4.11595e-05
3.23774e-05
-0.00139703
0.000860727
0.000536166
4.04697e-07
-6.56395e-07
6.83989e-07
-4.18029e-07
-0.00799724
0.00911116
-0.00731135
0.00619838
0.0135451
0.00173504
-0.00169676
-0.0135834
0.000105899
-9.73885e-05
-4.97344e-05
4.12556e-05
1.19712e-06
-7.60542e-07
3.28199e-05
-8.86001e-05
7.69034e-05
-2.10979e-05
3.15766e-05
0.00012303
-0.000103541
-5.11061e-05
4.00691e-05
-9.60096e-06
-3.04509e-05
-0.000203833
-0.000238015
9.72899e-05
0.000344607
0.000170606
-0.000113879
-2.51855e-05
0.025756
-0.0139669
-0.0412742
0.0294869
-5.55982e-06
1.60502e-05
1.18981e-05
-2.23151e-05
-7.82638e-05
1.24979e-05
-2.73911e-06
6.85605e-05
6.17498e-06
0.00023443
-0.000232187
-8.53345e-06
5.37327e-05
-4.37236e-05
-1.20447e-05
2.07329e-06
-0.000284506
8.10004e-05
0.000318543
-0.000115128
0.00992792
0.0103008
-0.00724639
-0.0129811
4.56617e-05
-4.33499e-05
-8.1966e-05
0.000156754
7.25417e-05
-0.000147449
0.0246247
-0.0183454
0.00935389
-0.0153278
2.38115e-05
-2.16673e-05
-8.2224e-05
8.01085e-05
8.31083e-05
0.000432726
-0.000592135
7.63072e-05
5.01887e-05
-1.63263e-05
-2.06002e-05
1.00797e-05
0.000222247
-0.000211725
-0.000157582
2.11182e-05
0.000115865
4.5107e-05
3.52835e-06
-1.93142e-05
-2.93207e-05
-0.00645898
-0.00363199
0.0185366
-0.00845944
-0.0194821
0.0152917
0.0134254
-0.00923187
0.00933794
-0.000692259
-0.0281957
0.0195514
-7.57265e-05
8.89936e-05
-4.00388e-05
2.67929e-05
3.33139e-06
-6.39246e-05
0.000140756
-8.02858e-05
0.000468395
-0.000192324
-0.000230681
-4.53122e-05
-0.00391236
0.0276112
0.00651394
-0.0302073
0.00124812
0.00114966
-0.00167196
-0.000725624
-8.47035e-06
6.09128e-06
7.27433e-05
-7.03462e-05
0.0162962
-0.0273964
0.0111194
-9.6279e-06
5.53441e-05
-4.57003e-05
5.04754e-06
-5.1389e-07
-4.71668e-05
4.26579e-05
1.27047e-05
-6.33599e-05
6.82736e-06
4.38819e-05
-9.28721e-06
9.09376e-05
-1.91454e-05
-6.24908e-05
-9.61044e-06
-6.09117e-05
5.02352e-05
2.03083e-05
1.08999e-06
6.79251e-05
-2.73599e-06
-6.62544e-05
0.00310949
0.00321025
-0.00631884
0.000316688
4.0904e-05
-7.59933e-05
-0.000281586
-5.0492e-05
0.00011169
-5.29316e-05
-8.24685e-06
-4.75635e-05
6.4686e-06
-2.31291e-05
6.41628e-05
-3.51294e-05
2.15506e-05
7.59315e-05
-6.24378e-05
-2.04979e-05
2.26774e-05
1.19899e-06
-3.39985e-06
-8.46174e-06
4.64449e-05
2.22202e-05
-6.01682e-05
-5.8441e-06
4.09058e-06
1.7784e-06
-9.55597e-06
-2.00325e-05
9.07089e-06
4.32131e-05
-2.89004e-05
1.77972e-05
-3.20999e-05
6.45359e-06
-2.80184e-06
-3.59366e-06
0.00529412
-0.00241543
-0.0023426
-0.0169447
0.0176477
-0.00794602
0.007245
0.000337531
-0.000128642
-0.000274814
6.59652e-05
-1.33257e-06
5.84479e-05
3.01427e-05
-8.72321e-05
-8.24217e-05
1.24935e-05
2.70824e-05
4.28521e-05
3.91762e-05
-0.00658487
-0.00647235
0.0132814
7.41855e-07
1.04041e-05
-1.12048e-05
3.93061e-06
8.66878e-07
-4.76446e-06
0.000124432
0.000199575
-0.000166164
-0.0001581
0.000411036
-0.000179297
8.49651e-05
3.12736e-06
1.20492e-05
7.48718e-06
-5.95691e-06
-2.72617e-06
-8.18208e-06
1.68404e-05
9.83015e-05
0.000329309
-0.000495188
6.76617e-05
0.000428186
-8.31148e-05
-0.000226214
-0.000118858
-3.76137e-05
2.10956e-06
2.89676e-05
6.51043e-06
-6.47551e-05
-1.32965e-05
0.000176434
-9.83628e-05
-6.02463e-05
5.80616e-05
2.10816e-06
0.00534383
0.0171976
-0.00684155
-0.0151243
-9.5998e-05
-0.000113694
-0.000184994
0.000394673
2.34161e-05
-3.99837e-05
0.000203647
-0.00018727
-4.15776e-07
4.98441e-06
-9.8692e-06
5.27802e-06
0.00761161
-0.00673048
0.0141187
-0.0150023
-1.90527e-05
8.91869e-05
-0.00049555
0.000425416
0.0261302
-0.0271371
0.00890807
-0.0079001
1.27367e-05
0.000101519
-0.000197268
8.28464e-05
-3.45581e-05
-8.60705e-05
0.000116351
4.29913e-06
0.000131512
0.0129424
-0.000163034
-0.0129102
-6.87461e-05
1.62063e-05
5.61444e-05
-3.64896e-06
0.0155832
0.0023588
-0.00366785
-0.0142733
-0.0153077
0.0162305
-0.000790853
0.000396455
-0.000173517
-0.00061532
0.000392401
0.000132267
5.07132e-05
0.000415831
-0.000598857
-2.5946e-05
-7.58746e-05
8.07201e-05
2.10163e-05
2.5316e-06
9.94521e-06
-0.000131642
0.000119132
0.000146462
-5.28917e-06
0.0001913
-0.000332608
0.0260833
-0.0168061
0.0109087
-0.0201823
-5.27663e-05
-0.000168446
-8.40173e-05
0.000305302
0.00807723
0.0132838
0.0275282
-0.0495974
0.00147389
0.0110674
-0.012541
0.00014007
1.45342e-05
-0.000152111
-0.0162139
0.00176809
0.01592
-7.36232e-05
-1.54909e-05
7.59718e-06
8.14224e-05
-0.0206089
0.000349863
0.0202593
-0.00054113
-5.52522e-05
0.000240983
0.000355459
-0.0139559
0.0165366
-0.0114621
0.00894281
8.56164e-06
-5.70437e-06
-3.01809e-05
2.73565e-05
-3.99202e-05
-0.000128685
0.00019765
-2.91161e-05
9.11015e-05
-0.000152879
0.000122575
-0.000333221
-0.000489431
0.000281568
-0.0245113
0.0410622
-0.00212585
-0.0144241
0.0171743
-0.00773422
-0.0317361
0.022297
7.05234e-06
-1.60158e-05
-2.55724e-05
3.45612e-05
-0.000495206
0.000458838
0.000414583
-0.000378151
0.000136401
3.62942e-06
0.000265071
2.59699e-05
9.20134e-06
-0.000300318
-1.89522e-05
-4.29841e-06
-1.96022e-05
4.28567e-05
4.95798e-05
-3.47278e-05
-7.74515e-05
6.25289e-05
-0.00194729
-0.00808431
0.00999949
6.30835e-05
-3.44773e-06
-5.97357e-05
-0.000151199
4.93139e-05
-1.67709e-05
0.000118619
-0.018616
0.0163878
-0.0155919
0.0170997
-1.6439e-05
6.47155e-05
8.37811e-06
-5.66484e-05
-8.99545e-06
2.88699e-05
9.90344e-06
-2.98915e-05
-8.44877e-05
6.47022e-05
8.37858e-05
-6.39651e-05
0.015025
-0.0353174
0.0299886
-0.00969943
-6.82432e-05
0.00248736
0.00048901
-0.00290825
-0.000136697
0.000474511
-0.0146989
0.0143615
-7.17158e-06
-5.66756e-06
1.28871e-05
-0.00326751
-0.0162437
0.0174808
0.000105449
-6.45532e-05
0.00072998
-0.000770867
-0.00655862
0.010118
0.00458024
-0.00813878
2.42212e-05
-3.50226e-06
-2.06508e-05
-6.35385e-06
1.69763e-05
-2.02511e-05
9.6986e-06
0.00327454
-0.00396665
-0.00509258
0.00578555
-1.24749e-05
-6.07721e-05
5.86497e-05
1.4636e-05
-0.00156008
-0.00737121
-0.00265353
0.011586
0.0128903
0.000994816
-0.00954029
-0.00434275
-1.60203e-06
4.2074e-07
-6.77079e-08
-0.00156146
-0.00286522
-0.00947811
0.0192101
-0.0172743
-0.0385888
0.036588
0.0179684
-0.0200704
0.000535154
-0.000119273
4.07782e-05
0.000141734
-6.32182e-05
8.83557e-06
3.58261e-06
3.52764e-05
-4.76835e-05
-0.000313237
8.47964e-05
0.000243578
-1.52923e-05
-0.000353891
5.76993e-05
0.000138346
0.000157866
0.000106868
0.00014854
-0.000310146
5.48485e-05
-0.000155076
-1.2507e-05
0.000167761
2.94908e-05
-1.04039e-05
-4.52847e-05
2.62152e-05
-2.7835e-05
6.66526e-05
-5.31078e-05
1.4207e-05
-2.09971e-05
-2.75805e-05
5.4136e-05
-5.56776e-06
-2.46305e-05
1.57345e-05
9.23648e-05
-8.34964e-05
-9.8708e-06
5.81459e-05
-1.01314e-05
-3.81061e-05
0.000907478
0.00886012
0.00379591
-0.012584
-0.000741216
-0.000302595
0.000796091
0.000247691
0.000324663
-2.73028e-05
0.000179504
-0.000476881
-0.00154836
-0.000311104
0.00142528
-9.73611e-06
-4.60206e-05
3.47469e-05
4.28221e-05
1.99997e-06
-5.46458e-05
4.66882e-05
2.61204e-05
-4.04216e-05
-3.2513e-05
-2.61256e-05
2.67216e-05
4.67005e-06
-5.21026e-06
1.3341e-05
2.98043e-05
-5.29036e-05
-0.000236758
-0.000140024
-9.47243e-05
0.000471213
-0.000173363
0.000148477
-0.000129963
6.40073e-05
-1.28144e-05
2.34439e-05
-7.46914e-05
3.41913e-05
-9.37907e-05
9.96226e-05
-4.01208e-05
-0.000100347
4.50329e-05
8.97334e-05
-3.43236e-05
4.91107e-05
-3.9116e-05
3.84858e-05
-4.85511e-05
-2.69014e-05
-3.14537e-06
2.93257e-05
7.44328e-07
0.000126454
-0.000238054
0.000136343
-2.43091e-05
0.000111106
-6.30852e-05
4.62364e-06
-5.27225e-05
0.0041913
-0.00345217
-0.000612147
0.0174375
0.0111066
-0.00994601
-0.018598
-0.000315826
-0.0019339
0.000931054
0.00131852
1.5136e-05
-1.35471e-05
2.72476e-06
-4.3398e-06
-0.00013926
-3.81912e-05
0.000177518
0.00119545
0.00478105
-0.00178432
1.75881e-05
1.37258e-06
-3.84857e-06
-8.87837e-06
3.40508e-05
-3.3778e-05
8.55514e-06
-0.000812346
-9.57749e-06
0.000821863
-5.33996e-05
6.4623e-06
7.14545e-06
3.98533e-05
1.13619e-06
-9.48218e-06
-5.16597e-05
6.00349e-05
-0.000124469
-4.63732e-05
0.000141113
2.96924e-05
5.17172e-05
0.000111181
-0.000162845
-0.000211399
0.000216915
-5.61262e-06
3.88336e-05
-7.24142e-06
-2.76508e-06
-2.88127e-05
-0.00550937
0.00254621
0.00719933
-0.00423663
-0.00187331
-0.00615489
0.00802894
-0.00109299
-0.000390654
0.00092594
0.000557714
4.27968e-05
4.46098e-05
-7.70316e-05
-1.03547e-05
3.64061e-05
-7.16316e-05
-7.34711e-07
3.5999e-05
-9.30571e-07
7.31329e-05
-0.000103306
3.11356e-05
-7.57324e-06
-2.38468e-05
2.87627e-05
2.63518e-06
0.000169699
0.000142783
-0.000312523
-2.55946e-05
-7.86906e-07
8.6715e-08
2.62497e-05
1.64572e-05
2.38017e-05
-5.55786e-05
1.52749e-05
2.45534e-05
-3.1511e-05
1.37645e-05
-6.83798e-06
0.000217072
0.000228314
-0.00106555
0.000620105
0.000330042
-0.000358195
-0.000456524
0.00048451
8.31764e-05
-1.70221e-05
-3.3331e-05
7.88236e-05
8.21608e-05
5.56342e-05
-0.000216657
-0.000169489
-6.63317e-05
0.00023577
-2.06388e-05
3.63874e-05
2.06849e-05
-3.64771e-05
0.000394717
-0.000187712
-0.000211245
4.29313e-06
-2.14225e-06
2.71191e-05
8.60371e-06
0.000313381
-0.000116547
-2.72073e-05
1.21609e-05
-2.66974e-05
-3.00949e-05
4.46215e-05
-1.39449e-05
4.30636e-06
2.2394e-05
-1.2771e-05
0.000227672
-0.00049762
0.000547887
-0.000277914
1.27931e-05
-5.80488e-05
4.52732e-05
-6.18181e-05
-5.58575e-06
6.13084e-05
6.11845e-06
3.2605e-05
8.93204e-06
-5.9742e-06
-3.55547e-05
-1.38453e-06
-2.3615e-05
1.19488e-05
1.30083e-05
6.94032e-05
-0.000229272
4.61289e-05
0.000113764
-0.00136207
0.0166594
-0.0128421
-0.00245449
-1.5191e-05
3.53192e-06
1.15012e-05
1.32762e-07
-6.61586e-06
-8.25875e-06
4.27828e-05
-2.7894e-05
0.00331087
-0.00302045
0.0091109
-0.00971441
-5.71288e-06
-2.96066e-05
3.64896e-05
0.000389801
-0.0007637
4.63497e-05
0.000327398
0.000911255
-0.000180558
-0.000867875
0.000137149
1.19062e-05
-6.60807e-06
-3.94978e-05
3.42315e-05
8.02942e-05
-0.000130109
-5.31878e-05
0.000102782
4.3037e-06
9.78096e-06
-3.57804e-05
2.16699e-05
0.000159705
0.000165876
-0.00121576
0.000890183
3.53713e-05
-6.85812e-05
-3.13993e-05
6.47014e-05
1.23636e-05
2.00871e-05
-3.58148e-05
3.3429e-06
-0.000418531
-0.000453139
0.000107856
0.00076387
-0.00026955
-0.000202052
-0.000246115
0.000717646
-9.79128e-05
-0.000516757
-0.000113272
0.000727941
-0.000596957
0.000534812
-3.57686e-05
-0.000727652
0.0010752
-0.000578237
0.000230668
-0.000460871
-0.000458871
0.000797779
0.000121869
0.000228162
-0.00033358
-0.000322253
0.000427774
0.00122542
-0.00148847
-0.000294112
0.000557159
-0.000324629
1.42832e-05
0.000310276
5.80298e-05
-4.84433e-05
2.67998e-05
-3.6417e-05
-0.00111334
0.000192425
0.0021463
-0.000310154
0.000425663
-0.000576493
0.000121031
-0.000224723
-2.99396e-05
0.000133668
-1.3952e-05
3.45418e-05
3.31799e-05
0.00060116
-0.00130497
-0.000784665
4.92589e-05
-2.94193e-05
7.83498e-05
-9.82954e-05
5.55785e-05
-2.51042e-05
-3.04554e-05
2.82942e-05
1.70969e-05
-6.76516e-05
2.2276e-05
0.000429151
-0.000359443
-1.32643e-05
-5.61396e-05
6.80595e-05
2.7585e-05
-4.82126e-05
-4.75579e-05
-7.92059e-05
-2.35966e-05
0.000857253
-0.000754677
-0.00258666
0.0170203
-0.0144327
2.45626e-05
-3.05378e-05
5.98911e-06
-0.00476998
-0.0151333
0.0204533
2.58801e-06
3.81925e-06
-6.3508e-06
-2.9591e-05
-4.79394e-05
-1.30662e-05
9.06443e-05
6.43578e-05
-3.57683e-05
3.06068e-05
-5.92729e-05
-7.76454e-05
4.3779e-05
7.32953e-05
-3.94203e-05
1.04832e-05
-4.09413e-05
1.61399e-05
1.43406e-05
-0.00115987
0.000647666
-4.68962e-05
-5.47473e-06
6.35217e-05
-1.11578e-05
2.11303e-05
-2.32024e-05
-8.15054e-06
1.02399e-05
0.00658704
0.00616114
-0.00740057
-0.00534654
0.000149283
1.89405e-05
-3.99618e-05
-0.000128219
0.00143952
-0.0133894
0.0125621
-7.3027e-05
0.000103055
-3.75133e-05
7.52623e-06
-4.72289e-06
6.69772e-05
-9.02194e-05
-1.19967e-05
3.65747e-05
1.02916e-05
-9.77459e-06
-4.77966e-07
-0.000395233
0.00012129
0.000100113
0.000173782
-0.00680363
0.00980843
-0.00139588
-0.00155656
0.000383377
0.000360084
-0.000237932
-0.000505503
-0.000397538
0.000178363
0.000137246
8.17755e-05
4.31022e-05
-9.09264e-06
-2.72254e-05
-6.75758e-06
1.25218e-05
-3.81529e-05
-0.000952087
0.000297055
-0.000348899
0.00100386
-0.00121864
-0.00381965
0.00196151
0.00307801
0.0128668
0.001663
-0.0173885
0.00286139
9.25763e-05
-7.7271e-05
1.33862e-05
-2.87803e-05
2.50091e-05
1.76787e-05
-3.75877e-06
-3.8916e-05
0.000170576
-0.000643361
0.000477317
-4.62871e-06
6.2581e-05
0.000257914
0.000177179
3.62424e-05
2.9316e-05
-1.15101e-05
-5.41352e-05
0.000284385
-0.000202016
0.000273297
-0.000355665
-0.00535009
0.0010694
0.006514
-0.00222418
-0.00807353
-6.4042e-05
0.00696147
-0.0337093
-6.90496e-05
0.0147947
0.0189858
0.000177116
0.000241993
-0.000465975
4.67962e-05
-5.0868e-05
-2.42056e-05
0.0001279
-5.29312e-05
-0.00542805
0.00161152
-0.00219839
-0.00568571
-0.00157241
0.00945846
0.00518059
-0.00420483
0.00164847
-0.00262424
-0.000142086
0.000139826
0.000109286
-0.000107244
4.33176e-05
-6.79062e-05
8.77174e-05
-6.31734e-05
0.000115533
-1.76528e-05
-7.25736e-05
-2.53352e-05
0.000335233
-0.000131535
-7.23422e-05
-0.000131292
6.14905e-05
8.5807e-05
-9.413e-06
-0.000137915
-0.000138838
0.000194462
-0.000127062
7.14821e-05
-0.0117047
0.00810838
0.00384966
-0.0050361
-0.0119833
0.00919823
6.09408e-05
-7.28145e-06
1.53311e-05
-6.91705e-05
1.98501e-05
5.40728e-06
-2.51994e-05
0.000103886
-0.000310628
-0.000330177
0.000536822
7.81427e-06
-4.3156e-05
3.90752e-06
3.14399e-05
-0.000195232
-0.000356488
0.000133217
-2.38017e-05
7.62663e-06
3.41247e-05
-1.79762e-05
0.000298653
0.0125673
5.57711e-05
4.72001e-06
-0.000132586
7.21179e-05
-4.83981e-05
-2.21829e-05
-0.00012802
0.000198645
-1.02647e-05
1.09334e-06
1.69923e-05
0.0014164
-0.000689343
-0.000859919
0.000132848
0.000259975
0.000926408
-0.000565719
-0.000620811
2.23682e-05
-2.18913e-06
-4.91571e-05
2.8931e-05
4.08708e-06
-7.5202e-06
6.33669e-05
-6.00661e-05
-0.0262346
0.00201026
0.0237292
-3.43788e-06
-0.000104918
0.000173067
-6.47815e-05
-6.33033e-05
6.05509e-05
1.72119e-05
-1.45441e-05
1.49049e-05
-1.57327e-06
-9.33694e-06
-3.99349e-06
-0.0152398
-0.0112822
1.06308e-05
4.27711e-06
0.00033609
-0.000394318
-0.000258006
0.000316077
-6.66007e-06
-4.493e-05
5.74317e-05
-5.93976e-06
0.0038797
0.00157934
-0.006401
0.000940015
-2.64783e-05
7.75055e-05
-2.85822e-05
-2.25582e-05
0.00244779
-0.0026016
-0.000306442
0.000460071
4.19224e-05
-3.75573e-05
-7.84451e-06
3.40178e-06
0.000839493
-0.000463177
-0.000526386
0.000149987
-1.7181e-05
2.48759e-05
-1.6556e-05
8.83221e-06
-7.08158e-05
-0.000428437
-6.33268e-07
0.000499726
3.71036e-07
-0.0299164
0.00653415
0.0326955
-0.00930541
1.64165e-05
2.95394e-05
-1.44999e-05
-3.14328e-05
0.000661468
-0.00243457
0.00134552
0.000429861
-2.59943e-05
-4.66745e-06
4.71096e-05
-3.97833e-05
-9.06728e-05
-3.622e-05
0.000166625
-0.0300225
0.0252537
-0.0112381
0.0165219
0.000335656
0.000477628
-0.00115874
0.000345475
4.52779e-05
-5.81053e-05
4.5818e-05
-3.29313e-05
1.2107e-05
-1.62168e-05
-6.83392e-05
7.24865e-05
-0.00112367
0.00178708
-0.00218524
0.00152275
0.0127903
-0.0117791
0.00512565
-0.00614235
-7.89289e-05
0.000359864
-0.000116617
-0.000164469
-0.0375066
0.024325
0.0128361
0.000347376
-6.56894e-05
-0.0002387
-0.000172653
0.000477093
-0.000970584
-0.00525548
-0.00210715
0.0083345
-0.00133166
0.004029
-0.00893731
0.00624594
0.000372693
-0.000175583
7.37107e-06
-0.000204606
-1.36666e-05
-2.60522e-05
-3.57694e-05
7.55831e-05
-3.93757e-05
-4.52267e-06
-0.0390591
0.0326893
-0.0276163
0.0331723
0.000227262
0.000595618
5.89067e-05
-0.000881673
-0.00015397
-0.00104133
0.000737709
0.000457978
-9.92554e-05
1.46384e-05
-6.98965e-06
9.14981e-05
0.000561574
-0.00108934
0.00037428
2.35659e-05
1.03465e-05
-3.48319e-05
9.11736e-07