/*--------------------------------*- C++ -*----------------------------------*\
| =========                 |                                                 |
| \\      /  F ield         | OpenFOAM: The Open Source CFD Toolbox           |
|  \\    /   O peration     | Version:  v2012                                 |
|   \\  /    A nd           | Website:  www.openfoam.com                      |
|    \\/     M anipulation  |                                                 |
\*---------------------------------------------------------------------------*/
FoamFile
{
    version     2.0;
    format      ascii;
    class       volScalarField;
    location    "3.5";
    object      Qdot;
}
// * * * * * * * * * * * * * * * * * * * * * * * * * * * * * * * * * * * * * //

dimensions      [1 -1 -3 0 0 0 0];


internalField   nonuniform List<scalar> 
108993
(
1.80505e-57
5.68368e-32
4.01988e-48
5.12258e-144
2.45859e-138
1.87308e-120
1.16482e-23
0
3.93569e-109
9.78607e-65
1.42273e-84
5.16352e-90
0
0
5.18684e-100
2.06283e-17
1.12085e-59
5.03191e-97
1.12525e-140
5.62455e-68
3.65061e-137
0
5.73858e-73
0
3.27287e-148
0
6.86945e-126
2.36599e-71
5.05133e-73
0
5.00838e-119
0
4.06754e-127
2.1963e-42
3.40319e-141
0
1.11849e-126
0
27398.4
1420.03
0
2.83048e-106
0
2.26022e-147
2.74595e-25
1590.64
0
2.0864e-30
0
6.78715e-70
0
3.56429e-07
0
6.34814e-139
1.69777e-88
7.39839e-84
3.10074e-132
1.7245e-122
9.96711e-120
0
2.00222e-117
1.91977e-114
0
4.56496e-131
2.45919e-136
2.18599e-78
1.75678e-138
4.71576e-129
0
1.9438e-05
7.88546e-109
1.03957e-133
6.81919e-129
2.18594e-132
3.21274e-66
1.94322e-112
0
3.84816e-46
7.77422e-137
0
1.47345e-80
0
0
5.32482e-102
6.92234e-97
1.22242e-95
6.14242e-91
0
8.67019e-134
1.21919e-138
1.60896e-129
6.39273e-120
0
1.07941e-158
7.20512e-131
8.18925e-77
0
1.05809e-99
0
9.32611e-126
0
1.78394e-124
8.28155e-102
9.85701e-75
4.94045e-111
2.95527e-130
2.36242e-93
2.19984e-132
0
2185.75
9.02405e-36
2.8971e-128
0
1.64642e-22
0
2.51251e-08
1.70743e-134
1.15954e-72
9.78443e-15
0
5.0257e-85
1.56325e-115
5.57198e-06
4.0133e-59
2.56817e-128
0
5.66432e-53
1.07978e-69
0
1.65825e-120
9.91673e-71
0
0
7.48475e-08
2.05786e-115
5.57459e-63
1.75291e-114
1.9965e-109
2.51317e-100
3.0572e-87
4.54353e-62
8.96448e-115
7.54307e-18
1.74295e-117
0
2.2269e-127
7.26619e-104
9789.94
4.4909e-58
0.00204554
0.00113939
0
4.32031e-46
0.00632701
0
0
0
5.83599e-133
2.73433e-128
0.298953
0.000136614
1.76457e-132
5.15781e-120
0
0
1.46985e-14
1.50229e-134
0
2.42301e-130
1.83757e-106
2.42711e-139
0
3.45501e-12
4.14562e-101
0
1.18026e-86
0
3.21328e-131
0
3.12059e-127
0
0
4.59657e-134
0
7.32529e-81
0
2.31818e-135
0
6.36126e-82
1.2423e-61
0
3.30423e-132
4.55032e-99
0
0
1.1788e-45
2.88393e-53
0
1.86689e-109
1.05482e-63
6.87609e-133
2.52213e-08
5.79943e-131
2.05179e-129
8.39989e-15
1.807e-06
0
935.166
1.1312e-94
0
0.00210257
0
0.000764112
0.0152544
0
0
3.70763e-86
1.0607e-84
0
1.77908e-117
3.56732e-86
0.00101863
5.73181e-29
2.91195e-08
0
2.37639e-131
0
1.08824e-70
0
3.05215e-88
16.1409
2.47034e-97
4.33595e-130
0
1.1568e-118
0
3.28815e-122
6.43417e-119
14.4
6.53384e-132
2.73158e-123
6.85477e-85
0
3.50972e-133
0
3.18274e-17
0.0105053
5.44497e-05
6.91797e-129
1.2246e-126
5.12795e-113
1.21358e-132
2.50553e-103
2.47618e-109
9.17772e-132
4.51066e-130
1.0974e-129
1.12023e-68
5.25015e-112
4.3575e-122
6.47565e-76
0
6.09214e-31
4.54318e-28
1.79602e-142
5.01881e-73
0
1.0143e-80
0
1.06133e-95
7.03063e-147
6.79869e-53
1.1827e-05
12722.9
5734.89
1.53243e-94
1.84759e-126
0.000131337
0
2.90226e-59
7.71443e-58
91.5723
240.116
0
0
0
2.08189e-140
8.64549e-64
5.56437e-59
8.91946
2.51838e-85
0
0
1.88965e-82
8.05786e-103
1.85402e-74
6.22227e-116
2.97944e-79
5.5237e-32
4.21916e-141
0
0
3.61414e-105
1.49745e-143
3.92747e-103
0
7.11374e-121
0
0
2.64196e-05
0
1.48771e-115
1.60464e-42
3.84151e-117
4.35954e-70
6.20342e-05
1.54992e-134
3.81267e-45
34.1377
0
3.82094e-42
6.22706e-133
1.11734e-84
0
0
6.39261
1.35763
0.000628956
7.28108e-116
2.18712e-42
1.49297e-89
0.121098
0
0
1.31603
1.88724e-111
0
6.2921e-116
2.68963e-102
0
0
3.40704e-16
3.55485e-69
0
1.02897e-87
0
0
0
2.87425e-149
3.75012e-64
6.25991e-97
0
45.1371
0
0
0
2.38129e-88
1367.03
4.9647e-97
8.30067e-130
1.093e-43
0
1.61097e-66
3.79788e-66
0
5.41541e-62
6.44189e-68
1.02755e-114
1.60923e-99
118549
2.40757e-28
3.63291e-50
5.27932e-63
0.0281221
5.72156e-60
0.416098
0
0
0.000562203
0
0.184111
0.00744302
4.05631e-63
9.37906e-13
0
0
1.71504e-54
1702.06
2.71259e-65
1261.63
0.0547391
0
0.152875
8.68801e-82
1.82523e-06
1.0153e-60
3859.28
0
9.29776e-29
1.7891e-109
2.13948e-59
4.06382e-06
1.81187e-07
4.43792e-117
1.28789e-92
0
1.22164e-79
3.52547e-107
1.14942e-42
87628.4
0
9.99671e-74
654.963
0
1.58763e-87
8.04281e-107
2.78723
7.15123e-14
0.000173488
2.54634e-132
335313
1.15871e-35
68.0987
1.1897e-135
2.78419e-132
0
3.17066e-122
0.00707474
0.00340172
6.39668e-149
4579.16
43154.8
431.184
1.97972e-123
8.11173e-114
2.42751e-64
5.21805e-107
1.54125e-84
5.10476e-121
0
4.29707e-88
9.43919e-74
7.54621e-69
3.95419e-125
27.7641
1.34899e-18
5.45733e-26
1.17972e-15
2.20723e-72
3.19945e-128
0
3.4412e-133
1.677e-70
4.46845e-45
7.01778e-119
4.97486e-101
0
0
3.88398e-83
0
9.05493e-12
1.6787e-45
5.03283e-09
0
1.93972e-18
1.60561e-54
0
0
8.72427e-53
6.93827e-51
2.45471e-27
0
5.26714e-111
2.0388e-41
5.72181e-123
0
0
2.96654e-06
0
1.11673e-13
0
0
1.31937e-101
6.83547e-69
2.06915e-34
3.65702e-56
8.72115e-51
1.58036e-55
1.62006e-15
0
0
1.60006e-66
0
1.74038e-52
1.34678e-21
0
4.88596e-35
5.84198e-84
9.56349e-64
7.76318e-46
1.22414e-125
4.12238e-101
4.69548e-98
9.01176e-59
2.82201e-29
5.24633e-11
0
0
239.132
1.21679e-64
2.46152e-19
2.91852e-24
1.69163e-104
0
2.16345e-66
1.67333e-128
0
5.59587e-68
2.68608e-57
2.49257e-62
1.67243e-85
3.22352e-87
1.21805e-26
0
3.87357e-70
0.000286276
2.79436e-73
0
0
6.99339e-51
0
9.22803e-120
4.37882e-06
6.40116e-84
7.51029e-120
0
2.5525e-44
9.91605e-94
5.80511e-40
0.000942835
3.28541e-100
8.15541
7.06998e-143
0
0
1.89087e-87
0
0
2.35543e-96
0
8.80322e-06
0
64.2407
1.22443e-102
2.1956e-89
0
0
1.79758e-46
0
3.11526e-55
7.14155e-44
0
6.225e-58
4.88468e-32
0.00303651
0.082399
0
1.68174e-102
3.75766e-52
0
6.66648e-58
6.12296e-32
1.83709e+06
0.0558904
0.498861
2.69846e-38
1.89285e-90
0.0131572
0.179013
1.14466e-07
6.31207e-45
0
0
0
2.25376e-84
0
331.243
0.704182
2.28927e-84
1.4263e-128
0
1.92769e-118
4.29682e-57
8.74989e-66
14455.3
6.28344e-103
1.23972e-105
0
0
6.43758e-23
1.01932e-60
0
0
2.65168e-46
0
0
0
2.71507e-119
5.33844e-36
0
0.00655597
0
1.70184e-06
3.75768e-57
1.5244e-37
8.6558e-70
7.87886e-27
3.78927e-122
8.42686
7.48125e-129
2.72193e-12
1.98142e-126
0
1944.71
3.68153e-44
1.393e-110
1.81768e-99
1.26914e-14
316.531
0
0.130908
2.00738e-56
6.60079e-12
0
1.74003e-29
5.661e-105
6.4982e-116
508.606
3.5706e-15
3.29677e-19
0
5.04538e-18
0
1.77994e-25
2.78264e-102
5.89991e-30
0
0
1.28273e-26
1.44371e-29
0
2.14062e-18
1.80692
17.0148
2.54171e-12
1.42115e-54
0.00580934
110.365
9.41935
298.154
3.93177
1.64969e-103
0
3.74878e-85
3.22983e-103
1.2876e-60
2.64853e-66
2.15224e-38
0.0140366
0.0868665
1.44255e-34
2.29591e-35
2.83865e-17
74.8077
114.925
0
0
2.74888e-25
0
1928.9
4.72609e-27
51.4913
3.61516e-18
1.03634e-32
296.414
1.65974e-33
91.6136
3.07658e-27
2.00892e-25
10.311
7.68227e-126
2.05766e-62
0
6.12032e-80
3.72931e-81
66.7394
1.39007e-42
0.345042
1.6828e-38
134.839
0
3.07011e-95
2.3484e-124
0
1.34214e-24
0
1.71043e-30
5.73332e-59
3.4554e-105
0
1.39438e-23
2.32636
33460.2
1.78259e-72
368.469
1.17059e-57
1.74017e-24
7.7335e-11
0
0
0
3.92408e-24
5.51769e-13
2.641e-19
0
9.34377e-24
1.03525e-16
2.84335e-39
3.19651e-16
8.07512e-140
2.15275e-17
2.31446e-23
2.23858e-16
4.67036e-21
1.81291e-65
1.86889e-140
0.00088706
1.28521e-132
0
0
3.88006e-78
1.14062e-19
155912
7.10173
1.80337e-34
2.21942e-23
2.61941e-27
1.26111e-27
1.12278e-32
1.91462e-16
0
1.48553e-130
1.98152e-132
4.27254e-34
2.06031e-134
0
1.52633e-130
8.03864e-24
7.83417e-21
0
6.49461e-27
3.92138e-129
1.997e-32
8.90008e-48
4.01292e-12
0
0
3.93767e-06
8.17667e-151
6.03717e-69
0
0.352924
0
8.94412e-06
0
0
1.58389e-42
26745.2
0
7.06425e-49
0
0.000848453
5.5365e-42
0
4.75904e-29
3.30255e-73
2.09507e-18
0
1.09924e-101
5.29452e-13
0
3406.07
1.27473e-106
3.20684e-77
10316
1.29593e-32
124.873
9.02776e-52
4.71396e-06
1.12503e-99
6.26891e-20
1.47588e-32
5.08885e-128
2.43212e-50
2.86591e-35
0
1.56922e-78
0
0
0
0
1.57685e-59
2.35236e-131
5.05057e-12
5.47815e-83
0.331465
0
1.33441e-83
27.6412
3.05566e-75
61503.4
4.98204e-64
7.41488e-80
0
0
4.67191e-17
5.12185e-77
8.8654e-13
2.42095e-16
2.33152e-37
8.373e-32
683.191
0
2.45433e-41
1.9619e-15
0
4.24973e-37
0
5436.33
4.05881e-36
9.67402e-72
4.76775e-39
5.98776e-11
2.36507e-33
5.04046e-73
6.85091e-06
1.80599e-51
0
6052.13
0
37795.7
2.32852e-38
142.076
0
0
4.18996e-91
0
0
1.64709e-84
1.44429e-92
1.13317e-94
0.692952
1.8914e-36
1672
0
1.19767e-106
1.33221e-65
0
0
1.45669e-09
1.23766e-139
4.15211e-71
3.7668e-19
1011.92
0
1.0462e-09
2.16902e-25
0
4.44836e-76
1.49856e-20
52.4421
1799.51
1.01221e-31
1.81993e-21
8.88024e-56
0.0156869
1.38702e-127
0
25096.7
144.013
0
8.10349e-113
4.13479e-13
0
1.75695e-38
1.2491e-103
3.67044e-141
1.01536e-26
9.25733e-10
0
0
4.20307e-21
0
0.0129106
0
8.2973e-101
0.859378
108.548
1.25267e-60
1.31947e-26
1.0365e-160
1.28987e-102
0
4.26494e-10
0
2.16397e-61
0.0250286
0
9.12751e-27
2.00104e-50
0
1.58817e-26
4.98812e-87
1.37442e-84
2.95199e-137
1.69374e-30
1.64022e-59
0
5.53102e-109
1.5215e-112
2.7183e-19
0
0
7.94022e-36
1.49709e-30
1.06011e-32
1.4071e-99
0.00659824
3.32494e-98
59.8645
0
9.44367e-49
2.55957e-127
0
2.56998e-09
0
2.02239e-59
0.0506909
4.42079e-17
1.1809e-18
2.21251e-104
4.46761e-37
1.08542e-15
6.30651e-06
0
0
0.314478
3.43091e-35
3.57586e-64
4.56682e-34
0
7.34439e-45
32253.7
7.07618e-13
0.000108813
7.19071e-06
1.04783e-43
8.71306e-19
1.17296e-45
1.69597e-34
0
0.000365374
0
0
0
0.0263238
1.32936e-124
0
0
0.0221781
0
4.081e-50
4.7034e-55
6.1725e-110
0
0
1.09512e-72
6.54116e-15
0
6.19887e-61
0
0
7002.78
0
4.50222e-74
9.77316e-112
0
1.44787e-108
155.613
1.27532e-06
4.37793e-84
4.5909e-52
2.55428e-126
1.22012e-40
1.06075e-12
2.32709e-26
3.12482e-81
0
8.57218e-10
9.75139e-99
6.21761e-06
0
0.927258
1.16475e-118
0
0
0
0
8.26462e-27
5.1216e-108
1.87592e-121
1.41511e-52
1.5099e-98
0.0546129
1.15988e-55
5.62728e-27
2.42293e-129
5.02642e-54
1.34381e-31
0
1.16167e-59
0
3.4235e-55
1.59978e-82
1.14988e-39
0
8.1066e-93
1.23017e-142
1.1048e-103
2131.12
1.35754e-63
0
2.42112e-109
2.95129e-14
7.23976e-21
0
24.0992
3.0234e-43
3.92893e-24
1.6309e-27
523.29
3.70892e-39
4.65037e-17
4.34209e-21
94.5695
0
7.46655e-106
1.47799e-97
0
0
92614.5
0
6.43342e-85
9.10395e-33
0
6.05933e-08
0
3.22332e-08
1.20919e-32
7.63942e-10
2.5861e-31
0.00254989
1.55982e-10
0
4.77969e-82
0
2.58573e-126
1.43205e-72
0
2.17283e-137
2.1085e-33
7.49442
1.08464e-80
16647.8
0
1.35518e-64
0
5.40945e-15
7.80269e-12
0
9.88167e-27
1.70032e-51
1.66674e-51
1.8246e-127
2.76698e-34
0
1.60644e-15
1.00695e-105
1.19484e-14
0
0
7.18387e-54
6.91226e-128
0
0
1.20017e+06
4.00433e-31
7.43532e-141
0
0
3.88507e-70
3.58996e-85
5.31192e-128
3.18186e-44
0
3.49513e-57
0
2.74599e-55
2.30598e-56
0
0
3.59543e-105
0
0
0
4.5223e-50
7.64799
0
1.37484e-36
38.1951
3.17088e-50
1.57267e-142
0
0
5.59626e-90
1.30645e-49
0
1.24523e-44
2.61683e-66
0
4.31945e-67
0
6.70338e-87
4.14906e-89
3.5488e-52
1.40341e-71
0
1.44347
8.73411e-98
3.11857e-92
2.92234e-84
1.03007e-45
3.04267e-40
4.71109e-98
4.92369e-08
0
0
0
2.638e-110
0
0
1.65256e-22
5.5489e-57
4.34943e-07
9.28356e-36
4.65967e-34
4.15282e-28
1.48782e-05
3.29604e-20
4.29716e-23
1.57389e-83
3.95829e-42
0.000124387
3.73776e-146
0
1.27526e-82
4.35768e-85
8.08942e-85
26.5478
1.0332e-11
0
0
2.33711e-113
0.225332
7.60736e-05
3.2071e-81
4.99126e-66
2.87349e-51
0
1.01641e-49
4.62182e-37
1.4764e-134
1.33629e-08
585.141
0
6.92765e-86
4.46177e-144
1.60316e-10
2.39628e-126
0
4.74515e-123
1.48633e-118
4.15156e-121
3.53907
5.28284e-07
0.334568
1.67789e-92
0
4.04563e-92
3.34316e-12
1.70734e-20
7.53777e-64
0
2.53389e-05
2.68867e-25
7.99655
0
0
0.0756085
2.74199e-60
6.18303e-74
6.40451e-40
1.90718e-108
1.99813e-50
2.02253e+06
1.07652e-91
0
0
8.14465
2.38375e-73
1.20598e-88
9.16053e-25
2.02018e-40
0
136.567
9.78064e-90
8.42478e-29
3.40976e-44
5.25044e-29
2.65448e-106
1.6427e-42
3.3837e-114
4.07525e-25
2.47695e-133
5.19915e-13
1.52027e-30
0
7.00386
2.93527e-96
5.03348e-109
7.47967e-110
3.01824e-36
1.68247
1.42978e-76
3.04387e-16
3.77159e-37
0
0
0
9.25536e-101
6.11468e-22
5.40575e-65
7.91495e-05
1.4131e-05
6.02984e-07
2.21961e-20
5.05051e-06
2.47274e-127
0.000115447
0.000206981
0
3.62009e-81
0
2.6256e-36
3.15321e-62
9.76264e-101
1.87666e-94
3.13371e-73
3.2466e-126
2.14106e-52
0
5.12799e-16
1.32267e-108
7.27958e-62
0
2.2398e-34
0
3.92589e-90
0
0
0.0328994
1.26005e-88
7.10321
1.36251e-25
0
0
8.96e-83
0
2.42377e-95
4.28184e-46
2.03622e-23
0
7.23089e-39
1.06643e-35
6.64235e-106
8.25009e-36
0
2.88141e-37
0
4.19929e-36
2.44158e-17
8.60444e-24
1.37606e-32
0
4.35358e-108
0
5.45762e-32
7.3043e-99
3.68622e-121
2.17124e-33
1.83877e-106
0
3.30657e-41
0.00117623
4.0008e-34
0
105.144
5.09926e-104
3.52368e-05
2.3555e-121
0
0
2.11819e-68
1.56816e-91
826.289
0
0
1.26322e-24
1181.2
1.19872e-13
0
0
0
0
1.80819e-29
0
0.010032
1.91434e-123
1.11555e-118
1.9796e-42
2.32119e-30
0
4.91921e-34
2.08906e-32
2463.26
13326.4
2.50533e-30
1.63813e-114
5.86371e-14
2.88977e-93
0
1.58351e-16
1.34397e-35
5.66676e-31
1.09442e-86
4.82901e-49
0
1.11927e-31
324.32
1.30143e-21
2.37845e-45
7.15945e-12
0.00168067
0
7.34557e-24
4.09137e-06
4.5316e-52
1.26197e-39
1.56413e-42
0
8.56815e-37
3.39341e-126
5.39163e-46
0
1.79908e-19
117.817
2.08571e-44
5.12961e-44
21.719
0
4.3939e-107
1070.57
0
7.83255e-124
0
3.08799e-53
35096.9
2.89425e-102
1.10782e-93
0.00337545
0
6296.04
0
3835.05
0
9.79956e-60
595.077
8.11201e-24
0
179.962
0
5.25471e-44
3.25858e-19
2.43211e-117
9.93483e-114
5.03447e-102
310.964
3.13433e-23
1.86405e-62
1.61805e-08
7.62281e-94
1.06584
68.9146
0.0783506
7.00562e-19
255.039
0
54.3636
0
6.89837e-73
0
6.63932e-120
9.37668e-122
2.22174e-127
0
4.72042e-131
7.24625e-07
1.33937e-10
1.04639e-21
5.68834e-05
0
1.06123e-85
0
0
1.16074e-127
3.9979e-106
22.5685
0.794966
3.716e-91
2.59937e-76
2.93436e-67
7.51773e-18
3.1472e-27
6.42094e-67
4.73426e-32
0
2.78569e-73
3.09393e-78
4.25555e-17
2153.76
9.14224e-23
1.3985
0.153953
4.86789e-71
3.21019e-33
1.39756e-08
2.46549e-82
2.40517e-87
1.99286e-90
4.5377e-06
4137.12
7.84965
68.2527
4.81574e-98
1.16019e-128
327472
0
5.60524e-18
4.04401e-60
2.298e-89
2.07677e-30
2.70996e-97
8.2426e-23
2.24354e-98
8.14785e-21
285.67
6.95548e-08
1.37093e-19
1.06701e-12
6.22302e-18
2.56539e-129
7.7297e-07
0
0
0
1.86633e-81
1.91756e-115
5.05865e-80
2.50589e-41
3.75089e-116
1.26961e-18
1.74911
0
0.0341373
2.41631e-119
6.63612e-85
48950.7
0
2.98854e-93
3.44219e-07
0
2.06759e-88
3.35874e-08
51.6245
6335.66
0.026305
0
146.758
111552
1.67353
1.90091e-84
0.00175601
7.23116e-08
1.01267e-09
0.686316
0
2.49565
3.98974e-11
2.15997e-82
1.51996e-10
0
4.0313e-09
7.62326e-35
0.449013
1.3906e-36
5.8141e-75
41.3431
35540.2
231.497
0
5.40141e-117
204066
3.88473e-145
5.89254e-35
5.82549e-13
0
127.289
5.64516e-37
5.05671e-61
2.05783e-50
3.72446e-54
5.24587e-59
5.86915e-39
0.0574656
1576.15
0.000235754
49.6037
5.26898e-85
2.17067e-05
0
8.9864e-49
1.35292e-73
3.42306e-59
1.08105e-50
5.59298e-58
0
3.12457e-48
1.40131e-40
5.71018e-52
0
3.23956e-33
0.318076
0
0
155.305
0
7.16178e-116
0.110041
1.17667e-60
1.65147e-54
4.75862e-66
0
3.05414e-106
0
0.000733342
0
1.64036e-25
1.91322
507.212
2.8555e-16
0
0.120236
0.00373799
0
39.5028
0
0
0
0.00479397
5.52947e-48
0.150886
3.51799e-73
0
1.10964e-127
5.68269e-126
8.39458e-06
8.09863e-119
1.38236
0
23.5901
0.0076986
0
5.14934e-103
340.159
0.0295496
53.9638
0.20722
0
3.74151e-08
207063
0
9.7415e-63
2.34974e-26
0
0.069146
2.31128e-66
1.10298
0.14638
0.00709447
0.0041792
1893.62
6.2758e-09
4.84941
2.4292e-45
21.0266
127497
1.83259e-16
35.8541
0
2.12518e-12
0.0278844
3.99093e-53
61.0384
2.85738e-18
9.189e-32
0
5.74059e-28
0.0315927
0
1.71873e-97
0
1.25258e-31
9.29211e-129
2.10558e-71
4.08484e-33
5.17521e-65
860.503
9.85993
8.11531e-43
194.128
1.59619e-24
3.93429e-133
9.75384e-30
0.0763849
4310.95
3.4512e-08
9.91939e-09
0.163694
7.22366
358068
8.68443e-07
5.53122e-33
5430.91
1.99817e-55
1.02209e-40
0
0
1.60906e-28
13.2023
1.89595e-05
2.49643e-15
0
96.0234
8.68862e-31
2.34001
1.59976e-30
0
1.26158e-96
8.73517e-32
8.72318e-76
0
5.65604e-43
14.015
43.0528
0
2.82871e-41
10145.7
2.6869e-43
1185.49
0
0.0415316
2.10174e-06
0
0
0
7.38109e-76
0
6.89852e-131
0
2.99595e-13
0.000303431
0
146.454
0.338118
2.94844e-31
1096.24
25.9241
162.889
28.5714
2.16726e-128
0.633452
3.33771e-13
2.48772e-114
1.41917e-69
0.654996
5.96517
0
6.32115e-97
0
3.20314e-56
0
29.558
10.2818
16.8977
6.56518
5.44964e-107
4094.13
2.21427e-21
4.36672e-129
0
8.84378e-70
0
60.376
0
6.83547e-58
226211
1.32167e-54
6.24055e-39
0
5.78175e-45
0
3.1496e-77
4.969e-05
7.0601e-26
0
1.86721e-09
2.04386e-09
479.974
1.2459e-42
2.01347e-39
3.65457e-71
5.30195e-41
4.04344e-37
3.88968e-47
4.19239e-06
1.6968
3.70584e-47
4.19948e-124
15217.6
3.70734e-37
6.28972e-123
6.94095e-38
9.16612e-36
1.62902
67.3336
557.929
0
1.06694e-12
0
9.59558
1.99934e-34
0
0.102666
4.8526e-97
0
2.1748e-93
6.68849e-83
342.45
2.22959e-139
0
0.914203
0.000472693
32.385
31.5432
0
0.0846896
0
0.0386198
6.83304e-63
2.13478e-11
0.0495133
11.075
0.207098
170.77
5.39845e-26
2.23669e-61
3.55564e-07
5.16825
5.62214e-07
0.285058
1.69854e-12
4.68508
1.62855e-95
1.41292e-120
1.0795e+06
83.6828
0.0361971
0
0.0342316
0.010036
6987.81
0
1.66924e-05
7.63951e-114
115.609
1.79145e-60
0
2.36595e-10
3.74727e-73
8529.87
0
0.000448578
27.8736
3.7091e-94
4.71041e-58
0.0125968
8.51094e-62
2.36496e-68
0
8.11645e-117
4.42677e-08
1.40261e-114
71.1787
190.765
0
1.22185e-115
185.427
5.27095e-64
0
1.79438e-07
2.5816e-103
3.43703e-99
0
9.43428e-66
0.00025192
0.000930997
4222.82
4.41804e-61
0
902.806
4.41601e-84
50.4063
635.025
5.52888e-111
0
3.3057e-30
0
137.17
0
6.90273e-75
6.40605e-144
0
0
460.055
99.4657
1.38188e-30
9.09621e-60
0
4.65691e-46
2.32872e-22
3.1643e-147
0.0967296
0
343.974
0.0370235
9.0822e-92
5.49166e-115
0
6.44172e-24
119.998
0
0.000127557
4.31797e-20
0
5.30581e-21
4.95672e-12
4.71963e-83
2.45796e-28
0
704.385
4.65904e-77
1.90793e-153
7.33776e-97
0
0
57.7225
103.602
1.01452e-149
5.46886e-147
170.646
0
1.01549
0
0
544.054
49637.9
0.000105071
1.36036e-54
0
6.19266e-12
42889.3
0
347.938
4.16522e-62
11675.1
0.00039634
1.45802e-78
163.387
160.605
2949.5
404.056
1244.65
4.40115e-28
0
4.06448e-104
1.81392e-05
0
2.82326e-10
686.943
9.68755e-47
6.45198e-08
6.0497e-65
0.00530847
429.986
2649.78
3.80178e-67
5.03066e-19
0.242069
1.70287e-130
20.302
0
1.73451e-109
2.49442e-110
1146.07
47.4086
7.68152
1.29625e-79
6.48812e-97
0
3881.25
1.60862e-16
66142.8
3.08629e-133
0
346.803
5.61668e-05
0
1.39027e-54
8937.18
1.43653e-49
1.77124e-49
4.56813e-19
528.942
2.62415e-17
7.75018e-15
3.49764e-135
589.476
1293.21
1.13042
0
2.87377e-56
32.034
1.67122e-90
1.80917e-05
3056.55
80.1167
60.4504
28.3507
16.6061
9.2227
0
1.89437e+06
1675.42
3.69931e-11
3.25657e-138
0
148919
3.56027e-131
0.00271342
28.202
0
251.608
1.25685e-136
67055.9
0.00116151
1.2081e-05
0.0148809
10.7244
1.2278e-85
7.82875e-137
1.98209e-43
2.60098e-30
0
0
0.468034
58.9821
1.80858e-134
1.49343e-138
0
5.00598e-53
1.34637e-38
0
1.95552e-17
0
555.95
2.44586e-54
62.9888
2.96932e-136
1.94833e-11
0
0
0.0361192
0
0
8.71005e-63
3.63877e-37
4.26168e-42
38690.4
39497.2
30.5051
1.37099e-15
5.82471e-33
1.45165e-34
0
0
0
3.06602e-29
0
3.41404e-26
7.20479e-24
42951.8
0
1.67121e-33
7.76947e-59
1.61761e-27
9.59599e-19
2.65807e-102
5.92446e-27
0
0
27046.9
2.80685e-52
25.2113
1.32545e-80
2.60905e-46
0.000509256
0.000537662
4.98534e-94
2.37976e-47
1.43578e-59
0
1.21195e-51
8.85177e-68
8.85946e-46
3.09093e-20
5.42083e-54
1.66662e-62
1.14729e-79
3.91394e-67
4.59013e-06
5.691e-66
0
4.54496e-66
1.02098e-21
1.90741e-66
0
2.97544e-19
1.3475
0.000643429
1.62838e-60
0
1.62843e-94
25.2348
297.085
0
16.4206
0
5.49478e-84
5.85081e-38
4.71193e-10
1.79663e-15
456.868
0
1.70601e-55
2.58405e-28
0
1785.42
0
9.43625e-101
6.3166e-73
0
1.4489e-58
3.5059e-99
0
2.93198e-65
2.10342e-95
0
1.78458e-58
4.35002e-98
4.78926e-36
6.5478e-98
1.25812e-39
0.00157064
5.24665e-64
2.12766e-101
0.102384
0.13237
0
3.2601e-92
0
5.39009e-42
2.65119e-16
0
1.94759e-64
6.97169e-08
9.25505e-63
2.90409e-49
0
0
1.16894e-54
0
0
5.60667e-17
614.211
8.70661e-13
4.17861
2.67052e-25
0.000261638
3.26062e-90
7.10183e-59
21.6518
6.43142e-92
0
0.048198
2.52834e-88
143.909
0
1.95718e-90
1.13379e-23
4.08863e-11
0.000468378
4.09529e-18
0.00201524
2.16636e-48
9.57958e-17
0.0176907
1.40051e-94
0
4.0508e-74
1.7222e-21
1.57208e-19
7.81418e-30
0.029366
6.76701e-20
7.52216e-05
6.85211e-23
0.116249
1.80862e-18
1.45527e-37
0
0.000154061
1.70828e-31
1.36677e-25
3.35341e-47
8.09653e-96
4.90554e-21
0
0
8.72167e-19
5.87168e-89
5.2042e-93
0
2.56332e-23
45.9418
0
1.33599e-40
3.25182e-36
4.77141e-74
5.15812e-34
3.79105e-74
1.66158e-38
0
3.64551e-49
5.2252e-74
5.33824e-77
1.79645e-75
4.77303e-73
0
3.44606e-66
0
9.50836e-106
7.18851e-89
1.06891e-05
0
0
271.646
1.65196e-109
1.16096e-47
0
1.03846e-79
8.33627e-86
4.61186e-51
8.8e-129
1.79288e-80
7.44374e-23
4.14972e-12
8.05098e-41
2.82682e-67
3.04027e-28
3.89799e-131
3.2667e-32
0.0202127
7.52067e-130
0
0.0155027
2.53259e-130
9.94553e-81
1.88797e-18
2.62412e-84
1.99765e-15
0
1.15337e-49
5.62368e-133
0
265.833
1.24705
1.14556e-43
1.59374e-95
1.07212e-127
5.58055e-87
0
0
2.20046e-97
4.13316e-97
3.47028e-57
0.0013798
3.49358e-71
0
1.34656e-95
1924.16
7.23323
2.87506e-06
966.676
1.02286e-07
1.19154e-66
5.00832e-15
1.20256e-55
9.81081e-85
2.31219e-68
0.0126547
3.9665e-64
4.21319e-68
8.30932e-07
362.115
2.37695e-60
0
852.148
8.29593e-60
1760.47
0
8.2639e-33
0
0
775.085
0
658.479
1.53367e-67
0
292.493
2.6566e-69
0
4.77342e-08
613.192
1.52532e-64
5.02114e-16
273.402
4.91079e-85
1.62986e-10
1138.1
2.75122e-10
2.46291e-19
4.23051e-82
0
0
7.51136e-12
70.0845
0
8.10146e-71
1.98306e-40
0
5.12209e-42
1.54543e-05
0
3.49447e-40
0
0.000290097
2.33598e-37
3.60513e-43
1.24855e-36
0
1.86739e-21
3.87632e-100
5.1326e-05
595.018
0
6.87991e-08
0.00270378
582.1
5.12227e-95
1.64734e-48
45677.7
0
3.26288e-05
3.38729e-35
3.69341e-18
2.6232e-83
0.00147948
2.16319e-110
6.96382e-109
0
0
44.4799
9.7751e-29
2.554e-30
679.492
3.60469
1.66753e-97
2.49027e-59
0
2.22146e-54
8.38692e-103
1.16914e-63
0
0
1.08951e-07
0
1.26349e-18
733.572
1.55846e-28
0
204.089
52.1117
0
2.35808e-32
2.10469e-05
1.76501e-28
0.617636
0
0.0187669
2.37928e-15
5.1827e-08
671.752
0.00382342
7.77842e-08
3.8298e-15
0.000276827
33.9685
1.19176e-85
5.14351e-48
0.00763109
7.35141e-34
0
9.01215e-14
4868.63
5.283e-25
2.44009e-52
100.062
2.76888e-42
0
19.0124
8.22968e-66
139.508
2.90094e-77
0.0637432
205.943
177.072
0
6.66554e-82
0
82.7544
8.03943e-48
0.0287854
1.25815e-39
95.157
145.48
0
0
12.6634
2.67758
10.2026
601.682
41.2226
0
0
2.08088e-69
0
1.00368e-105
3.24971e-88
5.78685e-69
6.78676e-47
9.44699e-89
0
0
641204
4.33862e-47
3.75822e-46
2.90678e-88
1.1135e-22
6.49068e-39
0
6.1134
2.64681e-73
0
2.29363e-46
0
3.11592e-42
0
0
2.40241e-69
2.47433e-24
1.19626e-35
2571.03
0
0
1.19365e-09
49551.5
0
0
7.52537e-07
1.04966e-111
0
393208
2.97135e-63
4.11219e-37
4.71487e-110
2.12482e-86
0
6.56624e-57
4.60949e-112
0
0
0
9.82526e-26
71.9408
7.74588e-111
3.90014e-07
3.83486e-109
3.40658e-17
0
0
0
10606.1
0
1.02527e-77
1.59109e-126
1.68078e-34
0
0
0
6898.36
70182.4
2.43361e-111
0.0542866
1.25077e-84
3.68725e-121
0
5.86445e-24
0
4.96428e-37
0
2.34647e-49
2.25259e-83
1.74774e-09
0
40.6935
2.13386
6.18238e-70
0
0
339.389
0
0
4.14773e-70
1.50869e-72
0
1.04642e-80
0
1.94806
9.23609e-83
4.7482e-39
2.33832e-36
971.451
957.66
2.01607e-73
0.111403
37.2606
3.9479e-87
0
1.41825e+06
0
3.64571
5.44084e-12
0
1.91276e-54
6.28683e-85
0.000267957
0
1.75772e-90
8.66834e-94
5.24672e-59
1.03142e-79
9.89632e-92
1.23893e-09
5.00034
3.70113e-14
9.78142e-23
0
1.05608e-12
159.043
0
1.51675e-40
0
26.0295
385.306
6.64825e-88
0
2.54669e-119
3.37184e-36
1.09098e-06
745.18
0
8.11777e-28
1.62217e-21
1.1901
7.9531e-134
9.59529e-90
1098.92
5.99821e-89
0
4.11729e-105
9.97654e-93
3.00263e-20
1.30549e-23
0
1.5757e-32
0
2.57394e-72
0
2.64845e-107
3879.23
0.000329433
3.53306e-113
0
3.76409e-109
0
2.6781e-94
17658.6
6.82329e-09
242.048
6.8788e-41
6.71794e-106
0
0
4.11841e-05
2.13601e-24
57.0926
0
1.1181e-103
1.7461e-77
2510.93
84702.6
2.66751e-06
0
0
0
18.0648
7.9619
443.254
1.70198e-23
310.488
0.00185027
0
2.81646e-86
7.95471e-126
3.10167e-70
1.0376e-108
1.08102e-55
1098.75
14490.7
25.5366
0.0334236
434.899
5.64596e-40
5.2612e-14
1.25175e-13
0
0
71.3282
0
558.627
11.7547
0
4.6716
26.9037
6.74536e-68
1.20227e-96
3940.07
0
1.9011e-124
602.859
312.48
1.65883e-141
2.11995e-101
9.53444e-86
1.62667e-110
0
0
7.84338e-109
0.441009
906.341
1.1464e-94
3.44836e-35
0
282.83
84.9223
2.78793e-46
5.60042e-127
9.92473e-117
102.404
9.76562e-76
4.78178e-62
8.46544e-13
0
4.40438e-35
8.48027e-100
5.38144e-78
2911.22
7.96063e-05
5.07979e-73
2.54455e-162
2.16084e-74
8.49588e-68
0
3.42869e-07
0
5.75642e-18
1.42985e-53
0
0
0
8.64385e-107
0
9.08819e-77
3.28861e-92
6.70944e-71
0
1.18801e-81
1.08474e-70
6.85547e-05
9.57171e-87
3.01777
6.77924e-64
8.47544e-132
3.03467e-85
0
0
2.97163e-62
80.0181
5.64444
3630.56
1.17627
8.27149e-57
9.51252
0
0.325063
4.75024
0.337954
0.00114037
1.86379e-57
4.98399e-62
0
3.00549e-55
1.41566e-117
8.58015e-80
3.92207e-40
111.839
0
1180.74
3.05226e-70
5.41813e-28
1.14044e-63
0
0
1.29856e-84
2.6352e-34
2019.8
0.0758378
2.65862e-82
0
1.20242e-23
0.00098223
3.31741e-33
3.15094e-31
633.156
8.39069e-62
977.54
2.26732e-139
1.76544e-126
5.84805e-19
1576.44
441.964
738.774
2244.42
39.2671
12.085
1580.26
0.0219967
1226.83
2.35122e-98
0
1.37617e-86
0
0.330421
191.599
0.890096
1.17979e-05
129.022
85.5565
0
252.691
0.0320434
2.03488e-115
0
5.34209e-108
0.0457531
58.7902
0
6.70503e-107
0.0999771
1576
0
24873.3
0.00781845
2.85122e-07
26.6965
5.71841e-123
0
49.2051
9.65842e-08
1.94172e-117
0
0
1.98471e-103
9.05868e-99
0
6.70447e-122
6.62222e-84
48.8955
3.21394e-93
6.32793
33.9155
9.7563e-90
6.54323e-06
0.598833
5.22866
1.19876e-07
2.65733
2.77044e-17
49.0689
0
2.70771e-135
2.53347
0
2.67544
1.11432
2.9157e-28
3.32822e-39
4.42624e-20
51.3007
390.885
0
1.13845e-43
0.00487201
0
119.239
1.30444e-116
0
0
0.0009546
3.16584e-72
4.37339e-08
1.24369e-105
1.99928e-69
1.11327e-33
0.234656
0.27333
0
0
0
337.05
1066.62
0
0
239452
1.34458
287.698
1.43458e-64
11.8403
6.02608e-89
2.17631e-38
3.45696e-97
0
2.33803e-93
7.00854e-76
1.09636e-94
300.99
8.47203e-137
6.68955e-30
4.26247e-94
0
1.66697e-95
9.51474e-126
3.25523e-70
0.698699
40.629
0
0
192.584
0
201.028
0
0
2934.27
1.23029e-63
0
0
59.0283
3.99591e-27
2.73436e-98
3.23835e-20
1.26446e-51
2.83805e-78
2.24968e-94
2.55556e-23
0
2.59427e-138
1.87592e-99
1.88841e-140
5.48883e-104
0
0
8.49843e-05
7.7887e-123
8.15594e-30
0
7.66635e-11
3.23985e-91
9.30714e-25
0
0
0
3.07852e-80
6.43202e-82
1.52603e-86
2.03292e-15
7.90664e-56
0
1.37561e-103
0
0
1798.43
3.76625e-94
0
1.67125e-91
2.05749e-76
0
106.312
5.96815e-105
0
4.89363e-77
0
0
0
1.05391e-84
1.94562e-43
0
0
8.27914e-45
0.262946
6.76248e-103
2.83459e-100
0
7.91127e-71
1.8272e-59
1.48035e-68
59891
0
1.27323e-72
6.71751e-44
0
3.91408e-05
1.7587e-91
0.0392303
2.13352
2.07818e-18
1.25578e-29
1.54206e-105
4.57585e-53
1.54944e-119
3.34614e-83
808.994
1.09962e-46
1.85684e-133
908.031
3.32723e-71
0
0
0
4.68941e-52
2.99163e-61
1142.44
6.61898e-81
3.74191e-129
0
1135.69
65.133
212.07
4.77995e-11
22.5879
50.8992
8.1021e-35
0
0
1258.21
2.36332e-68
0
1.30107e-63
1.3078e-51
9.73132
4.0938e-88
0
2.83378e-64
0
0
0
5.68588e-07
7.56627e-120
0
32.9845
0
0.00545826
3.42352e-98
1.42191e-70
4.20779e-122
3.83757e-62
5.91944e-64
3.91752e-16
0
4.5485
18.0102
0
0.0107146
372.805
1.6035e-15
3.35373e-115
2.59557e-102
4.24941e-96
2.96606e-87
0
1.58017e-115
3.16218e-118
7.03919e-94
65.2249
8.70574e-07
5.91431e-05
39.2383
1.13582e-81
149.208
6.91017e-20
0.0133665
5.59925e-22
3.58556e-119
2.18971e-06
1.15511e-104
0
0
74.491
122.339
325.852
4.56917e-95
116.263
1.25038e-73
2.78007e-27
0
9.28236e-15
1.42748e-120
6383.38
4.22751e-21
3.06156e-75
0
0
0.000180306
0
1.34612e-09
7.80219e-118
9.21749e-79
4967.02
6.19152e-99
6.60233e-15
5.99711e-120
7.08531e-20
2.3718e-90
0
3.70043e-91
0
0
7.66423e-90
729.525
4.00738e-72
5.907e-12
2.79782e-92
1.02087e-51
0.00589945
0
2.03332e-91
5.41744e-90
533.292
0
6.70743e-05
356.51
1.37011
1.58516e-124
1940.8
0
1.14087e-92
5.98965e-87
2301.67
1.16471e-12
4.06483e-89
0
3.22434
8.39098e-33
1.13195e-46
6.72147e-42
1.79244e-06
2.54235e-99
8.34729e-100
1.30124e-68
4.81939e-106
18.0726
6.94843e-109
41534.2
8.0091e-57
3.72542e-32
2.53449e-108
1.8125e-125
6.0026e-08
1.59086e-109
7.44745e-81
7.91159e-48
3.53207e-83
7.78808e-14
622.212
2.95738e-05
76.4001
0.00642099
0.00156173
0.000182914
9.7817e-39
0
1.68252e-94
13.609
457.858
701.868
7.4467e-05
1.72149e-13
160.773
0.0225616
49197.3
788.167
0
1729.31
14687.5
0.00048871
5.27797e-106
182.197
6.38833
42.7674
442.394
0.63648
0.000820175
1065.9
0
1197.47
1.2333e-26
5.68461
7.5955e-41
5395.96
1326.25
3.86112e-49
1.1394e-37
2.16209e-05
42.7935
8.29234e-20
6.76766
6.45312e-125
7.75557e-116
1131.02
2.01827e-26
5.77957e-34
1.60034e-38
8.98231e-119
5.72388e-28
8.87469e-84
1.5835e+06
161.837
0
7.11815e-41
1171.35
0
513.772
219.511
759.275
1.52946e-13
0
0
1738.65
1.03033e-87
1.59788e-88
1.56965e-29
0
1.7093e-38
1359.79
1.22374e-21
1.50556e-26
721.331
1.82536
1.58844e-117
2.98924e-83
375.32
9.29898e-45
0
3.00368
0
1.17795e-119
0
0.00400285
135.415
1030.5
0
0
2.3461e-101
0.0365265
231.938
0.0036564
2288.22
2.88434e-128
7.04463e-25
1.31944e-126
1.30469e-12
0
26.6338
4.52969e-05
0
1009.3
0
0
3.93564e-10
0
8.11752e-10
0
50.7156
0
1.12235e-131
6.54137e-84
4.58026e-21
10.8177
1.23517e-62
1.43641e-65
0.798484
1.24723e-79
0
2.89534e-18
4.87578e-131
7.52567e-65
5.90744e-96
0
1.20271e-67
9.25345e-81
0
1.19935e-47
2.7849
3.79438e-50
0.877907
1.44157e+06
0
4.80537
0
1.2242e-15
1.18604e-84
0
1.81923
899.701
499.181
2.0491
0
0.136565
6.92681e-62
1.41346e-34
32.751
1.29534e-10
0.000851186
4.77605e-26
0
0.0476482
6.05385e-66
4.37937e-71
2.21906e-128
0
3.38226e-11
1.50093e-55
312.377
8.4525e-131
1.41148e-25
6.54315e-47
65.0431
298.126
0