/*--------------------------------*- C++ -*----------------------------------*\
| =========                 |                                                 |
| \\      /  F ield         | OpenFOAM: The Open Source CFD Toolbox           |
|  \\    /   O peration     | Version:  v2012                                 |
|   \\  /    A nd           | Website:  www.openfoam.com                      |
|    \\/     M anipulation  |                                                 |
\*---------------------------------------------------------------------------*/
FoamFile
{
    version     2.0;
    format      ascii;
    class       volScalarField;
    location    "3.5";
    object      qin;
}
// * * * * * * * * * * * * * * * * * * * * * * * * * * * * * * * * * * * * * //

dimensions      [1 0 -3 0 0 0 0];


internalField   uniform 0;

boundaryField
{
    fire_inlet
    {
        type            calculated;
        value           nonuniform List<scalar> 
41
(
9996.07
11984.2
14592.9
15883.9
7428.01
21235.3
25901.6
26499.9
32380.4
19798.6
27173.4
26505.5
25182.1
27544.5
30637.8
32828.3
17042.4
12009.7
16762.2
12005.6
16672.2
12213.5
14960.1
21280.9
19313
23963.7
32727.7
23888.1
31537.5
18435.8
28157.9
34607.5
35575.6
29358.2
30941.5
31845.9
36077.6
35931.5
36604.6
34239.6
36979.9
)
;
    }
    outlet
    {
        type            calculated;
        value           nonuniform List<scalar> 
400
(
1633.74
1820.65
1877.55
1620.05
1638.21
1746.8
1630.74
1478.15
1756.34
1719.95
1683.62
1726.78
1654.93
1669.77
1582.56
1655.03
1766.46
1498.61
1394.62
1559.23
1378.84
1531.09
1479.84
1514.38
1655.39
1604.41
1682.99
1686.64
1740.85
1707.48
1570.19
1875.28
1801.07
1691.44
1688.17
1876.93
1605.03
1834.97
1685.67
1725.21
1661.05
1842.58
1726.4
1621.05
1759.36
1685.37
1731.91
1783.61
1710.04
1781.9
1812.85
1718.64
1812.85
1691.54
1853.28
1749.44
1764.63
1719.53
1723.9
1705.42
1729.39
1886.53
1523.39
1540.06
1589.11
1614.51
1602.19
1687.43
1882.33
1601.63
1692.93
1642.89
1636.71
1717.2
1775.09
1604.77
1679.5
1828.22
1762.81
1738.75
1684.96
1720.46
1714.37
1627.13
1730.33
1684.37
1762.29
1641.3
1825.62
1692.52
1722.15
1722.22
1658.71
1877.25
1773.96
1771.75
1779.8
1707.52
1720.36
1722.69
459.305
459.305
459.305
459.305
459.305
459.305
459.304
459.304
459.304
459.304
459.304
459.304
459.304
459.304
459.304
459.304
459.304
459.305
459.305
459.305
459.305
459.305
459.305
459.305
459.304
459.305
459.304
459.304
459.304
459.305
459.304
459.305
459.305
459.305
459.305
459.305
459.304
459.305
459.304
459.305
459.304
459.305
459.305
459.304
459.304
459.304
459.304
459.305
459.305
459.305
459.305
459.304
459.305
459.305
459.305
459.304
459.304
459.304
459.304
459.305
459.305
459.305
459.305
459.305
459.305
459.305
459.305
459.304
459.305
459.304
459.304
459.304
459.305
459.304
459.305
459.305
459.304
459.304
459.304
459.305
459.305
459.305
459.304
459.304
459.304
459.304
459.305
459.304
459.304
459.305
459.304
459.305
459.305
459.305
459.304
459.304
459.304
459.304
459.305
459.304
459.304
459.304
459.304
459.304
459.304
459.305
459.304
459.304
459.304
459.304
459.479
459.59
459.781
459.674
460.127
459.902
460.371
460.454
460.807
460.776
460.679
460.945
460.578
461.857
463.847
462.981
467.982
466.561
473.085
470.684
476.989
475.322
483.74
481.19
487.987
485.062
489.356
488.867
486.707
488.205
483.247
480.471
483.946
459.824
460.296
463.588
472.593
477.937
474.619
479.62
459.476
459.644
459.774
459.926
459.874
459.869
459.483
459.552
460.959
461.366
462.983
465.808
465.826
460.907
459.611
459.641
459.741
459.782
459.526
459.911
459.929
459.685
470.616
460.079
459.961
459.702
460.066
459.916
460.13
460.68
460.125
461.172
460.688
461.511
461.71
461.301
459.548
466.242
470.346
467.242
474.199
473.4
480.2
475.637
483.794
482.551
484.807
483.886
483.527
483.805
482.707
459.6
462.922
460.498
472.743
460.237
460.939
460.069
460.116
459.719
460.019
459.986
460.38
460.676
459.804
459.599
459.841
462.18
460.36
459.937
461.21
463.036
476.195
463.995
465.542
466.119
459.879
462.737
460.759
470.08
477.496
481.281
462.193
463.173
464.027
462.313
460.251
466.936
465.311
460.452
471.312
470.631
474.993
471.056
478.813
473.747
478.661
477.43
480.289
477.693
477.689
460.858
461.673
468.818
471.444
461.593
462.311
461.801
462.397
461.538
461.955
461.673
460.753
460.552
461.053
464.995
467.879
461.602
461.49
461.676
464.877
463.645
467.504
465.41
470.075
468.142
470.437
470.037
475.802
471.068
476.772
465.01
464.6
469.979
461.345
462.24
469.103
464.231
462.472
463.573
461.799
468.421
466.833
464.498
463.105
466.954
461.957
465.041
464.468
463.521
)
;
    }
    base
    {
        type            calculated;
        value           nonuniform List<scalar> 
14237
(
1576.24
1940.71
1908.65
892.816
1312.08
1603.39
1762.27
1699.57
1371.94
1845.36
1837.44
894.769
943.145
1020.94
1096.55
1242.38
1726.49
1519.33
1855.74
1813.34
1869.81
1924.33
1800.91
2315.29
1986.9
2184.34
1298.87
857.877
819.488
1638.87
1089.57
1159.3
1747.78
1605.31
1710.3
2019.32
1849.08
963.372
2131.77
1325.87
1309.05
1284.72
1856.61
978.15
2103.77
2154.73
2031.24
1333.95
1512.75
1351.43
1424.82
932.4
1569.39
1386.75
1770.79
1646.97
1317.37
865.413
1023.65
1022.42
950.259
1046.88
1221.7
1106.67
1188.46
982.748
938.126
1069.66
1245.19
1085.19
970.23
459.304
459.304
459.304
459.304
459.304
459.304
459.304
459.304
459.304
459.304
459.305
459.305
459.305
459.305
459.304
459.305
459.304
459.304
459.304
459.304
459.304
459.304
459.304
459.304
459.304
459.304
459.304
459.304
459.304
459.304
459.305
459.305
459.305
459.305
459.305
459.305
459.305
459.305
459.305
459.305
459.305
459.305
459.305
459.305
459.306
459.306
459.307
459.306
459.308
459.307
459.309
459.309
459.311
459.311
459.313
459.313
459.315
459.316
459.318
459.318
459.33
459.33
459.721
459.636
506.295
524.076
518.924
503.602
488.543
477.737
470.524
463.462
460.31
459.305
459.305
459.305
459.306
459.31
459.325
459.35
459.387
459.455
459.946
463.87
485.301
459.305
459.306
459.305
459.306
459.306
459.307
459.307
459.308
459.308
459.309
459.309
459.31
459.31
459.311
459.312
459.314
459.314
459.318
459.317
459.32
459.32
459.321
459.322
459.329
459.333
459.328
459.338
459.335
459.356
459.343
459.42
459.371
459.601
459.464
460.012
459.726
461.088
460.472
462.098
461.504
463.371
462.855
464.508
464.123
464.952
465.177
464
464.48
462.881
463.553
461.349
462.25
460.354
460.624
459.723
460.034
459.503
459.597
459.454
459.479
459.437
459.45
459.437
459.447
459.444
459.454
459.478
459.468
459.618
459.542
459.899
459.833
460.829
459.239
459.271
459.411
460.807
463.353
467.143
467.101
467.657
470.397
483.299
508.47
545.378
596.396
606.383
563.067
495.468
477.197
473.078
468.265
464.58
459.239
459.304
459.303
459.302
459.299
459.297
459.296
459.304
459.313
459.314
459.308
459.294
459.253
459.246
459.304
460.079
509.89
512.152
525.226
513.366
495.125
482.73
472.51
466.624
461.384
459.305
459.305
459.305
459.305
459.306
459.307
459.314
459.337
459.368
459.406
459.52
461.114
468.925
460.871
460.827
462.471
459.271
459.243
459.298
459.298
459.966
462.474
465.652
466.507
467.19
468.231
474.621
497.203
523.872
575.387
603.305
591.415
519.755
481.838
473.798
472.485
466.272
462.184
459.304
459.303
459.3
459.298
459.296
459.298
459.309
459.314
459.313
459.302
459.277
459.304
535.361
520.37
497.575
484.672
474.373
467.633
461.825
459.981
459.305
459.307
459.312
459.326
459.352
459.388
459.532
461.076
468.346
510.213
459.305
467.194
467.158
467.823
471.035
486.176
519.498
572.145
636.047
609.298
531.885
484.55
474.433
472.701
466.693
462.578
459.303
459.302
459.3
459.298
459.297
459.305
459.313
459.314
459.304
459.282
466.559
525.26
528.483
508.09
494.423
478.652
471.088
463.512
460.318
459.317
459.338
459.376
459.412
459.856
464.021
483.013
468.556
476.149
501.819
542.533
611.601
618.549
577.812
501.322
478.27
472.222
469.124
464.925
461.057
459.304
459.303
459.3
459.298
459.297
459.299
459.31
459.314
459.312
459.298
509.668
459.309
459.306
463.388
459.414
467.248
459.986
465.705
459.304
539.836
459.734
459.304
459.304
459.304
459.304
459.304
459.305
459.305
459.305
459.305
459.305
459.305
459.304
459.305
459.304
459.304
459.304
459.304
459.305
459.305
459.305
459.304
459.305
459.304
459.305
459.305
459.305
459.305
459.305
459.305
459.305
459.305
459.305
459.305
459.305
459.305
459.306
459.305
459.307
459.306
459.308
459.307
459.31
459.309
459.313
459.312
459.316
459.315
459.32
459.319
459.325
459.324
459.352
459.35
459.69
459.821
459.664
459.308
535.055
543.336
525.511
517.969
500.366
507.56
496.952
483.751
470.239
463.709
462.959
460.517
459.596
459.314
463.391
459.307
459.307
459.305
459.305
459.306
461.787
459.31
459.309
459.312
459.306
459.306
459.306
459.329
459.37
459.399
459.996
461.382
470.093
501.289
466.163
459.304
460.126
459.306
459.307
459.306
459.308
459.308
459.309
459.309
459.311
459.311
459.313
459.315
459.315
459.316
459.318
459.317
459.319
459.319
459.32
459.321
459.326
459.334
459.326
459.327
459.343
459.334
459.372
459.348
459.458
459.394
459.706
459.521
460.481
459.947
461.435
460.938
462.878
462.203
464.159
463.797
465.331
465.41
464.517
465.259
463.585
464.027
462.286
462.935
460.646
461.847
460.063
460.26
459.629
459.895
459.487
459.543
459.469
459.484
459.465
459.47
459.478
459.484
459.478
459.508
459.582
459.549
459.908
460.924
459.824
465.29
459.253
459.255
463.827
461.812
462.01
460.293
460.306
459.249
463.349
463.47
537.945
466.971
464.67
459.659
459.332
459.668
475.477
503.241
544.774
628.958
630.853
581.799
498.054
474.027
471.102
466.716
461.883
461.423
460.98
461.048
459.304
459.303
459.301
459.299
459.299
459.3
459.312
459.316
459.313
459.3
522.609
536.842
465.489
463.318
459.268
459.304
524.38
530.914
459.304
459.304
459.304
459.305
459.304
459.268
459.502
459.279
459.259
459.304
459.304
538.227
531.362
497.125
486.288
476.556
467.848
460.595
460.314
460.021
459.846
459.657
459.73
459.501
459.375
459.325
459.345
459.314
459.516
460.268
463.429
476.373
514.156
459.304
463.482
459.304
548.783
464.5
469.936
487.838
526.909
578.258
665.027
617.877
533.575
482.877
473.011
470.511
463.773
467.131
459.303
476.695
459.303
459.302
459.3
459.298
459.299
459.306
459.315
459.315
459.306
471.285
472.324
525.614
508.696
459.301
459.314
459.315
459.309
459.301
459.299
462.277
465.852
459.288
459.311
459.315
459.312
459.303
459.299
459.301
463.415
467.206
471.028
483.641
550.516
637.092
691.425
459.306
459.304
510.867
476.079
462.025
459.304
463.807
459.304
459.414
470.424
468.007
599.751
524.788
485.654
459.347
459.325
459.33
459.613
464.554
681.861
618.439
539.613
492.938
471.262
476.904
519.382
567.271
459.303
459.3
459.302
459.3
459.311
459.304
459.305
459.304
459.305
459.305
459.305
459.305
459.305
459.305
459.305
459.305
459.304
459.304
459.305
459.556
461.809
459.415
459.542
459.305
459.305
459.305
459.305
459.305
459.305
459.305
459.305
459.305
459.306
459.305
459.306
459.306
459.307
459.307
459.309
459.309
459.311
459.311
459.313
459.314
459.32
459.32
459.326
459.323
459.335
459.336
459.375
459.374
576.024
571.052
510.804
501.217
593.77
459.304
465.649
459.304
459.551
459.409
459.331
459.479
459.429
466.752
464.374
459.324
459.328
459.316
459.317
467.462
706.636
464.099
467.285
462.494
462.441
461.229
475.915
459.305
459.305
459.305
459.308
459.31
459.31
459.314
459.314
459.317
459.316
459.318
459.32
459.32
459.321
459.322
459.324
459.324
459.325
459.329
459.334
459.328
517.788
459.347
459.341
459.395
459.364
459.53
459.447
459.986
459.778
460.945
460.418
462.218
461.674
464.18
463.433
465.451
465.113
465.296
465.886
464.236
465.157
462.954
463.995
461.863
462.187
460.268
461.71
459.902
460.112
459.549
459.671
459.488
459.537
459.476
459.492
459.498
459.495
459.519
459.519
460.039
459.242
459.37
459.398
463.176
462.172
595.545
468.988
469.938
492.016
502.727
544.97
566.262
744.832
754.391
510.575
668.369
709.547
637.869
488.159
478.479
466.633
459.288
464.28
464.679
464.847
473.287
469.214
459.302
462.273
462.413
461.704
459.303
459.303
459.304
459.303
459.303
459.303
459.31
459.318
459.316
459.314
466.286
465.238
464.189
459.304
459.265
462.309
461.86
526.757
550.289
612.161
499.347
479.749
459.416
577.396
565.232
631.438
459.344
500.764
495.42
497.383
459.308
459.304
459.304
459.304
459.304
459.304
542.795
525.685
461.448
459.312
459.316
459.307
459.306
664.013
459.636
459.626
481.224
474.747
459.304
460.057
460.244
459.581
459.508
459.922
481.701
462.251
462.253
459.306
459.275
459.306
459.306
459.311
459.314
459.309
459.308
459.311
460.56
461.842
462.079
459.343
475.867
460.36
531.505
459.337
459.604
459.249
459.265
459.353
463.217
459.593
459.548
461.31
460.42
459.304
512.044
459.307
459.307
459.307
459.349
459.348
459.351
459.304
459.306
656.559
507.449
459.304
540.994
459.337
470.004
459.296
460.805
461.358
460.279
459.304
459.303
459.308
459.302
459.305
459.316
459.318
459.332
538.498
507.438
459.411
459.576
459.317
459.306
460.95
483.281
474.851
467.154
459.306
717.249
652.223
557.862
469.705
459.303
459.305
459.308
459.305
459.307
459.317
459.304
459.307
459.307
459.305
459.305
459.305
459.305
459.305
459.305
459.305
459.305
482.045
460.576
460.343
459.321
459.305
459.305
459.305
459.305
459.305
459.306
459.306
459.307
459.306
459.309
459.308
459.311
459.31
459.315
459.313
459.319
459.317
459.328
459.324
459.331
459.331
459.351
459.348
459.399
459.398
635.569
576.17
502.758
491.194
717.324
473.491
475.274
464.04
461.461
459.311
461.434
459.286
462.091
459.336
464.718
459.327
459.329
546.494
459.306
461.305
461.325
460.907
460.992
460.324
459.356
459.311
466.377
466.976
460.487
459.316
459.316
459.32
459.321
459.324
459.325
459.324
459.327
459.328
459.329
459.328
459.334
459.332
459.34
459.332
459.343
459.351
459.366
459.353
459.449
459.407
459.784
459.655
460.433
460.021
461.688
460.802
463.462
462.465
465.155
464.429
466.381
466.296
466.069
466.936
464.986
465.27
462.9
464.893
461.737
462.267
460.073
460.971
459.688
459.855
459.551
459.589
459.504
459.53
459.512
459.52
459.302
502.717
459.308
459.301
678.157
715.125
459.419
459.68
459.777
459.55
459.304
461.095
460.411
497.568
569.183
610.256
488.091
460.345
460.025
459.829
459.305
548.195
459.31
459.293
528.945
547.586
459.797
459.485
459.821
459.308
459.307
459.309
462.588
460.909
464.65
459.304
459.305
459.304
459.309
459.314
459.311
459.311
459.317
459.319
459.308
459.302
471.273
466.44
460.104
460.105
497.969
480.698
459.315
459.316
695.725
459.315
459.31
459.304
460.215
459.289
459.314
459.482
459.305
484.027
488.56
459.304
459.305
459.31
459.54
459.538
679.876
472.457
756.793
757.272
462.343
461.882
460.522
459.277
504.318
459.31
459.319
459.325
459.586
459.331
459.366
506.22
459.38
459.345
459.995
459.749
461.497
461.21
459.301
459.772
459.305
459.306
522.705
459.265
459.304
459.374
459.395
487.093
459.308
459.31
459.304
477.335
524.195
459.799
459.677
459.299
459.308
459.307
459.308
487.359
459.258
459.261
459.312
459.304
459.368
480.486
459.305
594.75
717.947
459.305
465.491
469.554
462.669
459.304
459.305
459.304
459.304
459.548
459.426
459.447
459.319
459.304
459.282
461.062
460.567
613.899
491.786
459.318
669.257
685.43
725.228
459.32
459.304
459.42
481.274
459.317
459.305
459.305
459.305
459.305
459.316
459.344
699.082
761.11
459.305
459.306
459.306
459.307
459.307
459.309
459.308
459.311
459.311
459.315
459.315
459.321
459.32
459.327
459.325
459.334
459.334
459.354
459.353
459.406
459.404
633.232
461.621
474.995
459.303
459.558
459.584
466.372
500.862
459.284
563.942
459.313
459.313
459.318
462.229
616.478
459.523
459.521
459.724
459.642
460.369
459.319
459.326
459.327
459.331
459.331
459.335
459.338
459.334
459.344
459.341
459.341
459.342
459.349
459.342
486.013
459.371
506.526
459.395
459.362
459.584
459.41
460.074
459.715
460.801
460.34
462.416
461.818
464.409
463.875
467.12
466.219
468.134
467.857
465.943
468.327
464.926
465.353
462.283
464.385
460.987
461.983
460.119
460.466
459.648
459.954
459.555
459.617
459.538
459.555
459.324
459.296
459.349
459.366
459.311
459.319
459.309
459.988
488.954
525.648
459.451
462.094
459.28
459.293
459.264
459.305
459.305
474.059
459.305
459.305
459.305
459.643
524.772
461.594
459.314
459.311
467.694
471.447
459.304
459.304
459.305
459.321
459.327
482.557
459.32
459.322
464.954
462.689
459.379
459.379
459.419
459.304
459.304
459.305
459.87
476.467
459.318
459.318
459.254
551.87
483.09
488.553
602.461
539.973
467.999
461.202
459.399
459.321
459.349
463.628
466.746
459.306
738.983
479.316
459.401
459.478
459.476
766.12
778.134
471.503
459.338
459.342
459.58
460.278
479.307
461.019
459.367
476.842
478.996
476.558
459.318
459.31
459.315
460.567
467.316
475.483
465.2
460.287
459.956
459.305
459.305
459.315
459.317
460.627
772.866
459.306
459.307
459.696
459.319
459.319
459.293
459.28
459.317
671.597
459.275
459.275
459.268
474.556
462.193
460.8
459.555
459.765
599.367
459.779
459.814
459.706
460.326
460.271
462.249
459.312
459.309
459.316
459.305
459.305
459.305
460.263
459.996
459.269
459.263
459.314
459.317
459.316
460.575
459.305
459.305
477.028
459.284
459.322
459.307
459.31
459.308
459.312
459.311
459.315
459.313
459.321
459.316
459.324
459.324
459.336
459.329
459.355
459.354
459.397
459.396
461.114
459.305
459.305
459.334
477.805
459.328
459.435
459.434
464.937
459.32
460.216
459.345
459.343
459.353
459.355
459.354
459.354
459.349
459.353
459.349
459.352
459.351
459.413
459.378
459.692
459.482
460.249
459.939
461.483
460.998
463.93
462.301
466.265
465.058
467.866
467.203
468.382
468.985
465.671
469.076
464.424
465.724
462
463.734
460.477
462.047
459.916
460.309
459.622
459.805
459.311
459.294
459.292
470.097
459.3
459.293
459.324
459.325
459.305
459.349
459.346
459.311
459.308
470.231
459.394
459.288
462.686
459.327
459.328
459.337
459.32
459.321
459.27
474.991
474.393
477.297
459.324
459.33
459.622
466.313
469.827
459.334
462.327
459.442
459.441
459.305
461.012
460.069
459.307
459.369
459.388
459.305
459.305
459.562
459.313
467.054
459.322
459.323
459.316
459.337
459.58
459.632
459.572
459.305
459.305
459.307
459.307
459.305
459.627
459.405
459.409
470.011
476.974
459.323
459.314
459.308
459.279
459.293
459.306
459.307
459.319
459.319
459.305
459.305
459.329
459.305
459.306
459.305
459.329
459.33
459.321
459.46
459.526
459.717
460.055
460.078
459.305
459.304
459.767
459.819
459.334
459.305
459.311
459.313
459.312
459.318
459.314
459.322
459.322
459.33
459.325
459.359
459.349
459.389
459.387
459.651
459.305
459.306
459.335
459.418
459.322
459.303
462.543
462.258
464.084
460.13
459.306
459.362
459.373
459.375
459.384
459.383
459.38
459.388
459.387
459.386
459.491
459.945
459.508
461.011
460.131
462.324
461.608
464.502
463.398
467.352
466.185
469.357
469.078
469.153
470.023
465.772
468.094
463.767
465.185
462.066
462.783
460.32
461.581
459.836
459.777
460.144
459.305
459.347
459.361
459.344
459.31
459.31
459.312
459.34
459.304
459.306
459.418
459.408
459.343
459.387
459.327
459.322
459.309
459.36
459.353
474.647
459.434
459.35
459.35
459.369
468.351
469.325
463.321
459.306
459.305
459.326
459.329
459.443
459.322
459.306
459.423
459.32
459.325
459.344
459.449
462.707
461.783
459.307
459.309
459.308
459.648
459.31
459.365
459.362
474.22
459.322
459.306
459.305
459.305
459.305
459.327
459.308
459.324
459.323
459.355
459.741
459.45
459.308
459.305
460.419
460.533
459.517
459.517
474.535
476.257
459.322
459.321
459.316
459.418
459.426
459.838
470.296
474.103
460.21
461.743
460.283
459.419
459.306
459.32
459.314
459.319
469.253
465.352
459.372
459.373
459.404
459.363
459.407
459.409
459.392
459.409
459.522
460.142
459.637
461.212
460.143
463.391
461.444
466.217
464.146
469.079
466.877
470.064
470.332
468.138
471.216
466.466
467.67
463.36
465.529
461.657
462.455
476.129
459.384
459.381
459.403
459.382
459.325
459.381
459.379
459.412
459.482
459.673
459.651
472.049
459.325
459.32
459.773
459.309
459.332
459.331
459.315
474.825
459.324
459.31
459.793
471.947
459.831
459.313
459.468
459.458
459.576
459.61
460.389
460.382
461.466
464.869
470.226
462.328
462.377
459.306
459.447
459.472
474.069
474.752
460.874
460.801
460.974
461.068
459.474
459.455
459.645
470.186
459.405
461.698
461.683
462.476
459.924
461.537
460.026
463.939
461.799
467.042
464.291
470.339
467.437
471.808
471.452
469.73
472.247
465.562
469.103
459.828
462.477
464.32
461.642
459.666
464.793
464.796
459.434
459.638
459.647
459.463
464.738
459.426
459.44
473.814
459.392
470.545
473.543
470.24
461.557
463.351
463.838
459.44
459.42
466.489
465.492
469.924
468.496
459.417
459.975
464.087
467.204
472.324
469.517
460.109
459.903
461.37
463.665
463.642
460.045
466.107
464.352
461.773
464.634
473.394
473.484
459.498
460.922
459.444
459.481
473.418
471.338
459.657
471.432
464.475
459.509
467.994
467.971
471.355
459.61
468.188
469.941
459.304
459.304
459.304
459.304
459.304
459.304
459.304
459.304
459.304
459.304
459.304
459.304
459.304
459.304
459.304
459.304
459.304
459.304
459.304
459.304
459.304
459.304
459.304
459.304
459.304
459.304
459.304
459.304
459.304
459.304
459.304
459.304
459.304
459.304
459.304
459.304
459.304
459.304
459.304
459.304
459.304
459.304
459.304
459.304
459.304
459.304
459.304
459.306
459.306
459.306
459.306
459.305
459.305
459.305
459.305
459.305
459.305
459.305
459.305
459.305
459.305
459.305
459.305
459.305
459.305
459.305
459.305
459.304
459.304
459.304
459.306
459.306
459.307
459.306
459.305
459.305
459.304
459.304
459.305
459.305
459.305
459.305
459.305
459.305
459.305
459.305
459.305
459.305
459.304
459.304
459.304
459.304
459.304
459.304
459.304
459.304
459.305
459.305
459.305
459.305
459.304
459.304
459.304
459.304
459.304
459.304
459.304
459.304
459.304
459.304
459.304
459.304
459.306
459.306
459.306
459.304
459.306
459.306
459.306
459.306
459.306
459.305
459.305
459.304
459.305
459.305
459.305
459.305
459.304
459.305
459.305
459.305
459.305
459.305
459.304
459.304
459.304
459.304
459.304
459.304
459.304
459.304
459.304
459.306
459.305
459.305
459.304
459.304
459.306
459.305
459.305
459.305
459.305
459.305
459.305
459.304
459.304
459.304
459.304
459.304
459.304
459.306
459.305
459.305
459.304
459.304
459.304
459.304
459.304
459.304
459.304
459.306
459.305
459.306
459.306
459.306
459.306
459.305
459.305
459.305
459.304
459.304
459.304
459.304
459.304
459.306
459.304
459.304
459.304
459.304
459.304
459.304
459.304
459.304
459.304
459.304
459.304
459.304
459.304
459.304
459.304
459.304
459.304
459.304
459.304
459.304
459.304
459.304
459.304
459.304
459.304
459.304
459.306
459.305
459.305
459.305
459.305
459.305
459.305
459.305
459.305
459.305
459.305
459.305
459.305
459.305
459.305
459.305
459.305
459.305
459.305
459.304
459.304
459.306
459.306
459.305
459.306
459.305
459.305
459.305
459.306
459.304
459.304
459.306
459.304
459.306
459.305
459.306
459.305
459.305
459.305
459.304
459.306
459.304
459.304
459.305
459.305
459.304
459.305
459.304
459.304
459.304
459.304
459.304
459.304
459.304
459.304
459.304
459.305
459.304
459.304
459.304
459.304
459.304
459.304
459.304
459.304
459.306
459.306
459.306
459.304
459.305
459.305
459.305
459.305
459.305
459.305
459.305
459.306
459.305
459.304
459.305
459.305
459.305
459.304
459.306
459.304
459.306
459.304
459.304
459.304
459.304
459.304
459.304
459.304
459.304
459.304
459.304
459.304
459.305
459.306
459.304
459.304
459.304
459.304
459.305
459.305
459.305
459.304
459.304
459.304
459.304
459.304
459.304
459.304
459.304
459.304
459.305
459.304
459.304
459.304
459.304
459.305
459.305
459.305
459.305
459.305
459.305
459.305
459.305
459.305
459.304
459.304
459.304
459.304
459.304
459.304
459.305
459.305
459.304
459.304
459.304
459.304
459.304
459.304
459.304
459.304
459.304
459.304
459.304
459.305
459.304
459.305
459.304
459.304
459.305
459.304
459.304
459.304
459.304
459.304
459.304
459.304
459.305
459.304
459.304
459.304
459.305
459.305
459.305
459.304
459.304
459.304
459.304
459.304
459.304
459.304
459.304
459.304
459.304
459.304
459.304
459.304
459.304
459.304
459.304
459.304
459.304
459.304
459.304
459.304
459.304
459.304
459.304
459.304
459.304
459.304
459.306
459.308
459.313
459.333
459.362
459.354
459.33
459.326
459.335
459.337
459.322
459.284
459.175
459.17
459.164
459.255
459.277
459.314
459.303
459.282
459.285
459.27
459.172
459.134
459.151
459.303
459.303
459.302
459.302
459.301
459.302
459.3
459.301
459.297
459.299
459.292
459.296
459.289
459.291
459.283
459.286
459.279
459.281
459.276
459.277
459.274
459.275
459.279
459.277
459.291
459.284
459.301
459.296
459.31
459.307
459.316
459.314
459.317
459.317
459.318
459.316
459.306
459.315
459.293
459.304
459.273
459.285
459.242
459.246
459.178
459.216
459.303
459.307
459.308
459.308
459.309
459.308
459.309
459.31
459.309
459.31
459.309
459.31
459.308
459.309
459.308
459.309
459.307
459.309
459.307
459.307
459.306
459.307
459.305
459.305
459.304
459.305
459.304
459.304
459.304
459.303
459.304
459.16
459.309
459.323
459.346
459.372
459.339
459.324
459.331
459.336
459.332
459.305
459.252
459.285
459.284
459.212
459.175
459.25
459.257
459.306
459.278
459.287
459.287
459.283
459.233
459.144
459.311
459.141
459.331
459.367
459.309
459.307
459.315
459.354
459.389
459.367
459.335
459.329
459.336
459.334
459.32
459.279
459.278
459.285
459.263
459.16
459.145
459.391
459.348
459.328
459.333
459.337
459.329
459.304
459.251
459.155
459.243
459.278
459.285
459.307
459.408
459.363
459.414
459.447
459.309
459.364
459.335
459.335
459.338
459.329
459.305
459.25
459.232
459.273
459.212
459.285
459.288
459.272
459.273
459.288
459.293
459.308
459.241
459.228
459.276
459.273
459.291
459.251
459.26
459.143
459.338
459.349
459.303
459.303
459.302
459.303
459.301
459.302
459.3
459.301
459.297
459.299
459.291
459.295
459.287
459.292
459.282
459.286
459.278
459.282
459.276
459.28
459.283
459.285
459.291
459.288
459.302
459.298
459.31
459.305
459.315
459.313
459.317
459.315
459.317
459.317
459.312
459.314
459.304
459.307
459.289
459.292
459.258
459.259
459.224
459.171
459.229
459.309
459.322
459.328
459.309
459.311
459.309
459.311
459.312
459.31
459.314
459.31
459.312
459.309
459.311
459.309
459.31
459.308
459.309
459.307
459.308
459.306
459.307
459.305
459.306
459.304
459.304
459.246
459.266
459.262
459.255
459.308
459.398
459.31
459.315
459.405
459.348
459.335
459.337
459.336
459.319
459.279
459.318
459.231
459.239
459.251
459.342
459.384
459.286
459.333
459.395
459.293
459.338
459.152
459.335
459.437
459.355
459.304
459.267
459.311
459.292
459.228
459.296
459.323
459.337
459.337
459.419
459.404
459.282
459.373
459.456
459.287
459.303
459.415
459.425
459.501
459.522
459.471
459.293
459.339
459.42
459.471
459.337
459.294
459.296
459.325
459.31
459.308
459.322
459.264
459.312
459.312
459.481
459.518
459.294
459.299
459.332
459.328
459.367
459.394
459.303
459.303
459.341
459.342
459.303
459.303
459.302
459.303
459.3
459.302
459.299
459.302
459.297
459.301
459.296
459.303
459.297
459.302
459.297
459.302
459.299
459.312
459.304
459.305
459.308
459.309
459.314
459.315
459.315
459.316
459.317
459.317
459.317
459.317
459.31
459.312
459.303
459.31
459.295
459.3
459.274
459.289
459.344
459.347
459.313
459.296
459.299
459.352
459.348
459.316
459.317
459.323
459.315
459.32
459.316
459.318
459.316
459.317
459.312
459.317
459.31
459.312
459.308
459.309
459.306
459.307
459.305
459.304
459.306
459.268
459.265
459.279
459.244
459.281
459.288
459.287
459.339
459.338
459.313
459.504
459.474
459.316
459.324
459.335
459.317
459.34
459.282
459.26
459.262
459.273
459.375
459.262
459.294
459.297
459.273
459.274
459.235
459.269
459.283
459.26
459.319
459.336
459.413
459.274
459.45
459.451
459.605
459.564
459.564
459.319
459.34
459.341
459.295
459.295
459.652
459.712
459.302
459.328
459.322
459.42
459.327
459.352
459.349
459.304
459.305
459.304
459.306
459.306
459.307
459.308
459.31
459.31
459.312
459.317
459.322
459.325
459.332
459.324
459.332
459.334
459.346
459.332
459.346
459.331
459.338
459.327
459.334
459.324
459.331
459.322
459.326
459.321
459.323
459.315
459.321
459.31
459.314
459.303
459.294
459.303
459.374
459.38
459.327
459.303
459.308
459.373
459.366
459.572
459.665
459.323
459.338
459.325
459.325
459.328
459.329
459.32
459.332
459.317
459.326
459.312
459.317
459.309
459.313
459.339
459.494
459.565
459.299
459.403
459.35
459.62
459.331
459.289
459.28
459.291
459.333
459.3
459.298
459.308
459.299
459.261
459.332
459.463
459.337
459.291
459.306
459.305
459.308
459.304
459.308
459.274
459.302
459.31
459.291
459.296
459.303
459.304
459.305
459.316
459.433
459.349
459.367
459.3
459.3
459.307
459.322
459.345
459.516
459.776
459.308
459.619
459.504
459.473
459.353
459.356
459.308
459.306
459.312
459.311
459.318
459.316
459.329
459.329
459.343
459.352
459.37
459.377
459.383
459.386
459.39
459.4
459.379
459.396
459.367
459.374
459.35
459.36
459.342
459.348
459.341
459.343
459.33
459.341
459.324
459.331
459.318
459.322
459.311
459.401
459.394
459.498
459.275
459.376
459.374
459.818
459.83
459.346
459.363
459.715
459.834
459.698
459.369
459.386
459.351
459.368
459.339
459.352
459.33
459.342
459.323
459.329
459.317
459.325
459.636
459.751
459.307
459.306
459.329
459.328
459.314
459.407
459.304
459.304
459.312
459.31
459.316
459.31
459.603
459.312
459.594
459.339
459.312
459.32
459.315
459.312
459.316
459.341
459.311
459.32
459.315
459.335
459.421
459.318
459.327
459.324
459.315
459.315
459.336
459.66
459.311
459.519
459.499
459.365
459.346
459.345
459.319
459.335
459.326
459.357
459.358
459.391
459.414
459.441
459.443
459.507
459.502
459.467
459.531
459.45
459.483
459.433
459.449
459.383
459.434
459.369
459.382
459.352
459.362
459.348
459.354
459.338
459.349
459.328
459.321
459.338
459.309
459.384
459.377
459.998
459.399
459.452
459.379
459.388
459.429
459.379
459.393
459.364
459.379
459.345
459.345
459.373
459.808
459.969
459.416
459.417
459.415
459.596
459.762
459.309
459.315
459.328
459.32
459.317
459.324
459.325
459.336
459.654
459.317
459.407
459.514
459.453
459.525
459.357
459.325
459.331
459.327
459.333
460.023
459.95
459.833
459.826
459.317
459.331
459.329
459.324
459.328
459.332
459.338
459.39
459.509
459.718
459.612
459.336
459.983
459.382
459.382
459.449
459.45
459.532
459.512
459.589
459.6
459.606
459.693