/*--------------------------------*- C++ -*----------------------------------*\
| =========                 |                                                 |
| \\      /  F ield         | OpenFOAM: The Open Source CFD Toolbox           |
|  \\    /   O peration     | Version:  v2012                                 |
|   \\  /    A nd           | Website:  www.openfoam.com                      |
|    \\/     M anipulation  |                                                 |
\*---------------------------------------------------------------------------*/
FoamFile
{
    version     2.0;
    format      ascii;
    class       volScalarField;
    location    "3.5";
    object      qr;
}
// * * * * * * * * * * * * * * * * * * * * * * * * * * * * * * * * * * * * * //

dimensions      [1 0 -3 0 0 0 0];


internalField   uniform 0;

boundaryField
{
    fire_inlet
    {
        type            calculated;
        value           nonuniform List<scalar> 
41
(
9536.77
11524.9
14133.6
15424.6
6968.71
20776
25442.3
26040.6
31921.1
19339.3
26714.1
26046.2
24722.8
27085.2
30178.5
32369
16583.1
11550.4
16302.9
11546.3
16212.9
11754.2
14500.8
20821.5
18853.7
23504.4
32268.4
23428.8
31078.2
17976.5
27698.6
34148.2
35116.3
28898.9
30482.2
31386.6
35618.3
35472.2
36145.3
33780.3
36520.6
)
;
    }
    outlet
    {
        type            calculated;
        value           nonuniform List<scalar> 
400
(
1173.97
1360.87
1417.72
1160.38
1178.6
1286.95
1170.51
1018.02
1296.48
1260.05
1223.65
1266.87
1194.85
1209.74
1122.56
1194.81
1306.57
1038.89
934.954
1099.42
919.15
1071.24
1020.15
1054.51
1195.62
1144.46
1223.14
1226.58
1280.85
1247.84
1110.11
1415.39
1341.29
1231.75
1228.25
1417.13
1144.8
1375.12
1225.59
1265.43
1201.27
1382.79
1266.46
1160.78
1299.63
1225.29
1272.19
1323.67
1249.98
1322.24
1353.12
1258.84
1353.05
1231.7
1393.3
1289.47
1304.7
1259.21
1263.62
1245.05
1268.94
1426.72
1063.32
1079.61
1128.77
1154.03
1141.9
1227.49
1422.45
1141.25
1232.57
1182.5
1176.36
1256.87
1314.62
1144.78
1219.43
1368.48
1302.29
1278.17
1225.07
1259.7
1253.72
1166.59
1270.18
1224.02
1302.32
1180.57
1365.61
1232.04
1261.77
1261.66
1198.13
1417.31
1313.73
1311.52
1319.61
1247.31
1259.92
1262.25
0.00199779
0.00213837
0.00194529
0.00182984
0.00155297
0.00146344
0.00130264
0.00123375
0.00132945
0.00127525
0.00126862
0.00126819
0.00123429
0.00124272
0.00123678
0.00123322
0.00131546
0.0019078
0.00169726
0.00170531
0.00152602
0.00156435
0.00151943
0.00153992
0.00140529
0.00142708
0.00135408
0.00121381
0.0013642
0.00175468
0.00122012
0.00201764
0.00185598
0.00152388
0.00144647
0.00145563
0.00135353
0.00179448
0.00124602
0.00194235
0.00138778
0.00200083
0.00185305
0.00125789
0.00133199
0.00125489
0.00115869
0.00173027
0.00148246
0.00132864
0.00142167
0.00126634
0.00155573
0.00160848
0.00161548
0.00116118
0.00120422
0.00113683
0.00113549
0.00202663
0.0014511
0.00141019
0.00137404
0.00134175
0.00135565
0.00149196
0.00174645
0.00118762
0.00150899
0.00123909
0.00120544
0.0011472
0.00158579
0.00112098
0.00165612
0.00154323
0.00114354
0.00125476
0.00120623
0.00132205
0.00149558
0.00144888
0.00108594
0.00121304
0.00117999
0.00118812
0.001372
0.00125651
0.00115694
0.00150512
0.00116912
0.00146778
0.00136102
0.00130356
0.001222
0.00120544
0.00125511
0.00129103
0.00134931
0.00127407
0.00119675
0.00113151
0.00118558
0.00118635
0.00119804
0.00134153
0.00130988
0.00118728
0.00127778
0.00121577
0.176218
0.286347
0.476054
0.369465
0.820389
0.595983
1.06336
1.14592
1.49801
1.46662
1.37083
1.63492
1.27476
2.55388
4.54403
3.67836
8.67919
7.25797
13.7815
11.3809
17.6855
16.0193
24.4367
21.8865
28.6839
25.7584
30.0527
29.5634
27.404
28.9024
23.9441
21.1675
24.6429
0.520427
0.992823
4.28469
13.2899
18.6335
15.3159
20.3172
0.173249
0.340596
0.471189
0.622199
0.570491
0.565795
0.179321
0.248544
1.65605
2.06292
3.6797
6.50475
6.52271
1.60414
0.306452
0.338329
0.438254
0.47927
0.22227
0.607361
0.625514
0.38022
11.3133
0.775083
0.657301
0.398147
0.761661
0.610858
0.822507
1.37014
0.817707
1.85982
1.37759
2.19764
2.39531
1.99799
0.243614
6.91843
11.0431
7.91436
14.8961
14.0723
20.8966
16.3085
24.4733
23.2277
25.5042
24.5692
24.2244
24.4927
23.4044
0.295119
3.61751
1.19456
13.4361
0.93374
1.63515
0.764888
0.811573
0.414355
0.713513
0.681325
1.076
1.3725
0.500305
0.294705
0.535366
2.86496
1.05658
0.631717
1.90625
3.71916
16.887
4.67378
6.23719
6.81414
0.573155
3.43321
1.45487
10.7736
18.1879
21.9718
2.87751
3.85535
4.70641
2.99669
0.944291
7.6087
5.98642
1.14409
11.9828
11.3033
15.6652
11.7295
19.4911
14.4248
19.3453
18.1132
20.977
18.3837
18.3764
1.54831
2.36897
9.51154
12.136
2.28673
3.00706
2.49664
3.09252
2.23231
2.64855
2.36841
1.44384
1.24469
1.7415
5.68977
8.57361
2.29472
2.18087
2.36822
5.55534
4.32688
8.18069
6.08999
10.7515
8.82038
11.1198
10.7194
16.491
11.7594
17.4572
5.70374
5.29432
10.6708
2.03292
2.92657
9.78937
4.9246
3.16441
4.25713
2.48884
9.10989
7.5199
5.19051
3.79526
7.64331
2.64913
5.72805
5.15257
4.20693
)
;
    }
    base
    {
        type            calculated;
        value           nonuniform List<scalar> 
14237
(
1114.53
1478.19
1445.41
432.586
851.073
1141.59
1299.63
1236.45
925.111
157.087
767.84
434.319
482.451
560.283
635.678
781.189
1263.27
1055.91
1393.81
1351.8
1408.42
-130.841
296.978
902.187
1016.25
1226.91
374.327
397.667
359.322
1175.66
628.893
698.568
1286
1168.62
577.993
594.064
1038.93
503.145
1312.58
862.118
846.524
827.06
456.337
517.585
1419.51
1321.88
1239.2
893.825
1050.39
888.421
312.084
471.847
1106.17
923.17
1307.39
1184.8
853.813
405.083
-157.653
-475.242
125.576
106.335
408.581
145.466
219.007
-602.811
-11.7399
311.759
406.674
-927.323
-1179.9
-0.000278877
-0.000139599
3.62262e-05
-0.000128673
0.000123824
6.35195e-05
0.000180135
0.000160174
0.000245637
0.000209742
0.000269758
0.00027203
0.000266648
0.00029767
0.00025569
0.000276466
0.000230127
0.000250946
0.000210092
0.000233491
0.000171625
0.000201685
0.000148043
0.000145751
0.000154698
0.00015572
0.000145548
0.00013913
0.00013055
0.000132648
0.000124386
0.000123092
0.000123797
0.000117391
0.000119991
0.00010981
0.000154712
0.000108891
0.000217588
0.000175074
0.00031716
0.000232915
0.000656457
0.000329161
0.000912353
0.000738644
0.00163394
0.00110789
0.0028823
0.00215392
0.0043107
0.00365507
0.00611498
0.00553223
0.00808943
0.00749111
0.00983147
0.0102141
0.0121479
0.0126406
0.024122
0.024058
0.414042
0.329708
46.9355
64.7181
59.5628
44.2359
29.2013
18.4089
11.2065
4.15103
1.00264
0.000513223
0.00058499
0.000806008
0.00172619
0.00553989
0.0200096
0.0446163
0.0816154
0.149577
0.638918
4.55396
25.9426
0.000836994
0.00117633
0.00105806
0.00176772
0.00155575
0.00256229
0.00222781
0.00349886
0.0032411
0.00431684
0.0046504
0.00570972
0.00619626
0.00696565
0.00766019
0.0100216
0.00999991
0.013443
0.0124084
0.0156344
0.0160868
0.0172049
0.0178621
0.0244255
0.0282351
0.023455
0.0333389
0.0305413
0.0512982
0.0380315
0.113926
0.0661557
0.293299
0.157432
0.700177
0.416163
1.76865
1.15589
2.77292
2.18124
4.04134
3.52674
5.17823
4.79198
5.62729
5.85018
4.68175
5.15858
3.56727
4.23687
2.03997
2.93804
1.04644
1.31619
0.417141
0.727395
0.196803
0.291222
0.148091
0.173372
0.131374
0.144057
0.1315
0.141413
0.137666
0.148114
0.171527
0.161312
0.309284
0.233943
0.584429
0.520713
1.49639
-0.0673027
-0.0359078
0.101234
1.48686
4.01607
7.78648
7.75537
8.30739
10.9619
23.7914
48.9736
85.7963
136.597
146.474
103.371
36.0399
17.8017
13.6415
8.83916
5.18754
-0.0676096
-0.000508987
-0.00105112
-0.00249132
-0.00530702
-0.00800097
-0.00888041
-0.00167709
0.00750013
0.00850572
0.00267046
-0.0112943
-0.0533191
-0.0597274
0.000153096
0.771602
50.5235
52.7937
65.8667
53.9982
35.7722
23.3954
13.1895
7.30974
2.07591
0.000652442
0.000707819
0.000715225
0.000803255
0.00114009
0.00282435
0.00955569
0.0325151
0.0634928
0.101128
0.214028
1.80342
9.59796
1.53988
1.50654
3.13915
-0.0357312
-0.0631331
-0.0102135
-0.00939972
0.65172
3.14204
6.30228
7.15776
7.84544
8.86024
15.1395
37.7038
64.3602
115.664
143.452
131.57
60.2347
22.4516
14.3824
13.0299
6.85758
2.83051
-0.000732361
-0.00164307
-0.00419246
-0.00690077
-0.00903036
-0.00691287
0.0035488
0.00881361
0.00744456
-0.00406606
-0.0285009
-0.000248491
75.995
60.9981
38.2109
25.3331
15.0485
8.31758
2.51599
0.674276
0.000990495
0.00218962
0.00703888
0.0213999
0.0474626
0.0826039
0.225841
1.76663
9.02217
50.8481
0.000818255
7.83733
7.81219
8.462
11.5779
26.6643
59.9959
112.493
174.981
149.445
72.2358
25.1407
15.0192
13.2574
7.27687
3.21309
-0.00106799
-0.0023802
-0.00521766
-0.00745595
-0.00812555
-0.000511005
0.0078729
0.00825172
-0.00139029
-0.0235532
7.20967
65.8786
69.1155
48.7235
35.0724
19.32
11.7695
4.20161
1.01023
0.0127961
0.0327317
0.0713203
0.107028
0.549398
4.70489
23.6649
9.15538
16.6523
42.323
82.981
151.532
158.496
118.004
41.8488
18.8841
12.81
9.68793
5.52488
1.7229
-0.000801784
-0.00163183
-0.00424658
-0.0068623
-0.00780799
-0.00589656
0.00503367
0.00840172
0.00647968
-0.00790908
50.2985
0.00397863
0.00143138
4.05144
0.10423
7.90271
0.671817
6.35344
-0.000505799
79.9106
0.427855
7.48435e-05
0.000136289
8.69095e-05
0.000199502
0.000154251
0.000257026
0.000255376
0.000299729
0.000289401
0.000268341
0.000297244
0.000235099
0.000262161
0.000223852
0.000233356
0.000175946
0.000184508
0.00105423
0.000866019
0.000910465
0.000156233
0.000120667
0.00014715
0.000124097
0.000131463
0.000118276
0.000128197
0.000124421
0.000144725
0.000168277
0.000173675
0.000391238
0.00031368
0.000573111
0.000468339
0.00107676
0.000640317
0.00172699
0.0013788
0.00302484
0.00213146
0.00511966
0.0039379
0.00804597
0.0065387
0.0108694
0.00988437
0.0142125
0.0135133
0.0189634
0.0182765
0.0462397
0.0445705
0.383546
0.514496
0.357228
0.00322352
74.8724
77.7143
66.0048
58.4795
41.012
48.1873
37.6023
24.4131
10.9197
4.39811
3.64859
1.20905
0.289868
0.00900639
4.05695
0.00200986
0.00281433
0.000959817
0.0010062
0.00120311
2.46102
0.00572665
0.00461109
0.00724595
0.00151913
0.0013481
0.00198984
0.0241865
0.065257
0.0935794
0.689012
2.07152
10.7659
41.9332
6.78273
-0.000509695
0.81076
0.00145024
0.00253943
0.00212291
0.00334691
0.00342619
0.00509006
0.00492483
0.00671112
0.00699616
0.00871896
0.0104713
0.0107496
0.0116482
0.0134343
0.013022
0.0149808
0.0146554
0.0156182
0.016943
0.0217355
0.0298363
0.0222229
0.0186005
0.0381671
0.0301365
0.0673918
0.0437385
0.151204
0.0886414
0.397263
0.213992
1.16543
0.635784
2.11284
1.6197
3.54928
2.8769
4.82759
4.46532
6.00244
6.07827
5.19591
5.93272
4.26913
4.70926
2.97449
3.6211
1.33807
2.53671
0.756145
0.953338
0.323372
0.58926
0.180923
0.237417
0.162857
0.177776
0.158966
0.163643
0.172267
0.178217
0.170966
0.201173
0.273478
0.24194
0.594024
1.59298
0.512329
5.95234
-0.0536063
-0.0518856
4.48791
2.4846
2.68307
0.97674
0.989543
-0.0574542
4.02243
4.14109
76.6949
7.61632
5.3064
0.347864
0.0239425
0.356516
15.9506
43.7001
85.0278
147.587
165.679
121.429
38.5956
14.6401
11.6918
7.3112
2.5377
2.08333
1.64811
1.71487
0.00015868
-0.00147545
-0.00372568
-0.00594765
-0.00624305
-0.00499127
0.00647566
0.0100785
0.00718866
-0.00614124
61.4556
62.933
6.14582
3.98848
-0.0375965
-0.000280831
64.9839
71.4411
-0.000134758
-0.000107634
-0.000257936
0.00103127
0.000155419
-0.0373743
0.196005
-0.0264132
-0.0473973
0.000163997
0.000141497
54.6425
67.881
37.7519
26.9343
17.2274
8.53305
1.2872
1.00622
0.714056
0.53921
0.350595
0.418173
0.19482
0.069686
0.0202691
0.0398562
0.00921276
0.210436
0.95988
4.11337
17.0378
54.7939
0.000150003
4.14628
-0.000395673
73.1562
5.16161
10.4766
28.273
67.3523
116.191
144.556
163.83
73.936
23.4782
13.5996
11.0786
4.39877
7.69794
-0.00101913
17.362
-0.00100272
-0.0021051
-0.004523
-0.00650608
-0.00631221
0.00093291
0.00966582
0.00911895
0.000465025
11.8742
12.9502
66.2505
49.1962
-0.00447176
0.00869061
0.00951816
0.00320234
-0.0044061
-0.00580946
2.92081
6.45338
-0.0173434
0.00505501
0.00975847
0.00670619
-0.00190104
-0.00587829
-0.00355181
4.04525
7.81102
11.6331
24.2386
90.8435
172.117
-191.888
0.00120246
-0.000486656
51.5096
16.7452
2.71348
-0.000290983
4.49539
0.000152706
0.108951
11.1031
8.68959
129.951
65.4339
26.307
0.0417219
0.0205947
0.0247415
0.306655
5.23611
196.733
76.2907
79.8652
33.3741
11.7674
17.3459
59.8166
103.952
-0.00139287
-0.00465098
-0.00210977
-0.0052987
0.00557445
0.00013888
0.00024443
0.000173571
0.000270371
0.000256333
0.000294894
0.000307565
0.000289365
0.000292047
0.000241179
0.00027472
0.000199691
0.000171633
0.000242729
0.250015
2.48502
0.108904
0.235337
0.000150724
0.000151377
0.000176237
0.000145005
0.000134997
0.000199495
0.000231333
0.000435683
0.000432449
0.000882341
0.000554307
0.00113216
0.00126406
0.00188772
0.00205696
0.00354622
0.00366648
0.00580679
0.00645224
0.00753282
0.00854814
0.0142549
0.01494
0.0202505
0.0180891
0.0295532
0.0302767
0.0688375
0.0683654
-58.8504
-126.075
51.2628
41.8231
110.351
-0.000704435
6.32893
0.000167593
0.241232
0.102485
0.0258412
0.172497
0.122186
7.41764
5.04348
0.0191089
0.0227406
0.0109223
0.0119585
8.13759
169.837
4.7814
7.96204
3.18255
3.122
1.91992
16.3255
0.000159823
0.000186702
0.000185666
0.00392238
0.00585631
0.00562157
0.00958933
0.00926006
0.0122797
0.0121579
0.0136518
0.0155578
0.0155281
0.01658
0.01785
0.0200945
0.0202328
0.0209341
0.0246939
0.0300134
0.0236692
58.2082
0.0419697
0.0367073
0.0893119
0.0591906
0.223052
0.140432
0.674905
0.467906
1.6269
1.1037
2.892
2.35112
4.84736
4.10276
6.1194
5.77884
5.96992
6.55707
4.91711
5.83468
3.64065
4.67834
2.5534
2.87638
0.96142
2.40069
0.595678
0.805998
0.243645
0.365069
0.18246
0.23099
0.17012
0.186481
0.191911
0.18904
0.2126
0.21215
0.723636
-0.0642487
0.0652298
0.0928815
3.82389
2.85084
-204.736
9.44123
10.3669
32.4223
43.1435
81.9937
84.4321
-602.81
57.8076
51.2308
166.941
91.6147
-356.367
28.8135
19.0938
7.27177
-0.0177361
4.92062
5.25616
5.38541
13.9396
9.87143
-0.0024157
2.94904
3.07729
2.36498
-0.00130363
-0.00146207
-0.000799803
-0.0013477
-0.00216975
-0.00254263
0.00512879
0.0121435
0.010182
0.008489
6.91955
5.88656
4.83045
-0.000178448
-0.0404846
2.98469
2.53883
67.3389
88.4179
-181.335
39.8724
20.3482
0.109814
1.5026
79.7568
-512.202
0.0383266
41.4199
36.0777
38.045
0.0029722
-0.00037726
-0.000383569
-0.000127138
6.85689e-05
-0.000106832
45.698
59.4045
2.12596
0.00682166
0.0102305
0.00294491
0.00194478
-752.543
0.329913
0.319907
21.8602
15.3896
0.000105271
0.740918
0.92544
0.272748
0.197778
0.608696
22.1008
2.90986
2.91251
0.0017268
-0.0309628
0.00150406
0.00166374
0.00674481
0.0096096
0.0044469
0.00352344
0.00666911
1.25018
2.52217
2.76529
0.0375724
16.5319
1.0512
71.8501
0.0324809
0.296803
-0.0576367
-0.0414695
0.0476301
3.84658
0.28566
0.240514
1.98894
1.10425
-0.000913242
52.6789
0.00223678
0.00232937
0.00249872
0.0427272
0.0396927
0.04317
-0.00068597
0.00145732
-13.3884
48.1109
-0.00177394
81.2226
0.0312704
10.6471
-0.00964436
1.47762
2.02099
0.958793
-0.00125291
-0.0010687
0.0023581
-0.00282631
-0.000658714
0.0109265
0.012253
0.0256712
77.6515
47.8739
0.105049
0.269072
0.0113338
0.00165428
1.62299
23.9395
15.518
7.80211
0.000695938
-246.847
-213.668
95.4425
10.3406
-0.00231276
-0.000230605
0.00219941
3.41346e-05
0.0015526
0.0112798
-0.000388712
0.00226552
0.0021652
0.000277465
0.000300842
0.000274261
0.000284553
0.000285037
0.000267304
0.00026488
0.000239039
22.7076
1.25566
1.02959
0.0151028
0.000223695
0.000314552
0.000307369
0.000567086
0.000525401
0.00110164
0.00101906
0.00221047
0.0015014
0.0037807
0.00289437
0.00627847
0.00536582
0.00989761
0.00832386
0.0135876
0.0120014
0.0226622
0.0192328
0.0257976
0.0255965
0.0450113
0.0429797
0.0930582
0.092574
-816.432
-31.7589
42.8324
31.7074
-75.557
14.1611
15.942
4.71218
2.13883
0.00595632
2.05442
-0.0198257
2.71695
0.0308295
5.24954
0.0223349
0.0243392
85.4117
-0.000756225
1.98725
2.00642
1.56984
1.636
1.01482
0.050372
0.00679765
7.05544
7.65383
1.16955
0.0111432
0.0118209
0.0153201
0.0169608
0.0201171
0.0209305
0.0198971
0.0228573
0.0239424
0.0249792
0.0240368
0.0292658
0.0278128
0.0358116
0.0279254
0.0377218
0.0463142
0.0612877
0.0486737
0.143327
0.10145
0.474328
0.347185
1.11763
0.709124
2.36549
1.48393
4.1312
3.13833
5.82108
5.09576
7.05018
6.96136
6.7452
7.60748
5.66756
5.94989
3.58801
5.57769
2.42819
2.95724
0.766332
1.66323
0.382282
0.548735
0.24519
0.282652
0.198377
0.224139
0.206025
0.214329
-0.0048229
43.3341
0.00248429
-0.00464169
-542.149
-846.001
0.112566
0.371486
0.467235
0.243045
5.52735e-05
1.76985
1.09399
38.0266
73.3466
-102.694
28.7647
1.02708
0.711419
0.51721
0.000157425
75.8425
0.00504105
-0.0124878
69.2225
80.0852
0.484238
0.178435
0.512794
0.00271966
0.00164593
0.00412942
3.27193
1.59774
5.33124
0.000166283
0.000223657
9.34489e-05
0.0039949
0.00833055
0.00599761
0.006068
0.0119004
0.0139076
0.00341384
-0.00395528
11.9154
7.09696
0.792663
0.794098
38.4689
21.278
0.0098926
0.0104084
-832.038
0.00914521
0.00458513
-0.000118654
0.899657
-0.0173526
0.00910684
0.174434
0.000237174
24.6892
29.2237
-0.000798718
0.000595321
0.0053832
0.233472
0.231746
-837.613
13.0617
-670.252
-484.406
3.02146
2.55726
1.19577
-0.0294099
44.761
0.00521512
0.014386
0.0200451
0.27952
0.0254564
0.0596449
46.6254
0.0732454
0.0402846
0.680168
0.438522
2.14117
1.88049
-0.00454882
0.461986
0.000247024
0.00125795
62.7373
-0.0420134
-0.00293503
0.0652534
0.0892326
27.7373
0.00351076
0.00536811
-0.000246987
17.7746
51.4873
0.487628
0.366472
-0.00686713
0.00305891
0.00303841
0.00396093
28.0341
-0.0483098
-0.0456372
0.00618415
-0.000167903
0.0625568
21.1614
0.000216408
42.7152
-48.5152
0.000262047
6.12265
10.164
3.27429
-0.00044535
0.00024231
-0.000794566
-0.000440008
0.238761
0.117092
0.138662
0.0131098
-0.00036305
-0.0239768
1.73704
1.24921
-85.1267
32.4512
0.0121611
-718.713
-412.423
-844.868
0.0143354
-0.000411968
0.113914
21.7344
0.0114911
0.000291379
0.000295725
0.00026501
0.000305128
0.0109617
0.0390023
-839.881
-679.471
0.000749377
0.00182964
0.00121788
0.00231383
0.00230388
0.00468091
0.00329413
0.00640843
0.00635058
0.0101123
0.00992097
0.0154705
0.0151433
0.0217519
0.0199047
0.0287325
0.0282862
0.0488242
0.0479828
0.0997896
0.0987528
-523.872
2.30078
15.4949
-0.00324689
0.251187
0.274718
6.92377
41.2986
-0.0219782
94.9455
0.00822544
0.00823759
0.013049
2.77905
54.5417
0.216705
0.21509
0.413498
0.332917
1.02809
0.0141171
0.0220001
0.0222962
0.0267389
0.0269661
0.0306068
0.0337565
0.0298738
0.039397
0.0362186
0.0365614
0.0373123
0.0448929
0.0380712
26.6184
0.0658399
46.7129
0.0901298
0.0570228
0.276457
0.104055
0.762224
0.406012
1.48423
1.02575
3.09008
2.49459
5.07578
4.54244
7.78371
6.88246
8.80242
8.52313
6.622
8.99993
5.61042
6.03567
2.97292
5.07169
1.67962
2.67448
0.812654
1.15938
0.342272
0.64824
0.249076
0.311068
0.232227
0.248864
0.0181011
-0.0100844
0.0439639
0.061407
0.00692651
0.0142776
0.00497744
0.677374
29.6176
62.3031
0.144507
2.77915
-0.0254797
-0.0126098
-0.0417843
0.000339149
0.000279097
14.7273
0.000438718
0.000656027
0.000428634
0.334239
55.5921
2.27069
0.00827964
0.00577132
8.36907
12.1163
-0.000226885
-1.44955e-05
7.88309e-05
0.0161537
0.0218161
23.2355
0.0148292
0.0162192
5.6277
3.37171
0.0732691
0.0737581
0.112733
7.76372e-05
6.33943e-05
9.68862e-05
0.552261
17.0985
0.0121173
0.0126028
-0.0521972
36.5538
23.6454
29.0798
-448.078
1.3648
8.66935
1.88179
0.0911034
0.0155989
0.0441336
4.30982
7.42235
0.000926174
-878.191
19.9934
0.0933561
0.171684
0.170012
-857.51
-792.132
12.0182
0.033456
0.0373437
0.273567
0.964713
19.9773
1.6219
0.0607601
17.5088
19.6671
17.2259
0.0136799
0.00362386
0.00926113
1.20768
7.9963
16.1638
5.8841
0.957137
0.645329
0.000261902
0.000125298
0.0099935
0.0114527
1.31258
-853.018
0.00106168
0.0018482
0.387454
0.0138214
0.0137371
-0.013043
-0.0258734
0.0117983
-12.995
-0.031429
-0.0315833
-0.0378049
15.239
2.88013
1.48721
0.247904
0.456843
-173.519
0.469857
0.50459
0.39711
1.01585
0.961383
2.93265
0.00691931
0.00361182
0.0108612
0.000101786
0.000614376
0.000260333
0.950217
0.6854
-0.037066
-0.0440607
0.00928631
0.0126529
0.0106514
1.26457
0.000335844
0.000322826
17.7077
-0.0224615
0.0162979
0.00274263
0.00488317
0.00368354
0.0072999
0.00578007
0.0102693
0.00852423
0.0155205
0.0109379
0.0190333
0.0185065
0.0309094
0.023361
0.0496461
0.048767
0.0910958
0.0900105
1.80493
0.000654123
0.000391989
0.0291207
18.4791
0.0228524
0.129173
0.128337
5.6253
0.0140518
0.905125
0.0403009
0.0388011
0.0487366
0.0507931
0.0497744
0.0491298
0.0440928
0.0489507
0.0445361
0.047428
0.0462949
0.107349
0.073177
0.38328
0.175661
0.935543
0.628536
2.16241
1.68004
4.59839
2.97707
6.92805
5.72255
8.53229
7.86502
9.05385
9.65243
6.35276
9.7487
5.11083
6.40855
2.69076
4.42238
1.16974
2.73815
0.610103
1.00251
0.316221
0.499057
0.00637464
-0.0122618
-0.0138649
10.7831
-0.00541081
-0.012826
0.0186461
0.0190488
0.000269511
0.0433116
0.0398856
0.00520276
0.00217197
10.9025
0.089357
-0.0194181
3.37534
0.0221611
0.023484
0.0323234
0.0141542
0.0158125
-0.0364675
15.6613
15.0614
17.97
0.0184007
0.0248292
0.314848
6.98891
10.4963
0.0294392
3.01764
0.136149
0.135344
0.000329773
1.70406
0.760861
0.00195387
0.0643599
0.083464
0.000508201
0.000372719
0.255376
0.00859536
7.6048
0.0174829
0.0174286
0.00991674
0.0325597
0.273503
0.324463
0.26543
0.000355645
0.000319918
0.00213939
0.00252613
0.000411598
0.32098
0.0999458
0.104345
10.698
17.6532
0.0178975
0.00827464
0.00172149
-0.0266568
-0.0128843
0.00175845
0.00209362
0.0134786
0.01434
0.000399795
0.000395468
0.0242382
0.000894068
0.00148231
0.000830871
0.0235354
0.0247236
0.0154368
0.154173
0.219303
0.409451
0.746014
0.768716
0.000377859
7.488e-05
0.459598
0.510197
0.028885
0.000862955
0.00571211
0.00782509
0.00715425
0.0125492
0.00904882
0.0169176
0.0166328
0.0249756
0.0194002
0.0533285
0.0436245
0.0829913
0.0810303
0.344806
0.000781702
0.00101451
0.0299309
0.112641
0.0164674
-0.00295171
3.22578
2.94194
4.76375
0.823115
0.000970593
0.0577855
0.0688975
0.070779
0.0790104
0.0782702
0.0752634
0.0831112
0.0820315
0.0811985
0.185068
0.634427
0.201616
1.69354
0.819281
3.00017
2.28692
5.17061
4.06933
8.01293
6.85066
10.0231
9.74111
9.82529
10.6906
6.45623
8.77316
4.45479
5.87055
2.7571
3.47327
1.01385
2.27334
0.530267
0.471011
0.837275
0.000470788
0.042045
0.056601
0.0397175
0.00521297
0.00491605
0.00676992
0.0343108
-0.00152061
0.00179709
0.112205
0.101905
0.0375296
0.0807582
0.0223343
0.0174212
0.00328488
0.0539243
0.0471761
15.3271
0.1286
0.0449898
0.045768
0.0639018
9.03898
10.0113
4.01166
0.00160059
0.000744267
0.0208272
0.0229689
0.137107
0.0159677
0.0016949
0.117573
0.0137598
0.0202564
0.0385251
0.143805
3.39918
2.47534
0.00259087
0.00389276
0.00282757
0.340976
0.00553395
0.0605697
0.0568641
14.8865
0.0171298
0.00172825
0.000495478
0.000794608
0.000633428
0.0210369
0.00178065
0.0188552
0.0172463
0.0493243
0.432758
0.145227
0.00286759
0.000844166
1.10811
1.22076
0.21149
0.210708
15.2152
16.9316
0.016169
0.0155896
0.0101194
0.113121
0.120824
0.53171
10.9632
14.7696
0.903143
2.43566
0.976578
0.113534
0.001329
0.0143388
0.00877321
0.014308
9.93971
6.04138
0.0665077
0.0672347
0.0988884
0.0573421
0.102428
0.104086
0.0868533
0.104607
0.215763
0.830101
0.329926
1.89397
0.830792
4.06273
2.12443
6.88278
4.81556
9.74273
7.54038
10.7304
10.9952
8.81657
11.8844
7.14985
8.35078
4.04982
6.21611
2.34959
3.14568
16.8036
0.0786259
0.0765426
0.0987873
0.077531
0.0195142
0.0763916
0.0743072
0.107473
0.176634
0.367081
0.343665
12.7316
0.0188879
0.0145703
0.467056
0.00399808
0.0263543
0.0258181
0.0100765
15.5007
0.0185771
0.00546472
0.487206
12.6293
0.522771
0.00807926
0.16277
0.152009
0.270075
0.303402
1.08212
1.07548
2.15844
5.54699
10.8943
3.01073
3.05965
0.00133919
0.142506
0.166833
14.737
15.4283
1.5673
1.49428
1.66044
1.75288
0.168773
0.14949
0.337521
10.87
0.0999768
2.39075
2.37557
3.16721
0.613846
2.21723
0.715963
4.61103
2.47887
7.705
4.96053
11.0023
8.09939
12.4752
12.1176
10.4082
12.9161
6.24923
9.78527
0.519906
3.16857
5.01038
2.33475
0.359132
5.47168
5.48626
0.128783
0.330933
0.339339
0.157462
5.42654
0.12123
0.135103
14.4894
0.0872803
11.2112
14.2088
10.9228
2.23962
4.02753
4.51453
0.135223
0.115747
7.16057
6.16436
10.5888
9.18016
0.112033
0.665034
4.76022
7.87116
12.9932
10.1997
0.799
0.593642
2.05365
4.35565
4.33333
0.734945
6.79471
5.02468
2.45488
5.30555
14.0673
14.1572
0.192685
1.60703
0.139497
0.175411
14.0844
12.0036
0.350092
12.0967
5.14677
0.203192
8.66183
8.6386
12.0194
0.303701
8.85477
10.6051
-0.000629443
-0.00035718
-2.03936e-05
0.000126451
0.000179323
0.000178933
0.000135867
0.000131355
0.000219402
0.000222423
0.000231223
0.000247888
0.000257233
0.000266523
0.000292789
0.000278719
0.000323157
0.000321261
0.000349565
0.000353297
0.000357359
0.000379629
0.000380884
0.000389532
0.000381921
0.000398116
0.000379503
0.000396683
0.000355947
0.000380698
0.000331747
0.000358036
0.000306618
0.00033849
0.000278847
0.000307756
0.000249339
0.000271494
0.000215767
0.000244393
0.000188332
0.000203525
0.000159841
0.000172509
0.00014893
0.000156977
0.000232426
0.0018264
0.00163134
0.00162381
0.00151323
0.00140316
0.00141217
0.0013056
0.00128117
0.00115268
0.00123702
0.00114111
0.00111987
0.00107033
0.00112472
0.00102656
0.00107366
0.000869077
0.000888755
0.000567104
0.000813563
0.000317682
0.000272255
0.000401298
0.00206829
0.00242407
0.00301396
0.00211033
0.00158083
0.000987887
8.46399e-05
-0.000280057
0.00189563
0.00177407
0.0016016
0.00123988
0.00102353
0.000983453
0.00105567
0.000871876
0.000854044
0.000803761
0.000827
0.000755945
0.000766828
0.000696148
0.000682233
0.000659059
0.000646323
0.000583133
0.00154528
0.00127592
0.00111096
0.000972769
0.00076369
0.00073214
0.000707623
0.000135728
-0.000309901
-0.000165655
-0.000105433
5.87748e-05
0.000170007
0.00018589
0.000162543
4.2985e-05
0.00180092
0.00202042
0.00211894
0.00014122
0.00191914
0.00214421
0.00262084
0.00233239
0.00201789
0.00151598
0.000494128
-0.000134286
0.0018844
0.00173483
0.00162593
0.00144147
0.000477364
0.00136741
0.0014764
0.00125225
0.00118662
0.00104485
0.000542851
0.00083426
0.00070652
0.000712799
0.000618435
-0.000414408
0.000164221
0.000187415
0.000167583
0.00201455
0.00156917
0.000716472
-7.99622e-06
-0.000329806
0.00177884
0.00179333
0.00162599
0.001263
0.00109304
0.000987687
0.000784692
0.000604796
0.000662123
0.000591155
0.000187577
0.000151195
-0.000174862
0.00192831
0.00173665
0.00142636
0.000651174
0.000625088
0.000628319
0.0005076
0.000187597
8.61885e-05
0.000353803
0.0023436
0.00141137
0.00190905
0.00216254
0.00267387
0.00258835
0.00131179
0.000892055
0.0010208
-3.2728e-05
0.000364406
0.00020494
0.000146408
0.000182633
0.00194073
-0.000122251
0.000109214
0.000123639
0.000308051
0.00032317
0.000306756
0.000345631
0.000341896
0.000394192
0.0004197
0.000445249
0.000436128
0.000472089
0.000476451
0.000466001
0.00041772
0.000406348
0.000363808
0.000310267
0.000361031
0.000269913
0.000295921
0.000221316
0.000249396
0.000189969
0.000198884
0.00162725
0.00170707
0.00129596
0.00137859
0.00127087
0.0012732
0.00111393
0.00115777
0.0011437
0.00114529
0.00114398
0.00110541
0.00111446
0.00107662
0.00081371
0.000880692
0.000629971
0.000702805
0.00126371
0.000143905
0.000432963
0.00251871
0.00251647
0.00163136
0.00218404
0.000709609
0.000793903
0.000413966
0.0017613
6.36816e-07
-5.16036e-05
0.00227854
-0.000246135
0.00201816
0.0013597
0.00201545
0.00168852
0.000888298
0.000749254
0.000566093
0.00216298
0.000203626
0.00020634
0.00136494
0.000713507
0.000668734
0.000690098
0.000622203
0.000628125
0.000613854
0.000560581
0.000528888
0.000500362
0.000471721
0.000442169
0.00069291
0.000974568
0.000497995
0.000465638
0.000507891
0.000495356
0.000459978
0.000406525
0.000190622
0.000183181
0.00192788
0.00217962
0.00177572
-0.000146897
0.000850419
0.000773022
0.00106836
0.00105518
0.000860692
0.000703598
0.000834078
0.00170865
0.00129469
0.000422947
0.0008754
0.000965524
0.000831391
0.000155096
0.00200341
0.00038892
0.00208344
0.000155178
-0.000140078
-6.05473e-06
0.000359292
0.000169067
0.000201498
0.000165049
4.99551e-05
0.000168771
0.000388738
0.00034641
0.000577935
0.00169151
0.00016553
0.000188046
0.000202462
0.000583301
0.00112692
0.00104418
0.00121471
0.000437076
0.000356894
0.000354676
0.000164745
0.000184567
0.000207318
0.000191969
0.000205692
0.000196991
0.00125889
0.000282838
0.000218124
0.000215533
0.000241581
0.00117813
0.00104212
0.000997417
0.000982008
0.000880863
0.00076821
0.000675798
0.000856779
0.00103742
1.18185e-05
2.77082e-05
0.000229909
0.000185925
0.000420286
0.000493657
0.00131662
0.00114278
0.000198506
0.000214086
0.000442786
0.000420059
0.000445865
0.000408005
0.000388753
0.000374732
0.000373841
0.000362556
0.000416014
0.00105452
8.11525e-05
0.000702179
0.000224515
0.000219663
0.000966872
0.000185585
0.000350758
0.000322599
0.000143951
0.000229628
0.000547691
0.000333279
0.00057503
0.000181607
0.000456061
0.000529216
0.000515915
0.000513199
0.00045904
0.000251146
0.000230938
0.000252199
0.00022755
0.000266528
0.000272908
0.000255958
0.000257779
0.000234187
0.00026652
0.000353947
0.000355449
0.000317366
0.00031516
0.000272406
0.000336039
0.000187491
0.000199076
0.000195274
0.000423504
0.000297725
0.00030428
0.000353604
0.000243187
0.000275139
0.00029711
0.000375842
0.00215766
0.00360927
0.00891631
0.0285023
0.0573252
0.0489236
0.0248427
0.02116
0.0292949
0.0312329
0.01617
-0.0214957
-0.131142
-0.136577
-0.142254
-0.0512948
-0.0293339
0.00684961
-0.0036426
-0.0237583
-0.0205086
-0.0356913
-0.133874
-0.171939
-0.155582
-0.000962934
-0.00154281
-0.00224842
-0.00183412
-0.00347326
-0.00269329
-0.00480798
-0.00362692
-0.00721697
-0.0053608
-0.0123241
-0.00833777
-0.015995
-0.0136968
-0.0218246
-0.0187391
-0.0261006
-0.0235123
-0.0289294
-0.0284645
-0.0307938
-0.0301091
-0.0262632
-0.0280593
-0.014185
-0.0210705
-0.00464823
-0.0091063
0.00496655
0.00176709
0.0104181
0.00876433
0.01195
0.0117014
0.0120555
0.0103021
0.000105338
0.00933901
-0.0129137
-0.00131093
-0.0332297
-0.0211095
-0.0636784
-0.0594044
-0.127897
-0.0894072
-0.00130743
0.00300289
0.00369482
0.00397565
0.00463239
0.0045124
0.00521127
0.0057243
0.00518911
0.00650255
0.00512913
0.00606701
0.0045718
0.00534765
0.0042786
0.00527938
0.00333787
0.00507041
0.0027253
0.0034345
0.00177185
0.00272561
0.000886475
0.00136217
1.62767e-05
0.000567999
-0.000441451
-0.000296212
-0.000716723