/*--------------------------------*- C++ -*----------------------------------*\
| =========                 |                                                 |
| \\      /  F ield         | OpenFOAM: The Open Source CFD Toolbox           |
|  \\    /   O peration     | Version:  v2012                                 |
|   \\  /    A nd           | Website:  www.openfoam.com                      |
|    \\/     M anipulation  |                                                 |
\*---------------------------------------------------------------------------*/
FoamFile
{
    version     2.0;
    format      ascii;
    class       volScalarField;
    location    "3.5";
    object      rho;
}
// * * * * * * * * * * * * * * * * * * * * * * * * * * * * * * * * * * * * * //

dimensions      [1 -3 0 0 0 0 0];


internalField   nonuniform List<scalar> 
108993
(
1.17165
1.17173
1.17201
1.17181
1.17173
1.17165
1.17164
1.17166
1.17195
1.17166
1.17202
1.17204
1.17179
1.17192
1.17167
1.17209
1.17161
1.17168
1.1718
1.17179
1.17165
1.1719
1.17208
1.17165
1.17179
1.17175
1.17202
1.1718
1.17171
1.17166
1.17204
1.17194
1.17202
1.17169
1.17184
1.17168
1.17203
1.17177
0.703982
0.606799
1.17191
1.17203
1.17199
1.17182
1.17183
0.62696
1.17202
1.17165
1.17165
1.17204
1.17203
1.17051
1.17179
1.17205
1.17166
1.17169
1.17201
1.17172
1.17185
1.17173
1.17174
1.17178
1.17167
1.17209
1.17178
1.17178
1.17177
1.17178
1.17184
1.17148
1.17166
1.17178
1.17177
1.17177
1.17166
1.17203
1.1721
1.17168
1.17201
1.17177
1.17174
1.17176
1.17191
1.17205
1.17168
1.17203
1.17205
1.17205
1.17171
1.17175
1.17175
1.17204
1.17174
1.17175
1.17174
1.17198
1.17204
1.17184
1.17203
1.17209
1.17175
1.17184
1.17172
1.17187
1.17178
1.17175
1.17169
1.17185
1.17194
0.724841
1.17172
1.17175
1.17127
1.17021
1.17199
1.17073
1.17172
1.17196
1.17175
1.17203
1.17178
1.17184
1.17149
1.17203
1.17175
1.17206
1.17192
1.17177
1.17185
1.17184
1.17202
1.17184
1.17187
1.16971
1.17203
1.17208
1.17185
1.17188
1.17168
1.17191
1.17204
1.17209
1.17187
1.17185
1.17185
1.17179
1.1718
0.562868
1.17204
1.16982
1.16964
1.17175
1.17208
1.16914
1.17191
1.17182
1.17179
1.17193
1.17198
1.16751
1.16965
1.17197
1.17206
1.17165
1.17197
1.16995
1.17168
1.1721
1.17209
1.17197
1.17185
1.17171
1.17172
1.17207
1.17176
1.17184
1.17176
1.17209
1.17194
1.17199
1.17175
1.17191
1.17194
1.17203
1.1719
1.17177
1.17192
1.17176
1.17174
1.17202
1.17194
1.17196
1.17191
1.17175
1.17193
1.17193
1.17191
1.17183
1.17182
1.17203
1.17169
1.17178
1.17165
1.17188
1.17165
1.17144
1.17194
0.748878
1.17188
1.19421
1.17127
1.17181
1.17179
1.17111
1.26731
1.1718
1.17171
1.17196
1.17194
1.17198
1.17191
1.17014
1.17187
1.17186
1.17208
1.17209
1.17194
1.17202
1.16831
1.17196
1.1566
1.17169
1.17209
1.17176
1.17202
1.17202
1.17194
1.17183
1.04113
1.17194
1.17209
1.17193
1.17165
1.17193
1.1719
1.17205
1.17102
1.17156
1.17193
1.17191
1.1721
1.1718
1.17193
1.17196
1.17191
1.17194
1.1719
1.17207
1.17198
1.17166
1.17203
1.17165
1.1717
1.17203
1.17198
1.17192
1.17207
1.17169
1.17166
1.17189
1.17166
1.17207
1.17155
1.14865
0.560758
1.17193
1.17206
1.17138
1.17198
1.17185
1.17187
0.859046
0.61488
1.17186
1.1719
1.17205
1.1718
1.1719
1.17194
1.14231
1.17179
1.17205
1.1719
1.17206
1.17198
1.17202
1.17202
1.17204
1.17163
1.17165
1.17155
1.1709
1.17174
1.17164
1.17193
1.17165
1.17202
1.17166
1.17166
1.17155
1.17167
1.17178
1.17183
1.17169
1.17167
1.17113
1.1721
1.17181
0.853777
1.17195
1.1718
1.1721
1.17166
1.17165
1.17182
1.16367
1.16692
1.17138
1.17198
1.17191
1.17208
1.17133
1.16852
1.17195
1.16738
1.17165
1.17208
1.17175
1.17193
1.17191
1.17199
1.17152
1.17193
1.17176
1.17182
1.17165
1.17204
1.17169
1.1721
1.17204
1.17206
1.17165
1.02926
1.17138
1.17194
1.17178
1.17182
0.55527
1.1721
1.17209
1.17204
1.17193
1.17205
1.17208
1.17166
1.17191
1.17205
1.17191
1.1718
1.00583
1.17197
1.17203
1.17207
1.16816
1.17194
1.17087
1.17187
1.17196
1.17119
1.17197
1.17105
1.17118
1.17189
1.17199
1.17165
1.17194
1.17183
0.942919
1.17186
0.677163
1.17105
1.17193
1.17101
1.17186
1.17146
1.17193
1.15573
1.17201
1.17193
1.17195
1.17193
1.17146
1.17127
1.17204
1.17196
1.17194
1.17195
1.17179
1.17193
1.12178
1.17182
1.17209
1.13411
1.17165
1.17205
1.17198
1.16972
1.17159
1.17119
1.17165
1.06345
1.17175
1.1693
1.1721
1.17171
1.16763
1.1717
1.17079
1.16724
1.17165
1.22429
0.550497
1.16811
1.17187
1.17204
1.17168
1.17205
1.17185
1.17205
1.17205
1.17176
1.17197
1.17193
1.17166
1.04758
1.17185
1.17185
1.17175
1.17198
1.17165
1.17209
1.17171
1.17199
1.17176
1.17204
1.17168
1.17178
1.17167
1.17197
1.17207
1.17165
1.17204
1.17162
1.17044
1.17166
1.17207
1.17165
1.17164
1.17207
1.17209
1.17158
1.17172
1.17198
1.17209
1.17208
1.17202
1.17209
1.1715
1.17098
1.17156
1.17178
1.17198
1.17198
1.17206
1.1721
1.17209
1.17205
1.1721
1.17185
1.17169
1.17177
1.17171
1.17193
1.1721
1.17151
1.17166
1.1721
1.17205
1.17202
1.17177
1.17185
1.17199
1.17207
1.17205
1.17183
1.17076
1.17208
1.17208
0.830361
1.17205
1.17193
1.17184
1.17203
1.17198
1.17203
1.17188
1.17172
1.17202
1.17165
1.1717
1.17208
1.17209
1.17182
1.17182
1.17175
1.17167
1.17174
1.17199
1.17168
1.17181
1.17164
1.17168
1.17168
1.17184
1.17181
1.17201
1.17115
1.17194
1.17169
1.17155
1.17164
1.15687
1.17165
1.17169
1.172
1.1719
1.17171
1.17173
1.17192
1.17207
1.17152
1.17165
1.03687
1.17169
1.17175
1.17164
1.1721
1.17196
1.29116
1.17175
1.17174
1.17207
1.1721
1.17184
1.17137
1.16985
1.17176
1.17208
1.17193
1.17191
1.17207
1.17184
0.29516
1.16954
1.17063
1.172
1.1718
1.17126
1.16628
1.17168
1.17191
1.17175
1.1719
1.17182
1.17166
1.17153
0.736711
1.15947
1.17202
1.17208
1.17194
1.17165
1.17164
1.17201
1.14268
1.17186
1.17195
1.17165
1.17166
1.17178
1.172
1.17196
1.27988
1.17186
1.17187
1.17165
1.23239
1.17164
1.17184
1.17209
1.16909
1.17209
1.17178
1.17209
1.17186
1.17209
1.172
1.17164
1.16724
1.17208
1.16886
1.17207
1.17175
0.573445
1.17165
1.17177
1.17198
1.17181
0.615431
1.17205
1.17117
1.1718
1.17163
1.16727
1.17207
1.1717
1.17166
0.936564
1.17143
1.17131
1.17167
1.17115
1.17209
1.17204
1.17204
1.17206
1.17206
1.1717
1.17191
1.17204
1.17203
1.17148
1.16977
1.14412
1.1715
1.17164
1.1717
1.01665
1.08311
0.824231
1.16303
1.17173
1.17185
1.17203
1.17192
1.1721
1.17159
1.17206
1.17098
1.17062
1.17191
1.17177
1.16984
1.06072
1.02983
1.17177
1.17196
1.17157
1.17172
0.661818
1.17168
0.886495
1.17158
1.17205
0.706841
1.17198
0.977656
1.17157
1.17158
1.16725
1.17194
1.17198
1.17183
1.17165
1.17167
1.1521
1.17162
1.1682
1.17163
1.13032
1.1717
1.1721
1.17209
1.17209
1.17176
1.17165
1.17191
1.17189
1.17206
1.17208
1.17201
1.16504
0.515507
1.17172
0.989757
1.17177
1.17154
1.17164
1.17165
1.17156
1.17165
1.17205
1.17125
1.17205
1.1717
1.17204
1.17182
1.17168
1.17163
1.17174
1.17162
1.17204
1.17209
1.17206
1.17206
1.17165
1.17131
1.17209
1.17201
1.17166
1.1721
1.17202
0.346854
1.15843
1.17195
1.17189
1.17192
1.17193
1.17192
1.17169
1.17178
1.17209
1.17209
1.17194
1.1721
1.17187
1.17209
1.1721
1.17181
1.17165
1.17198
1.17208
1.17193
1.17199
1.17163
1.17189
1.17165
1.17146
1.17183
1.17198
1.17197
1.17231
1.172
1.17159
1.17162
1.17184
1.17197
1.12028
1.17053
1.17177
1.17209
1.17176
1.17199
1.17198
1.17192
1.1721
1.17185
1.17165
1.17193
1.17163
1.17206
0.637352
1.17209
1.17196
0.520563
1.172
1.04388
1.17188
1.17019
1.17166
1.17187
1.17203
1.17175
1.17209
1.17205
1.17203
1.17178
1.17183
1.17184
1.17195
1.1721
1.17191
1.17207
1.17164
1.17195
1.16828
1.17165
1.17192
1.15894
1.17166
1.19317
1.17177
1.17185
1.17196
1.289
1.1719
1.17166
1.17166
1.17131
1.17165
1.17161
0.932441
1.17171
1.17201
1.17182
1.17165
1.17201
1.17163
0.561597
1.172
1.17165
1.17195
1.17165
1.17193
1.17167
1.17166
1.17199
1.17206
1.1887
1.17196
1.1247
1.17189
1.31775
1.17196
1.17186
1.17201
1.17173
1.1711
1.17196
1.17201
1.17201
1.16852
1.17197
0.619848
1.17202
1.17205
1.17209
1.17139
1.17196
1.17171
1.1718
1.17196
1.17198
0.609337
1.17208
1.17178
1.17172
1.17222
1.17174
1.1713
1.07998
0.624095
1.17204
1.17076
1.1721
1.1683
1.1717
1.16788
0.475622
1.04068
1.1718
1.17193
1.17192
1.17176
1.17176
1.17209
1.17175
1.17162
1.17162
1.17175
1.17071
1.17187
1.17167
1.16881
1.17201
1.17169
1.16593
1.10583
1.17165
1.17166
1.17166
1.17183
1.17165
1.17012
1.16818
1.17184
1.16795
1.17177
1.17166
1.17163
1.17206
1.17184
1.17205
1.17166
1.17191
1.17192
1.1718
1.16954
1.1717
1.17199
1.17179
1.17199
1.17184
1.17165
1.17184
1.17167
1.17187
1.17123
1.17168
0.906592
1.17165
1.17176
1.17189
1.17165
1.17005
1.17198
1.17162
1.1658
1.17117
1.17149
1.17172
1.17173
1.17163
1.17124
1.17184
1.17171
1.16793
1.17168
1.17161
1.17171
1.17203
1.17132
0.432982
1.17055
1.17177
1.17165
1.17159
1.17181
1.17205
1.17202
1.17164
1.1708
1.17162
1.17203
1.17165
1.1715
1.17208
1.17171
1.17197
1.17152
1.1719
1.17206
1.1719
1.17165
1.17197
1.1719
1.17165
1.16973
1.17188
1.1721
1.17169
1.17182
0.551689
1.17209
1.1717
1.17164
1.17165
1.17165
0.794593
1.1717
1.17205
1.17191
1.1717
1.1711
1.17185
1.17059
1.17206
1.17191
1.17154
1.17208
1.17169
1.17136
1.16082
1.17165
1.1719
1.1719
1.17173
1.1721
1.17198
1.1721
1.17165
1.17194
1.17199
1.17014
1.17193
1.17197
1.17186
1.17192
1.17202
1.17155
1.17176
1.17195
1.17192
1.17204
1.17201
1.17157
1.17188
1.17202
1.172
1.11041
1.17208
1.17185
1.17202
1.17175
1.17207
1.17189
1.08967
1.17142
1.17187
1.17182
0.635199
1.17175
1.17157
1.1719
0.83357
1.17171
1.17175
1.17175
1.17162
1.17177
0.977181
1.17173
1.17207
1.17193
1.17191
1.1717
1.17206
1.17177
1.1712
1.17181
1.1717
1.17098
1.17153
1.17185
1.17195
1.17209
1.17207
1.17202
1.1721
1.17177
1.17171
1.15845
1.17175
0.508195
1.17173
1.17196
1.17209
1.17188
1.16942
1.1721
1.17172
1.17178
1.17185
1.17207
1.17186
1.16697
1.172
1.17208
1.17161
1.17168
1.17181
1.17183
1.17194
1.17183
1.17191
0.271137
1.17191
1.1718
1.17182
1.17207
1.17201
1.17202
1.17208
1.17165
1.17177
1.17178
1.17203
1.17187
1.17188
1.17174
1.17193
1.17207
1.17208
1.17178
1.17164
1.17191
1.12799
1.17051
1.17096
1.00461
1.17193
1.17177
1.17209
1.17168
1.17164
1.17192
1.17165
1.17208
1.17197
1.16987
1.17205
1.17197
1.17165
1.17165
1.17192
1.17186
1.16768
1.16768
1.1718
1.17176
1.17201
1.17189
1.1721
1.17208
1.17097
1.17209
1.17201
1.1721
1.17188
1.1721
1.17162
1.17172
1.17163
1.17096
1.17194
1.17194
1.17194
1.1712
1.17182
1.17174
1.17175
1.17175
1.16995
1.17166
1.1718
1.17196
1.17195
1.17195
1.1677
1.17178
1.17208
1.17163
1.17182
1.17156
1.17161
1.17196
1.17168
1.17198
1.17203
1.17197
1.17187
1.17183
1.17102
0.731704
1.17176
1.17208
1.17209
1.17174
1.17165
1.17203
1.17166
1.17165
1.17167
1.16086
1.17159
1.16991
1.17203
1.17196
1.17174
1.17165
1.17166
1.17202
1.17197
1.17165
1.17199
1.12237
1.1717
1.17155
1.17096
1.17191
1.17167
1.17166
1.17175
1.17165
0.32209
1.17206
1.17166
1.17178
1.16744
1.17192
1.17208
1.17188
1.1721
1.1716
1.05678
1.17199
1.17195
1.17175
1.17158
1.1717
1.17172
1.17171
1.172
1.1721
1.17137
1.17157
1.17168
1.15797
1.17171
1.17202
1.17194
1.17189
1.16874
1.17209
1.17191
1.1716
1.16679
1.17159
1.1721
1.17177
1.17198
1.17172
1.17135
1.17143
1.17148
1.17163
1.17146
1.17192
1.17133
1.17131
1.17191
1.1719
1.17165
1.17168
1.17173
1.17195
1.17209
1.17189
1.17192
1.17197
1.17197
1.17164
1.17176
1.17178
1.17209
1.17177
1.17208
1.17209
1.17203
1.17148
1.17006
1.17209
1.15866
1.17209
1.17197
1.17165
1.17167
1.17169
1.17207
1.17194
1.17097
1.17208
1.17178
1.17177
1.17209
1.17177
1.17076
1.17177
1.17199
1.17184
1.17174
1.17132
1.17177
1.17205
1.17164
1.17206
1.17176
1.17206
1.17203
1.17201
1.17165
1.17193
1.17206
1.17098
1.17177
1.17149
1.09715
1.17169
1.17166
1.17197
1.17166
1.17164
1.17209
1.17201
0.748792
1.17059
1.17162
1.17175
0.872542
1.17173
1.17173
1.17166
1.17173
1.17175
1.17177
1.17187
1.17005
1.17191
1.17202
1.17207
1.17169
1.17163
1.1721
1.17209
0.665076
0.556223
1.17168
1.17201
1.17136
1.17174
1.17197
1.1721
1.17209
1.1715
1.1721
1.17197
1.17189
1.17169
0.677989
1.17186
1.17168
1.17165
1.17131
1.17196
1.17158
1.16505
1.17197
1.172
1.17165
1.1708
1.17195
1.17185
1.17166
1.17115
1.17178
1.09767
1.17165
1.17165
1.14125
1.17164
1.17171
0.809173
1.17165
1.17205
1.17163
1.17206
0.4845
1.17169
1.1717
1.1696
1.17165
0.528687
1.17163
0.571878
1.17164
1.17203
0.864298
1.17166
1.17204
0.620855
1.17161
1.17206
1.17022
1.17168
1.17182
1.17169
0.767491
1.17142
1.17173
1.17168
1.17172
1.16811
1.05823
1.17072
1.17169
0.933174
1.17166
1.15423
1.17193
1.17166
1.17165
1.1721
1.17197
1.17201
1.17209
1.17166
1.17162
1.1669
1.17185
1.17161
1.17166
1.17187
1.17167
1.17165
1.17167
1.17206
1.01968
1.16616
1.17182
1.17194
1.17192
1.17052
1.17175
1.17171
1.17091
1.17202
1.17167
1.17169
1.17165
0.574213
1.17089
1.16708
1.1627
1.17168
1.17168
1.16708
1.17166
1.17171
1.17166
1.17119
0.610084
1.1008
1.10691
1.17168
1.17168
0.438785
1.17169
1.17165
1.17209
1.17171
1.17195
1.1717
1.17165
1.17177
1.17165
1.08658
1.1716
1.17164
1.17171
1.17152
1.17169
1.1697
1.17197
1.17167
1.1717
1.17209
1.17183
1.17189
1.17189
1.17172
1.17173
1.17108
1.17137
1.17134
1.17166
1.17202
0.598571
1.16737
1.17188
1.17156
1.1718
1.17168
1.17151
1.11513
0.901915
1.17041
1.1718
0.730511
0.414291
1.17086
1.17195
1.17046
1.17146
1.17153
1.16728
1.17198
0.964251
1.17154
1.17208
1.17153
1.17129
1.1715
1.17157
1.16558
1.17154
1.17185
1.13322
0.56947
0.901274
1.17196
1.17202
0.345403
1.17166
1.17168
1.17006
1.17192
1.1287
1.17156
1.17165
1.17168
1.17166
1.17166
1.17156
1.17096
0.690523
1.17131
1.13296
1.17175
1.17027
1.17154
1.17186
1.17192
1.17188
1.17165
1.17165
1.17188
1.17167
1.17201
1.17167
1.17166
1.17205
1.17059
1.17155
1.17187
0.641017
1.17156
1.17165
1.17121
1.17166
1.17168
1.17163
1.17165
1.17186
1.1717
1.17083
1.17103
1.1715
1.16708
0.647686
1.17181
1.17168
1.16932
1.17138
1.17189
0.958397
1.17196
1.1719
1.1721
1.17095
1.1719
1.16894
1.17193
1.17202
1.17166
1.17172
1.16789
1.17178
1.1552
1.17208
1.13025
1.17131
1.17165
1.17193
0.742632
1.17124
1.11924
1.1713
1.17174
1.16921
0.402266
1.17173
1.17196
1.17179
1.1719
1.17047
1.1721
1.15683
1.16734
1.17104
1.1712
0.791257
1.17131
1.12279
1.1717
1.07238
0.945678
1.17162
1.0339
1.17175
1.17168
1.17075
1.172
1.09463
1.17158
1.17175
1.17173
1.17171
1.17143
1.17178
1.17167
1.17191
1.17209
1.1721
1.17192
1.17182
1.17165
0.719144
1.12273
1.17175
1.14573
1.17164
1.17166
1.17199
1.17142
0.585138
1.17198
1.17177
1.16817
1.16683
0.457274
1.17037
1.1721
0.841199
1.17172
1.17198
1.17196
1.52636
1.17209
1.10546
1.17195
1.16989
1.17028
1.06691
1.17209
1.13441
1.17165
1.17165
1.17198
1.1721
1.17165
1.17209
1.17203
1.17152
1.16799
1.03677
1.17201
0.868999
1.17177
0.712246
1.17199
1.17003
1.16488
1.15559
1.17194
1.17199
1.1718
1.17185
1.17172
1.17206
1.17183
1.17158
1.1717
0.971246
1.16282
1.17147
0.95428
1.16026
0.62503
1.10782
1.17165
1.16341
1.17157
1.17203
1.17193
1.16824
1.16683
1.17209
1.17202
1.17209
1.17192
1.17175
1.16739
1.16494
1.16713
1.16195
1.17192
1.06808
1.17081
1.17209
1.17178
1.17209
1.17162
1.13281
1.17162
1.17162
0.969194
1.17192
1.172
1.17162
1.172
1.17187
1.17173
1.17172
1.17185
1.17201
1.17074
1.17145
0.978862
1.17175
1.17187
1.17168
1.17203
1.17173
1.17176
1.17083
1.16805
1.17176
1.172
0.526579
1.17176
1.1718
1.17174
1.17175
1.16902
1.00575
0.61606
1.17086
1.17036
1.17178
1.15475
1.17174
1.17158
1.16927
1.17177
1.17
1.17186
1.17199
0.674469
1.17188
1.17179
1.16607
1.1699
1.04357
1.09023
1.17189
1.17122
1.17147
1.17093
1.172
1.17187
1.16999
1.13122
1.17096
0.891511
1.17165
1.17165
1.1717
1.16833
1.17145
1.17161
1.17173
1.15481
1.1718
1.17168
0.436458
1.02352
1.17103
1.17104
1.17052
1.17018
0.547521
1.17176
1.17122
1.17167
0.956301
1.1717
1.17138
1.17064
1.17175
0.515784
1.17168
1.17011
1.07897
1.17165
1.17171
1.16957
1.1717
1.17202
1.17205
1.17168
1.17099
1.17168
0.968945
0.602843
1.17204
1.17177
0.88037
1.17201
1.1721
1.17153
1.17209
1.17209
1.17173
1.17198
1.17132
1.17121
0.629459
1.17197
1.17191
0.753724
1.17183
1.06544
0.994333
1.172
1.17209
1.1721
1.17204
1.11615
1.17165
1.1717
1.17165
1.17196
1.17206
0.987679
1.12747
1.17209
1.17194
1.21607
1.17206
1.17111
1.17165
1.17092
1.1719
1.02752
1.17084
1.172
1.17165
1.17165
1.17071
1.10949
1.17165
1.17124
1.1717
1.17171
1.17179
1.17174
1.17207
1.17189
1.17207
0.688969
1.17207
1.17164
1.17173
1.17176
1.17167
1.10364
1.09469
1.17165
1.17166
0.954239
1.17209
1.15837
1.17168
1.17208
0.622291
0.406165
1.1716
1.17167
1.1717
1.17164
0.419317
1.17203
0.785107
1.17207
0.649606
1.17028
1.17165
1.03216
0.981705
0.580818
0.613346
0.738495
1.17194
1.17207
1.1718
1.17155
1.17164
1.17182
0.607494
1.17185
1.17165
1.17207
1.17163
0.702727
0.569136
1.17206
1.17073
1.16621
1.17208
1.16137
1.17206
1.17165
1.17172
0.638719
1.13024
1.15883
1.17184
1.17182
1.17191
0.577093
1.17175
0.432052
1.17209
1.17208
0.746163
1.16713
1.17165
1.17205
0.557017
1.17208
1.17206
1.17163
0.849092
1.17029
1.17162
1.17164
0.620247
0.932978
1.16403
1.16847
1.17206
1.15102
1.17179
1.17163
0.611422
0.811647
1.15273
1.15213
1.16164
1.1593
1.17165
0.267169
0.617006
1.1676
1.17164
1.16345
0.573453
1.17165
1.17052
1.15691
1.17166
1.09858
1.17165
0.402194
1.17097
1.17114
1.17026
1.15287
1.17165
1.17166
1.1718
1.17172
0.89275
1.17178
1.16782
0.850076
1.17168
1.17168
1.17168
1.1719
1.17165
1.17166
1.17198
1.1717
0.859045
1.17191
1.0198
1.17168
1.17183
1.1718
1.17178
1.17105
1.17169
1.17169
1.1719
1.17204
1.17163
0.66008
0.518419
1.15148
1.17194
1.17207
1.17208
1.17168
1.1719
1.17203
1.17202
1.17201
1.17041
1.17124
0.450128
1.17207
1.17204
1.17203
1.17053
1.17188
1.17185
1.17166
1.17205
1.17171
0.536872
1.17155
1.15862
1.17183
1.17162
1.16921
1.16387
1.1719
1.17207
1.17182
1.17198
1.17169
1.17204
1.17173
1.17188
1.17165
1.17202
1.17181
1.17207
1.16789
1.17174
1.17209
1.17204
1.17189
1.17173
1.17173
1.17186
1.17072
1.17012
1.17176
1.17165
1.17187
1.12199
1.42306
1.17174
1.10049
1.32135
1.17195
1.17156
1.17176
1.17162
1.30352
1.17205
1.1718
1.17158
1.17183
1.21063
1.17165
1.17209
1.17196
1.17203
1.17175
1.17208
1.17209
1.17173
1.17208
1.17316
1.17207
1.17208
1.1718
1.17208
1.17182
1.17147
1.17174
1.17209
1.1699
1.1703
1.17174
1.17204
1.17203
1.17171
1.17127
1.17202
1.17199
1.17127
1.17176
1.17173
1.17174
1.17175
1.17207
1.17201
1.17188
1.17131
0.969922
1.16941
1.16523
1.17189
1.17179
1.17204
1.17202
1.12505
1.17204
1.1717
1.17119
1.17204
1.01273
1.17186
1.17204
1.17202
1.17154
1.17167
1.1716
1.17164
1.17204
1.17159
1.17136
1.17184
1.17142
1.17181
1.17157
1.1716
1.17171
1.17145
1.17159
1.17097
1.17183
1.17099
1.17159
1.17166
1.17178
1.17069
1.17157
1.17203
1.17201
1.17205
1.17159
1.17209
1.17177
1.17187
1.17177
1.17178
1.17209
1.17193
0.902821
1.17185
1.17184
1.17168
1.1721
1.1716
1.17185
1.17185
1.17187
1.17202
1.17204
1.17186
1.17175
1.17185
1.17186
1.17185
1.17206
1.17166
1.17204
1.17118
1.17165
1.17172
1.02118
1.17171
1.17171
1.17185
1.17175
1.17165
1.17174
1.17185
1.17176
1.17155
1.17155
1.17196
1.17199
1.17187
1.17185
1.17195
1.17048
1.17183
1.17176
1.17232
1.17183
1.17173
1.17151
1.17178
1.17164
1.17186
1.17171
1.17184
1.1718
0.883563
1.16571
1.17179
1.17173
1.17184
1.17177
1.17192
1.17193
1.17172
1.17198
1.17175
1.16992
1.17166
1.17198
1.17199
0.604239
1.08864
1.17156
0.610801
1.17173
1.17173
1.1719
1.17189
1.17203
1.17203
1.16858
1.17188
1.17198
1.17157
0.647219
1.17198
1.17196
0.602907
1.1712
0.615152
1.17199
1.1716
1.1719
1.17182
0.651372
1.17196
0.657165
1.17202
1.17185
0.758177
1.17167
1.17186
1.17132
0.647128
1.17204
1.17163
0.730006
1.17203
1.17195
0.597051
1.17163
1.17194
1.17172
1.17161
1.17049
1.17166
0.787878
1.17201
1.17168
1.17167
1.17209
1.17172
1.17161
1.17181
1.17168
1.17171
1.17159
1.17168
1.17208
1.17204
1.17165
1.17165
1.17197
1.17161
0.790051
1.17168
1.17162
1.1715
0.787312
1.17166
1.1714
0.481535
1.17199
1.17161
1.17185
1.17138
1.17172
1.17157
1.17209
1.1721
1.17174
1.1721
0.931549
1.17161
1.1716
0.735189
1.14597
1.17186
1.17166
1.17159
1.17186
1.17171
1.17209
1.17155
1.17188
1.17149
1.17188
1.17028
0.782364
1.17158
1.17195
0.986438
0.871029
1.17175
1.17161
1.1693
1.17127
1.16064
1.1719
1.17043
1.17205
1.17163
0.998919
1.17126
1.17174
1.17201
1.17147
0.966904
1.17188
1.1717
1.1711
1.17165
1.17175
1.17149
0.659741
1.17148
1.17178
0.923839
1.17206
1.17165
1.09396
1.17174
0.809823
1.17169
1.16572
0.962766
0.827083
1.17167
1.17172
1.17171
0.97935
1.17158
1.16693
1.17165
0.898537
0.74695
1.17025
1.1721
1.16052
1.1351
1.06818
0.993563
1.06686
1.17206
1.17158
1.17182
1.17185
1.17187
1.17177
1.1721
1.17167
1.17205
1.1721
1.17176
0.293803
1.17204
1.17182
1.17184
1.17079
1.17117
1.17205
1.1099
1.1721
1.1719
1.17193
1.17165
1.17198
1.17185
1.17191
1.17209
1.17162
1.17169
1.07906
1.17209
1.1719
1.17162
0.404976
1.17178
1.17116
1.17181
1.17179
1.17209
0.349045
1.17189
1.17202
1.1718
1.17183
1.172
1.17198
1.1718
1.17209
1.17207
1.17167
1.17109
1.0685
1.1718
1.1718
1.1718
1.16998
1.17164
1.17165
1.17186
0.546249
1.17175
1.17162
1.1717
1.17126
1.17165
1.17171
1.17169
0.585079
0.37602
1.17165
1.16968
1.17165
1.17179
1.17165
1.17103
1.17165
1.17183
1.17173
1.17174
1.17166
1.17159
1.17164
1.00399
1.1639
1.17169
1.17183
1.17163
0.863498
1.17166
1.17165
1.17171
1.17173
1.1717
1.17171
1.1717
1.17257
1.17163
1.17166
1.17164
1.01519
1.03998
1.17182
1.1676
1.00615
1.17189
1.17137
0.229214
1.1721
1.16192
1.17106
1.17207
1.17186
1.17209
1.17071
1.17222
1.17208
1.17209
1.17193
1.17189
1.17207
1.17168
1.17305
1.17133
1.17203
1.17174
1.17181
1.14485
1.17209
1.172
1.17169
1.15308
0.997499
1.17174
1.17165
1.1719
1.17178
1.1715
0.661127
1.17188
1.17092
1.17164
1.16163
1.17173
1.172
0.633938
1.17173
1.17167
1.17191
1.17171
1.17164
1.17178
1.17167
1.1716
1.1717
1.1718
1.17165
1.17191
0.690942
1.17116
1.17166
1.17119
1.1719
1.1719
1.17168
0.524287
1.17152
0.840365
1.17178
1.17175
1.1719
1.17164
1.17167
1.1717
1.16868
1.17165
1.17191
1.17164
0.58382
0.369272
1.17173
1.1719
1.17174
1.17584
1.05795
1.15972
1.04894
1.17163
0.860454
1.17098
1.17165
1.17165
1.17165
1.17171
1.17171
1.17175
1.12094
0.511656
1.16544
1.17059
1.04586
1.17166
1.17156
1.17152
1.1711
1.17177
1.15784
1.17182
0.69552
1.16309
1.17209
1.14078
1.17077
1.17184
1.17179
0.618653
1.17195
1.1721
0.972686
0.894865
1.17165
1.17191
1.17195
1.17165
1.17177
1.1721
1.17169
1.16538
0.623337
1.17175
1.17189
1.17161
1.04153
0.998254
1.17208
1.17209
1.17184
1.11948
1.17172
1.17168
1.17168
1.1721
1.17166
1.17198
1.17195
0.484103
1.17169
1.17195
1.17168
1.17196
1.17181
1.17165
1.17171
1.17199
1.17174
1.17186
1.17193
1.17125
1.172
1.17169
1.17198
1.17196
1.17174
1.17202
1.17162
1.17196
1.17198
1.17054
1.17206
1.15809
1.17163
1.17172
1.17183
1.17172
1.17165
1.17163
0.922577
1.15882
0.583491
1.15707
1.17155
1.09409
1.17575
1.15916
1.15788
1.17064
1.1708
1.17195
1.17163
1.17165
1.17196
1.17185
1.17171
1.17174
1.16336
1.17183
0.581914
1.17204
1.17184
1.17162
1.17182
1.17178
1.17165
1.17164
0.646576
1.16991
1.17169
1.17182
1.17176
1.17158
1.17169
1.17162
0.849066
1.17161
0.839876
1.17167
1.17168
1.17167
0.852727
0.93324
0.873492
0.819142
0.98245
1.12205
0.605512
1.1715
0.808274
1.17191
1.17177
1.17166
1.17166
1.16838
0.877482
1.1679
1.17141
0.981524
1.07087
1.17182
0.842534
1.16793
1.17181
1.17173
1.17172
1.17041
1.13466
1.17181
1.17165
1.17037
0.701715
1.17051
0.518296
1.17152
1.17034
1.1479
1.17167
1.17146
1.1077
1.17163
1.17172
1.17168
1.1711
1.17181
1.17197
1.17206
1.17168
1.17209
1.15281
1.17163
1.16412
0.985885
1.17169
1.17164
1.17098
1.16982
1.17163
1.17029
1.17115
1.13478
1.17203
1.17165
1.17003
1.17171
1.16947
1.17055
1.17161
1.17086
1.17189
0.86022
0.616992
1.17165
1.17187
1.17028
1.17167
0.696041
1.17165
1.17186
1.17165
1.17039
1.17194
1.17156
1.17205
1.17172
1.17101
1.1702
1.16993
1.17173
1.17185
1.16802
0.581546
0.609828
1.17179
1.17112
0.373849
1.17089
0.591901
1.17172
1.16055
1.17207
1.17168
1.17167
1.17185
1.17169
1.17202
1.17183
0.588545
1.17167
1.17173
1.17179
1.17181
1.17167
1.17165
1.17165
1.16691
1.01291
1.17204
1.17185
0.929553
1.17176
0.61675
1.17164
1.17187
0.572858
1.17171
1.17187
1.17194
0.951732
1.17201
1.17182
1.1716
1.17173
1.17166
1.17183
1.17163
1.172
1.17187
1.17168
1.17209
1.17208
1.17165
1.17168
1.17126
1.17176
1.17168
1.17178
1.17156
1.17178
1.17173
1.17206
1.16892
1.17166
1.17166
1.17165
1.17202
1.17049
1.17203
1.17166
1.17201
1.17196
1.17165
0.718455
1.17181
1.17179
1.1717
1.17166
1.17182
0.853999
1.172
1.17199
1.17173
1.17177
1.17182
1.1721
1.17196
1.17176
1.17205
1.17193
1.17202
1.16842
1.17165
1.17204
1.17194
1.17202
1.17183
1.17206
0.38585
1.17171
1.17168
1.17173
1.17181
1.17139
1.17165
1.17141
1.13704
1.17162
1.17129
1.17164
1.1719
1.17166
1.17166
0.624047
1.17201
1.17193
0.637543
1.17205
1.1719
1.17182
1.17175
1.17168
1.17166
1.14774
1.17182
1.17194
1.17182
0.622381
1.00459
0.863952
1.17159
1.1316
0.966311
1.17207
1.17177
1.1717
0.612498
1.17177
1.17165
1.17176
1.172
1.16865
1.17186
1.17178
1.17171
1.17136
1.17174
1.17131
1.17134
1.17182
1.17076
1.16591
1.17184
1.17141
1.17202
1.17178
1.17182
1.17209
1.17209
1.17163
1.17184
1.12867
1.04138
1.14469
1.16962
0.969942
1.17171
1.17185
1.17166
1.17184
1.17198
1.17185
1.17199
1.17199
1.17165
1.11061
1.17169
1.1717
0.950331
1.17178
1.08984
1.17174
1.17051
1.17179
1.17198
1.17082
1.17207
1.17198
1.17164
1.10938
1.1124
0.98271
1.1717
1.08011
1.17194
1.17208
1.17194
1.17204
1.17171
0.447775
1.17165
1.17196
1.17195
1.1711
1.17149
1.17196
1.16613
1.17196
1.17195
0.811985
1.17184
1.17169
1.17196
1.1717
1.17208
1.17172
1.17209
1.17184
1.17175
1.17208
0.630727
1.17169
1.17169
1.17209
1.1717
1.17077
1.17208
1.17208
1.17192
0.917968
1.17192
1.17054
1.00005
1.16818
1.17207
0.628876
1.17139
1.17209
1.17173
0.741424
1.17164
1.17183
1.17115
1.17078
1.17207
1.17167
1.17193
1.17087
1.17172
1.17171
1.17173
1.17165
1.16015
1.17164
0.796403
1.17182
1.1707
1.17165
1.17166
1.17154
1.17165
1.17202
1.17176
1.17174
1.17167
0.973793
1.17112
1.05916
1.17096
1.17025
1.17103
1.17191
1.17207
1.17196
1.15026
0.633802
0.697824
1.17162
1.17187
1.08433
1.17094
0.416507
0.731244
1.17195
0.666735
0.433762
1.17116
1.17195
0.975096
1.1556
0.971787
0.864472
1.16867
1.17109
0.940243
1.17209
0.995034
1.172
1.1616
1.17154
0.475296
0.907209
1.17195
1.17209
1.17147
0.948461
1.17175
1.16491
1.1718
1.17209
0.887148
1.17177
1.17168
1.17183
1.17209
1.17141
1.17187
0.219709
1.11181
1.17209
1.17167
0.914525
1.17173
0.62781
0.710245
0.943499
1.1717
1.1719
1.17165
0.589892
1.1719
1.17191
1.172
1.17203
1.17177
0.887281
1.17163
1.17177
0.704099
1.16863
1.17171
1.17207
0.995513
1.17197
1.17175
1.16752
1.1721
1.17208
1.17179
1.16956
1.17497
0.771847
1.17166
1.1718
1.17166
1.17091
1.10834
1.17161
1.04992
1.17175
1.1718
1.17175
1.17165
1.17206
1.16623
1.17107
1.17178
0.637321
1.17172
1.17173
1.17167
1.17164
1.17161
1.17182
1.10285
1.36176
1.17173
1.17174
1.17137
1.15928
1.17181
1.172
1.16522
1.17209
1.17183
1.17185
1.17173
1.17165
1.17187
1.17165
1.17165
1.17207
1.17174
1.17177
1.16657
1.17178
1.16828
0.304863
1.17143
1.16645
1.17186
1.17146
1.17192
1.17165
1.16799
0.752912
0.714934
1.16617
1.19329
1.1658
1.1718
1.17155
1.15858
1.1706
1.16914
1.17052
1.17188
1.16826
1.17165
1.17164
1.17195
1.17159
1.17094
1.17174
0.760876
1.17194
1.17182
1.17171
1.10513
0.874877
1.17182
1.1689
1.17008
1.05575
1.16824
1.16769
1.1718
1.17204
1.16807
1.17182
1.17205
1.17198
1.17196
1.17196
1.17165
1.17186
1.16753
1.17056
1.16506
1.17128
1.17166
1.17096
1.17174
1.17195
1.17196
1.16644
1.17173
1.17188
1.17172
1.16254
1.17205
0.659026
1.16855
1.17103
1.17164
1.16871
1.1718
1.16851
1.17172
1.1718
1.17173
1.0573
1.17057
1.17197
1.17179
1.17187
0.827113
1.17197
1.1654
1.05732
1.16864
1.16996
1.17175
1.17175
1.1677
1.02909
1.17163
1.16836
1.17073
1.1716
1.17169
1.16825
1.17184
1.16532
1.1721
1.17167
1.17164
1.1719
1.17173
1.17165
1.16968
1.15206
1.16825
1.17199
1.1721
1.16985
1.16918
1.1721
1.17165
1.17189
0.409356
1.16596
1.09984
1.16961
1.17209
1.05085
1.12486
1.1718
1.1721
1.17182
1.17176
1.1717
1.17181
0.716882
1.17184
1.17179
1.17192
1.16965
1.17169
1.17168
1.17197
1.17184
1.16927
0.739329
1.17169
1.17649
1.17175
1.17205
1.17181
1.17205
1.17181
1.04208
1.16973
1.17165
1.17164
1.17101
1.172
1.17193
1.17164
1.17192
1.172
1.16714
1.17194
1.17163
1.17173
1.17196
1.17164
1.16757
1.17182
1.17165
0.707564
1.17166
1.1717
1.17197
1.17176
0.464133
1.17196
1.07396
1.17173
1.17076
1.17165
1.17201
1.17166
1.17169
1.17166
1.17182
1.17171
1.16776
0.716123
1.17179
1.1719
1.17189
1.17186
1.17165
1.17177
1.17165
1.17168
1.17164
1.17194
1.17165
1.17177
1.17185
0.529214
0.975943
1.17189
1.16717
1.17204
1.17188
0.814669
1.17165
0.706883
1.17183
1.1715
1.17192
1.1721
1.17198
1.17208
1.17164
1.17172
1.17154
1.16802
1.17168
1.17193
1.17201
1.17172
1.17194
1.17205
1.17195
1.17198
1.1718
1.17154
1.17154
1.17162
1.1719
1.17189
1.17153
1.17153
1.17176
1.17189
1.17185
1.17189
1.17152
1.17171
1.17144
1.17201
1.17178
1.17152
1.17177
1.1651
1.17153
1.16893
1.13659
1.172
1.12948
1.17201
1.16922
1.17204
1.16833
1.17141
1.16757
1.01988
1.17186
1.17207
1.172
1.17107
0.577086
1.17196
1.17004
1.17165
0.704337
1.17186
1.17165
1.17172
1.17191
1.1701
1.17197
1.17208
1.17193
1.17186
1.17205
1.17198
1.16734
1.1608
1.1716
1.17183
1.17204
1.16913
1.17201
1.17203
1.17148
0.680954
1.17056
1.17206
1.17199
1.16891
1.17147
1.17176
1.17187
1.17065
1.16795
0.994369
1.17209
1.16808
1.17194
1.17174
1.17195
1.17176
1.17177
1.17175
1.17173
1.17177
1.17196
1.17179
1.17182
1.17174
1.17169
1.17189
1.17197
1.17178
1.17185
1.17189
1.17195
1.17167
1.17178
1.1717
1.17171
1.17151
1.17015
1.17139
1.17178
1.172
1.17165
1.17166
1.17159
1.17173
1.17167
1.17172
1.17165
1.17169
1.17166
1.17168
1.17195
1.17175
1.17184
1.17166
1.17187
1.17168
1.17201
1.17156
1.17153
1.17131
1.17182
1.17194
1.17162
1.17204
1.17205
1.17171
1.17193
1.17172
1.17203
1.17166
1.17193
1.17168
1.17187
1.04741
1.08527
1.17209
1.17186
1.172
1.17169
1.17165
1.17176
1.17176
1.17176
1.17133
1.1618
1.1717
1.16157
1.17166
1.17182
1.15843
1.15945
1.17165
1.17122
1.17013
1.17166
1.17172
1.17178
1.17177
1.17173
1.16141
1.17209
1.16215
1.17171
1.17172
1.17201
1.1677
1.16786
1.1682
1.1718
1.17198
1.17208
1.17192
1.17172
1.17178
1.17165
1.17186
1.17165
1.17201
1.16994
1.17209
1.17186
1.17186
1.17177
1.17184
1.1717
1.17169
1.17105
1.17187
1.17088
1.17165
1.17178
1.17189
1.17206
1.17186
1.17165
1.17184
1.17166
1.16622
1.17199
1.17175
1.17175
1.1718
1.17207
1.17181
1.17187
1.17171
1.17179
1.17193
1.1718
0.39592
1.17163
1.17188
1.17166
1.17189
1.17163