/*--------------------------------*- C++ -*----------------------------------*\
| =========                 |                                                 |
| \\      /  F ield         | OpenFOAM: The Open Source CFD Toolbox           |
|  \\    /   O peration     | Version:  v2012                                 |
|   \\  /    A nd           | Website:  www.openfoam.com                      |
|    \\/     M anipulation  |                                                 |
\*---------------------------------------------------------------------------*/
FoamFile
{
    version     2.0;
    format      ascii;
    class       volScalarField;
    location    "3.5";
    object      T;
}
// * * * * * * * * * * * * * * * * * * * * * * * * * * * * * * * * * * * * * //

dimensions      [0 0 0 1 0 0 0];


internalField   nonuniform List<scalar> 
108993
(
300
300.005
300
300
300
300
300.004
300
300
300.008
300
300
300
300
300
300
300.017
300
300
300.002
300
300
300.001
300
300
300
300
300.001
300.004
300
300
300
300
300
300
300
300
300
497.769
576.202
300
300
300
300
300.062
557.548
300
300.001
300
300.001
300
300.362
300.001
300
300
300
300
300
300
300
300
300
300
300
300
300
300
300
300
300.055
300
300
300
300
300
300
300
300.002
300
300
300
300
300
300
300
300
300
300
300
300
300
300
300
300
300
300.001
300
300
300
300
300
300
300
300
300
300
300
300
300
483.376
300.092
300
300.15
300.473
300
300.341
300
300
300.036
300
300
300
300.131
300
300
300.007
300
300
300
300
300
300
300
300.595
300
300
300
300
300
300
300
300
300.012
300
300
300
300
620.062
300
300.573
300.621
300
300.001
300.745
300
300.053
300
300
300
301.102
300.617
300
300
300
300
300.51
300
300
300
300
300
300
300.052
300
300.001
300
300.035
300
300
300
300.006
300
300
300
300
300
300
300
300
300
300
300
300
300.03
300
300
300
300
300
300
300
300.034
300
300
300.014
300.166
300
467.811
300
294.473
300.126
300
300.025
300.192
277.505
300
300
300
300
300
300
300.493
300.001
300.013
300
300
300
300
300.939
300
303.917
300
300
300
300
300
300
300
337.326
300
300
300
300
300
300
300.001
300.211
300.121
300
300
300
300
300
300
300
300
300
300
300
300
300
300
300.067
300.016
300
300
300
300.001
300
300
300
300
300.066
306.082
622.414
300
300
300.151
300
300
300
408.262
568.415
300
300
300.007
300
300
300
307.682
300
300
300.001
300
300
300
300
300
300.014
300
300.127
300.309
300
300
300
300
300
300
300
300.07
300
300
300.017
300
300
300.245
300
300.027
410.77
300
300.004
300
300.001
300.001
300
302.137
301.314
300.17
300
300
300
300.179
300.921
300
301.14
300
300
300
300
300
300
300.154
300.005
300
300
300
300
300
300
300
300
300
341.226
300.095
300
300
300
628.79
300
300
300.001
300.005
300
300
300
300.006
300
300
300
349.001
300.001
300.004
300
301
300.006
300.295
300
300
300.224
300
300.253
300.224
300.006
300.003
300
300.003
300.002
372.407
300
516.796
300.252
300.004
300.26
300
300.084
300.003
304.214
300
300.04
300
300.003
300.119
300.163
300
300
300.004
300.003
300
300
313.275
300
300
309.977
300
300
300
300.59
300.028
300.159
300
329.577
300.007
300.717
300
300
301.15
300
300.309
301.246
300
287.239
634.281
301.019
300
300
300.011
300
300
300
300
300
300
300
300
335.269
300.011
300.011
300.046
300
300
300
300
300
300
300
300
300
300
300
300
300.085
300
300.093
300.414
300.031
300
300
300.092
300
300
300.017
300
300
300.001
300
300.021
300
300.061
300.203
300.097
300
300
300
300
300
300
300
300
300.019
300
300
300
300.046
300
300.138
300
300
300
300
300.001
300
300
300
300
300.07
300.345
300
300
422.429
300
300.006
300.006
300
300.004
300
300
300
300
300.001
300
300.001
300.001
300.008
300.001
300
300.062
300.003
300
300.058
300.001
300.004
300
300.061
300
300
300
300.206
300
300.009
300.056
300
303.831
300
300
300
300
300
300.046
300
300
300.132
300.004
338.759
300
300
300
300
300.003
272.44
300.001
300
300
300
300.002
300.075
300.533
300
300
300.001
300
300
300
1103.82
300.542
300.351
300.001
300
300.103
301.488
300.016
300.001
300
300
300
300
300.147
475.352
303.137
300
300
300.001
300
300.002
300
307.674
300
300
300
300.001
300.013
300
300
274.854
300.042
300
300
285.401
300
300.018
300
300.76
300
300.022
300
300.002
300
300.002
300
301.185
300
300.805
300
300
608.984
300.007
300
300
300.078
568.049
300.005
300.221
300
300.12
301.228
300.001
300
300
374.863
300.148
300.168
300.001
300.208
300
300.003
300
300.001
300.001
300.044
300.027
300.005
300.006
300.147
300.523
307.198
300.04
300.002
300.049
345.451
324.338
425.423
302.236
300
300.007
300
300
300
300.021
300.008
300.218
300.303
300.032
300.003
300.544
331.195
341.063
300
300.005
300.023
300
528.554
300.006
395.638
300.049
300.005
495.272
300.019
359.049
300.02
300.02
301.214
300
300
300.039
300.005
300
305.147
300.007
300.932
300.009
310.981
300.103
300
300
300
300.045
300
300.041
300
300
300
300.002
301.724
676.575
300
354.843
300
300.106
300.053
300
300.11
300.001
300.001
300.162
300.001
300
300.004
300.022
300.102
300.127
300
300.084
300.001
300.001
300.001
300
300
300.095
300
300
300.002
300
300.002
995.849
303.449
300.001
300.007
300.001
300.007
300.002
300.027
300
300
300
300
300
300.007
300
300
300.044
300
300
300
300.001
300
300.006
300
300.001
300.082
300
300
300
299.865
300
300.118
300.117
300
300
313.715
300.365
300.003
300
300.077
300
300
300.003
300
300.009
300
300
300.006
300
548.54
300
300
669.98
300.017
336.543
300.017
300.486
300
300.008
300.016
300
300
300.01
300
300
300
300
300
300
300
300
300.006
300
300.956
300
300
303.391
300
294.567
300.006
300
300.01
272.893
300.009
300
300.006
300.105
300.005
300.012
376.44
300.005
300
300.043
300
300
300.011
621.698
300
300
300
300.008
300
300
300.014
300
300
295.83
300
312.535
300
266.972
300
300.007
300.012
300.058
300.173
300
300.012
300.013
300.817
300.001
564.049
300
300
300
300.14
300.022
300.056
300
300
300.03
573.662
300
300.034
300.088
299.867
300
300.108
325.331
560.264
300.007
300.342
300.001
300.976
300
301.084
731.608
337.598
300
300
300.003
300.036
300.088
300
300
300.119
300.123
300
300.333
300.011
300.001
300.843
300
300
301.584
317.829
300
300.004
300
300
300.079
300.469
301.003
300
301.064
300.006
300.076
300.003
300
300.033
300.006
300.003
300
300.006
300
300.62
300
300
300.084
300
300.04
300.113
300.034
300.07
300
300.209
300
387.052
300
300
300
300.116
300.476
300
300.009
301.616
300.188
300.159
300
300.062
300.124
300.219
300
300.01
301.008
300.071
300.009
300.063
300.001
300.194
802.348
300.349
300.031
300.064
300.032
300.034
300.002
300.001
300.065
300.322
300.009
300
300.002
300.099
300
300
300
300.097
300
300
300
300.002
300
300
300.001
300.608
300
300
300.011
300
632.909
300
300
300.003
300
300.002
441.128
300.014
300
300
300
300.257
300.009
300.339
300.001
300
300.114
300
300.021
300.161
302.797
300
300
300
300
300.001
300.001
300
300
300
300
300.468
300
300.001
300
300
300.003
300.093
300.013
300.012
300
300
300.001
300.083
300
300
300
316.541
300.001
300.01
300
300.007
300
300
322.438
300.176
300.016
300.005
550.438
300.058
300.112
300.004
420.6
300
300
300
300.073
300.011
359.375
300.042
300.001
300.001
300
300.033
300
300.014
300.199
300.006
300.004
300.28
300.112
300.022
300
300
300
300
300
300
300
303.468
300.001
685.811
300.001
300
300
300.018
300.685
300
300.001
300
300.026
300
300.027
301.301
300.026
300
300.115
300
300
300
300
300
300
1175.14
300.048
300
300
300
300.001
300.001
300
300
300
300
300
300
300
300
300
300
300
300
300
300
311.547
300.403
300.282
349.551
300
300
300.001
300
300.001
300
300.001
300
300
300.545
300.001
300.002
300.001
300.001
300
300
301.131
301.117
300
300
300
300.001
300.001
300
300.198
300
300
300
300
300
300.009
300.001
300.004
300.204
300.003
300.001
300.003
300.228
300.005
300.001
300
300
300.547
300
300.025
300.004
300.005
300.003
301.092
300.025
300
300.05
300
300.068
300.051
300.003
300
300
300
300
300
300
300.272
478.712
300.01
300
300
300.012
300.001
300
300.001
300
300
302.87
300.048
300.502
300
300.019
300
300.018
300.115
300
300
300.038
300.001
313.095
300.032
300.028
300.248
300
300
300.023
300
300
925.768
300
300
300
301.163
300
300
300.006
300
300.134
332.434
300
300.009
300
300.018
300
300
300
300.003
300
300.191
300.052
300
303.566
300
300
300
300.02
300.865
300
300.013
300.123
301.362
300.026
300
300
300.032
300
300.131
300.107
300.098
300.121
300.103
300
300.133
300.14
300.004
300.004
300
300.1
300
300
300
300.006
300
300
300
300.102
300
300
300
300
300.001
300
300
300.14
300.481
300
303.386
300.001
300
300
300.002
300.08
300
300.001
300.215
300.001
300
300
300
300
300.325
300
300.023
300
300.04
300.201
300.001
300
300.004
300
300.001
300
300
300.001
300.004
300.029
300.001
300.276
300
300.159
320.283
300
300.091
300
300.004
300.004
300.001
300
467.779
300.329
300.078
300.001
402.15
300.099
300
300
300
300
300.001
300.001
300.515
300
300
300.002
300.007
300.004
300
300
526.126
627.675
300.005
300
300.193
300.001
300.001
300.002
300
300.104
300
300.001
300
300.007
515.842
300.02
300.009
300.119
300.13
300.001
300.118
301.804
300
300
300.001
300.287
300.033
300
300.001
300.226
300.086
320.134
300.001
300.001
307.983
300.002
300
433.245
300.002
300
300.003
300
718.942
300
300
300.6
300.003
659.492
300.003
610.704
300.002
300.015
405.848
300.001
300.014
562.965
300.023
300
300.476
300
300
300
456.506
300.155
300
300.09
300
300.929
331.973
300.339
300.004
376.117
300
304.586
300
300
300
300
300
300
300
300
300.103
301.332
300.069
300.018
300
300
300
300
300
300
344.437
301.422
300
300
300
300.382
300
300
300.27
300
300
300
300.003
608.179
300.224
301.216
302.402
300
300.001
301.285
300
300
300
300.144
573.074
319.169
317.51
300
300
793.412
300
300.002
300
300
300.001
300
300.001
300
300.001
323.422
300.115
300.002
300.097
300.138
300
300.577
300
300
300
300
300
300
300.001
300
300.03
300.211
300.19
300.173
300
300
583.79
301.212
300
300.113
300
300
300.04
315.147
389.08
300.388
300
479.365
838.304
300.293
300
300.366
300.049
300.035
301.172
300.006
364.075
300.029
300.001
300.029
300.165
300.038
300.02
301.579
300.029
300.002
310.16
613.391
389.291
300
300
1000.2
300
300
300.526
300
311.421
300.022
300
300
300
300
300.023
300.267
507.083
300.168
310.254
300
300.453
300.03
300.015
300
300.001
300
300
300.001
300
300.021
300
300
300.006
300.369
300.027
299.993
545.46
300.118
300.001
300.13
300
300
300.006
300
300
300
300.267
300.26
300.155
301.236
540.039
300.009
300
300.599
300.175
300.006
366.267
300
300.002
300
300.283
300.005
300.703
300
300
300
300
301.078
300
304.248
300
310.986
300.193
300
300
471.574
300.209
314.002
300.187
300
300.732
862.418
300
300.006
300.086
300.048
300.304
300
303.822
301.2
300.19
300.119
443.102
300.146
312.966
300
327.636
371.203
300.094
339.767
300.003
300.005
300.233
300
321.038
300.114
300.019
300.001
300.003
300.079
300.005
300.001
300.001
300.001
300
300
300.004
300
487.006
313.04
300.019
306.822
300.003
300
300.028
300.157
597.158
300.009
300.06
300.95
301.328
760.787
300.43
300.001
417.095
300
300
300
230.59
300.001
317.905
300.026
300.563
300.465
329.292
300.001
309.788
300.001
300.001
300
300
300
300.001
300.018
300.12
301.009
338.806
300.02
403.996
300.035
491.719
300
300.496
301.856
304.257
300.001
300
300
300
300
300
300.008
300.027
300.041
361.558
302.268
300.161
367.985
302.965
559.331
317.24
300
302.219
300.121
300
300
300.96
301.292
300
300.001
300
300.016
300
301.173
301.81
301.243
302.578
300
329.045
300.33
300
300.083
300
300.008
310.286
300.008
300.008
361.445
300.014
300
300.01
300
300
300
300.082
300
300.002
300.35
300.162
358.692
300.041
300.001
300.003
300
300
300
300.302
300.957
300
300
662.01
300
300
300
300
300.729
349.155
567.492
300.298
300.445
300
304.408
300
300.064
300.64
300
300.472
300
300
518.793
300
300
301.45
300.493
336.593
322.28
300
300.203
300.132
300.235
300.002
300.014
300.451
310.685
300.214
393.529
300.001
300.001
300.09
300.934
300.087
300.109
300.096
304.371
300
300
792.898
343.145
300.248
300.263
300.367
300.481
637.427
300
300.196
300
367.083
300
300.173
300.366
300
676.056
300
300.416
325.622
300
300
300.57
300
300
300
300
300.201
300
362.32
579.517
300
300
398.415
300.001
300
300.111
300
300
300
300
300.086
300.117
555.752
300
300
464.768
300
329.691
353.208
300
300
300.001
300.001
314.882
300
300
300
300
300
355.612
311.769
300.002
300
289.166
300
300.235
300
300.276
300
341.869
300.254
300
300
300
300.35
316.728
300
300.179
300.001
300
300.023
300.009
300
300.008
300
508.038
300
300
300
300
300
318.411
320.976
300
300
367.882
300
303.416
300
300
561.89
854.093
300.015
300.001
300
300.005
827.842
300
446.356
300
538.534
300.38
300
340.316
357.646
601.556
569.984
474.373
300.001
300
300
300.06
300.013
300.011
575.332
300
300.039
300
300.068
498.146
613.422
300
300.345
301.395
300
302.675
300
300
300
547.461
310.965
303.344
300
300
300
605.25
300.002
804.545
300
300
469.521
301.261
300
300
626.502
300
300
300.005
413.015
300.452
300.127
300
563.697
376.317
301.967
300.928
300.004
305.451
300.001
300.027
571.872
431.795
304.984
305.16
302.661
303.272
300
1237.96
566.689
301.153
300
302.22
609.607
300
300.325
303.888
300
319.887
300
862.322
300.26
300.229
300.397
304.901
300
300
300
300
393.22
300
301.034
412.43
300
300
300
300
300
300
300.005
300
408.26
300
344.464
300
300.042
300
300.054
300.176
300
300
300
300
300.008
530.412
673.548
305.283
300.017
300.002
300.001
300
300.004
300.013
300.001
300
300.431
300.213
774.185
300.001
300.002
300.001
300.376
300.01
300
300.001
300.007
300.083
650.941
300.035
303.446
300.001
300.007
300.734
302.109
300
300.007
300.047
300
300.083
300.003
300.006
300.059
300.007
300.001
300
300.006
301.073
300
299.898
300.001
300.058
300
300
300.065
300.283
300.462
300.001
300
300
313.222
247.281
300
319.308
266.243
300.001
300.044
300.01
300.019
269.874
300.001
300.012
300.019
300
290.495
300.022
300
300.001
300
300
300
300
300
300
299.626
300
300
300.075
300
300.045
300.147
300
300
300.522
300.426
300
300.011
300
300
300.12
300
300
300.2
300.005
300
300
300
300.001
300
300.027
300.187
361.95
300.679
301.689
300.031
300.026
300.011
300.001
312.386
300.008
300.002
300.217
300.009
346.78
300
300.007
300.002
300.034
300.088
300.015
300.094
300.001
300.016
300.169
300
300.126
300
300.021
300.017
300.095
300.145
300.014
300.252
300.052
300.248
300.014
300
300
300.341
300.047
300.001
300
300.001
300.017
300
300.055
300.016
300
300
300.001
300.016
388.518
300
300.008
300
300
300.018
300
300.06
300
300
300
300
300.016
300
300
300
300.01
300.001
300
300.218
300
300.04
344
300
300.001
300.004
300
300
300.002
300
300
300.14
300.107
300.023
300
300.001
300
300.026
300.374
300
300
299.884
300
300
300.151
300
300.019
299.97
300
300
300.009
397.181
301.544
300
300
300
300
300.047
300.001
300
300
300.002
300.474
300
300
300
578.455
322.716
300.074
572.344
300.02
300.001
300.008
300.031
300.003
300.001
300.896
300.048
300
300.021
540.488
300
300
579.718
300.229
568.316
300
300.047
300
300.001
537.043
300
532.36
300.009
300
462.083
300.006
300
300.117
540.532
300
300.086
479.718
300.002
300.013
585.343
300.092
300.001
300.002
300.098
300.406
300.086
444.842
300
300
300.107
300.002
300.096
300.011
300
300
300.001
300.017
300.003
300.001
300.001
300
300.007
300
300.01
443.718
300
300.014
300.041
445.248
300
300.128
723.171
300
300.01
300.059
300.115
300
300.023
300
300
300.003
300
376.712
300.012
300.013
476.542
306.714
300
300.01
300.015
300
300
300
300.046
300.002
300.051
300
300.46
448.133
300.016
300.003
356.034
402.601
300.001
300.012
300.693
300.213
302.829
300.022
300.318
300.012
300.024
351.632
300.102
300.019
300.006
300.047
363.017
300
300.05
300.143
300.036
300.037
300.151
530.359
300.133
300
379.851
300.001
300.001
321.21
300
432.844
300
301.619
364.727
424.143
300
300
300
358.488
300.032
301.307
300
390.465
468.914
300.428
300
302.956
309.596
328.842
353.451
329.285
300
300.092
300
300.042
300
300.001
300
300.007
300.003
300
300
1169.67
300
300.022
300
300.322
300.237
300.001
316.574
300
300.001
300.029
300.001
300
300
300.001
300
300.041
300.002
325.63
300
300.014
300.041
856.051
300
300.145
300.054
300
300
990.842
300
300.002
300
300
300
300.022
300
300
300
300
300.254
328.82
300
300.013
300
300.507
300.101
300
300
639.042
300
300.006
300
300.118
300.003
300
300
596.802
920.45
300
300.516
300
300
300.003
300.185
300
300.003
300.018
300.001
300
300.025
300.003
349.751
302.012
300.003
300.001
300.005
406.238
300
300
300
300
300
300
300
299.831
300.004
300
300.001
345.997
337.784
300
301.038
348.989
300
300.075
1471.79
300
302.552
300.264
300.003
300.005
300.001
300.292
299.859
300.002
300.002
300.002
300
300.004
300.016
299.683
300.102
300.001
300
300.003
307.035
300.003
300.001
300
304.852
352.122
300
300
300
300.001
300.047
529.406
300.001
300.211
300.006
302.593
300
300
551.663
300
300
300
300
300.004
300.005
300
300.036
300.011
300
300
300
506.739
300.188
300
300.142
300
300
300
665.364
300.081
417.244
300
300
300
300.002
300.025
300.002
300.845
300
300
300.001
598.429
937.087
300.013
300
300.068
299.029
332.017
303.17
334.947
300.004
407.595
300.261
300
300
300
300
300
300
313.581
681.681
301.677
300.345
335.92
300.001
300.024
300.033
300.243
300.013
303.621
300
503.431
302.268
300
308.077
300.306
300.001
300
564.836
300.001
300
361.052
392.093
300
300
300
300.002
300
300
300
301.608
560.927
300
300.001
300.015
337.307
351.722
300
300
300
313.974
300
300.002
300.08
300
300.008
300
300
719.16
300.023
300
300
300
300
300
300.014
300
300.016
300
300
300.146
300
300
300
300.001
300
300
300.006
300
300
300.312
300
303.599
300.006
300
300
300
300
300.006
380.316
303.409
598.613
303.87
300.035
321.121
298.986
303.326
303.656
300.295
300.284
300
300.007
300
300
300
300
300.045
302.254
300
600.455
300
300.001
300.008
300
300.008
300
300.004
540.797
300.445
300.001
300
300.002
300.022
300
300.032
413.191
300.008
417.731
300
300
300.03
411.463
376.181
401.745
428.191
357.398
313.188
577.293
300.079
433.891
300
300.001
300
300
300.86
399.794
301
300.067
357.73
328.084
300.001
416.235
301.035
300
300
300
300.399
309.808
300.082
300
300.411
499.097
300.335
672.36
300.135
300.433
306.198
300
300.13
317.238
300.047
300
300.005
300.244
300
300
299.922
300
300
304.962
300.002
301.957
356.151
300.002
300.019
300.267
300.558
300.023
300.442
300.243
309.775
300.001
300
300.506
300.016
300.651
300.376
300.026
300.282
300.025
407.602
566.581
300
300.001
300.424
300
502.807
300
300
300
300.398
300
300.027
300
300
300.223
300.445
300.514
300.023
300
301.014
600.581
573.244
300
300.161
926.781
300.288
590.152
300.001
302.892
300
300
300
300
300
300.003
300
593.499
300
300.007
300
300
300
300
300
301.259
346.667
300
300
377.55
300.001
566.661
300.068
300
609.627
300.002
300
300
368.803
300.005
300
300.021
300.001
300
300
300.012
300
300
300
300
300
300
300.004
300.175
300
300.001
300
300.112
300
300.001
300.001
300.795
300
300
300
300.001
300.362
300
300
300
300
300
487.297
300
300
300
300
300
410.569
300
300
300.003
300.048
300
300.001
300
300
300
300
300
300.847
300
300
300
300
300
300
897.69
300.051
300.007
300
300
300.094
300
300.093
309.071
300.039
300.187
300
300
300
300.004
560.18
300
300
548.458
300
300
300
300
300
300
306.325
300
300
300
561.648
349.556
405.976
300.054
310.616
363.322
300.002
300
300.006
570.588
300
300.002
300
300.002
300.856
300
300
300
300.123
300.014
300.124
300.179
300
300.345
301.532
300
300.067
300
300
300
300.001
300
300.005
300
311.42
337.293
307.054
300.619
361.997
300.019
300
300
300
300.016
300
300
300
300.002
316.465
300.023
300.018
369.272
300
322.443
300.088
300.365
300.007
300
300.278
300
300
300
316.77
315.938
357.332
300
325.327
300
300.001
300
300.002
300
776.125
300.12
300
300
300.225
300.077
300
301.536
300
300
431.967
300
300.006
300
300.105
300.001
300
300.001
300
300.012
300
554.468
300
300.008
300.001
300
300.258
300
300
300
382.418
300.002
300.382
351.21
300.943
300
555.893
300.155
300
300
472.627
300.124
300
300.153
300.315
300.003
300
300
300.223
300
300
300
300.003
303.051
300.003
440.497
300.001
300.351
300.002
300
300.091
300.003
300.003
300
300
300.012
360.658
300.172
331.689
300.214
300.404
300.196
300
300
300
305.575
551.765
501.696
300.012
300.008
324.048
300.22
833.437
479.019
300
524.855
800.646
300.163
300
360.106
304.177
361.277
405.731
300.822
300.227
373.404
300.003
352.919
300.004
302.614
300.043
732.175
386.905
300
300.002
300.153
370.092
300.005
301.774
300
300
395.609
300.001
300
300.003
300
300.073
300
1546.14
316.09
300
300.001
383.799
300.016
557
492.8
372.108
300.022
300
300
592.128
300
300
300.002
300.002
300.001
395.521
300.004
300
497.251
300.802
300
300
352.821
300.001
300.001
301.085
300
300
300.001
300.585
299.226
454
300
300.017
300
300.231
317.116
300.101
334.615
300
300.001
300
300.004
300
301.472
300.184
300
548.778
300
300
300.071
300
300.036
300.001
318.616
258.386
300
300
300.172
303.283
300
300.019
301.709
300
300.002
300.001
300
300
300
300
300
300.001
300
300.001
301.392
300
300.899
1081.46
300.169
301.424
300
300.07
300.003
300
301.028
465.364
489.768
301.497
294.704
301.589
300
300.132
303.445
300.386
300.75
300.397
300.003
300.975
300
300
300
300.039
300.292
300
460.435
300
300
300
317.981
400.998
300
300.81
300.519
332.697
300.992
301.119
300
300
301.037
300.006
300
300
300
300
300.001
300
301.144
300.309
301.812
300.209
300.005
300.228
300
300
300
301.438
300
300
300
302.451
300.001
531.156
300.909
300.274
300.121
300.806
300.004
300.923
300
300
300.071
332.278
300.363
300.003
300.001
300.001
423.823
300
301.707
332.265
300.865
300.548
300
300
301.131
341.269
300.004
300.958
300.304
300.12
300
300.988
300.022
301.741
300
300
300.009
300.046
300
300
300.588
305.098
300.977
300.002
300
300.558
300.736
300
300
300
847.412
301.582
319.589
300.62
300
334.276
312.426
300.001
300
300.005
300
300
300
488.247
300
300.006
300.001
300.536
300
300
300
300
300.636
473.73
300
298.797
300.005
300.002
300
300
300
337.07
300.595
300
300
300.257
300.004
300.002
300.005
300
300.001
301.255
300.001
300.018
300
300
300
301.147
300
300
494.937
300
300
300
300
749.962
300
327.085
300.001
300.277
300
300.002
300
300
300
300.011
300.001
301.098
489.125
300
300
300.006
300
300.003
300
300
300.001
300.004
300.004
300.003
300
300.046
659.054
359.771
300.011
301.259
300.001
300.002
430.325
300.003
495.086
300.012
300.149
300
300
300
300
300.003
300
300.029
301.039
300
300
300
300.001
300.003
300.003
300
300
300
300.131
300.027
300.105
300.003
300
300.033
300.033
300.063
300.003
300.001
300
300.056
300
300.061
300.016
300.004
300.032
300.087
301.777
300.029
300.8
309.263
300
311.237
300
300.734
300
300.968
300.171
301.164
344.395
300
300
300
300.191
605.321
300
300.528
300.001
497.06
300
300.001
300
300
300.509
300
300
300
300
300.002
300
301.205
302.913
300.126
300
300
300.746
300
300
300.048
513.963
300.283
300
300
300.784
300.051
300
300
300.294
301.051
353.135
300
301.022
300.015
300
300.004
300
300
300.001
300
300
300
300
300
300.001
300
300
300
300
300
300
300
300
300
300
300
300.157
300.481
300.171
300
300
300
300
300.108
300
300
300.001
300
300
300
300.005
300
300
300
300
300
300.092
300
300.119
300.119
300.148
300
300
300.095
300
300
300
300
300
300
300
300
300.003
300.001
335.386
323.769
300
300.001
300
300
300
300
300
300
300.11
302.602
300
302.664
300.001
300
303.484
303.22
300
300.152
300.455
300
300
300
300.004
300
302.706
300
302.517
300
300
300
301.104
301.063
300.972
300
300
300
300
300
300
300
300
300
300
300.528
300
300.001
300.001
300
300
300
300
300.232
300.006
300.225
300
300.003
300
300
300
300
300
300
301.452
300.004
300
300.002
300.065
300
300.076
300.001
300.004
300.044
300
300.043
875.078
300.008
300.007
300
300.016
300.007
300.001
300
300
300
300.01
300.001
300.001
300.005
300.159
301.978
300.873
300
300
300.184
300.001
300.001
300
300
300
300.001
301.452
823.185
301.198
300.898
300.191
300
300.004
300.001
300.197
300.277
300
806.685
300
300.116
300.001
300.035
300.002
300
300.153
300
300.001
300
300.001
300
300
300.061
300.22
300
300.003
310.631
300
300.001
300.003
300.001
300
300
300
300.001
300
300
300.002
300.006
300
300
300
300.006
300
300.001
300.004
300.014
300.099
302.327
300.001
300.705
300.134
300.001
300
300.002
301.599
300.003
340.197
321.01
300
309.237
300
300
300
300
300
300
300.115
300.157
300
300
300.003
300.061
300.123
300
300.116
300.013
300.088
795.538
300.009
300.001
300
300.001
300.137
300.001
300.016
300.001
300.133
300
300.005
300
300.006
300
300.111
300.095
300
300.005
300
300.001
306.607
300.001
300.001
780.768
300.001
300.001
300.002
300.001
300.001
300
300
316.641
354
308.169
303.206
302.68
300.739
352.02
300
300.001
300.008
300.001
300.013
818.738
300.007
313.538
300.179
300.001
300
302.781
321.173
300
300.004
308.433
513.212
798.058
300.001
300.006
305.613
300.002
300
595.877
300
300.001
300.001
300
300.002
300
300.001
300.001
300.255
300.019
300.132
300.347
300
300.197
300.786
300.837
300.001
300.001
300.003
300.652
457.185
300.002
311.335
333.531
300
345.831
335.904
300
300
300
300
336.033
300
300.003
300
300
300.002
300
302.638
300
300
300
341.463
300.001
301.188
300
300
300
300.042
300.001
300.011
300
300
300.019
301.027
300.052
299.823
300.081
300.009
300
300
300.148
300
300
300.075
300.07
300.003
300.001
300.021
300.096
300
300.001
300.001
300.002
300.004
301.83
300.001
300.611
300
303.81
300.016
300.455
300.002
300.001
300.001
300.001
300.914
300.004
467.002
300
300
300.099
300
300
300.119
300.238
300
300
301.711
300.071
300.001
300
300.249
300.001
300.04
300
300
300.011
300
300.001
300
300
300
300
300.009
300.001
300.248
300
300
300
300.043
300.001
300.01
300.354
300.001
300
302.149
300
300
300.12
300.001
300
300
300
601.861
300
300.159
300.008
300.015
300
300.12
300
300
300.02
300
300.004
300.242
300
300
300
300.001
300.003
300.001
387.162
300
300.001
300
300.063
300
300
300.001
300
300
300.001
300
300.039
300
300
300.001
300
300.001
300
300
300
300
300
301.014
300
300
300
300.041
300
300
300
300
300.104
300
300.466
300
300
300.01
300.968
301.937
300
300
300
300.298
781.699
323.638
300
300
300
300
300
300
300
300
300
300
311.58
295.456
300.171
300
300
300
300
300
287.417
321.035
300.001
300
300
300
300.002
300.002
300
300
300
300
300
300
300
300
300.008
300.009
300.551
300
300.001
300
300
315.739
300.015
300
300
308.456
300
300
300
300
300.001
300
300
327.035
300.185
300
300.082
300
300
300.018
300.001
300
300
300
300.001
302.159
300
300
300
300
300
300.207
300
299.776
300.002
322.133
303.434
300
300
315.241
300
300.001
300
300
300
300.301
300
300.001
299.834
300
300
300.001
300
301.061
300
300.084
332.149
300.002
300.003
300.003
300
300
300
300
300
310.883
300
300
300
300.002
300
300.003
314.66
300
300
300.005
300
300
300.005
300
300
300
300.002
300
300
300.005
300
300
300.006
300.001
300.001
300
300
300.001
314.794
300
300
300
300.003
300
300.001
300
300.013
300.002
300.107
300
300.017
300.008
300
300.025
310.486
300
300.01
300
300
300
300.01
300
300
300
733.248
300
300
300
300.01
300.013
300
300
384.248
300.008
300.002
300
300
300.011
300.005
727.161
300.001
300
654.444
498.956
492.907
300
300
300
644.933
300
300.067
300
300.003
300
300
300
300
300
300
300
300
300
300
300
300
300
300
300
300
300
300.002
300
300
300
299.677
300
300
300
300
299.989
300
612.353
300.38
300.003
300.071
300.002
300.01
300.012
300.001
300
300
300
406.179
334.418
300.002
300.057
300
300
300
300
300
366.081
300.012
300
300
578.735
300
300.007
300
300.095
300
300
300
344.743
300
579.723
300.192
327.812
393.368
300
300
300
300.032
300.026
300.036
300
300.014
632.23
300.004
300
298.57
300
300.131
300.136
300
300
300.211
360.199
300.028
300
300.033
300
300
300
300.288
300
300
300
300
300
300
300
350.48
299.901
300.368
300
300.57
300
300.832
300.551
300
300.207
300.002
300
300
300
300.024
300.001
300
300
300.032
300
300
303.397
300
300.012
300
300
300
300
300
300
341.538
300
300
345.323
300
300
300
300
300.008
300
300
300
300.445
300
308.343
300
300.396
300
300
300
300
300
356.643
300
300
330.9
300
300
300
300.073
314.083
300
300
300
300
300
303.939
300.14
300
307.074
300
522.107
300
300
300.039
300
300
300
300
300
300.001
301.664
300
300
299.011
300
300
300.446
366.904
300
300
300
359.914
310.845
300
486.482
300
300
300.866
300
300
306.279
300
300.096
300
300
300
300
457.997
300
300
300.099
300
300
300
300
300
300
300
300.1
300
300.097
300
424.495
300
300.1
300
300
300
300
300
300
300
300
300
300
300
300
300
300
300
300
300
300.478
300
300
300
300
300
453.205
300
300
300
524.219
300
300
300
300.002
300
300
300.776
307.418
300
300
300.313
304.259
300.002
300
301.504
300.002
300
300
300.002
300
300
491.396
300.002
300.002
300.003
300.002
300
300
300.003
300
300.001
300
465.246
300.083
300.002
300.004
300
300
300
300.001
300
309.005
300
300.001
300.283
300
300
300.002
300
300
300
300.002
300
349.715
300
300.001
300.08
300
301.334
300
500.806
300.002
300.003
300.838
300
495.271
300
300.936
342.292
300.17
345.203
315.38
300.098
300.111
300
560.982
300
643.363
300
300.118
300.015
300.324
300.311
300
300
300
300.2
300.018
300
300.023
300.016
300.018
300
300
300.018
300
300
300
300
300.019
300
300
300
300.009
300.78
300
300
300.134
300.118
300
300
300.333
300
300.168
300.147
300
300.224
302.195
300.001
300.179
300
300.092
300.256
300.739
300.22
300
300.754
300
300
300.063
300.062
300
300.009
300
300
300
300
300.471
300.512
300
300.53
300.059
300
300.337
300.357
300.969
389.025
300
300.498
300.004
300
300.004
300
300
300
300.004
300
300.005
300
300.046
535.571
300
300
300
300
300
300
300
300
300.012
300
300.967
300
300.004
300.002
300
300.067
300
300
300.091
300.004
300
300
300.148
301.252
312.576
300.003
300.002
300.409
300.568
300.002
300
303.315
300
300.075
300
300
300
300
300
300
300
300
300
300
300.821
300
300
300.034
300
300
300
300
300
300
300
300
300
300
300
300
300.747
300
300
300
300
300
300
300
300
300
340.138
300.099
301.042
300
300.27
300.103
300.263
300.002
300
300.276
300
300
300.318
300
300.504
300.107
300
300.709
300.349
300
300
300
368.96
300.001
300
300.005
300.004
300
300.065
300
300.006
300.007
300.149
301.176
300.003
300
300
300
300.116
300
300
300.194
300
300
300
302.201
300
300
300
321.079
300.018
300.019
300
300
300
300
300
300.004
336.419
300
300
300
300
300.758