/*--------------------------------*- C++ -*----------------------------------*\
| =========                 |                                                 |
| \\      /  F ield         | OpenFOAM: The Open Source CFD Toolbox           |
|  \\    /   O peration     | Version:  v2012                                 |
|   \\  /    A nd           | Website:  www.openfoam.com                      |
|    \\/     M anipulation  |                                                 |
\*---------------------------------------------------------------------------*/
FoamFile
{
    version     2.0;
    format      ascii;
    class       volVectorField;
    location    "3.5";
    object      U;
}
// * * * * * * * * * * * * * * * * * * * * * * * * * * * * * * * * * * * * * //

dimensions      [0 1 -1 0 0 0 0];


internalField   nonuniform List<vector> 
108993
(
(-0.010644 -0.000494058 -0.00855441)
(0.00802812 -0.0277152 -0.0304897)
(0.000357675 -0.00112597 0.00146413)
(-0.00396142 0.00190911 -0.00606495)
(0.000219085 -0.00123759 -0.00102156)
(0.000133516 -0.000323333 -0.00124967)
(0.0677811 -0.0186345 -0.0709591)
(7.65465e-05 -5.0004e-05 -0.000123964)
(-0.000626333 -0.000217107 -0.00610844)
(-0.0134004 -0.00453196 -0.00114641)
(0.000771081 -0.00170567 -0.00104998)
(0.000348124 -0.00110215 -0.000874071)
(0.000341052 -0.0023676 0.000345811)
(5.4797e-05 -0.00358685 -0.000173664)
(-0.000436818 -0.000100859 -0.00306381)
(0.00205608 0.00440028 0.0041188)
(-0.0253364 -0.00398437 -0.0011758)
(-0.00160407 -0.00133214 -0.001451)
(0.000941746 0.00263237 -0.00232092)
(0.00392976 -0.0118306 -0.0133083)
(0.000712941 0.000375812 -0.000235954)
(0.00881915 -0.0020552 -0.0144707)
(-0.00475892 -0.00206235 -0.00125781)
(-0.000662819 -0.00016139 -0.00371291)
(0.000507753 -0.00185476 -0.00162338)
(0.00263994 -0.00429269 -0.00384259)
(-0.00414198 0.00359183 -0.0012722)
(0.00256655 -0.0130933 -0.0126021)
(0.00363824 -0.00628223 -0.0144282)
(6.82387e-05 -9.45294e-05 -0.00349643)
(-0.00226206 -0.00049879 -0.00119263)
(0.000172432 -0.00321868 -0.000390918)
(-0.00102968 0.00851875 0.00724095)
(-0.0211681 -0.00675801 -0.0134848)
(-0.0173044 0.00120435 0.0333306)
(-0.000141638 -0.000857516 -0.00210467)
(-0.000888912 0.00363148 -0.00127965)
(5.60656e-05 -0.000928117 -0.00119125)
(0.329055 3.29597 -2.32518)
(0.291231 0.486401 -2.16024)
(-0.00289566 -0.0166954 -0.00796182)
(9.61343e-05 -0.000523235 -0.00223374)
(2.1805e-05 -0.00236219 -3.4723e-05)
(0.00431862 0.0054264 -0.00395864)
(0.00558455 0.0125183 0.00599435)
(-0.819211 -1.10965 -0.362256)
(-0.000278305 0.000480189 -0.00293428)
(0.0615091 0.000705336 -0.0351193)
(0.00441342 -0.00118985 -0.0144094)
(-0.00148702 -0.00401529 -0.0103025)
(0.0036076 0.00069453 -0.000620201)
(-0.0875043 0.0563474 -0.0754385)
(0.0019122 -0.0288057 -0.0164125)
(0.000497279 0.00208251 -0.000742726)
(-0.00425696 -0.000802503 -0.00156485)
(-0.00221637 -0.000841909 -0.00436962)
(0.00328027 0.00589702 0.00133272)
(-0.00055642 -0.00134273 -0.000720067)
(0.000618078 -0.00202703 -0.00295822)
(-0.000708016 -0.0018805 -0.00141447)
(-0.000307761 -0.0014194 -0.00152417)
(-5.03571e-05 -0.00123238 -0.00211087)
(-0.000111584 -0.000385025 -0.00309433)
(0.00641928 -0.000458064 0.000108727)
(0.00384724 -0.0033776 -0.00106104)
(0.00272057 -0.00655449 -0.00702397)
(0.00216513 -0.0026742 0.00034202)
(0.00105897 -0.00266094 -0.00168784)
(-0.00136955 -0.00481179 -0.000999345)
(-0.296133 -0.216229 -0.0395704)
(-0.000421169 -0.000596953 -0.00350534)
(0.000875575 -0.00153339 -0.00257813)
(-0.000309903 -0.00156028 -0.00242112)
(-9.58826e-06 -0.00224298 -0.000998233)
(0.00549708 -0.00212922 -0.0164553)
(-0.000488602 0.00096119 -0.00214782)
(0.00460521 -0.00049029 0.000331442)
(-0.0253946 -0.00808311 -0.0055029)
(0.00667686 0.00391299 -0.00178167)
(-0.00180282 -0.000716732 -0.00194802)
(-0.000357878 -0.00166271 -0.00407509)
(-0.00450688 -0.00456391 -0.00187963)
(0.000638757 -0.000910707 -0.00308472)
(-0.000203613 -0.00105333 -0.0007035)
(-0.00156556 -0.000924102 -0.00173964)
(0.000350829 -0.00152584 2.9277e-05)
(-5.07829e-06 -0.000307466 -0.00167486)
(0.000571568 -0.000958247 -0.000872565)
(0.000359509 -0.00142168 -0.00103833)
(-0.000368546 -0.00257072 0.000444965)
(-0.000420601 -0.00274266 -0.000867286)
(-0.00112512 0.00181156 -0.00182647)
(-0.000421802 -0.00224406 0.000101336)
(0.000458832 -0.000334533 -9.85484e-05)
(-0.000338787 -0.00229324 -0.000525205)
(0.00127159 -0.00310247 -0.00020164)
(-2.91775e-05 0.00294277 -0.0015755)
(-2.0393e-05 -0.00148857 -0.00305242)
(-0.00104783 0.00330223 -5.13029e-05)
(0.000113234 9.52325e-05 -0.00193565)
(-0.000898013 -0.00215881 -0.00103159)
(0.000952627 -0.00617948 -0.00512513)
(-0.000291186 -0.00121296 -0.00327147)
(-0.000357938 -0.0045606 -0.00146703)
(2.81566e-05 -0.00108582 -0.00322846)
(-0.000774201 -0.000294768 -0.000757136)
(-0.000218577 -0.000901002 -0.00336621)
(0.0114594 -0.0458476 -0.00226793)
(0.000903274 -7.8158e-05 -0.000939525)
(-0.128774 0.784446 -2.25363)
(-0.0156844 0.00573275 0.000902915)
(0.000301487 -0.00289703 -0.000916484)
(-0.037405 -0.0610119 0.000290319)
(-0.0195566 0.0273878 -0.000318487)
(-4.1685e-05 -0.000705356 -0.00223728)
(0.0184833 -0.312867 0.56984)
(0.000181503 -0.001122 -0.00157361)
(0.000173504 -0.00202899 -0.00164642)
(0.0390076 -0.0252799 -0.018224)
(-9.43576e-05 0.00132016 -0.00258716)
(-0.00270413 -0.0043595 -0.0009054)
(-0.00485975 -0.00692145 -0.00244459)
(0.0148062 -0.775728 0.035678)
(0.00218799 -0.0015449 -0.00058932)
(0.000562499 -0.000554925 -0.00138979)
(0.0115042 0.00115921 0.00171983)
(-0.00294336 -0.01581 -0.00667993)
(-0.00127679 -0.00239703 -0.0046773)
(-0.00397989 -0.00590538 -0.00379892)
(-0.00351983 -0.0102657 -0.00407618)
(0.00219305 -0.00255733 -0.000302326)
(-0.00336793 -0.00889884 -0.00333907)
(-0.000221696 -0.0018788 -0.00327006)
(0.0449782 0.177798 0.171279)
(-0.000424589 -0.00191293 -0.00183425)
(0.000526042 0.000652472 0.000604392)
(-0.00153844 -0.00658332 -0.0044597)
(-0.000453665 -0.00161959 -0.00320051)
(0.000671089 -0.000960885 -0.00309912)
(-1.53588e-05 -0.00394521 -0.000153848)
(0.00174856 -0.00162212 -0.000324365)
(0.000657082 0.000205484 -0.00257242)
(0.0283544 -0.0175695 -0.00468481)
(-0.000361526 -0.00817383 -0.0062224)
(-0.00303346 -0.013148 -0.00528342)
(-1.78474e-05 -0.00119271 -0.00286811)
(0.000164834 -0.00167072 -0.00318347)
(-1.4037 -0.486311 -3.37173)
(0.0018288 -0.00135066 0.000134628)
(-0.0470638 -0.114729 1.01513)
(-0.0700608 -0.0529314 1.02246)
(0.00218444 -0.00402116 -0.000979218)
(-0.00212431 -0.00270457 0.00169001)
(-0.0729294 -0.0366732 1.03238)
(0.00104817 -0.000892068 -0.003598)
(-0.0243791 -0.00478979 0.00317757)
(-0.00204278 -0.00327245 -0.00310247)
(0.00605735 0.00425291 -0.0388436)
(-0.0271895 0.00202698 0.0111039)
(0.0731969 -0.134917 -0.238263)
(-0.0596665 -0.0523061 1.01715)
(0.0034531 0.0164926 0.0515044)
(-0.000998593 0.00104064 -0.0013371)
(-0.000309501 0.000154278 -0.00375222)
(0.000169738 -0.00260349 -0.000542065)
(-0.0623713 0.00718572 -0.0150697)
(-0.000143901 -0.000536455 -0.000199998)
(0.00341498 -0.000287749 -0.000147585)
(0.00467473 -0.0011041 -0.000179016)
(0.000170412 -0.000969281 -0.00257944)
(4.4192e-05 -0.00263058 -0.00185801)
(-0.0011657 -0.00129107 -0.00381708)
(-0.0483083 -0.00112959 -0.0540127)
(2.70944e-05 -0.000408571 -0.00192611)
(-0.00453831 -0.00825507 -0.013709)
(0.00556051 -0.00746229 -0.00392998)
(-0.0633522 -0.0693232 0.235799)
(0.00364524 -0.00108112 0.000419423)
(0.000178172 -0.00130586 -0.00243648)
(-0.000165166 0.000507217 -0.0026253)
(-0.0101235 -0.011868 -0.00227234)
(0.00184177 -0.00174474 -0.00368335)
(0.017887 0.0109115 -0.0197326)
(0.000998999 -0.000478923 -0.0011403)
(-0.000131662 -0.00443996 -0.000678564)
(-0.000242073 -0.00117161 -0.00335514)
(0.0108971 0.00384095 -0.0124102)
(-0.00108688 -0.002664 -0.00191711)
(-0.0021667 -0.00259121 -0.00247932)
(0.00232439 -0.00114118 0.000397358)
(0.000120735 -0.00188013 -0.00211944)
(0.0115545 0.00477795 -0.00380357)
(-0.000259954 -0.00200568 -0.00239238)
(-0.0827028 0.00441036 0.103798)
(0.000434808 -0.00100955 -0.0029479)
(0.0027432 -0.00396526 -0.00040495)
(-0.0024109 -0.0168246 -0.00692881)
(7.44568e-05 -0.00161383 -0.00281192)
(-0.000292725 -0.00175331 -0.00273874)
(0.00146645 -0.00277689 -0.000426011)
(0.000118082 -0.000730712 -0.000396798)
(-0.107461 -0.0161676 0.0737112)
(-3.41861e-05 0.000638934 -0.000594076)
(-0.00138343 -0.0159348 -0.0664641)
(0.127409 -0.0783704 -0.0490634)
(0.0552539 -0.0993436 0.696309)
(-0.000514919 -0.001432 -0.00269265)
(-1.31941 -1.90856 -0.0616231)
(0.000227075 -0.00153436 -0.0030704)
(-0.147452 0.0737986 0.546878)
(-0.0423057 -0.342952 -0.0940792)
(0.000151351 -0.0014601 -0.0013206)
(-0.0780921 -0.0417919 0.371288)
(-0.237702 -2.54496 -0.47406)
(0.0262722 -0.504245 -0.492779)
(0.000198286 -0.00190665 -0.00296893)
(-0.00186275 -0.00190862 -0.00334066)
(0.000267747 -0.00112812 -0.00236967)
(0.00726971 0.0159274 -0.0322973)
(-0.000519284 0.000904355 -0.000909611)
(0.0153338 -0.0117258 -0.00325093)
(-0.0624766 -0.070911 0.964587)
(-0.00526244 -0.0120748 -0.00362423)
(-0.0519462 -0.0365493 0.0647229)
(0.0103083 -0.0018498 -7.92816e-05)
(0.00297376 -0.000922775 0.000387497)
(0.00967112 0.0197527 -0.0430064)
(0.000646724 -0.000739815 -0.00122599)
(-0.0521475 0.217983 -0.0432579)
(0.000807035 -0.00197221 -0.00350903)
(-0.0896611 -1.35426 0.140722)
(-0.000729202 -0.000770562 -0.0034808)
(0.00272314 -0.00104034 0.000225873)
(0.00205579 -0.0131395 -0.0139345)
(0.00102565 7.57247e-05 -0.00212549)
(-0.000658639 -0.000229279 -0.000234819)
(-0.000135555 0.00438685 -0.0119653)
(-0.000339886 -0.00379273 -0.00227723)
(0.774624 -0.360592 0.323656)
(-0.000785246 0.0203352 -0.042907)
(-0.000449348 -0.000213701 0.000343205)
(-0.000230796 -0.00149927 -0.00277181)
(-6.25638e-06 -6.97193e-05 -5.28532e-06)
(0.00168736 0.0117846 -0.0493684)
(0.00133453 -0.00296316 -0.0289089)
(0.00633674 0.0112887 0.00272012)
(-0.295122 -2.59063 -0.360432)
(0.0202572 -0.62726 0.185642)
(-0.012015 0.0245159 -0.0375637)
(0.00390821 -0.00121778 -0.00536524)
(4.47676e-05 -0.000509957 -0.00035473)
(0.00641127 -0.00260684 0.00412315)
(9.29557e-05 -0.00061925 -0.00408691)
(6.77242e-05 -0.00109152 -0.0026193)
(0.00821668 -0.00114832 -0.0356671)
(0.000510941 0.0215188 -0.0464052)
(0.00807015 -0.00848127 -0.0370647)
(0.0019339 -0.000656295 -0.000548042)
(-0.00255587 0.002681 -0.00327627)
(0.000431914 -0.000785021 -0.000359545)
(0.000543321 -0.000577355 -0.00123016)
(0.00481653 -0.000584003 -0.013392)
(0.0140822 -0.00897748 -0.00213462)
(0.0108849 0.00103012 0.00461117)
(-0.0262709 -0.0226602 0.0343204)
(0.00178901 -0.0038203 -0.00338761)
(-0.00015054 -0.000271105 -0.0011601)
(0.00424328 -0.00474005 -0.0126268)
(0.000657682 -0.00107549 -0.000627882)
(0.000693434 -0.00161544 -0.00337508)
(-7.20418e-05 -0.000347445 -0.000180015)
(-0.000211558 -0.00214254 0.000794018)
(-0.166056 -1.88516 -0.0228296)
(-0.0582086 -0.0639649 0.797614)
(-0.4725 -0.569732 -4.13594)
(0.000111225 -0.00138299 -0.00262628)
(8.4215e-05 0.00143445 -0.00136954)
(0.329859 -1.15269 -0.523456)
(0.000810184 -0.00279281 -0.000986397)
(0.00287029 -0.010981 -0.00901645)
(0.00439712 -0.0114985 -0.00775233)
(-0.173879 -1.01073 0.000377141)
(-0.768132 -0.816463 -0.0139034)
(0.00180842 -0.00514146 -0.000626887)
(4.91354e-05 -0.00228363 -0.00188725)
(0.00774171 -0.00107785 0.00157237)
(0.00213226 -0.00271941 0.000506023)
(0.00702789 -0.0111508 -0.00819511)
(0.00142216 -0.00407337 -0.000976299)
(-0.0529858 -0.349582 -0.492153)
(-0.0028743 -0.00435565 -0.00040701)
(4.87268e-05 -0.000104238 -0.00151545)
(0.00465836 -0.00990214 -0.00883481)
(0.000116096 -0.000358203 -0.00171796)
(0.00381478 -0.00774565 -0.00251768)
(-0.000470807 -0.00117316 -0.00140448)
(-0.000869785 0.00180897 -0.00276746)
(0.000132252 -0.000617685 -0.00138926)
(-0.0655679 -0.0238539 0.00169117)
(0.000100952 -1.79918e-05 -0.0002293)
(-0.0196329 -0.377828 0.433966)
(-0.0614453 -0.00978654 0.964684)
(5.78305e-05 -0.00128386 -0.00307735)
(5.94841e-05 -0.000179225 7.01096e-05)
(0.000284707 -0.000861617 -0.00424393)
(0.00142675 -0.00284814 -0.0091629)
(0.00210449 -0.00357289 0.000998667)
(0.00337776 -0.00271413 -0.0216476)
(0.00401274 -0.00428075 -0.00898415)
(-0.115057 -2.17219 -0.00751606)
(-0.00020345 -0.000369566 -0.000817834)
(0.000274921 -0.00235879 -0.0012289)
(0.00398505 -0.0140792 -0.000603211)
(5.71599e-05 -0.000454837 -0.00256983)
(0.00401446 -0.00475885 -0.0109433)
(-0.0415229 -0.140306 0.82887)
(0.00451441 -0.000185287 0.00011577)
(0.00519651 -0.0108097 -0.000874233)
(0.717223 -0.734212 -1.36158)
(-0.000257136 -0.000596333 -0.0034102)
(0.00296491 -0.0233615 -0.0136439)
(0.00664751 -0.000269655 8.333e-05)
(0.000587923 -0.00183175 -0.0182166)
(8.68662e-05 -0.00103435 -0.0149887)
(-0.000234164 -0.00160695 -0.00307981)
(-0.0400048 0.683197 0.450636)
(-0.0687382 0.536974 0.726295)
(-0.0414517 -0.224923 1.07407)
(0.00099409 0.00223203 -0.00481495)
(0.00124439 -0.00440496 0.000427035)
(0.0124893 -0.00115952 -0.00470172)
(0.0238795 -0.650376 0.787835)
(-0.0663442 -0.0197949 0.193957)
(0.000173637 -0.000873415 -0.003423)
(0.0709508 -1.30537 -0.159836)
(-0.000428206 0.000151853 -0.00167076)
(-0.000158571 -6.03725e-05 -0.00197987)
(-0.000633186 -0.00171449 -0.00130625)
(7.68381e-05 -0.000800354 -0.00275862)
(2.25312e-05 -0.000647886 -0.00304149)
(0.000327531 5.2531e-05 -0.00319185)
(0.003175 -0.0266439 0.29316)
(0.00570019 -0.0106935 -0.0159877)
(-0.000112055 -0.00162928 -0.00344237)
(-0.000601008 -0.00291683 -0.00258446)
(-0.00137359 -0.000326052 -0.00254784)
(0.000381111 -0.000548787 -0.000620302)
(-5.9695e-05 -0.000353348 -0.00233392)
(0.000342946 3.28663e-05 0.000118656)
(-0.00105872 -0.000826195 -0.000870308)
(0.000450721 -0.000267209 -0.00201699)
(0.00023035 -0.000271479 -3.38228e-05)
(0.0640104 -0.160264 0.171451)
(-0.684325 -0.42916 -0.170326)
(0.00930092 -0.0108133 0.00328416)
(0.000190436 -0.00211796 -0.00376624)
(-0.000187408 -0.00175022 -0.00290071)
(1.0152 -0.622319 -1.48299)
(0.000923699 -0.000367037 0.00064315)
(1.2609e-05 -0.000477208 6.11047e-08)
(0.0064956 -0.000135792 0.00297401)
(0.00650267 -0.0102889 -0.016287)
(0.00147158 -0.000609602 -0.000729724)
(0.00068228 0.000176446 -0.000304486)
(0.00530935 -0.00168066 -0.0166545)
(0.00122644 -0.0106973 -0.00929388)
(-0.000118762 -0.000511374 -0.00151056)
(-0.0014088 -0.00253468 -0.00772819)
(0.000119588 -0.00284087 -0.00124045)
(-0.472142 0.353994 0.64396)
(-0.00311324 -0.00944444 0.0202741)
(0.00620539 -0.00244323 0.000773468)
(-0.000929246 -0.000585985 -0.000235563)
(-0.157275 0.169948 0.934099)
(0.00067514 -0.0108035 -0.00904996)
(-0.0773378 0.286589 1.31159)
(-0.000862849 -0.0064257 -0.0018032)
(4.27394e-05 -0.00142035 -0.00258027)
(-0.0109443 -0.000322896 0.957865)
(2.95266e-05 -0.00130992 -0.00183321)
(-0.0154488 -0.0624013 1.23447)
(-0.0728786 0.00116913 1.1662)
(0.00194459 -0.0126364 -0.0105385)
(0.0225381 0.026662 0.00193671)
(-0.00232041 -0.000348553 -0.0029154)
(-0.000519879 -0.0164159 -0.00013984)
(-0.00304717 -0.0132348 -0.00123008)
(0.798488 1.41451 -0.0347703)
(0.00331757 -0.00922623 -0.004988)
(0.0166668 -1.15327 -2.29635)
(0.0327275 0.103749 0.776092)
(-0.00055369 -0.0170939 -8.65736e-05)
(0.0190718 0.0953626 1.22121)
(-0.0010608 -0.00534061 -2.10608e-05)
(-0.130682 -1.09897 -0.0619797)
(0.00510291 -0.00968383 -0.00991823)
(-0.301422 0.318561 0.799628)
(-0.000267194 0.000254445 -0.000948955)
(0.0113775 0.00144661 0.00172918)
(-0.00047221 0.000912094 -0.00544576)
(0.00386917 -0.0114006 -0.0100571)
(0.722159 -1.53567 -0.25062)
(0.0931165 -1.5053 -0.0167425)
(7.06789e-05 -4.75942e-05 -0.00223058)
(0.0175931 -0.00799294 -0.000114667)
(-0.000214603 -0.0152392 0.000236379)
(-0.00249644 -0.0157128 -0.00105509)
(-0.000191792 -0.00195431 -0.00284205)
(0.00343645 -0.00467496 0.00174866)
(-0.105061 0.00600004 0.624113)
(-0.000116627 -0.00350379 -8.2544e-05)
(-0.00374325 -0.0019259 -0.00648485)
(-0.366658 1.21969 0.0757751)
(-0.000860429 -0.00034705 -0.00382656)
(0.000691053 -0.000861536 -0.000724584)
(0.000369908 0.00018712 -0.00389479)
(-0.16005 0.23286 1.21905)
(-0.152468 -0.13044 -0.0108511)
(0.00568118 -2.22842 -0.00278479)
(-0.000140673 0.000226223 -0.000600816)
(-0.119179 0.0806622 0.793004)
(0.00705175 -0.0276894 -0.0211687)
(-0.149996 0.065816 0.976325)
(0.00182146 -0.00011511 0.000103802)
(-0.000313473 -0.000960429 -0.000289811)
(-0.0971488 0.109892 0.967359)
(5.7972e-05 -0.000690435 -0.00272913)
(0.00735012 -0.748408 0.514271)
(-0.0350973 0.131014 0.821564)
(6.78405e-06 -0.000126317 -4.74174e-05)
(-0.36186 0.181409 0.61297)
(1.82139 3.38363 -3.08354)
(-0.20877 0.057716 0.847488)
(-0.00117712 -0.00446398 -0.00494135)
(0.000251383 -0.000680116 -0.00220546)
(-0.0121595 -0.00745823 -0.00100755)
(0.0167311 0.000105382 0.0164119)
(0.00755663 -0.00992865 -0.00501476)
(0.00322696 -0.00286845 -7.34261e-05)
(-0.000168141 0.000135471 -0.0025408)
(-0.00124168 -0.00277253 -0.00251251)
(0.000799852 -0.00139869 -0.00206402)
(0.000273941 -0.00245951 -0.0022227)
(0.000526936 -0.00174817 -0.00454307)
(-0.280974 0.246966 0.11596)
(-0.0282423 -0.0217081 0.0187303)
(-0.0163072 -0.0209247 0.00326488)
(-0.0466564 0.013842 -0.0305803)
(-0.000217587 -0.00178033 -0.00237977)
(-5.18239e-05 -0.00121772 -0.00437314)
(0.00220984 -0.00066322 1.93822e-05)
(-0.000472593 -0.00153664 -0.000397528)
(0.000130867 -0.00110307 -0.00154737)
(-0.010129 -0.0105313 -0.00588517)
(0.00372135 -0.00417424 -1.12732e-05)
(-0.000534711 -0.00112539 -0.00333009)
(-0.00128252 -0.00319567 -0.00225941)
(0.000139627 -0.00246779 -0.00435741)
(0.000126818 -0.00156972 -0.00171824)
(-4.6149e-05 0.000120682 -0.00184136)
(0.0290058 -0.0625742 -0.0378407)
(0.00333861 -0.00166306 0.00133954)
(0.0577976 -0.487024 -0.0399924)
(-0.00187546 -0.215049 0.859837)
(-0.0306073 -0.0875687 -0.0077411)
(0.000408789 -0.000561755 0.000836996)
(0.00205414 0.000628356 -0.00932224)
(0.0195579 -0.570841 -0.12767)
(-0.000299224 -0.00160745 0.00112639)
(0.00085098 -0.00015872 0.00177843)
(-0.111558 -0.00894038 -0.00777808)
(0.000127827 -0.00105369 -0.00171485)
(-0.000232092 -5.63163e-06 -0.00217851)
(-0.00295078 -0.00109414 0.00680861)
(0.00454725 -0.000578551 2.08838e-05)
(0.0140462 -0.000181828 0.000410821)
(-0.000103597 0.000144109 -0.0021528)
(0.110033 -0.306869 -0.0268057)
(-0.13302 -0.482732 0.00111382)
(0.0430485 0.0100094 -0.0120327)
(0.000353643 -0.00123248 -0.00331479)
(-0.00103822 0.000241515 -0.00256521)
(-1.09976e-05 0.000220476 -0.0038676)
(-3.84647e-05 -0.00118065 -0.000667574)
(0.0200191 -0.00167698 0.0182931)
(0.00135678 0.000427671 0.000745365)
(0.000611202 -0.0011758 0.00149908)
(0.000375042 -0.000181006 0.00108811)
(-0.0429766 -0.00302291 -0.0281581)
(-0.0158725 -0.00617527 -0.0188681)
(-0.00124882 -0.00291956 -0.00218168)
(-0.000849717 -0.00218065 -0.00619692)
(0.0139102 -0.000404635 0.00565354)
(0.000866609 -0.0002376 0.00180019)
(0.0112814 0.0174569 0.00468918)
(-0.000229854 -0.000392689 -0.00344383)
(0.010258 0.0271491 0.00575524)
(0.00106097 -0.000611588 -0.0013552)
(5.40666e-05 -0.00127999 -0.000774954)
(0.00415905 -0.0163083 -0.0173271)
(-0.00131127 -0.00263965 -0.000370286)
(-0.000473939 -0.000385314 -0.00231101)
(-5.08407e-05 -0.000108227 -0.0028628)
(0.00033778 -0.000690553 -0.000248895)
(0.00770381 0.00244573 0.00226512)
(-0.0231879 -0.0879131 0.838684)
(3.84756e-05 -0.000744284 -0.000226404)
(-2.9026e-05 0.000240625 -0.00224356)
(-0.0900809 -0.886972 -0.180813)
(-0.000550219 -0.00197904 -0.00034459)
(0.0298293 -0.000748008 -0.00499059)
(-0.0170149 -0.0405134 0.000658957)
(-0.000458008 0.000615898 -0.00162577)
(0.00450398 -0.00431098 -0.000445163)
(0.000476407 -0.00112149 -0.000501917)
(0.00132018 -0.0192065 -0.0477785)
(0.000288218 -0.00320682 -0.00336578)
(0.000169046 -0.00138844 -0.00124659)
(0.00932997 -0.00255106 -0.0226165)
(0.00815059 -0.00855318 -0.0162284)
(-0.00431555 0.0133935 -0.0640162)
(-0.00227924 0.00490192 -0.0443852)
(-0.012315 -0.0375423 -0.00361567)
(0.00592908 -0.0279769 -0.00933104)
(0.00415483 -0.00814754 -0.0124867)
(0.0656938 0.0248364 -0.0629093)
(0.000189357 -0.0176378 -0.00264532)
(0.000303401 -0.00140741 -0.00175955)
(0.0928512 0.0343278 -0.0463812)
(0.00615873 -0.0284036 -0.0101496)
(0.000193379 -0.000993252 -0.0135431)
(4.79819e-05 7.59349e-05 -0.00236495)
(0.0606222 0.0336962 -0.0447988)
(-0.00176221 -0.00524547 -0.000327532)
(-0.00033308 -0.000865284 -0.00163288)
(0.000322732 -0.000577296 -0.00240498)
(-0.0173858 -0.0173191 -0.00196824)
(0.000326192 -0.00298613 -0.000995643)
(-0.0272749 -0.01605 -0.00566025)
(-0.476674 -0.805563 -0.108934)
(-0.000638724 8.46451e-05 -0.00242925)
(-0.480394 -0.146812 -0.57688)
(4.73392e-05 -0.000379027 -0.000374103)
(-0.000390272 -0.000776313 -0.00322503)
(1.22347e-05 -0.00177051 -0.00134782)
(0.00015549 -0.00190098 -0.00332825)
(-0.000218363 -0.0011555 -0.00244961)
(0.0602341 -0.00544219 -0.0537806)
(3.3764e-05 -0.0014387 -0.00222573)
(0.000867598 0.000340709 -0.00159351)
(-0.0133813 -0.474346 0.407278)
(0.000174746 -0.00177877 -0.0141229)
(0.0220118 -0.954445 -0.0453961)
(-0.000617292 -0.00067235 -0.00318769)
(-0.00120936 -0.00269524 -0.00225684)
(-0.000468659 0.000398344 -0.0015699)
(-0.00027092 0.000478147 -0.000203581)
(-0.00526482 -0.0111219 -0.00249479)
(-0.0476328 -0.195502 0.438165)
(0.00618056 -0.01287 -0.0172311)
(-0.0130543 -0.0129431 -0.00829561)
(-4.75123e-05 -3.81454e-05 -0.0021841)
(0.00111222 0.00103577 0.00166877)
(-0.00551811 -0.0366601 -0.00815824)
(-0.585446 -0.0363631 0.163652)
(-0.0194647 -1.15724 0.281085)
(-0.0019618 -0.00294442 -0.00343806)
(-9.01358e-05 -0.00046421 -0.00198876)
(-0.00364424 -0.0155606 -0.00628135)
(-0.00137946 -0.0153169 -0.0080816)
(0.00154936 -0.00132526 -3.48599e-05)
(-0.00195539 -0.0285848 0.000601309)
(-0.502827 0.492697 1.80898)
(-0.599989 -0.303838 0.399108)
(0.024627 -1.05893 0.949237)
(-0.0154718 -0.00874831 9.65536e-05)
(-0.000262679 -0.00273899 -0.00247551)
(-0.488402 0.000992629 0.212564)
(-0.0474263 0.218263 0.685952)
(0.0910382 -0.156808 -0.115164)
(0.00277207 -0.00846622 -0.00155422)
(-0.00197957 -0.0027432 -0.0046292)
(0.000577752 -0.00267443 -0.00262322)
(0.00117009 -0.00705432 -0.00270679)
(-0.00193219 -0.000190398 -0.00475439)
(0.00752381 0.00399918 0.00633442)
(-0.0883426 -1.46285 -0.327703)
(-0.574997 -0.431434 0.61431)
(0.00110481 -0.00213154 -0.000231649)
(0.00164716 -0.000906483 -2.23485e-05)
(-0.00637024 -0.0144799 -0.00372553)
(-0.00028406 0.000150365 -0.00359388)
(0.0106785 -0.00128943 -0.0245253)
(1.87054e-05 -0.00200749 -0.000847098)
(0.0525548 -0.218197 0.888347)
(-0.00182879 -0.00311374 -0.00392237)
(0.0018153 0.000571511 -0.00465747)
(-6.0393e-05 0.000146453 -0.0024183)
(0.0139003 -0.0118143 -0.0567879)
(0.000701824 -0.0525122 -0.00484355)
(0.000346989 -0.00169848 -0.00031696)
(0.000895939 -0.00220709 -0.00114697)
(0.0959809 -0.0746965 0.917157)
(0.010612 -0.00514208 -0.000496691)
(-0.000502746 -0.00419897 -0.000291044)
(-0.000151062 0.000109977 -0.00247372)
(-0.185693 -0.190774 0.788034)
(-0.000239723 -0.000628606 -0.000937526)
(0.00734586 -0.0151766 -0.00229739)
(0.00229475 -0.000396473 -0.000180726)
(-0.0527459 0.101103 0.259946)
(0.00221672 -0.000785119 0.00105115)
(0.0605273 -0.0275597 -0.0727783)
(0.00203757 -0.000498814 0.000619566)
(-0.0053298 -0.025037 -0.00544154)
(0.000697627 -0.00108494 -0.000606984)
(0.0185697 -0.000964925 0.00449563)
(-0.000474862 0.000420404 -0.000719538)
(-0.128788 -1.81322 0.61654)
(0.00063515 0.000479272 -0.00140071)
(-0.0313871 0.0796307 -0.00805657)
(0.000787134 0.000535942 -0.00167231)
(-0.000945396 -0.00273853 -0.00537578)
(0.214916 -0.966182 -2.77934)
(0.0164359 -0.00793167 -0.0301501)
(-0.000685025 -0.00240372 -0.00199979)
(9.16845e-05 -0.00035578 -0.00257944)
(0.0317202 -0.0678102 0.116731)
(-1.22938 -1.05281 0.382002)
(0.0120264 0.000107417 0.00283208)
(-0.0748681 -0.26933 1.09316)
(0.0038276 -0.0123081 -0.0118865)
(0.0250393 -0.187669 0.292382)
(-0.000331584 0.224687 0.548774)
(0.00914893 0.00264167 0.0049439)
(0.000417968 -0.00223625 -0.00251124)
(-0.000191374 8.17294e-05 -0.00361715)
(0.656686 2.32024 -0.486443)
(0.0158133 0.0286517 -0.00304625)
(-0.0426775 0.00808046 -0.0125924)
(-0.0038089 -0.00106394 -0.000590782)
(-0.0466317 0.00807884 -0.0166453)
(-0.000423683 -0.00076174 -0.00172352)
(-0.009283 -0.00117243 0.0169705)
(0.000372278 7.30911e-05 -0.00233547)
(0.0155468 0.00340764 0.00390006)
(0.00490859 -0.00154279 1.8738e-05)
(-0.0658769 -0.0794438 -0.0140319)
(0.0168883 0.0106371 -0.00149727)
(0.0137987 0.000840342 0.00174375)
(0.0111811 0.000432204 0.0018456)
(0.00397297 0.0228841 0.00514373)
(-0.0300543 -1.64024 -0.0964147)
(0.08563 -0.454795 0.003246)
(-0.257242 -0.04178 -0.00106478)
(0.00993348 0.00076753 -0.0235461)
(0.218529 0.0270646 0.021751)
(0.307655 -0.759366 0.0544001)
(-0.70442 -0.187235 -0.298319)
(0.504328 -0.803212 0.27965)
(0.083471 -0.475947 0.016989)
(0.00294211 -0.00358664 -0.00254772)
(0.00516568 -0.0170439 -0.00183601)
(-0.000143082 -0.000674022 -0.00224944)
(0.000420956 -0.00433314 -0.000768022)
(-0.00522986 -0.000438575 0.000485842)
(0.0161681 -0.00728251 -0.00069804)
(0.0109003 -1.11707e-05 0.000921678)
(-0.0614819 -2.19833 0.0979649)
(-0.244639 -1.62778 -0.292915)
(0.0121878 -0.00125079 -0.000888115)
(0.0209802 -0.039233 -0.0177279)
(-0.0530902 0.0181368 -0.0122132)
(0.499723 -0.102909 0.243808)
(0.182141 -0.43483 0.249718)
(-0.00102837 -0.00225974 -0.00050827)
(-0.00553959 -0.00597211 0.0415377)
(-0.124617 -0.00511636 -0.0013368)
(0.00383695 -0.00421083 -0.000988685)
(-0.305458 -0.475855 -2.7134)
(0.0254551 -0.0268956 -0.0486654)
(0.103845 2.04758 0.950999)
(-0.0243895 -0.0882764 -0.0172382)
(0.012881 -0.000445536 0.00177426)
(-0.579115 -0.662068 -1.54796)
(0.0131039 -0.000867823 -2.24212e-05)
(0.0130285 0.49272 0.137426)
(-0.101958 -0.00265889 0.00240482)
(-0.115651 -0.0155049 -0.00595369)
(-0.330746 0.683066 1.01493)
(0.000664398 -0.0215424 -0.0207699)
(1.84117e-05 -0.00236593 -0.000744153)
(-0.0321366 0.0102571 -0.00587937)
(-0.00994898 -0.00252 -0.000446757)
(6.96127e-05 -0.00208554 -0.0149566)
(-0.278682 1.20315 -0.185281)
(-0.0436656 0.000977448 -0.000828458)
(0.0826488 -1.85357 -0.0666197)
(-0.0479653 -0.00821237 -0.00405749)
(-0.431015 1.3117 -0.239791)
(-0.019796 0.00030203 0.0172514)
(-0.000212496 0.000429991 0.000759229)
(0.00868365 -0.00123632 0.000367793)
(0.0085526 -0.00130773 0.000565245)
(0.0247897 -0.013213 -0.00496343)
(-0.000369418 -0.000185175 -7.06942e-05)
(0.00736671 0.00769048 0.00213059)
(-0.000813616 -0.0185169 -0.006369)
(0.000481547 -0.00014599 -0.00212022)
(0.00872965 -0.0015578 0.000329169)
(-0.0235983 -0.00115746 0.00979497)
(-0.402606 -1.07451 -0.483467)
(1.18341 3.2672 -2.51288)
(-0.000528193 -0.00145949 -0.00473431)
(-0.816808 1.72266 -0.529602)
(-0.000228103 -0.00303897 -0.00548107)
(-0.0407058 -0.00581463 -0.00081244)
(0.039569 -0.0644131 -0.0288925)
(-7.60795e-05 -0.000121083 -0.000113114)
(-0.0340014 0.0025801 -0.00429392)
(0.00965034 -0.00163501 -0.0248814)
(0.0127951 0.00347947 0.000537785)
(-0.0638133 -0.034388 -0.0104412)
(0.0050396 0.0095678 0.00133492)
(-0.00582871 -0.00220695 -0.00250732)
(0.011927 0.0036709 0.00293862)
(-0.0522063 -0.0372379 0.00229004)
(-0.0195041 0.000442846 -0.00103086)
(0.00986733 -0.0353043 0.271198)
(-4.80712e-05 -0.00138452 -0.00151017)
(-0.0497722 0.000701684 -0.0181008)
(0.0123627 0.00395925 0.00119798)
(-0.00124697 0.00505999 0.00434384)
(0.0107377 0.00515257 -0.00015408)
(0.00346667 -0.00192954 -0.00101632)
(-4.85785e-05 -0.000191723 -0.00036151)
(0.433105 -0.233975 -0.0128541)
(0.00509626 -0.00111015 -0.00040677)
(0.000516351 -0.00188031 3.72341e-06)
(0.0371106 -0.0101793 -0.0393383)
(0.00156229 9.10888e-05 -0.000493018)
(0.0158955 0.0115362 0.0011638)
(1.84976 8.12329 -3.94089)
(0.255562 -1.97194 -0.38528)
(0.00897046 -0.00804595 0.00202716)
(-0.0308167 -0.0231187 -0.00338886)
(0.0158209 -0.0105173 0.000899944)
(0.0159601 -0.00553768 -0.00238757)
(0.0114707 -0.00870813 -0.00107042)
(0.00840562 -0.0526412 -0.0130495)
(-0.00171385 -0.00308213 -0.00304737)
(0.00453934 -0.00122698 -0.000516138)
(0.00566781 -0.000906345 -0.000343311)
(0.0117633 -0.00366765 -0.000939403)
(0.00457405 -0.000582515 -0.000110431)
(-0.0468 -0.0302455 0.0136652)
(0.00604681 -0.000624649 -0.000118123)
(0.0127601 0.000255952 -7.76865e-05)
(0.0260914 0.0056148 -0.00613351)
(0.00338456 -0.000600755 -0.0129874)
(0.0272521 0.000595121 -0.00109648)
(0.00505155 -0.00169809 -5.37957e-06)
(0.0114113 -0.00836995 0.00668138)
(0.00389623 -0.00414979 0.000644329)
(-0.217678 -0.0263529 -0.0342128)
(-0.0006315 -0.0136789 -0.00966089)
(0.0276073 -0.00479236 -0.028031)
(-0.194035 -1.27993 -0.0836804)
(0.000253681 -0.00317352 -0.0016063)
(0.000831794 -0.00167455 -0.00155095)
(0.00482602 -0.00518429 0.000968423)
(-0.0817681 -0.389068 0.00213451)
(0.000169739 -0.000690136 -0.00234903)
(0.0200956 -0.416655 0.361849)
(-0.00319687 -0.276484 0.635332)
(-0.00256395 -0.00698112 -0.00151277)
(0.00503044 -0.00550557 -3.57796e-05)
(-0.175343 0.0721203 0.779395)
(0.0399492 -1.09302 0.215862)
(-0.00972603 -0.0136383 -0.00227196)
(0.000333478 -0.000342116 0.00144494)
(-0.0960308 0.0637441 -0.0112582)
(0.00575442 -0.0042863 6.1416e-05)
(0.00429153 -0.00580566 0.000393453)
(-0.0197373 -0.0220979 -0.00213593)
(-0.00143481 0.00297862 -0.00762786)
(-0.0354368 -0.0396408 0.0121973)
(0.000123465 -0.000421391 -0.000985074)
(-0.000112106 -0.00114163 -0.00294631)
(-0.212032 -0.00607569 -0.0137155)
(0.000818328 0.000799172 -0.00152319)
(0.326401 -1.32079 -2.06576)
(-8.52828e-05 -0.000330236 -0.00244582)
(0.000359295 -0.00208317 -0.00153934)
(1.18911 0.640233 -2.63692)
(0.0133003 -0.00112315 0.00015829)
(0.31498 -1.01943 0.369239)
(-0.0076029 -0.0203358 -0.0034137)
(-0.0189313 0.137251 0.957809)
(5.73632e-06 -0.00052859 -0.00321012)
(-0.0360686 -0.03128 0.00130748)
(0.0120361 0.000910572 0.000886184)
(0.000473327 -0.00285767 -0.000984004)
(0.00463542 0.000624487 0.00111159)
(0.0113859 -0.000181338 0.00153523)
(0.000355688 6.33113e-05 -0.00229301)
(-0.00104415 -0.00253179 -0.00342425)
(-0.000379097 -0.00389158 -0.000140638)
(-0.000317597 -0.00224151 -0.00301617)
(6.83734e-05 -0.00146475 -0.00260353)