/*--------------------------------*- C++ -*----------------------------------*\
| =========                 |                                                 |
| \\      /  F ield         | OpenFOAM: The Open Source CFD Toolbox           |
|  \\    /   O peration     | Version:  v2012                                 |
|   \\  /    A nd           | Website:  www.openfoam.com                      |
|    \\/     M anipulation  |                                                 |
\*---------------------------------------------------------------------------*/
FoamFile
{
    version     2.0;
    format      ascii;
    class       volScalarField;
    location    "2.5";
    object      alphat;
}
// * * * * * * * * * * * * * * * * * * * * * * * * * * * * * * * * * * * * * //

dimensions      [1 -1 -1 0 0 0 0];


internalField   nonuniform List<scalar> 
108993
(
0.000109682
0.000101858
8.78577e-05
0.000110691
0.000111609
6.05307e-05
9.64076e-05
8.87729e-05
0.000111474
0.000102658
0.000117329
0.000116134
9.31913e-05
9.27433e-05
9.87846e-05
8.27098e-05
9.00138e-05
9.98393e-05
9.40407e-05
0.000100311
9.73956e-05
0.000108545
8.87333e-05
0.000111702
0.000111031
9.99207e-05
0.000108339
0.000107271
0.000119844
7.08594e-05
0.000123364
0.00011515
0.000133822
0.000113632
9.77657e-05
0.000111696
9.78911e-05
0.000117504
0.000138616
0.000112107
0.000126011
0.000119374
0.000101752
0.000157707
0.000100278
5.17186e-05
0.000132619
0.000119855
0.000130912
0.000109486
0.000113336
0.000133532
0.000103987
0.000108564
0.000114454
0.000118175
0.000108321
0.00010423
8.77019e-05
0.000120751
0.000106939
0.000109213
0.000105477
9.40809e-05
0.000103816
0.000120138
0.000105868
0.000115665
0.000124972
0.000109972
0.000103423
0.000100522
0.000110176
0.000107356
9.73272e-05
0.0001185
9.43311e-05
0.000127727
0.000115236
0.000108381
0.000100821
9.57176e-05
9.2997e-05
0.000105264
0.000119463
9.96442e-05
0.000119923
9.69117e-05
0.000102131
0.000118628
0.000104404
8.99287e-05
0.000116925
9.13309e-05
0.000112725
0.000109758
8.89938e-05
7.74838e-05
8.72795e-05
9.31185e-05
0.000114092
0.000129442
0.000124645
0.00011938
8.36402e-05
0.000120809
0.000119299
0.000128992
0.00011885
0.000133671
9.58037e-05
0.000104388
0.000150462
0.000108431
0.000110148
0.00023362
9.50985e-05
8.877e-05
0.000126446
0.000106959
0.000104545
0.000100064
0.000137263
7.22656e-05
0.000108111
0.000106148
0.000110617
9.61665e-05
9.29553e-05
0.000119276
9.73112e-05
0.000117218
0.000121671
0.000324083
0.000106224
8.9577e-05
0.000101191
9.44988e-05
9.40142e-05
0.000101127
9.20688e-05
8.73044e-05
0.000114794
0.000102894
0.000113349
0.000109735
8.84145e-05
0.000829778
0.000101683
0.000169686
0.000208996
8.71153e-05
8.76935e-05
0.000272063
0.000107907
0.000103577
0.000126908
0.000114659
0.000160399
0.000114419
0.00028217
0.000266393
0.000121527
0.000100582
0.000102006
0.000115688
0.0001028
9.16816e-05
9.11616e-05
0.000122985
0.000113645
0.00011303
0.000118095
9.54608e-05
0.000108911
0.000100339
0.000499419
9.4758e-05
0.00011491
9.58465e-05
9.56048e-05
8.93937e-05
0.000106494
3.27972e-05
0.000125056
0.000109078
0.000109321
0.000108907
0.000108849
3.76172e-05
0.000108776
0.00011921
9.48354e-05
0.000370509
0.000115452
0.000103275
0.00012167
0.000110238
0.000117677
4.11219e-05
0.000115161
0.000132718
0.000105999
9.4498e-05
0.000112645
0.000421521
9.79045e-05
0.00014128
0.000103503
0.00200357
9.18624e-05
0.000110892
0.000759439
0.000942121
0.00217114
7.53012e-05
9.56705e-05
0.000107438
0.000105004
0.00013147
0.000107203
0.000146436
0.000148046
0.000338676
9.60065e-05
8.31085e-05
9.9042e-05
0.000119579
0.000232401
8.81027e-05
0.00124031
0.000108914
9.04274e-05
8.95597e-05
0.000100033
8.64854e-05
0.000113202
9.91137e-05
0.000100737
0.000102934
7.68575e-05
0.000114305
7.03652e-05
0.00010987
0.000123104
0.00010093
0.00136298
0.00012725
0.000116535
0.00011864
0.00010151
0.000110716
0.000103014
0.000114034
0.000112185
0.000112583
0.000109968
0.000104036
0.000125521
6.98362e-05
0.00010675
0.000101592
0.000119813
8.91699e-05
6.25437e-05
0.000106407
0.000118385
0.000124921
6.94204e-05
0.000104458
7.6526e-05
8.80473e-05
0.000573716
0.00313927
0.000249817
0.000100279
0.000114792
0.000293113
0.000117935
0.000105899
0.000113807
0.000136919
8.76818e-05
9.69066e-05
0.00011326
0.000108031
8.42898e-05
0.00011429
0.000122217
0.000830035
0.000103522
8.97099e-05
0.000118365
0.000112468
0.000108947
8.88131e-05
0.000123765
0.000104632
0.000112817
6.22881e-05
0.000259946
0.000131733
0.0001153
8.4006e-05
0.000110444
8.75058e-05
8.30026e-05
9.29198e-05
8.1551e-05
0.000719073
0.000115992
0.000115916
9.21842e-05
0.000101255
0.000117625
0.000123025
8.26229e-05
9.55346e-05
0.000372367
0.000125696
0.00010033
7.7832e-05
7.74029e-05
8.03067e-05
8.58919e-05
0.000895525
0.00345973
0.000226932
9.97436e-05
0.000121439
0.000129488
0.000186138
0.00193763
0.000102195
0.00198965
0.000109294
0.000107717
0.000112308
0.000110002
9.7587e-05
0.000103598
0.000151779
9.77543e-05
0.0001135
9.78004e-05
0.00010165
9.57078e-05
9.56825e-05
9.43183e-05
9.05722e-05
0.000110969
7.43017e-05
0.000100049
0.000122779
0.00010141
0.000105481
9.59068e-05
0.000224053
0.000104765
6.18614e-05
0.000129163
9.67405e-05
8.68806e-05
0.000101062
0.000110377
0.000116247
0.000114153
9.61359e-05
0.000107457
0.00278568
9.08986e-05
0.000114387
9.25016e-05
0.000385197
0.000131821
0.000968768
0.000118387
0.000143417
0.000837496
0.000113916
0.000567806
0.000609036
0.000119202
9.11352e-05
0.00010173
7.13579e-05
9.73959e-05
0.00378355
0.000100817
0.000134035
0.000842523
7.52555e-05
0.000774591
9.25374e-05
0.000285121
0.000147461
0.00114933
0.000108111
0.000100595
0.000105255
0.000144478
0.00106032
0.000593293
0.000107905
0.000111778
7.66112e-05
9.61344e-05
6.7167e-05
9.91601e-05
0.0026905
9.84473e-05
9.55657e-05
0.00284322
9.44305e-05
0.000108984
0.000119702
0.000946189
9.81387e-05
4.33748e-05
0.000100981
0.00186547
0.000103341
0.000561778
8.21927e-05
0.000115072
0.000785604
0.000112559
0.000102259
0.0024819
7.07386e-05
0.000890392
0.000135131
0.00103918
0.000103675
9.90455e-05
0.000107411
0.000101265
0.000111531
0.000119154
9.5804e-05
0.000101069
9.92335e-05
0.000122717
7.18727e-05
0.000113832
0.000119049
9.44085e-05
0.000120463
0.000100963
7.80416e-05
0.000104043
0.00010657
0.000116231
0.000137824
0.000128382
0.000104757
0.000104974
0.000100752
0.000126818
9.35073e-05
0.000295562
0.000104452
0.000182622
0.00014215
0.000104952
8.05669e-05
9.47391e-05
0.000152566
7.61525e-05
9.34321e-05
0.000110752
0.000112626
0.00011217
0.000101764
0.000124554
0.000119556
8.96961e-05
0.000116363
0.000152319
0.000116273
9.56104e-05
0.000124651
0.000119368
0.000113403
0.000143115
9.39222e-05
9.27312e-05
8.96838e-05
0.000100026
0.000120074
0.000105966
0.000116475
0.000114945
9.48104e-05
0.000103406
7.29278e-05
0.00014258
0.000114159
8.13738e-05
0.000102997
9.19476e-05
0.000106485
8.38128e-05
0.000106731
0.000114941
9.59907e-05
0.000101015
9.24622e-05
0.00281784
0.000104145
0.000113091
9.93256e-05
0.000114311
0.000121035
0.000105431
0.000103116
9.02215e-05
0.000105057
0.000122448
0.000127448
0.000100494
0.000212616
0.000108456
0.000112129
0.000122683
0.000132632
0.000101044
0.00011145
0.000137993
0.000120186
8.90417e-05
9.85567e-05
0.000111671
9.70003e-05
0.000112682
0.000120953
9.76811e-05
0.000111692
0.000116813
0.000229379
9.69729e-05
0.000390151
0.000103852
0.000120992
0.000120349
0.000102106
8.46295e-05
0.000112276
0.000118531
8.40159e-05
0.000197311
8.8669e-05
0.000523087
0.000127771
0.000117822
9.82314e-05
0.000116126
0.00012292
0.00212233
9.02648e-05
0.000110281
0.000107265
0.00010082
0.000113386
7.35649e-05
0.000819867
0.000111982
8.89815e-05
0.000140708
0.000117661
0.000111828
8.11488e-05
0.000781108
7.75443e-05
0.000184963
0.000106486
0.000124473
8.10875e-05
0.003541
0.000113708
0.000121164
9.75072e-05
0.000122119
0.000131803
0.000112288
9.45747e-05
0.000561954
7.7979e-05
0.000119219
7.77704e-05
0.000126574
7.99521e-05
0.000101678
0.000103969
0.00313605
9.7031e-05
0.00013083
8.53878e-05
0.000121769
0.000100823
0.000110486
0.000120373
0.00531719
9.38347e-05
9.12401e-05
7.85286e-05
0.00352437
9.92608e-05
0.00010455
0.00011141
0.00028621
0.000110998
0.000145329
0.000102387
0.000130871
0.00010073
0.000113247
0.000103472
0.000401793
9.3487e-05
0.000136017
0.000104982
0.000112576
0.00012966
0.000120005
0.000119067
0.000127437
0.000119425
0.000189525
0.000110301
0.000251112
0.000104641
0.00011868
0.000169947
0.000101649
9.02927e-05
8.09461e-05
0.00323962
0.000102152
0.000115736
0.000100238
0.000114016
0.000100998
9.52497e-05
8.97811e-05
9.60403e-05
0.000105983
8.95072e-05
9.63847e-05
0.000102302
0.000109131
9.08573e-05
0.000820777
7.591e-05
0.000119518
0.000115383
0.000843465
6.88059e-05
0.000104541
7.65329e-05
9.42588e-05
0.000107403
8.15478e-05
0.000103215
9.3188e-05
0.000181187
8.51733e-05
0.000116912
0.000934173
0.000223583
0.000126063
0.000128101
0.000122512
8.31014e-05
7.93608e-05
0.000126354
0.000163292
6.92868e-05
0.000107551
0.000130648
9.89543e-05
0.000116351
0.00010414
0.000110454
0.000274815
0.000145915
0.00015768
8.58791e-05
6.87656e-05
0.00181915
9.96992e-05
0.00010522
0.000119554
8.62903e-05
0.000118659
0.0024203
0.000132508
0.00060116
8.49124e-05
0.00274992
0.000148589
0.000111459
6.23977e-05
6.84886e-05
0.000132877
7.2902e-05
0.000111853
9.25348e-05
0.000111387
9.40897e-05
0.000109635
0.000138135
0.00438301
0.000117544
0.00279653
8.34036e-05
0.000146599
0.000108159
7.97715e-05
0.000116522
0.000119844
0.000112158
0.00013777
9.3206e-05
9.41411e-05
0.000111756
0.000119082
8.57125e-05
0.000111228
0.000112883
0.000103789
0.000107604
8.65038e-05
9.51746e-05
0.000113917
8.56426e-05
0.000124515
8.77382e-05
0.000111239
0.000128527
9.4906e-05
7.99548e-05
0.000217931
0.000219976
0.000117109
0.000120559
0.000125419
0.000138192
0.000113478
0.00014943
0.000115354
7.83569e-05
9.0416e-05
0.000132542
8.0922e-05
9.44276e-05
8.46398e-05
0.000120096
0.000130188
9.66109e-05
0.00010611
0.00010239
0.000134963
0.000103175
7.11486e-05
0.000116126
0.000116867
0.000175014
0.000115345
0.000111575
9.76121e-05
0.000124347
0.000110489
0.000150761
0.000135056
0.000129104
0.000104315
0.0024079
0.000423387
9.73589e-05
7.75764e-05
0.000702301
0.000112849
0.000102943
0.000104585
0.000164326
0.000107448
8.43179e-05
0.000111276
8.23162e-05
0.000106338
9.71331e-05
0.000103874
0.000103151
0.000158055
0.000133802
0.000274291
0.000118269
0.000994627
0.000116482
9.4419e-05
9.78987e-05
0.00011817
0.000102394
0.000111726
0.000116403
0.000111665
0.000101699
9.03823e-05
9.46224e-05
0.000113975
0.000108547
0.000108753
8.05074e-05
8.70521e-05
0.00068525
8.34887e-05
0.000105643
0.000740957
8.45212e-05
0.000570585
9.20852e-05
0.000104557
0.000112606
0.00282686
9.74427e-05
8.87694e-05
9.11667e-05
8.65678e-05
0.000129408
0.000106651
0.000135824
0.000110063
0.000133994
9.63872e-05
9.01126e-05
0.000110162
9.81147e-05
0.000228234
0.000136889
8.57925e-05
0.000121824
9.97467e-05
0.000131561
0.000107387
0.000110236
0.000104751
0.000116111
0.000835754
0.000108441
0.0009038
0.000109766
0.000953425
0.000114011
0.00010873
6.36172e-05
0.000108243
0.000107199
0.000135316
6.4921e-05
7.31118e-05
0.000103788
0.000105408
0.00010388
9.94819e-05
0.000116077
0.000104906
9.07443e-05
0.000117707
0.000116671
9.05368e-05
9.8692e-05
9.20813e-05
0.000150754
0.000100799
0.000102706
0.000116164
0.000173578
9.86696e-05
9.45794e-05
7.29327e-05
9.89726e-05
8.9696e-05
0.000109544
0.000112832
0.0011796
0.000101503
0.00276915
9.90196e-05
0.00258161
0.000104276
9.99442e-05
0.000132735
9.65886e-05
0.000133524
9.24095e-05
0.000101037
0.000110289
0.00011047
0.000134017
0.000157195
0.0001003
9.75254e-05
0.000840152
0.000119571
0.000107089
0.00218717
0.00260446
8.43626e-05
0.000118128
0.000105546
0.000109705
0.000140269
0.000134386
0.00131585
8.76606e-05
0.00120198
0.000108155
0.000125362
0.00011168
8.43857e-05
0.000117027
9.82104e-05
0.000120101
0.000130487
0.000121011
8.40794e-05
0.000138308
0.00010514
7.86096e-05
9.11619e-05
8.47872e-05
8.95516e-05
0.000116096
0.000137477
9.24689e-05
9.84748e-05
0.0002971
0.000113682
0.00198721
9.33671e-05
9.74552e-05
9.25864e-05
0.000126497
0.000113549
8.71001e-05
7.73115e-05
0.000405639
0.000119849
0.000110502
0.000108382
0.000112781
0.000102674
0.000156176
9.84701e-05
0.000166891
0.00156378
0.000100009
8.23406e-05
0.000111893
9.49463e-05
9.48911e-05
0.000699993
0.000121499
1.47285e-05
0.000135273
0.000115804
0.000110479
0.000104406
9.9901e-05
8.68881e-05
0.000151791
7.865e-05
0.000104193
7.96987e-05
0.000280064
9.94503e-05
0.000112217
0.000113038
0.000310907
9.50365e-05
9.32977e-05
9.6325e-05
8.2173e-05
9.87127e-05
0.000109427
0.000109099
0.000118015
0.000119362
0.000109024
9.33586e-05
0.000117404
0.000113055
8.75923e-05
9.40547e-05
9.76417e-05
0.000100333
7.92758e-05
0.00164945
8.29796e-05
0.000127676
8.79406e-05
9.98332e-05
0.000113225
0.000113206
0.00014128
0.000102918
9.33421e-05
0.000306061
9.45932e-05
0.000143472
0.000115515
0.000120523
5.79189e-05
0.000108318
0.000108695
9.50985e-05
0.000109413
0.000107414
7.68138e-05
8.01563e-05
9.78223e-05
0.000103796
0.000152499
0.000116808
0.000119821
0.000138126
0.000101577
0.000126728
0.000106615
0.000121607
0.000116841
0.000113947
0.000115837
0.000125
0.00015264
0.000112802
0.000131481
0.000119485
0.0034071
8.8101e-05
0.000109365
0.00010894
0.000137948
0.000121661
0.000106201
0.000127201
0.000118348
0.000134651
9.66419e-05
0.000181738
9.91264e-05
0.000116648
0.00010561
9.21436e-05
0.000107739
0.000104343
9.45402e-05
7.57575e-05
0.00012245
0.0017345
0.000108614
0.000103946
0.000126974
0.000132951
0.000107751
9.80614e-05
7.66537e-05
0.000130823
0.000259021
0.000127053
0.000242273
0.000155719
0.000126996
0.000128229
8.10427e-05
6.82776e-05
0.000100635
8.48422e-05
9.71186e-05
0.000110224
0.00294973
8.76047e-05
0.00423503
0.000114503
0.000115918
8.67878e-05
0.000116206
0.000115952
8.80616e-05
0.000104263
0.000117623
0.000114252
7.20601e-05
0.000133913
0.000186958
0.000126383
0.000108526
0.000120857
0.000107118
0.000152872
0.000137268
0.000235728
0.000114194
0.000124251
0.000843888
8.24534e-05
9.07302e-05
0.0001166
8.62885e-05
0.000120743
0.000100426
6.74293e-05
0.000226408
0.000122985
0.000143594
7.97915e-05
0.00010973
0.000122602
9.95176e-05
9.7594e-05
0.000104474
7.12867e-05
9.61434e-05
0.000355694
0.00011471
0.000115408
9.48808e-05
0.000112933
0.000480595
0.00010434
0.000103286
0.000100081
0.000112329
9.769e-05
0.000115051
7.32082e-05
0.000108191
0.000123809
0.000125285
0.000113673
0.000115547
0.000114935
7.54167e-05
0.00011126
0.000129092
0.00323769
0.0031238
0.000113413
0.000108991
0.000115193
0.00012684
8.97184e-05
0.000105033
8.66642e-05
0.000102341
9.20341e-05
6.79446e-05
0.000116763
7.87374e-05
9.26832e-05
0.000126559
0.000116039
9.3827e-05
9.57181e-05
9.89121e-05
0.000100173
0.000513419
0.000122883
0.000100069
7.33618e-05
8.68794e-05
0.000145928
0.000116151
0.000115671
7.81065e-05
7.50673e-05
7.63311e-05
0.00216246
0.000109894
0.000101739
0.000429743
0.000128361
0.000767563
0.000205851
9.29378e-05
0.000111104
7.98167e-05
9.43244e-05
7.81492e-05
0.000126024
9.83417e-05
0.000143644
0.00217534
0.000123055
0.000104437
9.95989e-05
0.000116474
7.94875e-05
0.000113168
7.23684e-05
9.1234e-05
0.000101261
0.00145256
0.000121576
0.000122225
0.000113664
9.0254e-05
0.000108431
9.03643e-05
0.000103115
0.000103808
9.81718e-05
0.000381424
0.000113779
0.000106422
0.000262042
9.69967e-05
0.00129082
0.0001115
0.000102773
0.000104479
0.000122718
0.000114715
0.00120315
0.000115249
9.14568e-05
0.000112602
0.00188539
0.000135822
0.000104445
9.87342e-05
0.000139312
0.000132146
0.000172028
0.000133554
0.000124736
0.000107557
8.9429e-05
0.00010517
0.000135346
0.000125135
0.000125631
0.000114556
0.000306308
0.000111111
0.000100116
0.000607477
9.11197e-05
0.000112325
0.000117461
0.000115608
0.00140016
0.000113561
0.000100032
7.50131e-05
0.00203645
0.000108525
0.000113382
0.000103341
0.00011416
0.000117245
0.000339364
0.00104904
0.000986325
0.000103106
0.00134009
0.00012024
0.000398235
0.00060175
7.23489e-05
7.98388e-05
0.000100815
9.51376e-05
0.00012405
0.000113858
9.3819e-05
8.77004e-05
9.55763e-05
0.000103773
9.90757e-05
0.000126273
0.000123222
0.000128441
0.000315047
0.000126516
0.00020649
0.000574602
0.000108119
0.000110072
0.00169833
0.000387478
0.00219901
0.000104989
0.000111029
9.46065e-05
0.000107104
0.000107752
0.00010646
8.59829e-05
0.000104141
0.000185038
0.000107571
0.000114913
0.000166651
0.000133313
0.000680034
0.000119644
0.00010834
0.00013292
0.00010121
0.000104949
0.000120117
0.000106327
8.2683e-05
0.000106807
0.000118206
9.93855e-05
0.000104262
0.000127931
8.20075e-05
0.000102254
0.000105461
0.000158684
0.000140041
0.000135276
0.00013593
0.000111501
0.000328472
0.000102229
0.000116245
0.00011239
8.91608e-05
0.000115431
0.000119248
0.000122175
0.000158584
8.86432e-05
0.00132602
0.000100569
0.00010495
0.000116537
0.00010985
0.000123474
0.000123665
0.000134116
0.000170811
0.000120716
0.000104635
9.4451e-05
0.000115114
0.000111249
0.000160623
0.000134331
0.000182602
0.000177574
0.000125915
0.000111723
0.00013408
9.9875e-05
8.3735e-05
0.000113145
0.000121043
0.000105681
0.000109854
9.22839e-05
0.000131066
0.000114405
0.00160121
0.000100295
9.88259e-05
8.64733e-05
0.000295941
9.28321e-05
0.0001194
0.000201258
9.53286e-05
0.000105346
0.000116554
9.92594e-05
8.74235e-05
9.36427e-05
0.00011599
9.86098e-05
9.02328e-05
0.000157103
0.00014024
0.000127396
0.000135497
7.79123e-05
0.000108835
0.00012929
8.29642e-05
0.000103632
8.95617e-05
0.000138817
0.000117908
0.000119745
0.00011022
0.00143074
9.52558e-05
9.28873e-05
8.83383e-05
0.000134913
8.10964e-05
6.65033e-05
0.000125218
9.34568e-05
7.30439e-05
9.62121e-05
0.000110126
0.000111965
0.000106769
7.07127e-05
0.000116495
0.000122854
0.000104266
0.000106589
9.66325e-05
0.000147135
9.63512e-05
0.00012308
0.000102333
0.000312177
0.000112687
0.00224179
9.34272e-05
0.00298579
0.000125048
9.47406e-05
9.45705e-05
9.12394e-05
0.000101558
0.000116493
0.000107892
8.75977e-05
0.000269278
0.000290688
0.000103363
9.90829e-05
8.16904e-05
9.73639e-05
0.000104553
8.07868e-05
9.18994e-05
0.000121057
0.00502575
0.000104164
0.000122959
9.84467e-05
0.000131049
0.00011341
0.00011382
9.65362e-05
9.39991e-05
0.000101188
0.000101611
0.000106588
7.59602e-05
0.000160207
9.8193e-05
0.000156263
0.000412191
0.000114364
0.000103775
0.000438322
9.52982e-05
9.86735e-05
9.36428e-05
0.000101359
0.000110973
0.00010383
0.0022171
0.000100715
0.000116037
0.0043366
0.000103799
0.000138706
0.000109687
9.02268e-05
0.000104207
0.000102502
0.000113108
0.00010696
0.000176936
0.0025462
0.000114111
0.000154508
0.000107938
0.00010037
9.54289e-05
0.000121187
0.000118791
0.000113859
0.000124289
9.36284e-05
0.000101812
0.000107628
0.000134451
0.000125732
0.000110164
0.00243797
6.16588e-05
0.000166788
0.00011916
0.000122216
0.000192643
0.000145582
0.000116694
0.000383826
9.87929e-05
0.000123448
8.29464e-05
0.000129862
0.000858139
0.000115489
9.08075e-05
0.00124042
0.000165311
0.000282605
0.00010503
0.000130708
9.63253e-05
8.04059e-05
0.000142036
8.71776e-05
0.000342466
7.99587e-05
0.000140909
0.000138632
0.000246339
0.000122313
7.71362e-05
9.31512e-05
6.5466e-05
9.97326e-05
0.000155252
0.000130265
0.000256551
0.000133557
0.000108973
0.00358631
8.28324e-05
0.000103995
0.000154917
0.000120387
0.00456856
9.84002e-05
9.39297e-05
0.000106461
6.91815e-05
6.755e-05
0.000103701
0.000143846
0.000117911
0.00031241
0.000842649
0.000104701
0.000211825
7.33684e-05
0.000109111
7.56017e-05
0.00010374
0.000115867
9.77697e-05
0.000126006
0.000101219
0.000103587
9.90628e-05
6.97155e-05
0.000122468
0.00163607
7.67721e-05
0.000133959
0.000158532
8.0645e-05
7.73934e-05
0.000153459
6.80264e-05
9.9082e-05
8.97412e-05
0.000103311
0.000127098
0.000107793
0.000143915
0.000470602
0.000162644
0.00372295
0.00113857
0.000136259
0.000104135
7.83079e-05
0.000144217
0.000102059
0.00239667
0.000134009
0.000137479
0.000113648
0.000201665
0.000113542
8.75966e-05
7.63785e-05
0.000124482
0.000106214
0.000100964
0.000288909
0.000111982
7.50564e-05
9.64542e-05
0.00154839
0.000156966
6.9465e-05
0.000218632
0.000984595
0.00022463
0.00013153
0.000213075
6.16477e-05
0.00031288
0.00366053
0.000113946
0.000127295
7.56826e-05
0.000113848
0.0001191
0.00010412
8.24487e-05
0.000192622
0.000266738
0.000102495
0.000224316
0.000347769
7.55495e-05
9.80744e-05
0.0004416
0.00151939
0.000125001
0.00467535
8.4408e-05
9.2999e-05
0.000105698
0.000103421
0.0051054
9.86374e-05
0.000100475
0.000107701
9.5606e-05
0.000202821
9.38911e-05
0.000115436
0.000107224
6.96551e-05
8.46479e-05
8.39543e-05
0.000100411
9.71706e-05
0.000787613
0.00238464
9.55872e-05
0.00330005
8.68879e-05
0.000110963
8.93649e-05
0.000316287
0.000118281
0.000161463
0.00011681
0.000925216
0.000615201
0.0060959
0.000227626
8.79878e-05
0.000150648
0.000118606
0.000104699
8.83879e-05
0.00308283
7.4958e-05
0.000200706
0.000285194
9.84794e-05
0.000304859
0.000328095
7.06295e-05
9.544e-05
9.93193e-05
7.62492e-05
9.42497e-05
0.000124548
7.57879e-05
0.000114649
8.99344e-05
0.00150704
0.00284948
0.00100449
8.06139e-05
0.00373213
9.37653e-05
0.00148975
0.000134833
0.000390535
0.000208506
0.000773529
9.09234e-05
0.000156143
0.000106908
0.000103085
0.000126292
0.00012098
0.000120802
9.29475e-05
0.000102203
0.00432053
9.9525e-05
0.000101909
0.000519678
0.000428493
0.000205127
0.00442673
0.000105026
0.00101773
0.00013807
0.000107879
8.33115e-05
0.000138319
0.0013268
8.47147e-05
0.000100551
8.50393e-05
0.000123477
8.75989e-05
0.00197184
0.00164137
0.0023015
0.000167947
0.00011431
0.00499587
0.000117775
9.55831e-05
9.9823e-05
7.27056e-05
7.40417e-05
0.00236538
0.000134674
8.40175e-05
0.00105569
0.00011773
0.000117822
7.55565e-05
0.000129235
0.000122638
0.00011543
0.00015731
9.15235e-05
0.000109231
9.53042e-05
0.0001442
0.00015751
9.97094e-05
0.000129739
0.000102297
0.000109887
0.00010073
0.000115527
0.000118505
0.00167221
0.000113076
0.000100799
0.000252257
0.000102257
0.00010094
0.000101643
0.000103843
0.000860734
0.000690403
0.000573071
0.000176599
0.000263512
0.000110246
0.000136588
0.000105094
0.00254937
0.000359377
0.00011067
0.000865253
0.000104361
0.00011073
0.000108228
0.000107281
9.92689e-05
0.000642218
0.00105013
0.000501022
0.000952689
0.000104673
0.000183993
0.000627987
0.0012688
0.000115246
0.000121703
0.000168867
0.000540424
0.000425571
0.00231242
9.45887e-05
0.000107926
0.000118378
0.00264196
0.000151378
0.000208599
9.9155e-05
0.000994192
0.000111423
0.00013082
0.00138215
0.000142565
0.000132855
0.000118431
0.000230957
0.00102522
0.000144096
0.000108658
0.000171829
0.000107883
0.000123493
0.000112938
0.000170089
0.000157003
0.000104034
0.000173549
9.99934e-05
0.000714129
0.00011506
9.42322e-05
0.000108142
0.00030887
0.000104033
9.93775e-05
0.000110926
5.96487e-05
0.000315249
0.000108048
0.000178154
0.000114619
0.000129934
8.66116e-05
0.00141888
0.000130401
6.92556e-05
0.000617396
6.74978e-05
8.89613e-05
0.000119722
0.000116165
9.65124e-05
7.93905e-05
0.000111262
0.000133604
0.000114711
0.000324374
0.000119735
9.41004e-05
0.00370318
0.000137348
6.88047e-05
0.000134082
0.000158072
0.000171664
8.22607e-05
9.76931e-05
7.60238e-05
0.000340213
0.000113673
0.00235561
0.00368267
0.000109153
9.61411e-05
0.00243946
0.000114784
0.00010186
7.80797e-05
0.000127455
9.48816e-05
0.00101585
0.00162021
0.000103958
0.000108625
0.000111311
8.12891e-05
0.000127298
8.10549e-05
0.00033968
0.000127137
0.000125036
0.000102292
0.000146984
9.98303e-05
0.000125509
0.00010149
0.000122371
0.00010116
7.83742e-05
9.61513e-05
0.00010583
9.64605e-05
0.000104636
0.000804252
8.89179e-05
9.33921e-05
0.00123684
7.81292e-05
0.000101182
0.000138482
7.61478e-05
0.000466171
0.000414968
0.000106403
0.000115949
0.000115779
0.000109662
0.00099507
9.96455e-05
0.00109218
8.99837e-05
0.000111977
0.000105362
9.56056e-05
0.00190582
0.000106146
0.00168873
0.000483278
0.00168909
9.75699e-05
0.000111491
8.52845e-05
0.000149428
8.65583e-05
9.86137e-05
0.000212273
0.000107492
0.000101371
0.000102199
0.000814684
0.00079737
0.000161767
0.000114201
9.6327e-05
0.000104235
8.63872e-05
0.000110277
0.000124689
9.42028e-05
9.94156e-05
0.000212935
0.000126761
0.000157652
0.000104696
0.000120528
0.000129818
0.000863346
9.62654e-05
0.00012007
8.52869e-05
9.60712e-05
0.000131778
0.00110554
7.85254e-05
0.000111187
0.000574873
0.000100085
0.00011517
0.000117164
0.0019852
9.49478e-05
0.000104009
9.36277e-05
0.000145443
0.00277131
0.000182123
0.000114234
9.63111e-05
0.00172812
0.000120257
8.10966e-05
0.00286197
0.0038126
0.00198048
0.00184958
0.00209126
0.00270872
7.82446e-05
0.0019865
0.000139026
0.000446014
9.53799e-05
0.000359926
0.00229777
8.28956e-05
0.000127209
0.00294645
0.000106559
0.00152326
7.92796e-05
0.000267779
0.000362731
0.000599414
7.83099e-05
9.42879e-05
0.000104743
8.29321e-05
0.000118324
0.000108337
0.00115477
0.000100509
0.000131056
0.000125995
9.09227e-05
9.39872e-05
8.84676e-05
0.000103641
7.19009e-05
0.00012584
0.000189151
0.000106373
0.000458487
0.000104412
0.00428023
8.64536e-05
0.000216609
9.96329e-05
0.000101492
0.000113626
7.99146e-05
8.60575e-05
0.000129061
8.66106e-05
7.70078e-05
0.000261501
0.000263115
0.0013628
0.000116146
0.000105049
0.000103852
0.000101417
9.37238e-05
0.000121172
0.000101994
0.000122411
9.89901e-05
0.000103712
0.000664116
9.18434e-05
0.000107103
0.000103554
0.000109821
0.000107623
0.000121263
0.000100379
0.000103112
0.000117052
0.000319265
9.54972e-05
0.000771068
0.000152987
9.25654e-05
0.000170433
0.000240686
0.000131476
0.000121674
0.000119125
0.000115593
0.000111956
9.74962e-05
0.000110753
6.82998e-05
0.00013108
0.000119892
0.000110479
9.5321e-05
0.000289167
0.000122186
8.72643e-05
0.000113211
6.61479e-05
0.000109793
0.000115636
7.96126e-05
0.000246186
0.000116003
0.000132861
9.28527e-05
9.3646e-05
6.41653e-05
0.000786405
0.000111206
0.000310693
0.000977738
8.91766e-05
8.92461e-05
8.28246e-05
0.000100578
0.000751855
9.9623e-05
0.000123992
0.000123186
0.000112667
0.000891731
9.77327e-05
9.21929e-05
0.000113882
8.77561e-05
0.000142694
8.53125e-05
9.81477e-05
0.000114691
7.55693e-05
0.000101924
8.28227e-05
8.18499e-05
0.000104245
7.9053e-05
0.000106308
0.000167103
0.000128989
0.00013584
0.000775129
0.000634609
0.000109344
6.83446e-05
8.0668e-05
9.83901e-05
0.000103946
0.000111577
0.000119953
0.0001393
0.000138748
0.000100989
0.000109891
0.000112814
9.74609e-05
9.93704e-05
0.00011467
9.24853e-05
0.000118575
0.000100878
0.00131998
0.000103818
0.000169746
7.45048e-05
0.000111842
9.651e-05
7.4248e-05
9.6131e-05
0.000901656
7.21602e-05
0.000118373
9.27614e-05
7.48809e-05
0.000111862
9.47182e-05
0.000235945
7.41043e-05
0.000262964
0.000105342
8.98832e-05
0.000193565
0.000107651
0.000778989
0.000116914
0.000126614
7.84704e-05
0.000116313
0.00014301
0.000133381
0.000138072
0.000113864
0.000133283
0.000117991
0.000118785
0.000107258
0.000162241
0.00011124
0.000104625
0.000104513
0.000118467
8.62995e-05
0.000129153
0.000113113
8.89033e-05
0.000121403
0.0001292
0.000120287
0.000112291
0.000125453
0.000113849
0.000133992
0.000124533
8.37712e-05
9.85538e-05
0.000106098
0.000106243
0.000106991
0.000107356
0.000115853
0.000108591
7.46332e-05
0.000114253
0.000131087
0.000144805
0.000105035
9.40045e-05
0.000115262
0.000477798
9.36975e-05
0.000103327
0.00179101
7.39982e-05
0.000106739
0.000125628
9.46173e-05
0.000104293
0.000116585
6.44257e-05
9.78936e-05
0.000108765
0.000114143
0.000101763
0.000133697
0.000126985
6.65959e-05
0.000140143
0.000164869
6.40877e-05
9.59231e-05
0.00012912
7.12485e-05
0.000104456
0.000127773
0.000119232
0.000108912
8.88654e-05
9.67374e-05
7.77219e-05
0.000115814
0.00329036
7.43591e-05
0.000126556
0.000109108
6.74396e-05
0.000112434
0.000113558
0.000132499
0.000102498
0.000104131
0.000105993
0.0003116
7.23206e-05
0.000111909
0.0001046
0.000105952
0.000110478
0.000118499
0.00015224
9.43224e-05
9.69276e-05
9.78072e-05
0.000103176
0.000128136
9.96959e-05
0.000439007
9.53431e-05
0.000111801
0.000127587
0.000199876
0.000126624
0.0001052
0.000190874
9.10614e-05
0.000114779
0.000127111
9.53711e-05
0.00012633
0.000103805
0.000322182
0.00011914
0.000465814
0.00011411
9.84036e-05
0.00152822
0.000110893
0.000105148
0.00011167
0.00044202
0.000115478
0.000106503
0.00184824
8.99433e-05
0.000105653
0.000261757
0.000355604
9.59281e-05
0.000128175
0.000148034
0.000193714
0.000333098
0.002127
0.000133564
0.000118578
7.51402e-05
0.000136658
9.1768e-05
6.78226e-05
0.000120017
0.000102439
0.000115656
6.49774e-05
0.00011075
0.000110887
0.000107807
0.00011977
0.000103831
0.000145557
6.61147e-05
0.0018622
0.000128617
8.49502e-05
6.78331e-05
0.00217269
9.73241e-05
0.000107598
0.00416609
0.000159598
6.79676e-05
0.000115472
8.89593e-05
0.0001036
6.79095e-05
5.87124e-05
6.38975e-05
0.000102201
7.92192e-05
0.00310298
6.57558e-05
8.76444e-05
0.000504394
0.000118584
0.000108916
0.000105975
7.35747e-05
0.000118401
0.000108968
0.000115756
9.83086e-05
9.84816e-05
0.000133232
0.00013133
0.000125541
0.000150872
0.000139161
0.000124953
0.00246824
0.000120794
0.000115177
6.2798e-05
0.000493092
0.000103782
0.000100917
9.50175e-05
0.000104212
8.89706e-05
0.000100219
0.00234944
7.49667e-05
8.14947e-05
9.38282e-05
7.06846e-05
0.000104473
9.58252e-05
0.000103554
7.59262e-05
9.67983e-05
0.000106356
9.71253e-05
0.000897534
0.000109416
9.97558e-05
0.00016202
0.000114402
0.000108564
0.00062561
0.000127779
7.18046e-05
0.000100597
0.000237163
0.00229684
0.00315689
0.000106012
9.71631e-05
9.55174e-05
0.000300313
9.71553e-05
0.00025179
0.000116285
0.000244582
0.000101551
9.98759e-05
7.78251e-05
0.00137528
0.000116713
0.000126212
0.00179421
0.000797059
0.000104836
0.00010661
0.000108594
0.000133709
0.000127054
8.64462e-05
9.85423e-05
0.000113228
8.9313e-05
7.8085e-05
0.000115244
0.0019514
0.000131479
9.16623e-05
0.000106657
0.000120261
9.67933e-05
9.98771e-05
0.000104609
0.000112845
0.00011225
0.000115075
7.9588e-05
0.000123762
0.000113708
0.000129965
6.99337e-05
0.000103488
0.000141681
0.000528009
7.24588e-05
0.000434591
0.000122911
0.000489752
6.9988e-05
9.32144e-05
0.00064246
6.67911e-05
0.000107198
0.00307316
9.42107e-05
0.000133814
7.25614e-05
9.73244e-05
0.000110653
0.000109156
6.8134e-05
0.000114991
9.74111e-05
9.82827e-05
7.92855e-05
0.00281673
6.6268e-05