/*--------------------------------*- C++ -*----------------------------------*\
| =========                 |                                                 |
| \\      /  F ield         | OpenFOAM: The Open Source CFD Toolbox           |
|  \\    /   O peration     | Version:  v2012                                 |
|   \\  /    A nd           | Website:  www.openfoam.com                      |
|    \\/     M anipulation  |                                                 |
\*---------------------------------------------------------------------------*/
FoamFile
{
    version     2.0;
    format      ascii;
    class       volScalarField;
    location    "2.5";
    object      CH4;
}
// * * * * * * * * * * * * * * * * * * * * * * * * * * * * * * * * * * * * * //

dimensions      [0 0 0 0 0 0 0];


internalField   nonuniform List<scalar> 
108993
(
1.12402e-71
2.33231e-48
2.38626e-55
0
4.57729e-156
0
0
0
7.90712e-121
1.80598e-80
0
1.32793e-102
0
0
0
6.23276e-24
8.98253e-76
0
1.98835e-155
1.35931e-77
9.95098e-161
3.28358e-138
2.67416e-87
0
1.43064e-164
7.08122e-114
0
0
9.94588e-91
0
1.16447e-130
0
0
2.88794e-56
0
0
1.58494e-139
0
9.8941e-09
9.35635e-12
0
1.52378e-116
0
1.84656e-165
3.87602e-32
0
0
0
0
7.58436e-81
0
1.34811e-19
0
0
1.56462e-109
1.20879e-97
1.22454e-143
1.85723e-142
3.77377e-134
0
1.51225e-132
0
2.12633e-116
2.00367e-151
2.02543e-154
6.05891e-93
0
1.49905e-144
0
2.06025e-30
5.52139e-125
1.08159e-150
3.68303e-146
1.18086e-148
3.27968e-86
0
0
2.92313e-59
1.44989e-149
2.00012e-161
0
0
0
1.72661e-116
0
0
0
0
3.17689e-149
8.37775e-158
3.67134e-147
1.9191e-131
0
0
0
0
0
9.18286e-114
0
2.1242e-139
1.14429e-141
1.63265e-136
5.76477e-117
0
0
0
2.11149e-111
5.23078e-148
0
3.7787e-17
0
1.03576e-145
0
2.15159e-30
0
3.12767e-30
1.88214e-151
8.1997e-84
8.85203e-22
0
1.01893e-101
3.65059e-126
4.47782e-25
1.33635e-68
4.93894e-149
4.1371e-37
2.58619e-66
4.08986e-83
2.44534e-127
2.22764e-131
2.0345e-81
2.46293e-130
0
1.44148e-15
1.27076e-127
0
2.53398e-125
1.24898e-122
1.63155e-116
5.2613e-102
6.65965e-69
5.045e-127
4.06897e-30
1.31438e-127
1.97662e-129
1.31023e-144
2.24306e-119
0
4.8982e-67
2.86247e-14
0
0
1.11492e-56
9.28891e-10
0
1.22002e-42
0
4.63129e-144
1.23006e-139
1.65013e-17
5.26764e-10
4.00425e-143
3.17342e-131
0
0
5.19425e-26
1.02386e-154
0
3.63164e-150
8.41352e-118
0
5.10869e-105
2.89253e-24
1.08251e-115
0
8.37072e-103
1.92427e-12
1.36165e-152
2.58862e-100
0
0
4.72927e-132
3.20503e-143
1.78011e-74
9.40916e-96
0
1.11824e-146
0
0
1.01322e-71
0
1.91716e-142
0
8.85399e-14
0
3.32029e-54
1.66631e-68
0
1.52966e-124
1.18935e-72
3.26987e-152
2.23131e-17
7.35477e-152
2.38127e-142
0
1.70881e-20
0
4.11667e-20
1.29052e-105
0
2.52465e-27
0
2.34976e-12
1.62793e-26
0
0
1.38387e-104
0
2.02717e-142
5.17115e-127
8.18494e-100
2.13693e-12
9.33106e-38
5.38054e-17
0
9.63938e-153
3.97929e-144
3.36012e-79
0
8.50167e-111
7.50073e-11
7.016e-116
4.23715e-151
0
0
0
6.85738e-133
4.26382e-131
0
0
8.01289e-136
1.40617e-96
0
1.33254e-145
9.25343e-137
9.65538e-24
1.56947e-28
7.88925e-25
4.95432e-140
0
0
0
0
4.77355e-122
2.82968e-142
1.5291e-141
8.30473e-142
5.55938e-79
8.82827e-124
1.48761e-147
1.29316e-84
0
2.18589e-39
3.61494e-35
0
6.18039e-86
3.61237e-85
1.99515e-101
1.03341e-144
1.74766e-109
2.93055e-166
2.2113e-61
1.96735e-37
4.58259e-05
1.41276e-31
5.07219e-106
3.2684e-138
1.70481e-21
0
6.51471e-72
8.91655e-72
2.40108e-24
1.60769e-22
0
1.75433e-121
0
3.03167e-156
4.94475e-76
7.97663e-68
2.02913e-35
3.17095e-101
3.18406e-96
5.78989e-74
2.60015e-92
0
2.81646e-83
1.137e-126
4.08736e-88
0
1.24276e-162
8.4898e-24
0
0
2.7638e-165
7.12649e-115
2.08652e-110
2.69888e-140
2.45784e-82
7.94998e-108
0
0
2.29169e-130
1.42786e-52
1.22488e-138
4.63577e-105
8.03038e-16
0
1.45978e-53
2.42904e-20
5.06036e-111
6.13052e-53
1.45623e-153
1.61246e-106
2.71563e-109
0
6.90534e-06
3.391e-05
8.78236e-13
0
4.67141e-51
5.41805e-101
1.35525e-14
7.47037e-10
1.02433e-106
0
0
9.1901e-130
0
8.85037e-112
1.94325e-125
0
0
8.12315e-80
0
1.62963e-103
6.47713e-116
3.35313e-74
0
0
3.02519e-72
3.2623e-104
0
0
1.63623e-48
0
0
0
1.11715e-24
6.95045e-110
3.07389e-154
3.12688e-50
2.56369e-81
8.09524e-75
1.98882e-73
4.3898e-91
6.87294e-73
2.0148e-76
1.91142e-124
0
0.00250197
1.19129e-35
7.33634e-58
2.88742e-71
9.73504e-07
1.31405e-71
1.37441e-07
0
0
1.92822e-12
0
4.81612e-11
8.24338e-12
4.57043e-78
8.94324e-19
1.42615e-111
2.62406e-103
3.6466e-64
0.000172392
2.44678e-79
1.70456e-27
1.0137e-10
4.46133e-106
1.72785e-10
6.88915e-95
2.43001e-43
7.88076e-72
0.000171709
5.69107e-152
4.9841e-35
6.36201e-122
8.87141e-70
0
1.80981e-23
2.57814e-127
1.32541e-106
0
8.83673e-99
1.01874e-121
3.25027e-50
0.00116906
0
4.04658e-83
0.00293649
1.90313e-121
5.70999e-98
1.12644e-117
6.77353e-07
3.03555e-38
2.19947e-50
9.43479e-152
0.00608147
2.78532e-49
3.84078e-06
2.84704e-159
1.48902e-151
4.7092e-07
4.23724e-140
0
3.68432e-06
3.87449e-168
3.36778e-05
5.00434e-12
0.000306518
7.36452e-135
2.40984e-123
2.92202e-81
3.37642e-123
1.94614e-101
3.81473e-143
1.62699e-115
9.39375e-109
3.92012e-84
8.5285e-81
4.3555e-149
1.71799e-24
5.4829e-28
7.5839e-35
7.86345e-26
0
1.6787e-152
0
1.18177e-151
4.99682e-80
0
1.34334e-140
1.9002e-120
2.47485e-106
0
3.79454e-96
0
0
8.79125e-53
7.21369e-30
0
1.0888e-35
6.22258e-62
0
0
1.34589e-60
2.22946e-58
0
0
8.54917e-122
1.64846e-48
9.52839e-140
0
0
0
2.49272e-48
3.84265e-20
0
1.91247e-114
2.61317e-112
5.97375e-78
1.39752e-41
2.19144e-64
2.38329e-58
2.79961e-63
2.17838e-27
0
1.92637e-109
1.88468e-78
0
1.4225e-58
2.46614e-28
0
1.55574e-40
1.54174e-94
7.66549e-72
0
2.41522e-139
0
0
1.14258e-66
2.3917e-37
2.44662e-23
7.64118e-75
0
0.000443726
7.52343e-72
2.54099e-26
1.52605e-33
5.25659e-114
5.83136e-66
1.25726e-74
9.49737e-141
2.27685e-121
1.11195e-75
6.03334e-81
9.06985e-90
1.3324e-97
6.65281e-99
1.62676e-38
0
3.44124e-87
1.00023e-11
1.52542e-100
1.80522e-82
1.53465e-10
0
3.03231e-123
4.32085e-141
9.65415e-14
0
0
0
0
0
1.32372e-52
1.41189e-47
3.52191e-116
2.29887e-39
1.72426e-163
0
0
2.15826e-101
1.76252e-120
1.07625e-13
9.34447e-110
1.21505e-140
8.51239e-23
0
6.41494e-19
0
1.82749e-110
0
0
3.0892e-58
0
0
1.55881e-53
0
0
2.04314e-44
2.40459e-47
9.09584e-14
0
1.38487e-110
3.99976e-63
0
1.07886e-64
4.97738e-41
0.108506
4.06238e-44
0
3.03357e-48
0
2.67609e-48
5.2222e-06
7.15214e-25
1.53546e-54
0
1.00277e-74
0
0
2.28428e-34
2.36484e-21
3.46135e-42
1.49416e-97
7.70338e-152
7.1018e-61
6.08095e-137
2.99175e-79
1.01561e-73
2.78643e-05
1.39736e-113
9.36753e-118
0
0
8.99574e-36
9.08543e-69
2.96093e-87
0
2.25666e-53
0
0
0
1.94092e-138
1.0305e-43
1.7625e-69
2.1396e-09
0
0
2.47793e-65
3.4702e-52
0
6.9525e-34
1.13466e-140
1.07734e-24
0
2.43351e-20
7.63897e-139
2.17775e-77
0
0
2.7535e-124
3.34303e-108
6.99097e-34
2.50529e-16
2.18475e-36
6.92078e-10
6.96199e-68
2.41084e-31
3.57599e-15
3.78389e-37
4.08612e-129
9.15175e-135
0.000463527
8.3621e-22
6.75611e-32
0
4.16818e-30
0
1.01531e-32
1.46933e-113
1.91461e-35
1.75313e-64
2.03518e-33
9.24618e-35
8.6519e-36
1.83881e-37
3.61793e-25
6.40484e-41
5.79566e-27
0
1.57553e-79
4.22396e-08
2.63167e-26
1.52682e-27
7.42675e-24
0
1.18825e-125
0
1.31138e-94
1.23705e-121
3.72524e-69
0
2.3933e-45
1.13525e-37
1.9193e-42
4.89257e-42
0
1.39833e-27
2.34548e-25
0
1.62773e-138
2.08328e-23
3.6639e-57
1.52072e-131
2.60738e-24
9.69063e-47
3.86027e-32
2.00281e-28
2.36877e-39
1.06651e-31
2.58726e-40
1.54229e-12
0
0
2.28833e-05
0
0
4.75811e-35
5.25588e-98
9.02686e-105
0.000499385
7.0087e-73
0
0
0.00173176
9.11534e-36
4.85911e-105
9.62373e-144
0
1.64728e-33
9.30305e-152
1.7395e-38
1.40216e-77
6.56451e-116
0
0
5.98098e-34
0.000350401
3.41251e-85
0.000647919
2.16544e-67
0
0
0
3.1137e-38
0
9.24659e-31
2.42739e-24
5.29712e-25
0
9.27365e-32
8.51852e-27
0
8.94617e-34
0
8.30247e-30
6.71392e-30
4.65817e-23
1.31647e-27
2.77183e-74
1.04563e-161
7.74518e-42
4.06103e-154
4.89452e-64
0
0
3.34946e-26
2.38478e-08
1.46782e-14
2.15275e-41
1.05933e-34
2.27904e-34
1.86072e-34
9.7251e-40
7.02735e-24
8.07658e-91
0
1.42893e-152
0
4.71006e-157
5.90666e-28
1.47763e-150
8.45272e-31
7.62636e-28
0
2.24074e-33
4.45426e-150
0
0
1.41768e-35
0
0
8.5025e-42
1.71524e-166
2.1967e-78
1.42018e-53
7.76286e-16
0
4.22448e-21
0
0
3.94447e-52
0.000358108
1.10327e-18
3.53069e-63
1.66702e-75
2.33881e-12
1.08174e-50
1.62028e-52
4.44342e-41
9.44951e-84
1.17817e-27
0
3.18194e-112
0
8.19485e-139
6.43548e-21
3.15896e-117
1.63954e-88
4.9168e-14
4.14859e-39
6.64106e-08
8.58033e-71
2.58785e-10
1.28494e-115
0
4.05936e-39
2.00415e-146
2.00609e-59
3.18122e-42
1.50815e-108
1.68739e-92
0
1.05748e-88
3.35856e-88
3.54132e-50
0
0
0
5.94623e-94
0
6.88576e-110
1.31546e-97
1.43198e-06
0
7.16712e-06
8.96703e-80
1.05798e-95
6.48887e-58
0.00754253
1.00767e-22
1.37232e-110
1.43412e-31
1.27681e-48
1.82026e-63
6.62125e-73
2.87844e-23
0
2.50696e-48
1.42122e-23
0
5.12918e-44
1.35918e-31
1.8357e-09
2.42367e-43
0
2.383e-48
2.90006e-40
1.0015e-40
6.77963e-106
2.33843e-23
0
0
4.52076e-05
0
0.000337067
2.82359e-46
6.33244e-06
0
3.16977e-33
3.17448e-111
2.44995e-17
2.45903e-69
0
0
1.02563e-114
1.28154e-18
3.95447e-48
0
0
1.31148e-125
3.3692e-71
0
2.33379e-50
0
5.38874e-153
0
5.7719e-25
1.8883e-20
1.20692e-111
0
4.96804e-35
1.81345e-24
0
0
7.69832e-21
2.10752e-16
1.72355e-39
2.73055e-28
4.71139e-64
3.19563e-09
7.07349e-146
7.58779e-10
1.9967e-22
7.23354e-05
0
0
4.98353e-20
3.8002e-37
2.66903e-46
1.74739e-119
1.07888e-158
0
3.96752e-25
0
4.22652e-12
3.70997e-30
0
1.09034e-09
1.28838e-129
1.90408e-115
7.1116e-07
0.000168686
3.7839e-82
5.86889e-54
6.69498e-184
2.56148e-117
1.89264e-31
5.01675e-18
1.6295e-07
2.18958e-73
3.90833e-08
2.11269e-19
1.35467e-33
0
0
4.15101e-34
1.08198e-105
4.40892e-104
1.27531e-147
4.30156e-37
6.37976e-72
7.91453e-20
0
0
1.42628e-36
8.74849e-127
1.64381e-30
9.11478e-37
8.78782e-38
3.12105e-41
2.60776e-113
8.36352e-12
7.49979e-114
2.44344e-06
0
3.71676e-65
7.30468e-140
5.47599e-55
2.94295e-21
5.0021e-124
2.85079e-78
3.83236e-08
1.37219e-33
0
2.16001e-123
1.39142e-45
0
0
0
3.16009e-23
1.32877e-10
1.42719e-42
2.05812e-81
4.52584e-42
1.316e-53
8.34313e-57
1.55334e-25
0
2.13617e-11
1.52409e-12
4.37927e-57
5.80698e-27
1.56449e-54
7.04019e-43
0
2.41559e-16
0
0
1.96757e-137
8.65372e-10
0
0
1.94971e-140
1.674e-10
0
1.01343e-57
1.37484e-64
8.16093e-134
2.14371e-69
0
2.28581e-93
3.0736e-22
0
8.04054e-71
0
0
0
0
0
1.58092e-136
0
6.88079e-133
2.74125e-06
2.63374e-29
3.32947e-96
1.81538e-62
0
6.08624e-50
1.51177e-24
1.05782e-38
0
0
1.56047e-36
7.40066e-112
1.90175e-21
2.35912e-16
0
7.2636e-144
0
0
0
0
2.37293e-35
1.04168e-125
2.24485e-148
5.65444e-63
0
3.17967e-16
2.07879e-63
9.45801e-37
2.6014e-140
0
5.57138e-40
6.08488e-20
0
0
7.95179e-64
4.08151e-93
1.62389e-50
0
4.44227e-106
0
7.84003e-113
5.47281e-05
1.19368e-72
5.53378e-27
4.31339e-121
4.09345e-22
1.91141e-27
3.89849e-127
4.88875e-28
5.71221e-53
6.4227e-36
5.14907e-40
1.40733e-08
1.1332e-48
0
2.57847e-29
0
0
1.64758e-124
9.74217e-116
1.25055e-31
4.44891e-21
0.00258169
0
0
1.92831e-40
1.36385e-74
3.91518e-15
2.40914e-45
1.59658e-16
2.69531e-49
3.09178e-18
7.11497e-43
0
2.81588e-19
1.14968e-22
2.23203e-93
0
2.34621e-150
1.56265e-81
0
3.91342e-154
4.53186e-44
3.55405e-06
0
0.000184045
5.3961e-36
9.42041e-76
0
1.24764e-24
1.97653e-18
0
1.73656e-35
2.31164e-61
0
3.47708e-151
1.65075e-42
0
2.03769e-22
0
0
6.62195e-152
8.78502e-74
1.44257e-63
9.87969e-139
0
0
0.0742931
2.82195e-39
1.21575e-155
0
0
2.20645e-78
2.08141e-96
2.76921e-152
4.65803e-57
0
6.89964e-68
0
1.23089e-66
8.52142e-67
0
0
0
9.54157e-83
0
0
0
9.22614e-22
2.4124e-36
2.81124e-48
1.47849e-24
2.23146e-59
1.72313e-159
0
0
3.26182e-112
8.28962e-58
0
1.28029e-52
8.02385e-77
1.15465e-18
7.1864e-77
6.63642e-47
0
9.50789e-110
8.88555e-60
0
3.75545e-06
5.13539e-05
0
0
8.22561e-94
0
4.82115e-48
9.66186e-110
1.36289e-59
6.41992e-128
0
0
2.66321e-119
4.61096e-161
1.07584e-126
3.82738e-34
9.31582e-78
1.13203e-56
1.92137e-45
3.34341e-43
6.91583e-37
2.04539e-14
3.54235e-30
1.24638e-30
0
4.39866e-57
1.85191e-15
5.40879e-165
1.02434e-30
1.9487e-102
3.03803e-105
5.14191e-105
4.76709e-05
1.45651e-20
2.28112e-146
1.45117e-09
4.22601e-124
1.68323e-09
8.76193e-12
5.68305e-101
8.74159e-79
1.71672e-61
1.20694e-48
0
1.13379e-46
2.79381e-157
0
0.000274773
2.78376e-17
9.80904e-96
1.84218e-161
8.7941e-18
0
0
0
3.23577e-135
1.33495e-144
1.61962e-05
0
2.53006e-26
0
1.8368e-36
0
0
3.48976e-42
1.16123e-77
3.07745e-129
8.7203e-11
2.74102e-32
0
1.04156e-11
0
3.61982e-10
2.60648e-70
0
2.4565e-53
1.75079e-122
1.78764e-61
0.191287
2.65303e-102
6.84179e-61
1.03226e-109
3.6297e-11
1.70484e-85
6.27162e-98
0
1.68263e-47
0
0
3.63414e-102
8.44305e-40
2.42793e-53
0
0
1.14275e-54
1.57615e-128
0
0
7.55254e-27
3.25407e-37
4.36677e-124
5.79314e-27
4.93624e-113
2.11523e-125
0
0
0
0
7.68206e-26
3.51278e-45
6.09121e-05
9.58889e-28
2.62937e-97
0
1.37592e-26
5.64171e-76
2.42697e-38
0
4.98569e-40
5.07802e-46
0
2.23416e-138
0
1.57614e-37
0
0
0
6.57442e-46
2.10992e-73
2.42734e-112
2.38182e-103
1.93768e-95
0
2.50558e-61
1.49924e-64
4.96265e-23
1.23673e-122
4.14665e-70
9.35645e-98
4.98917e-44
0
3.9187e-99
2.39661e-82
0
9.4746e-08
4.28712e-100
1.69065e-08
1.37378e-33
1.05778e-82
3.94186e-90
4.77825e-101
0
5.4202e-107
2.15416e-57
1.05441e-44
0
7.08507e-47
1.3984e-45
1.01126e-122
7.82466e-46
2.31987e-07
1.46244e-47
4.73621e-42
0
2.55806e-25
7.16756e-32
0
0
7.46447e-130
0
2.57976e-40
0
4.906e-134
5.54311e-40
0
0
2.29795e-48
2.10531e-15
0
0
1.65489e-25
2.71378e-119
1.73253e-26
1.72786e-133
0
0
1.94461e-80
5.18435e-112
1.10994e-37
0
1.5778e-15
4.1372e-33
5.13024e-06
0
2.74272e-114
4.0205e-74
0
4.78738e-39
1.60386e-38
3.61526e-57
1.85024e-10
1.25304e-135
0
8.5725e-51
6.26601e-41
1.17524e-127
1.87773e-41
3.6096e-39
6.80979e-09
3.87002e-10
0
9.63749e-126
2.2031e-30
0
1.77347e-56
1.08465e-22
1.61258e-42
1.4e-46
2.68143e-98
9.66742e-57
0
1.44962e-42
0.000315947
5.80701e-34
3.22442e-59
1.70881e-26
8.36267e-15
0
7.16751e-32
0
3.95925e-61
3.57611e-47
3.02431e-56
2.17532e-28
7.26406e-45
1.16132e-142
1.06553e-60
1.47183e-33
0
6.23141e-31
0
2.27907e-58
4.95552e-18
0
9.32038e-127
1.22993e-24
0
7.81817e-137
0
1.90043e-61
2.80314e-18
1.96295e-124
1.14406e-109
1.38122e-07
0
3.45825e-27
0
7.70431e-24
0
9.85811e-69
1.87946e-38
3.78588e-39
0
1.05802e-21
0
8.88285e-52
9.36986e-28
2.09469e-143
3.90817e-133
7.01901e-115
7.22536e-21
5.27315e-31
1.1849e-80
7.42473e-31
4.40597e-106
5.92643e-17
1.40408e-17
1.10815e-08
1.54021e-27
0
0
0.000295009
5.74629e-79
5.11812e-88
0
0
3.27789e-134
1.74961e-136
1.5509e-112
3.76613e-155
4.42236e-29
1.02774e-23
5.02647e-41
0
0
1.70878e-98
1.19309e-126
0
0
1.81484e-118
1.80524e-07
2.04068e-17
2.83358e-111
9.7963e-88
3.39248e-79
0
6.20845e-45
3.98667e-79
8.05173e-48
6.65038e-80
4.7675e-87
0
5.32423e-47
2.15279e-12
0
5.29061e-25
0
7.88684e-85
0
3.35615e-23
2.31225e-98
5.15769e-100
2.49875e-110
0
9.22814e-24
0
0.00139929
5.12033e-114
1.59638e-147
0.00536691
0
3.18272e-49
1.91251e-69
1.76727e-101
2.53847e-39
2.85478e-110
4.26018e-50
0
9.17519e-49
0.00129773
2.17587e-15
1.00813e-51
0
9.18396e-25
7.49617e-146
3.45931e-16
0
2.23394e-110
3.06518e-108
3.81716e-89
7.62162e-128
2.68441e-91
1.52097e-57
0
0
1.24624e-06
0
1.94994e-15
9.42939e-143
4.06262e-93
5.23781e-10
3.35236e-25
2.30379e-106
2.28277e-27
0
1.2901e-104
3.42164e-53
5.54801e-38
1.4529e-13
0
0
8.17972e-06
7.17091e-10
2.08332e-08
0
0
9.95567e-56
0
8.59588e-12
0
0
0
9.99343e-94
0
9.95293e-24
1.19471e-57
9.42318e-80
1.25566e-22
2.67262e-79
0
4.12525e-22
0
1.25883e-11
7.99569e-114
1.90466e-128
0.000101411
2.55954e-165
5.40695e-60
8.38841e-33
0
0.000110551
0
1.12367e-74
1.52495e-63
3.93557e-64
1.322e-70
0
6.62662e-18
2.90618e-18
7.33273e-20
1.22773e-07
0
1.26448e-12
0
1.26895e-66
0
6.81524e-78
1.73363e-65
1.40151e-70
1.00938e-85
8.06803e-60
7.68746e-48
8.40774e-64
0
5.05376e-40
1.89095e-07
0
1.17256e-14
1.38944e-16
8.2431e-23
0
1.50975e-19
2.74772e-74
2.85791e-67
6.69584e-88
0
0
0
0
9.16733e-18
2.6e-33
1.15604e-05
7.55644e-06
0
0
0
8.58595e-15
1.58594e-27
0.000134885
0
3.38006e-22
0
3.20612e-11
1.60422e-65
9.03943e-25
8.72584e-86
0
0
1.1342e-139
1.63991e-10
2.55692e-134
9.28254e-46
0
0.000142253
7.02871e-15
0
0
0
5.96412e-10
4.59451e-27
8.33517e-12
0
7.1961e-26
0.00130275
6.58556e-112
6.84704e-81
4.45328e-50
0
6.6669e-48
3.41298e-74
1.76761e-45
2.02342e-10
2.85603e-46
8.32674e-50
7.64917e-08
1.64606e-26
8.40906e-44
8.83457e-56
5.64869e-09
0
5.75838e-23
0.000148156
0
0
0
0
0.000175795
6.1769e-25
3.5132e-44
0
9.64662e-47
5.86482e-17
0
1.72905e-119
0
1.92165e-38
0
0
3.56818e-46
5.16426e-87
4.92395e-07
9.39874e-05
1.70948e-55
0.00245777
4.38993e-43
3.13982e-154
4.25773e-36
1.38382e-08
8.89352e-23
1.52242e-14
1.6665e-15
4.81254e-12
4.30819e-06
0.000768537
8.85944e-14
4.07244e-40
5.02835e-11
9.29357e-74
1.54112e-48
6.30598e-54
0
5.38134e-35
4.18451e-10
4.50229e-15
3.97894e-23
8.63436e-11
2.47446e-09
3.43693e-37
0
2.39357e-55
0
1.56331e-115
8.29301e-39
1.12813e-90
3.91371e-36
0
7.62645e-06
5.25966e-05
5.60374e-06
0
6.96413e-05
0
0
1.03397e-38
2.31425e-08
3.07218e-13
3.89143e-06
9.92005e-58
2.00114e-50
0
0
1.63196e-147
4.65793e-134
4.00273e-27
0
0
9.98273e-05
0
6.38911e-39
0
5.97968e-09
7.78586e-14
2.46608e-05
6.13461e-151
4.93983e-06
6.4304e-39
1.70121e-126
1.10926e-81
7.09047e-13
9.79016e-25
2.17224e-149
1.05939e-112
0
2.89201e-74
0
1.9548e-05
1.4091e-05
3.86339e-05
3.86909e-14
7.79357e-122
1.00322e-07
3.79074e-28
3.42369e-149
0
8.25416e-78
0
7.91935e-05
7.68507e-68
2.36888e-78
0
4.39707e-72
2.11851e-46
2.2163e-74
6.38322e-52
0
1.29571e-92
3.19764e-23
7.63086e-35
1.54858e-54
1.81143e-21
7.81047e-22
2.07525e-31
0
1.11689e-54
9.53613e-88
4.92972e-48
6.14745e-45
2.10667e-56
9.36405e-25
1.95756e-22
1.48638e-57
0
0
3.52692e-47
0
6.03292e-49
5.6287e-47
1.27124e-08
0
1.87621e-12
2.49669e-16
2.3091e-36
1.07858e-144
0
2.9004e-45
6.28252e-29
2.68204e-36
2.90832e-111
4.4047e-22
0
9.34806e-93
2.17501e-24
0
7.49199e-46
2.36798e-41
0
9.30594e-33
0
5.04851e-70
1.27964e-16
6.93504e-24
7.0669e-34
2.09163e-75
2.9344e-22
3.59431e-38
1.00956e-33
1.17621e-35
5.06658e-05
0
2.18869e-81
8.28689e-29
3.01019e-07
0
6.3677e-09
0
1.79334e-39
4.25321e-113
5.32101e-138
0.0628105
1.30808e-31
4.27453e-17
4.08485e-27
2.76008e-17
1.91428e-06
9.42325e-12
2.99913e-160
2.83306e-29
1.02196e-137
1.52359e-30
3.44856e-73
1.39269e-35
3.27443e-31
4.13608e-85
5.55752e-26
0
1.43608e-42
2.94361e-37
0
5.36171e-70
1.79606e-28
4.30121e-74
2.97802e-76
0
9.29842e-142
1.77201e-45
0
3.48636e-36
0
0
0
0
5.64889e-77
0
1.76136e-26
9.58819e-117
9.09156e-113
0
4.25459e-74
0
0
6.66807e-16
4.42459e-70
2.21649e-122
6.30584e-37
1.07349e-92
0
0.00021377
0
0
4.42486e-37
3.01444e-59
4.51596e-10
0
8.33362e-95
1.42413e-165
1.70337e-137
0
7.86828e-05
0.00194349
8.15154e-38
0
0.0110112
5.14031e-53
1.0629e-32
4.19558e-169
3.04729e-18
3.56627e-108
8.2397e-06
1.31437e-36
1.31447e-109
0
0
4.11354e-31
0
0
6.0202e-20
2.18243e-32
0
5.06e-30
1.30463e-19
3.97901e-91
0
2.11445e-83
5.2896e-21
1.29867e-84
2.06917e-174
1.15462e-114
0
0
1.44864e-23
4.37867e-08
8.20008e-170
2.59064e-167
5.13858e-23
2.34293e-156
0
1.68333e-53
0
2.21142e-12
2.6587e-21
1.59746e-39
0
0
0
1.34531e-25
0
2.44954e-25
2.36668e-70
5.24113e-16
5.49557e-50
5.66335e-100
0.000204242
1.85642e-34
9.90721e-06
3.0168e-11
5.12838e-21
5.86047e-36
1.97579e-75
4.47599e-123
2.51597e-12
0
6.32795e-21
2.50909e-16
4.35923e-59
0
3.91497e-73
3.30619e-08
1.2748e-33
3.02551e-32
6.21214e-74
0
8.72804e-42
0
7.47485e-14
0
1.90286e-126
5.76194e-131
0
1.19559e-33
1.79245e-25
5.75095e-96
0
0
7.66195e-15
4.17945e-35
2.1422e-17
2.01098e-155
0
1.91885e-16
6.63775e-17
4.32487e-162
4.19318e-62
4.84597e-19
3.88393e-57
7.10209e-57
0
3.10467e-29
1.32097e-25
0
1.9625e-161
1.38818e-20
0.00109699
1.55138e-20
3.46036e-24
6.49799e-69
3.32791e-05
0
0
5.90116e-05
0.000144547
6.49395e-05
5.38914e-05
3.84761e-05
1.69402e-05
0
0.0176592
1.46528e-26
4.2825e-28
6.46845e-164
1.72031e-08
0.000315515
9.0215e-148
1.21726e-32
1.92252e-05
0
9.53642e-05
0
1.88628e-21
2.13672e-28
2.709e-14
7.22827e-42
1.83736e-17
8.96565e-100
0
7.46053e-57
1.93575e-51
4.93301e-07
1.00487e-115
7.62612e-13
0
2.93219e-158
7.84478e-163
0
1.16485e-61
9.99239e-64
0
8.03294e-24
0
6.15927e-31
6.23797e-63
2.00605e-05
3.98748e-160
1.71917e-20
0
4.03822e-45
1.23384e-18
0
8.7105e-161
8.64981e-72
5.23418e-45
0
1.49471e-07
9.67667e-09
0.000137405
2.71507e-23
4.50473e-41
3.93084e-44
0
0
0
1.89957e-38
0
0
2.22431e-30
8.87634e-10
1.59289e-45
6.38601e-42
6.41642e-68
0
6.59061e-28
0
5.21784e-60
0
0
6.47878e-10
1.09536e-95
8.16798e-06
0
2.58716e-74
1.79689e-12
1.16676e-14
1.44107e-110
2.66811e-55
1.48677e-74
0
2.45225e-66
0
0
3.64857e-43
2.84598e-75
3.30596e-73
3.23782e-97
6.53422e-72
4.29266e-11
1.42055e-76
8.37025e-23
2.54886e-75
0
3.82017e-78
0
7.1424e-41
1.44078e-08
1.97046e-14
2.7107e-85
0
0
0
1.75193e-05
0
0
8.41161e-05
0
0
0
6.71803e-44
1.4249e-05
1.49493e-76
4.78948e-77
1.25262e-68
0
7.16303e-05
0
7.29329e-117
0
5.00488e-57
1.99284e-67
4.58091e-115
9.1697e-90
3.34454e-76
7.7017e-111
1.16486e-26
5.11814e-66
3.36687e-114
1.02441e-43
0
1.63902e-48
1.11524e-19
1.46841e-74
1.1452e-117
2.15186e-14
6.24533e-16
0
1.55523e-111
0
0
0
0
2.74532e-72
1.60113e-16
0
2.094e-60
0
0
3.08656e-61
0
3.92381e-31
1.94362e-22
4.25609e-13
0
2.98228e-11
2.50392e-32
1.55699e-10
1.13181e-109
1.97802e-69
0
3.6158e-111
0
0
3.6722e-107
7.02403e-14
0
1.15172e-109
6.56431e-30
2.45632e-57
3.67512e-21
9.61852e-63
4.07537e-20
3.96756e-57
3.12807e-65
1.0539e-17
1.48356e-112
0
2.08714e-88
5.70811e-53
0
3.01354e-36
1.09031e-17
2.43418e-69
9.81779e-18
4.18136e-29
1.20856e-15
3.77256e-67
0
0
2.83785e-11
4.8888e-42
2.10783e-32
4.36071e-55
1.03377e-108
8.35097e-67
3.23149e-53
3.41516e-50
2.13005e-27
1.28393e-102
3.66834e-104
7.6064e-56
3.79605e-30
4.18553e-33
0
1.31169e-52
0
0
1.45879e-74
1.07895e-86
2.97027e-46
3.65711e-49
0
9.97703e-84
9.21648e-89
0
1.07068e-84
2.25539e-81
9.01631e-77
0
0
0
5.73945e-15
0
2.19313e-13
0.000129683
2.88916e-134
0
6.58449e-24
2.73581e-88
0
0
4.41371e-143
2.03101e-90
7.03343e-29
1.91155e-18
1.58789e-48
1.76326e-76
1.75956e-35
1.22509e-145
1.83455e-40
2.18558e-13
2.87879e-144
0
5.61564e-17
1.23092e-145
2.18386e-91
0
6.53958e-97
3.03038e-41
0
2.23313e-68
1.67282e-148
5.71282e-23
0.000109421
2.79981e-29
4.91801e-54
8.49602e-108
3.83102e-142
9.20324e-101
0
0
5.82455e-110
1.65928e-108
1.66305e-70
2.7902e-39
2.66028e-85
4.93973e-107
3.3018e-104
2.39989e-18
0
2.68698e-13
1.32171e-20
4.08448e-27
1.54154e-89
6.36449e-22
0
2.59258e-95
3.12796e-83
8.99271e-07
0
6.31325e-78
2.3951e-50
2.73271e-22
6.11406e-69
3.11163e-72
1.01039e-20
0
1.80984e-18
0
0
4.15689e-66
1.50283e-75
2.43323e-22
0
1.57166e-21
3.59793e-78
0
7.8482e-24
4.12822e-85
1.67412e-102
1.35257e-26
1.50845e-20
2.14374e-74
6.15461e-23
3.12383e-24
0
8.80429e-17
8.03848e-21
2.32945e-30
2.19169e-24
4.14177e-99
9.03266e-30
0
3.55765e-33
3.23612e-05
0
0
3.78679e-51
2.04536e-54
3.96234e-53
0
0
3.09211e-63
0
0
0
3.3656e-51
4.55933e-47
3.23772e-142
0
9.32757e-115
1.67748e-38
4.78098e-05
1.47841e-109
1.90851e-31
8.26364e-33
8.14966e-05
1.20344e-116
0
0.00128963
3.0671e-121
0
3.57238e-44
6.7665e-40
2.86123e-100
2.58328e-34
9.47991e-120
2.51655e-120
0
2.46071e-122
9.4904e-06
1.65409e-60
2.58767e-63
1.18439e-06
2.88976e-16
1.19542e-114
6.26551e-76
0
3.78919e-66
1.83659e-119
1.53411e-73
6.69956e-23
0
5.58521e-30
2.042e-48
3.85057e-25
2.45521e-09
1.04536e-61
1.18237e-93
0.000255153
5.69416e-36
0
0
2.72588e-12
3.02978e-36
2.73533e-32
2.68867e-27
1.61902e-37
2.74898e-22
0
9.42676e-05
0
1.47101e-20
1.18592e-21
0
3.72828e-28
6.11453e-103
0
0
1.81892e-46
8.19808e-48
0
3.53757e-06
9.81583e-34
0
2.955e-22
4.71461e-51
0
1.43624e-07
5.20328e-82
3.02909e-20
7.90353e-90
6.92678e-10
0.00014583
0.00041279
4.47917e-124
2.7644e-98
0
0
6.48009e-63
3.51431e-12
6.83037e-53
2.50454e-20
7.08133e-19
4.17494e-23
9.30502e-76
4.74956e-05
0
5.33373e-36
0.000208771
3.67035e-08
0
1.32021e-22
3.05529e-82
4.33346e-41
0
0
3.60168e-77
4.60452e-67
2.08819e-99
0
0
4.17196e-05
8.75832e-54
1.19949e-55
1.6614e-104
1.97308e-29
4.45076e-48
3.40967e-98
1.95272e-42
1.93181e-79
9.48501e-79
4.23803e-55
0
4.68749e-50
0
1.09986e-40
8.98994e-78
0
9.64125e-48
4.45557e-09
2.15246e-79
0
3.9673e-39
4.03063e-19
3.64134e-132
0
3.3923e-27
0
0
0.000145369
5.26195e-73
2.89695e-44
0
2.99102e-100
0
2.78292e-65
3.8019e-134
0
1.86208e-43
6.76638e-98
4.14134e-32
9.25085e-05
1.21764e-132
2.70203e-20
1.80718e-130
1.99335e-30
1.08695e-44
1.18108e-99
2.65075e-129
2.2219e-23
0
1.81225e-118
0
0
0
0
0
1.68413e-26
3.89583e-22
1.64707e-134
4.34462e-33
1.57669e-101
2.44346e-140
0
1.8266e-59
0
4.10317e-50
0
2.24059e-71
1.55699e-103
0
0
4.30899e-07
2.63692e-44
0
0
2.17903e-116
0
0
0
6.10971e-83
1.73124e-81
0
3.86313e-91
0
3.40042e-10
3.65532e-121
1.60716e-64
3.95596e-74
5.20849e-05
4.52911e-06
1.10798e-87
1.10079e-49
3.61936e-16
3.79225e-100
1.6626e-49
0.00792695
3.11513e-133
4.46783e-10
3.84515e-30
7.48313e-58
3.30477e-67
1.28475e-94
1.14553e-18
4.50085e-47
3.93124e-111
4.35169e-114
2.26199e-70
2.46894e-94
0
2.44172e-26
2.68585e-11
2.20459e-44
3.12429e-29
0
6.55104e-22
6.20219e-06
0
1.07082e-49
0
4.63643e-11
0.000181805
2.27278e-99
7.53466e-90
2.45931e-140
6.43703e-55
9.41242e-49
3.60352e-10
0
0
0
9.92165e-23
3.92074e-154
1.57397e-102
0
4.91187e-101
4.33508e-106
4.32597e-124
1.77369e-105
3.5316e-40
1.35089e-31
0
1.35628e-43
0
3.36337e-92
0
3.92254e-127
0
3.85611e-21
2.73582e-137
0
4.38232e-129
0
5.99003e-109
1.84065e-22
2.0531e-35
0
1.417e-51
3.99666e-124
0
0
2.31409e-22
9.54284e-37
0.000203397
1.93951e-82
1.47748e-122
0
7.40935e-17
4.30198e-16
4.34004e-28
0
0.000206101
0.000204108
2.20231e-22
9.04656e-05
8.17009e-05
9.227e-58
1.30902e-23
4.78092e-18
0
0
4.1191e-149
4.85612e-88
5.44894e-125
1.08581e-68
0.00116357
0
5.33359e-06
1.36243e-19
9.97445e-06
5.03594e-55
0
0
8.45754e-19
1.34902e-24
6.80009e-05
2.97718e-16
5.54237e-10
7.45913e-05
0
0
1.11314e-05
9.77896e-79
0
2.25522e-19
0
4.25111e-143
0.000140494
0
0
9.53548e-117
3.36703e-99
0
8.7502e-43
0
4.17907e-123
1.07917e-24
4.08557e-13
0
2.59613e-43
3.41477e-70
4.39745e-05
1.82338e-18
1.62585e-52
2.58965e-147
2.03189e-132
2.17604e-05
1.89563e-89
2.00795e-83
1.22886e-20
0
6.77313e-56
0
1.52677e-88
5.20513e-28
4.63143e-24
8.74276e-83
2.59142e-183
1.55544e-84
0
4.64804e-86
1.77198e-31
0
1.7477e-33
7.77371e-71
4.53201e-90
4.96573e-58
0
1.96906e-123
0
0
1.65191e-110
4.04326e-79
5.33504e-86
1.15945e-86
1.09416e-80
1.8543e-41
0
6.0953e-06
8.79839e-83
1.45824e-148
3.70159e-96
0
0
0
1.77975e-26
3.55133e-06
0
6.65597e-06
0
1.54361e-16
8.36033e-23
1.8871e-06
8.4846e-06
3.42203e-16
1.56428e-27
4.63911e-66
0
0
4.28582e-64
1.29293e-127
6.91404e-94
0
1.5466e-06
3.25472e-112
9.03221e-19
1.65872e-80
7.87965e-38
0
0
0
0
0
2.57487e-21
0
3.05254e-101
0
1.7842e-37
3.13603e-34
8.4993e-56
1.35829e-41
0.000168581
0
9.39753e-05
2.13914e-164
1.22613e-151
1.27209e-33
6.79652e-05
8.0419e-05
0.000122236
6.78129e-06
1.2125e-05
9.18697e-21
1.00172e-18
7.92186e-39
9.05379e-05
0
0
9.25077e-109
0
1.41004e-27
2.66774e-19
3.29339e-17
1.53899e-48
0
0
0
2.07434e-20
1.46687e-08
1.29558e-130
0
3.30848e-121
7.02166e-11
2.80094e-11
0
0
1.39088e-09
1.02837e-14
8.87788e-23
0
2.60531e-14
0
1.50269e-24
2.02313e-141
5.95786e-13
0
1.73108e-28
1.90989e-133
0
0
1.2475e-123
1.22798e-113
5.67149e-26
0
3.69537e-95
0
9.97989e-116
5.60702e-26
0
2.48291e-110
3.02703e-26
1.63221e-15
3.27821e-13
1.15503e-36
3.91006e-14
1.62625e-24
4.83881e-12
2.59441e-62
0
2.36298e-13
1.02987e-16
0
0
4.50386e-46
0
1.28046e-26
1.05122e-38
4.29548e-21
0
4.40853e-59
5.67979e-18
0
9.70523e-30
0
1.12357e-79
0
7.4443e-18
0
0
0
7.88822e-81
0
0
0
7.98541e-21
0
2.18855e-10
3.71465e-26
0
0
4.27578e-45
0.000117085
0
1.65695e-26
1.90913e-84
3.98665e-39
2.77275e-100
5.31734e-62
4.26732e-113
0
1.9375e-113
1.78483e-84
1.39684e-114
6.31693e-28
4.36575e-162
0
1.49162e-106
0
3.70828e-117
7.07422e-149
0
3.21347e-18
0
7.58885e-136
0
4.03278e-33
0
2.5324e-28
1.77562e-32
5.08306e-118
2.78518e-28
3.88313e-80
0
2.44129e-65
6.36028e-30
2.61488e-34
3.31198e-110
1.6158e-48
1.80257e-78
2.30544e-105
5.99338e-106
0
1.62275e-119
0
1.53614e-116
1.74801e-154
0
0
0
1.57382e-20
2.05679e-139
1.07824e-56
2.26483e-106
9.24982e-38
2.30571e-104
1.80328e-32
1.98409e-55
2.91877e-16
3.75508e-106
9.02414e-108
1.04371e-109
0
8.83035e-27
4.92932e-68
0
0
0
0
7.03123e-31
5.11111e-106
3.58946e-122
0
5.48211e-103
0
1.85791e-25
3.17566e-117
0
0
0
2.26792e-75
1.30623e-93
1.13766e-91
1.26725e-53
8.68888e-121
2.80844e-143
1.41682e-52
7.72891e-20
4.15179e-126
1.22864e-107
0
4.51729e-79
4.01993e-68
3.55489e-77
3.47959e-24
1.73705e-25
3.39753e-90
0
1.22278e-112
9.19258e-25
6.5251e-108
3.40952e-16
0
5.91004e-35
0
0
2.34158e-62
0
6.85371e-103
0
2.45755e-54
1.40926e-145
0
3.372e-80
8.37155e-151
1.22626e-105
0
3.47986e-74
2.00196e-89
0.00071254
0
0
1.91768e-68
0
1.54459e-35
9.37141e-35
2.80937e-26
1.84705e-15
3.33776e-06
1.05761e-42
0
0
1.91603e-32
0
0
1.7982e-74
7.71791e-60
0.000109166
2.60668e-104
2.02507e-78
0
5.90587e-28
3.67762e-27
3.9691e-17
1.8333e-26
0
1.97308e-31
5.45879e-05
1.94907e-135
2.62239e-25
5.51799e-113
9.13963e-81
6.07638e-145
8.73285e-71
0
1.29933e-46
0
3.53642e-05
5.39873e-13
2.0648e-06
5.79945e-09
6.23051e-06
1.76651e-31
1.53085e-136
7.01491e-125
4.89133e-110
5.88859e-108
0
1.55931e-132
6.89339e-136
7.06688e-116
6.8797e-05
1.20224e-20
4.77019e-31
2.97184e-30
2.81014e-95
8.78812e-08
4.80603e-50
1.54567e-22
1.84907e-33
8.5915e-137
0
0
0
0
1.35598e-23
0
1.62758e-06
0
2.58717e-07
0
1.64262e-33
0
1.28137e-22
0
1.98352e-21
3.01259e-44
0
0
0
5.028e-17
0
7.20805e-23
2.78546e-135
4.44964e-89
8.82428e-12
1.68287e-110
1.63477e-34
3.28538e-138
0
0
6.79676e-121
9.40671e-107
9.89489e-109
1.05346e-29
3.29745e-104
0
0
1.87524e-29
2.14662e-108
2.42545e-80
0
1.37309e-69
3.1952e-106
8.59613e-106
0.000227863
0
1.20031e-22
5.67643e-05
2.27939e-24
5.65674e-144
0
1.04714e-32
9.00557e-108
5.65199e-106
8.43427e-12
4.01721e-28
2.78802e-100
0
4.0001e-05
2.7759e-40
0
1.13058e-48
8.10431e-57
1.86071e-122
0
1.89249e-80
0
3.32734e-05
0
0.000105493
4.0502e-70
1.454e-39
0
7.68219e-148
6.60378e-23
5.53186e-134
4.91161e-99
2.85692e-63
0
0
8.2846e-05
1.70421e-55
1.07142e-05
7.15917e-51
1.19184e-23
1.19564e-52
1.29592e-47
6.63893e-82
1.74034e-104
1.91189e-39
0.000329646
3.81761e-17
4.0269e-34
1.15223e-21
0.000103988
2.37915e-49
1.7289e-20
8.84958e-12
0
5.99848e-06
1.00187e-14
3.12454e-53
1.08343e-117
1.53312e-09
2.41261e-10
1.45515e-08
1.01811e-10
6.04725e-19
9.4672e-22
0.000133508