/*--------------------------------*- C++ -*----------------------------------*\
| =========                 |                                                 |
| \\      /  F ield         | OpenFOAM: The Open Source CFD Toolbox           |
|  \\    /   O peration     | Version:  v2012                                 |
|   \\  /    A nd           | Website:  www.openfoam.com                      |
|    \\/     M anipulation  |                                                 |
\*---------------------------------------------------------------------------*/
FoamFile
{
    version     2.0;
    format      ascii;
    class       volScalarField;
    location    "2.5";
    object      CO2;
}
// * * * * * * * * * * * * * * * * * * * * * * * * * * * * * * * * * * * * * //

dimensions      [0 0 0 0 0 0 0];


internalField   nonuniform List<scalar> 
108993
(
2.19952e-70
5.40661e-47
4.06686e-55
1.1528e-159
3.02604e-155
0
0
0
9.40084e-121
3.31518e-79
0
1.02688e-102
0
0
0
7.54651e-24
1.73697e-74
0
7.28095e-155
2.33829e-76
5.85351e-160
3.34762e-138
1.44614e-86
0
6.31561e-164
1.07226e-112
0
0
1.83982e-89
0
1.16872e-130
0
0
5.75792e-55
0
0
1.54618e-139
0
2.39636e-07
4.50524e-10
0
1.99398e-116
0
5.50984e-165
4.69027e-32
0
0
0
0
2.95582e-80
0
5.09124e-18
0
0
4.05681e-108
1.41564e-96
1.31249e-143
3.25891e-139
1.80651e-133
0
9.21336e-132
0
2.9843e-115
3.16851e-151
4.70734e-154
9.85184e-92
0
9.36581e-144
0
8.45422e-29
7.35236e-124
6.13002e-150
2.13406e-145
7.04368e-148
6.47219e-85
0
0
7.5933e-58
1.49735e-149
7.57257e-161
0
0
0
5.45036e-115
0
2.62142e-110
0
0
1.24192e-148
3.34601e-157
7.9994e-147
1.84699e-131
0
0
0
7.71986e-89
0
5.28039e-113
0
2.10527e-139
2.66715e-140
5.18542e-136
8.2385e-116
0
0
0
3.17335e-110
0
0
3.50645e-15
0
2.72195e-145
0
2.17657e-29
0
3.41288e-29
1.35042e-150
1.97806e-83
2.30738e-20
0
1.2829e-100
2.81299e-126
4.97051e-24
1.84887e-68
2.44482e-148
4.21123e-37
5.19847e-65
6.28302e-82
3.295e-127
3.1624e-131
4.0583e-81
3.43016e-130
0
2.03522e-14
1.54713e-127
0
3.55073e-125
5.39445e-122
2.46919e-115
3.23145e-101
8.95058e-69
5.18791e-127
1.26219e-28
1.87788e-127
2.76273e-129
6.58001e-144
5.54838e-119
0
6.85462e-67
0
0
0
5.21288e-56
1.265e-08
0
1.52122e-41
0
4.60894e-144
1.21252e-139
1.24865e-15
6.93679e-09
4.01375e-143
3.09757e-131
0
0
1.50393e-24
3.11227e-154
0
9.15204e-150
1.29712e-117
0
6.4697e-104
9.36442e-23
1.06922e-115
0
3.78789e-102
1.39143e-10
6.96749e-152
7.48791e-100
0
0
1.18161e-131
2.70785e-143
2.19283e-74
2.29762e-95
0
5.02347e-147
0
0
1.37424e-71
0
1.6537e-142
0
6.38943e-12
2.08136e-126
3.52723e-53
3.28958e-67
0
8.4879e-124
1.56813e-72
4.7573e-151
1.07427e-15
7.10534e-151
3.06139e-143
0
1.02704e-19
0
1.02259e-18
7.86895e-105
0
1.37726e-25
0
1.91725e-10
1.94047e-25
0
0
2.1635e-103
0
1.87885e-142
5.31018e-127
5.36355e-99
2.64144e-11
1.8011e-36
2.14742e-15
0
4.95538e-152
3.61383e-144
3.88135e-79
0
4.548e-110
4.24509e-09
1.8211e-114
2.20598e-150
0
0
0
8.26983e-133
2.41445e-130
0
0
7.81314e-136
9.03505e-96
0
1.30853e-145
0
1.50812e-23
1.94684e-27
9.17263e-24
4.97105e-140
0
0
0
0
7.18922e-122
4.26824e-142
1.54614e-141
4.33709e-142
6.35511e-79
8.80425e-124
2.32007e-146
1.44921e-84
0
2.1847e-38
4.24379e-35
0
5.13428e-85
3.69275e-85
3.29784e-100
1.57685e-143
9.90352e-109
1.08987e-165
2.37619e-61
1.33075e-36
0.000204339
2.88852e-30
1.56778e-105
3.24208e-138
2.90981e-20
0
1.14585e-70
1.53602e-70
8.02337e-23
5.44929e-21
0
3.24229e-121
0
1.096e-155
6.97632e-75
3.21025e-67
2.64586e-34
3.89902e-100
6.49881e-97
8.38473e-73
2.87818e-92
0
3.24932e-83
1.14304e-126
4.53387e-88
0
1.75143e-161
9.56441e-23
0
0
4.36654e-164
1.90018e-114
4.22581e-109
2.50761e-140
4.5365e-81
1.63225e-106
0
0
1.45784e-129
4.78425e-51
1.78941e-137
9.55141e-104
9.04448e-15
0
1.45972e-52
0
4.60872e-111
1.28972e-51
2.05823e-153
2.96487e-105
4.96996e-108
0
0.000290962
0.0055094
1.0264e-11
0
5.32433e-50
9.31996e-101
2.53568e-13
8.37652e-08
3.30078e-106
0
0
8.53504e-130
0
1.76203e-111
4.56656e-125
0
0
2.84744e-79
0
2.57341e-102
1.09802e-114
3.86149e-74
0
0
3.46758e-72
3.09614e-104
0
0
2.30322e-47
0
0
0
4.27749e-23
7.08557e-110
1.23617e-153
3.36563e-50
9.7771e-81
9.23945e-75
2.03267e-73
8.35394e-90
9.09186e-72
2.33327e-76
5.23125e-124
0
0.0172816
1.73024e-34
9.56854e-58
3.01848e-71
1.1634e-05
1.89442e-70
1.90542e-06
0
0
1.69752e-11
0
4.94546e-10
7.44545e-11
8.83251e-77
6.14615e-18
2.53208e-110
5.50063e-103
8.68363e-63
0.0172541
3.59859e-78
2.70879e-26
1.09612e-09
6.56288e-105
2.1722e-09
4.72684e-94
3.0799e-42
1.25156e-70
0.000482908
4.24796e-152
5.96631e-35
7.47312e-122
1.4565e-68
0
3.38733e-22
3.19695e-127
6.03357e-106
0
1.08804e-97
6.2031e-121
2.88919e-49
0.00166813
0
4.45415e-83
0.0405822
2.56433e-120
4.89846e-98
1.50027e-117
1.04204e-05
9.45002e-37
5.3086e-49
1.08145e-150
0.00346587
6.26151e-48
8.18626e-05
7.61582e-159
9.1633e-151
1.88045e-05
3.1527e-139
0
0.000387818
1.4428e-167
0.000131961
1.84305e-10
0.000399896
1.70283e-134
1.7522e-123
4.94149e-80
3.73995e-123
2.84582e-100
1.87263e-142
1.73018e-115
1.4979e-107
2.05163e-84
4.94598e-80
1.77938e-148
9.23835e-23
1.53996e-26
1.77541e-33
2.41421e-24
0
7.90077e-152
0
2.43046e-151
6.80012e-80
0
6.81847e-140
3.45274e-119
3.83233e-105
0
8.21083e-96
0
0
1.15204e-52
9.2994e-29
0
3.66693e-34
6.63459e-62
0
0
1.44005e-60
2.3881e-58
0
0
1.0742e-121
0
8.0654e-140
0
0
0
6.67152e-47
6.55383e-19
7.06599e-120
2.02409e-114
4.29365e-112
6.1136e-78
1.74067e-41
2.17577e-64
2.6112e-58
3.04258e-63
6.91268e-26
0
2.35572e-108
3.06988e-77
0
1.54905e-58
1.28557e-27
0
1.8746e-40
1.8722e-94
9.17752e-72
0
1.15784e-138
0
0
1.22796e-66
2.72649e-37
1.62844e-22
7.90928e-75
0
0.0554145
7.91184e-72
3.37373e-25
4.58345e-32
5.54689e-114
5.61918e-66
1.43759e-74
2.65586e-143
3.44563e-120
1.28781e-75
1.14739e-79
1.70541e-88
2.26236e-97
1.0761e-98
4.517e-37
0
6.41053e-86
5.10996e-10
4.0085e-99
4.30647e-82
8.2786e-09
0
5.33561e-122
6.27602e-140
4.44149e-12
0
0
0
0
0
3.13102e-51
1.76699e-46
5.15673e-115
3.19972e-38
1.96407e-162
0
0
1.30916e-100
1.30038e-121
3.39133e-12
4.10808e-109
1.24838e-140
1.13722e-21
0
1.46807e-17
0
2.89232e-109
0
0
5.99137e-57
0
0
3.07511e-52
0
0
5.49175e-43
8.78128e-46
3.3363e-12
0
1.45268e-110
3.03302e-62
0
1.11543e-64
1.14677e-39
0.0713093
1.53389e-42
0
3.45019e-47
0
9.65794e-47
0.00100225
2.85629e-23
2.11982e-53
0
7.71476e-74
0
0
2.59897e-34
7.48054e-20
1.33365e-40
1.70325e-97
2.99914e-151
5.34322e-60
4.91261e-136
5.9477e-78
1.37315e-73
0.000213168
0
9.69361e-118
0
0
2.27132e-34
1.79555e-68
1.40472e-86
1.82637e-05
6.44085e-53
0
0
0
1.50805e-137
1.11161e-42
1.87542e-69
3.35577e-09
0
0
2.6592e-65
7.68648e-51
0
4.18754e-33
9.07404e-140
4.3595e-23
0
4.82286e-19
8.62443e-139
3.42762e-76
0
0
1.53065e-123
3.55686e-108
5.7638e-33
1.01976e-14
2.12426e-36
8.65237e-09
1.28959e-66
2.25502e-30
8.32437e-14
3.44881e-37
6.94726e-128
7.28519e-134
0.0188476
1.17625e-20
1.66183e-30
0
1.08194e-28
0
7.65761e-32
1.56028e-113
2.05206e-35
2.20622e-64
6.2013e-32
8.86964e-34
1.24119e-35
2.58503e-37
6.61093e-25
2.01709e-39
3.13765e-25
0
3.33976e-78
2.50711e-06
1.39568e-24
9.35268e-26
3.98424e-22
0
7.12461e-124
0
1.41988e-94
7.87986e-121
4.68966e-69
0
2.4868e-45
2.70388e-36
4.20668e-41
2.4173e-41
0
3.95457e-26
1.23216e-23
0
7.58061e-138
4.2336e-22
8.85172e-56
2.06473e-130
2.99452e-23
2.2958e-45
1.41852e-30
6.96442e-27
2.29815e-39
1.38218e-30
2.76166e-40
1.55945e-10
0
0
0.000651706
0
0
6.13748e-34
9.46691e-97
1.6797e-103
0.0144361
1.38712e-71
0
0
0.0316073
1.0625e-35
4.87208e-105
1.56115e-143
0
3.32853e-32
6.87335e-151
2.01312e-38
2.71209e-76
6.92004e-116
0
0
8.10586e-33
0.0174065
5.75303e-84
0.0265872
3.35823e-66
0
0
0
4.18661e-37
0
1.26146e-30
9.81433e-23
8.3438e-25
0
1.52363e-31
2.48831e-25
0
2.11484e-33
0
2.25876e-28
9.86738e-30
5.74199e-23
1.49628e-27
4.63486e-74
1.878e-160
3.09213e-40
1.00802e-153
6.25569e-64
0
0
1.07661e-25
1.03506e-06
9.76354e-13
1.40443e-40
2.65264e-33
3.03591e-33
2.25807e-33
2.06559e-38
2.01728e-22
1.33008e-89
0
3.45187e-152
0
1.33121e-156
1.68901e-26
3.52732e-150
1.51452e-30
8.76685e-27
0
1.55485e-32
1.92669e-149
0
0
3.86398e-34
0
0
1.0828e-40
7.95059e-166
1.64274e-77
0
5.17843e-14
0
5.09345e-20
0
0
4.76158e-52
0.00172644
2.72188e-17
6.98526e-62
2.02204e-75
7.8411e-12
5.0099e-50
7.39437e-52
1.04891e-39
6.27296e-84
3.33896e-26
2.13346e-176
3.41072e-112
0
7.63831e-139
1.63902e-19
3.02636e-117
3.58188e-88
2.14274e-12
4.23254e-39
3.9284e-06
1.40445e-69
2.87141e-09
1.90221e-114
0
4.85587e-39
8.61451e-146
2.11777e-59
3.41185e-42
1.48907e-108
2.74235e-91
0
1.16673e-87
5.46465e-88
3.40895e-50
0
0
0
1.45524e-93
0
1.25548e-108
5.32243e-97
1.04305e-05
0
3.4415e-05
1.59363e-78
6.74321e-95
1.15419e-57
0.0467901
2.95479e-21
2.77791e-109
4.1104e-30
3.78906e-47
4.13863e-62
1.07159e-71
6.64136e-22
0
9.85018e-48
2.19261e-22
0
1.42679e-43
2.89861e-30
1.01687e-07
1.06937e-42
0
2.65138e-48
6.21165e-39
1.26269e-39
1.39666e-104
6.99595e-22
0
0
0.00135456
0
0.00443724
2.84429e-45
0.000899765
0
8.04363e-32
1.59778e-110
2.96555e-16
6.53185e-68
0
0
6.14136e-114
3.84e-16
1.05257e-46
0
0
1.37571e-125
3.12379e-71
0
2.37447e-50
0
2.85521e-152
0
7.68034e-25
8.8389e-19
2.11819e-111
0
3.91299e-34
9.29937e-23
0
0
3.60911e-19
1.01327e-14
1.04907e-38
3.78361e-28
3.58831e-64
7.06521e-08
2.49773e-145
1.16657e-07
6.17468e-21
0.00982209
0
0
7.34562e-19
9.61096e-36
3.12452e-46
1.7462e-119
7.65094e-158
0
1.53448e-24
0
6.23215e-11
9.55649e-29
0
8.63729e-09
2.87683e-129
2.02667e-114
3.77119e-05
0.00480923
7.26888e-81
1.45432e-52
8.61582e-183
2.72571e-116
2.5744e-30
1.84189e-16
1.62365e-06
3.78432e-72
0
5.24629e-18
1.92399e-32
0
0
3.61626e-33
6.61867e-105
8.07686e-103
1.9412e-147
3.85396e-36
1.06894e-70
2.5229e-18
3.10449e-131
0
4.3812e-36
5.72574e-126
1.52906e-29
9.429e-37
9.16531e-37
3.45558e-40
6.22822e-112
7.1099e-11
9.42068e-113
0.000229565
0
7.48534e-64
1.87217e-139
5.53182e-55
1.18989e-19
3.29093e-123
5.19531e-77
1.42204e-07
3.74121e-32
0
3.22691e-122
1.38339e-44
0
0
0
8.61854e-22
7.68064e-09
6.99754e-42
3.65887e-80
4.9288e-41
4.44063e-53
3.57385e-56
4.60367e-24
0
9.50066e-10
5.61242e-11
9.71218e-56
1.3976e-25
9.11662e-54
5.89498e-42
0
3.13041e-15
0
0
3.27051e-136
4.16062e-08
0
0
1.68536e-140
6.79344e-09
0
1.08577e-57
1.1543e-63
1.35515e-132
0
0
4.18774e-92
3.7211e-22
0
7.38066e-71
0
0
0
0
0
2.46835e-135
0
1.09602e-131
0.000140036
1.23961e-27
2.61657e-95
1.44262e-61
0
0
4.27067e-23
2.78378e-37
0
0
2.22883e-35
6.18386e-112
9.04133e-20
4.27768e-15
0
1.14654e-142
0
0
7.60511e-122
0
4.45955e-34
6.27029e-125
3.81269e-147
0
0
6.51322e-15
1.75212e-62
2.15248e-35
5.26769e-140
0
5.44361e-39
2.12891e-18
0
0
6.84565e-63
4.97651e-93
1.69476e-49
0
2.88537e-105
0
8.22628e-113
0.00082758
1.52287e-72
1.64009e-25
5.47206e-121
1.26455e-20
2.93544e-27
1.16462e-126
1.48278e-26
7.05588e-53
1.70179e-34
1.41008e-38
9.04048e-07
7.58091e-48
0
7.26387e-28
0
0
3.08264e-124
0
3.64598e-30
1.37807e-19
0.0148525
0
0
2.43472e-39
3.03516e-73
1.39282e-13
2.67981e-45
5.77159e-15
3.31357e-48
1.17295e-16
1.70648e-41
0
8.3056e-18
3.84375e-21
7.83719e-93
0
8.19885e-150
1.7543e-81
0
2.66669e-153
1.09411e-42
0.000532444
0
0.00971298
1.41275e-34
8.63513e-75
0
4.00676e-23
2.46079e-18
0
4.56687e-34
3.99412e-60
0
1.24478e-150
1.43104e-41
0
3.15595e-22
0
0
3.89721e-151
0
2.25156e-62
2.66856e-138
0
0
0.065576
3.17023e-39
4.3126e-155
0
0
1.80572e-78
2.13596e-96
1.01774e-151
9.19041e-57
0
1.12231e-66
0
2.24705e-65
8.93368e-66
1.48617e-119
0
0
1.06337e-82
0
0
0
5.51622e-20
1.55522e-35
2.00718e-47
2.11558e-23
2.12159e-58
7.32897e-159
0
0
5.3394e-111
7.56492e-57
0
1.38386e-52
2.41302e-76
2.84615e-17
9.0843e-77
1.44741e-45
0
1.74247e-108
7.80102e-59
0
0.000789935
0.00706899
0
0
9.31531e-94
0
6.76596e-48
8.19249e-110
3.66225e-58
0
0
0
6.68609e-119
3.22464e-160
1.99468e-125
8.12375e-33
1.77693e-76
3.06097e-55
2.30267e-44
5.65739e-42
1.33189e-35
1.6824e-13
1.18926e-28
3.38614e-29
0
9.53157e-56
2.25765e-14
2.47694e-163
3.1985e-29
1.22656e-101
1.96369e-104
3.39107e-104
0.00218844
4.50316e-19
2.32952e-146
7.49491e-08
3.71485e-123
7.06623e-08
3.91767e-10
4.01376e-100
1.6379e-77
1.33202e-60
5.259e-48
0
2.18552e-45
4.13292e-154
0
0.0318729
1.00679e-15
1.10256e-95
4.49375e-161
2.72182e-16
5.67505e-150
0
0
1.67308e-134
4.32355e-144
0.000759203
0
6.7826e-25
0
1.66069e-35
0
0
2.80512e-41
9.28612e-77
6.68405e-129
4.20655e-09
2.22337e-31
0
1.30067e-09
0
2.66765e-08
2.1833e-69
0
5.86002e-52
1.00252e-121
3.29981e-60
0.0621992
3.26958e-102
6.32913e-60
2.55291e-109
1.27845e-09
9.04668e-85
6.37549e-98
0
2.24431e-47
0
0
2.42148e-102
1.85444e-38
4.79066e-52
0
0
2.49381e-53
1.66495e-127
0
0
8.23102e-27
7.61628e-36
0
1.6173e-25
3.70422e-112
1.6601e-125
0
0
6.90622e-06
0
2.45669e-24
4.62092e-45
0.000972073
4.33641e-26
4.14299e-97
0
1.8924e-26
1.07333e-74
5.41573e-37
0
1.07239e-38
7.18245e-45
0
2.52426e-138
0
3.64615e-36
0
0
0
3.32403e-45
4.0662e-72
4.02194e-112
2.32055e-103
2.24991e-94
0
1.69643e-60
1.04326e-63
4.12197e-22
6.88025e-122
6.30117e-69
1.29968e-97
1.04918e-42
0
5.84421e-99
2.67872e-82
0
8.91445e-06
5.88524e-100
1.80118e-06
8.58174e-33
1.13331e-81
0
9.01947e-100
0
4.6257e-107
4.11292e-56
3.19794e-43
0
1.38683e-45
2.88457e-44
1.01866e-122
1.60621e-44
1.51747e-06
2.94293e-46
0
0
9.4723e-24
8.54837e-32
0
0
1.28884e-128
0
6.5711e-39
0
4.8914e-134
3.80973e-39
0
0
5.6792e-48
2.0748e-14
0
0
1.99942e-24
3.16376e-118
2.15169e-25
2.08596e-133
0
0
1.54838e-80
1.96761e-105
1.57218e-36
0
6.16011e-14
1.10004e-31
4.94047e-05
0
2.49428e-113
5.67227e-73
0
1.18229e-37
4.10962e-37
7.12882e-56
2.45381e-09
3.31672e-135
0
4.22766e-50
1.54257e-39
2.04584e-126
2.52752e-41
4.36196e-39
3.35193e-07
1.86037e-08
0
9.50551e-126
5.56984e-30
0
1.36522e-55
1.56508e-22
1.8345e-42
3.54659e-45
3.0142e-98
7.04456e-56
0
3.5185e-41
0.0477671
1.74277e-32
7.33889e-58
4.22584e-26
4.70737e-13
0
1.38135e-30
0
2.85577e-60
2.57965e-46
7.5477e-55
6.72873e-27
7.93296e-45
2.89988e-142
2.59079e-59
1.36988e-32
0
1.3776e-29
0
5.60269e-57
1.08661e-16
0
1.37137e-125
1.78962e-23
0
7.69759e-137
0
1.8391e-61
8.87991e-17
3.06646e-123
1.42456e-108
1.14742e-05
0
7.91556e-26
0
3.06634e-22
0
9.47831e-69
3.83454e-37
1.08663e-37
0
3.60851e-20
0
1.77214e-51
2.79461e-27
3.34755e-142
7.348e-133
8.76521e-114
9.88979e-20
1.09703e-29
2.27023e-79
7.51956e-30
4.50333e-105
4.38227e-13
4.84624e-16
1.22607e-07
4.59383e-26
0
0
0.0100723
3.24453e-78
9.06859e-87
0
0
4.76995e-134
1.90683e-136
1.53755e-112
1.7371e-154
5.62023e-28
1.22931e-22
1.36493e-40
0
0
1.62178e-97
1.75778e-125
0
0
1.74022e-118
3.47564e-06
1.48411e-15
3.19408e-110
5.74646e-87
2.96523e-78
0
1.55232e-43
7.58951e-78
1.53532e-46
7.98759e-80
8.53137e-86
0
8.75992e-46
9.78589e-11
0
6.42283e-24
0
1.43121e-83
0
4.52891e-22
3.89246e-97
7.38592e-99
4.87523e-109
0
2.38135e-22
0
0.0342896
7.6596e-113
2.40297e-146
0.0538654
0
5.33006e-48
2.04183e-69
1.60753e-100
3.65906e-38
2.5809e-109
1.02109e-48
0
1.60751e-47
0.0312179
4.51677e-15
1.86719e-50
0
1.25372e-24
5.43453e-145
1.38516e-14
0
0
2.80658e-107
3.56748e-89
1.85707e-128
1.76932e-90
3.45621e-56
3.35152e-129
0
6.17721e-06
0
2.0674e-14
1.1268e-141
5.00019e-93
2.10451e-08
3.85837e-24
1.00625e-105
3.0676e-26
0
2.19172e-103
1.04032e-51
1.27773e-36
4.96014e-12
0
0
0.000638706
2.88636e-08
4.44287e-07
0
0
2.85448e-54
0
2.11815e-10
0
0
0
1.85064e-93
0
1.89005e-22
3.32927e-56
1.59225e-78
5.91216e-21
2.94415e-78
0
1.79425e-20
0
4.5537e-10
2.13522e-113
2.17452e-128
0.00601391
3.24032e-164
1.06017e-58
5.70444e-33
0
0.00836653
0
2.16723e-73
3.12743e-62
3.99843e-63
1.31678e-69
0
1.2858e-16
1.39192e-16
9.49832e-19
7.35773e-06
0
1.27753e-11
0
1.26617e-65
0
1.26278e-76
1.45684e-64
2.7369e-69
9.52723e-85
1.64566e-58
8.44435e-48
1.08521e-62
0
4.7623e-40
2.82067e-06
0
7.50142e-13
4.94583e-15
7.93174e-22
0
9.38266e-18
3.14743e-73
5.66043e-66
1.27067e-86
0
0
0
0
2.81592e-16
3.15786e-33
0.00210439
0.000621803
0
0
0
1.00736e-13
4.70738e-26
0.0380093
0
6.41959e-21
0
3.83545e-10
2.85965e-64
5.5849e-23
6.65166e-85
0
0
8.45998e-139
3.01107e-10
4.81037e-134
3.1013e-44
0
0.0137347
4.25255e-14
0
0
0
5.6483e-09
1.32002e-25
1.86522e-10
0
8.66382e-25
0.0566808
6.93288e-111
4.70695e-80
2.07411e-49
0
2.20875e-46
3.61262e-74
5.89418e-44
3.19642e-09
6.24469e-45
2.73333e-48
3.52449e-06
4.60963e-25
2.80394e-42
1.87875e-54
2.58068e-07
9.29305e-05
8.57148e-22
0.0374356
0
0
0
0
0.0385823
6.3123e-24
8.02037e-43
0
2.24425e-45
2.00347e-15
0
2.33995e-119
0
3.00293e-38
0
0
6.75002e-45
9.93256e-86
2.88315e-05
0.0131476
3.90813e-54
0.0362581
1.24858e-41
1.95168e-152
4.00606e-36
1.57308e-07
3.42265e-21
1.22457e-13
1.5255e-14
2.41074e-10
0.00017897
0.0323155
8.77169e-13
6.83184e-40
1.83287e-09
0
1.15176e-47
2.18472e-53
0
1.05839e-34
3.38745e-08
9.49103e-15
9.13549e-23
2.70435e-10
1.77885e-07
5.51671e-37
0
5.33126e-54
0
8.67082e-115
1.57662e-38
2.00429e-89
6.84396e-36
0
0.000249813
0.00531375
0.000279477
0
0.0112247
0
0
7.62825e-38
9.30169e-07
4.29789e-13
0.00040752
1.84944e-56
1.64173e-49
0
0
9.12626e-147
3.96315e-134
1.2923e-25
0
0
0.0460847
0
7.17485e-39
0
4.23569e-07
2.45651e-12
0.00947913
7.34452e-150
7.88009e-05
6.93862e-38
2.72695e-126
8.72042e-81
2.48124e-11
3.02351e-23
2.18742e-150
2.13723e-112
0
8.70066e-74
0
0.000784584
0.000413395
0.00161593
1.33914e-12
3.68429e-121
0.0018377
4.51631e-28
5.2582e-149
0
8.66006e-78
0
0.0152903
1.74157e-66
3.86101e-77
1.44747e-05
9.67414e-72
9.00179e-46
3.612e-73
2.5587e-51
0
2.10525e-91
2.98599e-22
1.9385e-33
1.14042e-53
4.63149e-20
4.26367e-20
4.68266e-30
0
2.58616e-53
1.86763e-86
6.84065e-48
1.41042e-43
3.83307e-55
1.40475e-23
7.47598e-19
2.97955e-56
0
0
7.82833e-46
1.30565e-138
1.3372e-47
1.27289e-45
1.45029e-06
0
8.69416e-11
3.73729e-15
0
4.2348e-144
0
6.66367e-44
8.12316e-28
3.91716e-35
2.96843e-110
1.49171e-20
0
1.33518e-92
2.86443e-23
0
1.69272e-44
2.98341e-40
0
1.20176e-31
0
5.61842e-69
1.8778e-15
1.07255e-22
1.68627e-32
2.4246e-74
1.01819e-20
5.0248e-37
1.29273e-32
2.26733e-34
0.00685135
0
3.62871e-80
8.39413e-28
1.15081e-05
0
7.07412e-08
0
2.43657e-38
6.59895e-112
4.11839e-137
0.0933267
2.54865e-30
9.38808e-16
3.58705e-26
4.89897e-16
2.19851e-05
4.58371e-10
1.02616e-159
3.99135e-28
3.33049e-137
1.86312e-29
6.62579e-72
1.49167e-34
3.50665e-30
4.97381e-84
1.51082e-24
0
1.79664e-41
3.57293e-36
0
1.04003e-68
3.28325e-27
8.17265e-73
3.49524e-76
0
1.47936e-140
3.0704e-44
0
4.22082e-35
0
0
4.53949e-130
0
6.4266e-76
0
2.80137e-25
1.01755e-116
9.19471e-113
0
1.03495e-73
2.73837e-55
0
3.17921e-14
2.351e-69
2.30233e-121
1.22177e-35
8.48551e-92
0
0.013907
0
0
7.465e-37
1.76765e-58
1.08746e-08
0
1.53309e-93
2.09732e-164
1.83942e-137
0
0.0119468
0.0314717
9.86445e-38
0
0.0591637
9.61207e-53
1.03335e-31
5.9308e-168
6.35521e-17
2.18947e-107
0.000441659
3.13321e-35
1.25806e-105
0
0
4.94824e-31
0
0
1.02388e-18
5.42405e-31
0
1.46497e-28
3.93591e-18
4.0374e-91
0
2.14757e-83
9.04465e-20
1.17458e-84
1.04194e-173
1.7778e-113
0
0
1.81461e-22
5.52592e-06
3.23118e-169
1.12065e-166
2.09966e-21
2.82929e-155
0
3.41387e-52
0
9.60149e-11
9.22516e-20
0
0
0
0
4.15246e-24
0
3.32875e-24
2.46503e-70
1.69147e-14
1.61217e-48
1.0394e-98
0.0381389
2.3209e-33
0.000692392
1.42702e-09
2.50804e-19
1.1766e-34
2.06341e-75
2.30628e-122
1.28754e-10
0
2.33183e-19
1.18125e-14
8.62061e-58
0
4.07131e-73
1.81703e-06
1.77417e-32
6.70625e-31
6.67374e-74
0
2.38282e-40
0
4.29084e-12
0
2.87335e-125
7.18658e-130
0
2.62507e-32
3.60157e-24
6.02466e-95
0
0
3.94109e-13
1.05677e-33
8.40021e-16
1.25503e-154
0
9.87807e-15
2.07608e-15
4.51738e-161
5.20434e-62
1.61893e-17
4.16946e-57
9.00664e-57
0
5.19018e-28
1.43017e-24
0
1.50366e-160
5.25069e-19
0.0508865
1.11596e-18
5.66584e-23
5.56925e-68
0.00128806
0
0
0.00441298
0.04505
0.00800848
0.00206626
0.0022535
0.00147496
0
0.0584638
5.38396e-25
1.59062e-26
4.82254e-163
4.72297e-08
0.00290013
7.03613e-147
1.73937e-31
0.00500402
0
0.0154229
1.60102e-163
6.68818e-20
3.35832e-27
7.41303e-13
1.65426e-40
8.26336e-16
1.47978e-98
0
1.58703e-55
1.39547e-49
1.00084e-05
1.40472e-114
1.6112e-11
0
3.6592e-157
9.66309e-162
0
9.84704e-61
2.11517e-62
0
7.64489e-23
0
8.74978e-30
5.33914e-62
0.00683506
4.93749e-159
4.41571e-19
0
3.14031e-44
6.4241e-17
0
1.07185e-159
6.49086e-71
6.22971e-45
0
4.22742e-06
3.69853e-07
0.0204576
5.69099e-22
1.56472e-40
1.67648e-43
0
0
0
3.24409e-37
0
0
5.83607e-30
2.76047e-08
1.09171e-44
4.3061e-41
3.42783e-67
0
2.18268e-26
0
1.23187e-58
0
3.47976e-26
2.43667e-08
1.84707e-94
0.000340309
0
4.97979e-73
4.95894e-12
2.73203e-13
9.88403e-110
2.33959e-55
1.26199e-73
0
2.34722e-65
0
0
1.15227e-42
6.24454e-74
1.28716e-72
5.72842e-96
5.78284e-72
0
2.38903e-75
5.20903e-21
3.03069e-75
0
6.43485e-77
0
2.24254e-40
9.63759e-07
9.13412e-13
5.443e-84
0
0
0
0.00165556
0
0
0.00227205
0
0
0
1.92591e-42
0.00127886
4.77917e-76
9.93233e-76
2.05924e-67
0
0.00251463
0
7.82852e-117
0
3.32863e-56
3.44184e-66
5.10627e-115
8.74172e-90
5.64593e-75
8.96419e-111
5.68306e-25
6.48158e-66
4.48686e-114
1.13433e-43
0
9.19306e-48
1.26098e-18
2.4767e-73
1.13502e-117
7.23755e-13
1.79504e-14
0
9.47201e-111
0
0
0
0
6.80305e-72
7.79428e-16
0
4.29872e-59
0
0
3.04348e-61
0
4.88241e-30
1.0158e-21
6.9999e-12
0
1.17452e-09
2.40979e-31
7.80369e-09
6.72813e-109
1.02033e-68
0
2.20253e-110
0
0
2.24599e-106
1.61604e-12
0
7.05037e-109
5.00616e-29
6.76042e-56
4.20788e-20
2.27731e-61
4.8239e-19
9.49225e-57
7.2894e-64
1.22981e-16
1.7474e-111
0
3.53441e-87
1.37953e-51
0
3.23024e-36
1.48123e-16
5.47316e-68
1.93352e-16
2.43831e-28
2.54787e-14
8.62463e-66
0
0
2.75697e-10
1.14428e-40
4.1031e-32
2.11925e-54
1.19375e-108
1.95887e-65
5.25361e-53
2.10312e-49
6.65847e-26
4.29174e-102
2.61388e-103
1.01144e-55
2.82609e-29
1.32645e-31
0
2.70639e-51
0
0
2.6049e-73
1.18524e-85
2.72625e-46
6.96337e-48
0
8.81256e-84
9.44595e-88
0
1.22147e-83
2.74967e-80
1.24617e-75
0
0
0
1.52377e-13
0
7.7363e-12
0.0141975
4.79337e-133
0
1.81362e-22
3.2025e-87
0
0
2.06247e-142
2.38862e-89
6.8027e-29
4.97926e-17
7.97184e-48
4.1813e-76
3.7249e-34
5.55853e-145
7.12397e-40
1.07299e-11
1.31512e-143
0
3.43455e-15
1.40881e-144
2.60938e-90
0
8.25504e-96
9.35696e-40
0
4.39849e-67
0
2.17923e-21
0.00681256
1.13342e-27
9.44212e-53
9.00398e-107
2.32075e-141
9.41554e-100
0
0
6.12495e-109
1.84787e-108
3.11921e-69
3.46278e-38
4.83094e-84
5.35939e-107
3.53996e-104
1.13237e-16
0
1.43116e-11
6.03961e-19
2.30152e-25
1.5773e-85
1.96413e-20
0
4.10971e-95
2.24433e-82
6.19072e-06
0
1.49389e-77
9.16225e-49
1.19567e-20
1.82914e-68
1.43262e-71
4.76809e-19
0
8.55788e-17
0
0
3.38453e-65
3.05335e-74
1.04014e-20
0
6.79332e-20
4.05045e-78
0
3.45407e-22
7.40951e-84
6.18574e-102
0
6.91927e-19
2.13016e-74
9.80738e-22
1.38562e-22
0
7.6777e-16
3.54033e-19
3.05745e-29
2.24572e-23
7.1658e-98
3.41392e-28
0
4.47648e-32
0.0034309
0
0
5.75646e-51
9.73014e-55
5.54577e-53
0
0
6.46319e-62
0
0
0
5.3707e-51
2.74392e-46
3.34143e-141
0
7.59319e-115
2.18447e-37
0.00450831
6.35241e-108
5.02189e-30
3.127e-31
0.00796593
3.96389e-115
0
0.0535884
2.4109e-121
0
4.58628e-44
1.89895e-38
4.5594e-99
1.08313e-32
9.43157e-120
2.47094e-120
0
2.4305e-122
0.00153484
4.23199e-59
6.14026e-62
0.00011269
1.67499e-14
3.52726e-114
1.20558e-74
0
6.76876e-65
2.11661e-118
1.66736e-73
3.743e-21
0
2.32211e-28
3.20263e-47
8.3293e-25
1.49978e-07
2.4146e-60
8.03509e-93
0.0266068
2.09093e-34
0
0
9.90856e-11
3.53745e-36
1.26415e-30
4.06206e-26
6.26025e-36
3.18959e-22
0
0.0152569
0
6.02016e-19
5.21261e-21
0
2.25149e-26
4.54737e-102
0
0
4.26101e-45
1.38909e-46
0
0.000215571
1.40564e-32
0
9.98938e-21
3.247e-50
0
1.54408e-05
9.24526e-81
1.04209e-18
1.4208e-88
1.41088e-08
0.0234384
0.049957
6.65409e-123
4.41323e-97
0
0
1.27626e-61
4.78727e-11
1.54046e-51
7.75047e-19
2.42751e-17
1.64362e-21
1.09824e-75
0.00227225
0
2.24787e-34
0.0218824
5.19748e-06
0
4.00998e-21
4.51181e-81
1.4704e-39
0
0
4.13457e-77
9.05208e-66
2.3405e-99
0
0
0.0019757
1.45001e-53
1.19818e-54
1.88784e-103
2.10154e-28
1.08126e-47
8.5279e-97
6.54772e-41
2.23363e-79
7.27227e-78
1.17407e-54
0
2.41795e-49
0
1.33728e-39
9.57692e-78
0
2.17125e-46
1.05454e-07
2.29382e-79
0
1.58781e-37
1.48111e-17
5.67932e-131
0
3.7807e-26
0
0
0.00804325
1.37781e-71
5.62822e-44
0
3.59907e-99
0
2.65744e-65
5.84289e-133
0
2.26939e-43
9.96737e-97
5.99491e-32
0.0183575
1.83576e-131
1.66931e-18
2.8369e-129
5.55578e-29
7.17564e-44
2.01345e-98
2.75651e-129
7.91273e-22
0
3.4182e-117
0
0
0
0
2.05152e-163
4.65949e-25
1.39639e-20
2.6834e-133
1.95403e-31
2.57418e-100
2.81338e-139
0
4.94069e-58
0
6.65804e-49
0
4.5494e-70
2.24255e-102
0
0
6.32691e-05
8.64228e-43
0
0
4.08542e-115
0
0
0
1.13641e-81
2.9408e-80
0
5.13594e-90
0
2.74245e-08
6.75651e-120
3.37579e-63
8.60249e-73
0.0046739
0.000350448
1.91983e-86
3.22622e-48
3.04885e-14
1.8178e-99
5.38831e-48
0.0722667
2.62217e-133
3.21175e-08
3.47325e-29
0
6.99634e-66
1.61022e-94
7.09826e-17
1.49451e-45
7.12297e-111
1.65412e-113
5.2532e-70
3.82603e-94
0
1.01838e-24
2.46483e-09
6.90057e-43
6.14944e-29
0
2.71131e-20
0.000443374
0
1.30841e-48
0
0
0.0274466
2.52269e-98
1.56096e-88
5.94646e-140
1.62838e-53
1.11523e-47
9.80272e-09
0
0
0
5.92643e-21
0
1.31878e-102
0
5.41345e-100
7.37034e-105
4.89204e-123
1.91899e-104
9.39963e-39
3.47997e-30
0
3.25558e-42
0
6.16165e-91
0
4.83023e-126
0
5.52085e-20
4.39778e-136
0
5.7025e-128
0
7.80619e-108
4.99755e-21
2.92191e-34
0
2.78943e-50
6.31922e-124
3.42403e-148
0
1.48633e-20
2.58701e-35
0.0023812
3.62069e-81
1.63384e-121
0
5.84607e-15
1.74475e-14
2.23698e-26
0
0.00215736
0.00229979
1.67125e-20
0.00118718
0.0054665
2.09024e-56
5.65979e-22
3.88393e-17
0
0
5.60249e-148
9.5534e-87
3.53031e-124
2.04812e-67
0.0170773
0
0.000143191
8.81623e-19
0.000292755
1.29086e-53
0
0
2.56348e-17
6.0842e-23
0.00640748
2.11306e-14
2.27698e-08
0.00756979
0
0
0.000327753
1.03278e-77
0
8.13121e-18
0
4.5611e-143
0.0167646
0
0
2.06357e-116
1.63533e-98
0
2.07975e-41
0
4.90835e-122
6.15293e-23
1.98059e-11
0
5.04194e-42
6.57802e-69
0.00229022
1.23435e-16
1.78591e-52
4.78087e-147
1.06629e-131
0.000571774
3.12767e-88
3.62198e-82
3.4125e-19
0
1.63089e-54
0
3.84507e-88
1.87153e-26
2.75834e-22
3.83172e-82
9.04022e-183
6.60617e-84
0
9.43655e-85
8.06773e-30
0
5.82816e-32
1.60328e-69
1.65374e-89
1.30147e-56
0
2.19853e-122
0
0
2.00248e-109
5.0053e-79
9.16243e-85
4.55542e-86
1.68765e-80
2.23876e-40
0
0.000223173
1.59177e-81
3.44407e-148
3.42164e-95
0
0
0
9.42905e-25
6.97577e-05
0
0.0002704
0
1.25071e-14
5.37752e-21
4.22431e-05
0.00029536
2.63636e-14
1.97766e-26
2.73551e-65
0
0
2.64233e-63
6.46788e-128
1.13958e-92
0
3.28436e-06
2.14127e-111
4.80559e-17
6.49872e-80
2.04579e-36
0
0
0
0
0
8.86289e-20
0
5.70519e-100
0
4.70975e-36
5.6845e-33
1.95461e-54
3.35187e-40
0.0191258
0
0.00871951
1.44545e-163
8.72962e-151
4.24334e-32
0.00514537
0.00562282
0.0125796
0.000455632
0.00122644
4.46498e-19
4.81472e-17
1.25756e-37
0.00855016
0
0
1.63003e-107
0
7.58611e-26
4.05914e-18
2.27727e-15
5.53893e-47
0
0
0
2.76698e-19
4.88494e-07
6.63246e-130
0
3.28902e-120
4.94544e-09
6.08268e-10
0
0
8.18377e-08
5.86706e-13
4.88975e-21
0
3.42878e-13
0
6.70531e-23
1.71964e-140
1.99373e-11
0
9.26793e-27
1.51862e-132
0
0
1.97681e-122
5.49719e-113
2.45287e-24
0
3.43344e-95
0
1.78955e-114
1.36109e-24
0
4.38099e-109
1.35097e-24
5.12132e-14
1.0489e-11
0
1.19952e-12
2.66704e-24
3.0071e-10
2.34418e-61
0
1.20688e-11
5.5589e-15
0
0
1.08099e-44
0
1.62454e-25
3.80996e-37
1.48189e-19
0
9.8841e-58
1.61301e-16
0
3.03339e-28
1.04048e-135
1.45608e-78
0
2.01383e-16
0
0
0
1.30808e-79
0
0
0
5.26251e-19
0
1.04178e-08
1.20409e-24
0
0
4.90917e-44
0.00598682
0
5.31138e-25
1.6458e-82
9.08716e-38
3.63967e-100
1.07595e-60
6.93479e-112
4.4677e-107
3.7385e-112
5.31259e-84
5.80575e-114
1.86258e-26
5.41694e-161
0
1.21163e-105
0
6.32401e-116
6.23441e-148
0
1.82523e-16
0
2.62742e-135
0
1.48259e-31
0
8.04398e-27
3.07913e-31
1.03217e-117
8.5349e-27
7.50163e-79
0
1.29635e-64
1.99747e-28
1.77676e-33
1.46269e-109
4.67122e-47
3.93274e-77
4.23359e-104
4.78915e-105
0
2.16489e-119
0
2.26086e-115
1.7142e-154
0
0
0
2.13869e-19
1.1647e-138
2.50238e-55
1.24664e-105
1.26129e-36
1.48638e-103
4.82475e-31
4.18899e-55
3.43404e-15
6.87122e-105
1.65126e-106
1.89937e-108
0
2.89291e-25
3.95066e-67
0
0
0
0
1.66894e-29
4.24055e-105
2.46191e-122
0
1.01409e-101
0
1.07017e-23
4.42933e-117
0
0
0
3.09971e-74
1.67594e-93
1.07435e-91
2.51461e-52
3.73532e-121
4.18165e-143
1.85171e-52
3.69736e-18
6.77103e-125
1.03864e-107
0
3.98754e-79
6.04451e-67
3.20189e-77
1.11586e-22
3.56504e-24
5.61104e-89
0
1.84494e-111
3.79821e-23
8.06493e-107
1.99095e-14
0
1.90379e-33
0
0
2.23964e-61
0
1.24594e-101
0
1.0309e-53
2.08946e-145
0
2.8309e-80
2.75081e-150
2.5365e-104
0
6.67645e-73
3.84966e-88
0.0239168
0
0
2.82802e-67
0
2.04933e-34
1.23312e-33
1.07799e-24
6.11862e-14
0
3.07273e-42
0
0
2.45253e-31
0
0
3.04289e-73
4.43888e-59
0.0125678
3.30938e-103
2.88992e-77
0
2.33846e-26
1.33508e-25
2.22167e-15
2.10246e-25
0
0
0.00503423
4.72066e-135
1.44874e-23
6.58608e-113
1.29268e-79
9.3229e-145
2.01237e-70
0
3.5441e-45
0
0.00323258
4.03033e-11
0.000420836
1.02517e-07
0.000361161
5.96976e-30
4.64572e-136
1.58728e-123
1.63127e-109
3.61714e-107
0
1.3467e-132
5.80758e-136
1.13915e-114
0.00399243
5.35909e-19
1.82224e-29
1.44568e-28
4.27371e-94
3.25547e-06
4.17828e-49
2.4428e-21
5.72327e-32
7.22337e-137
0
0
0
0
1.93563e-22
0
7.04598e-05
0
9.27755e-06
0
1.45665e-33
0
9.22519e-22
0
8.5053e-20
2.10679e-43
0
0
0
2.61743e-15
0
6.4546e-22
2.05381e-135
9.41906e-89
3.37122e-10
1.27392e-109
4.18653e-33
2.60259e-138
0
0
1.01493e-119
1.09012e-106
1.79028e-107
3.55694e-28
4.35116e-104
0
0
5.17217e-28
2.292e-108
4.71773e-79
0
1.45095e-69
4.06962e-106
6.07114e-105
0.0285857
0
1.76253e-21
0.00357572
6.21058e-23
1.00181e-143
0
1.35601e-31
1.1081e-107
1.00544e-104
3.41022e-10
8.27495e-28
2.52222e-99
0
0.00270511
1.62843e-39
0
1.05034e-47
2.21167e-55
2.87026e-121
0
3.1844e-79
0
0.00193483
0
0.00308961
8.11341e-69
1.06536e-38
0
1.73074e-146
2.7471e-21
8.81021e-133
4.0119e-97
5.79174e-62
0
0
0.0114211
4.46741e-54
0.00318457
1.98956e-49
2.63966e-22
3.30871e-51
2.49763e-46
7.24887e-82
1.94615e-104
2.8081e-38
0.0486555
2.12513e-15
2.03429e-32
5.08102e-20
0.0349472
6.71267e-48
6.117e-19
5.20606e-10
2.92271e-107
0.000283235
4.36014e-13
8.30303e-52
4.64114e-117
5.16359e-08
1.6226e-08
1.0705e-06
7.04757e-09
9.61491e-18
1.49683e-20
0.0177463
1.21828e-44
0.000321546
5.33971e-33
0
1.21754e-77
5.30542e-21
0.00334753
6.25248e-56
4.81574e-45
0
5.96664e-06
4.42512e-35
0.000144801
7.47134e-141
6.9844e-132
0.0200425
9.13387e-34
1.30452e-58
2.09798e-48
0
1.60712e-65
7.7199e-94