/*--------------------------------*- C++ -*----------------------------------*\
| =========                 |                                                 |
| \\      /  F ield         | OpenFOAM: The Open Source CFD Toolbox           |
|  \\    /   O peration     | Version:  v2012                                 |
|   \\  /    A nd           | Website:  www.openfoam.com                      |
|    \\/     M anipulation  |                                                 |
\*---------------------------------------------------------------------------*/
FoamFile
{
    version     2.0;
    format      ascii;
    class       volScalarField;
    location    "2.5";
    object      G;
}
// * * * * * * * * * * * * * * * * * * * * * * * * * * * * * * * * * * * * * //

dimensions      [1 0 -3 0 0 0 0];


internalField   nonuniform List<scalar> 
108993
(
1838
1863.73
1837.22
1837.21
1837.2
1837.21
1841.56
1837.2
1837.21
1950.07
1837.39
1837.42
1837.21
1838.37
1837.32
1837.97
2099.12
1836.92
1837.21
1840.26
1837.47
1837.21
1833.04
1838.51
1837.21
1837.21
1837.21
1838.09
1852.9
1837.21
1837.21
1837.38
1837.21
1838.32
1837.21
1837.19
1837.21
1837.26
18869.2
11673.8
1838.16
1837.76
1837.86
1837.21
2801.14
3389.9
1837.21
1837.58
1838.66
1843.24
1837.21
4443.83
1841.71
1837.21
1836.79
1838.21
1837.21
1837.21
1837.22
1837.21
1837.21
1837.21
1837.21
1837.21
1837.21
1837.21
1837.21
1837.21
1837.1
2820.03
1838.15
1837.21
1837.2
1837.21
1837.62
1837.21
1837.21
1856.72
1837.21
1837.21
1837.21
1836.43
1837.22
1837.64
1836.97
1838.13
1838.04
1837.35
1837.21
1837.21
1837.21
1837.21
1837.21
1837.2
1837.21
1842.91
1837.21
1837.4
1837.21
1837.22
1837.21
1837.21
1837.41
1837.28
1837.24
1837.21
1837.21
1837.21
1837.21
9748.97
3268.67
1837.21
2363.06
4586.32
1837.91
4822.03
1837.2
1838.84
2506.79
1837.21
1835.84
1837.21
1923.02
1838.45
1837.25
1876.76
1838.36
1837.41
1837.21
1837.21
1837.47
1837.21
1837.22
6583.29
1837.75
1837.37
1837.21
1837.29
1837.21
1837.58
1838.32
1837.23
1923.63
1837.21
1837.21
1837.21
1837.26
3389.02
1838.29
10645.1
11192.9
1837.21
1837.53
12803.9
1837.25
2041.36
1837.45
1837.21
1837.21
1899.71
13096.1
1837.21
1837.21
1838.54
1837.22
5165.62
1837.21
1837.21
1837.21
1838.31
1837.21
1837.79
2210.86
1838.1
1839.38
1837.21
1977.49
1837.21
1837.49
1837.29
1896.03
1837.22
1837.21
1838.48
1837.37
1837.4
1837.21
1837.16
1837.21
1838.54
1837.87
1837.21
1837.61
1985.96
1837.61
1838.08
1838.37
1837.44
1837.26
1838.52
1837.21
1888.09
1838.03
1837.21
1895.77
4064.87
1837.21
2707.64
1837.28
15593.7
2745.65
1837.35
1992.44
1854.57
21747.6
1837.28
1837.37
1837.21
1837.21
1837.21
1837.32
9702.88
1839.56
1893.58
1837.22
1837.21
1837.21
1837.24
8213.65
1837.21
11866.9
1838.47
1837.21
1837.6
1837.23
1837.21
1837.21
1837.21
2281.74
1837.21
1837.21
1837.21
1837.21
1837.21
1837.21
1839.04
1870.87
2019.57
1837.21
1837.22
1837.21
1837.21
1837.22
1838.03
1837.21
1837.21
1837.21
1837.58
1837.21
1837.21
1837.22
1837.56
2865.39
2023.39
1837.21
1837.21
1837.21
1840.42
1837.21
1837.22
1837.21
1837.22
1853.24
29258.7
3285.56
1837.51
1837.21
1870.03
1838.15
1837.27
1837.33
5446.37
5815.47
1837.21
1837.21
1866.66
1837.21
1838.29
1837.6
3643.4
1835.99
1837.21
1839.69
1837.22
1837.21
1837.21
1837.21
1837.22
2033.48
1837.21
2498.97
5486.23
1837.21
1837.21
1837.22
1836.09
1837.29
1837.26
1836.06
1848.02
1837.21
1837.21
2135.49
1837.19
1836.25
5369.53
1837.21
2368.68
13404.8
1837.23
1845.72
1837.21
1838.89
1839.08
1837.42
11771.2
27459.6
4434.65
1837.21
1837.78
1837.26
3138.28
8564.77
1837.21
4505.45
1837.65
1837.51
1837.21
1837.33
1837.21
1837.24
2721.31
1856.68
1837.22
1837.31
1837.21
1837.21
1837.21
1837.21
1837.21
1837.27
1837.21
5171.06
1957.75
1837.26
1837.21
1837.23
5951.22
1837.47
1837.21
1837.92
1853.76
1837.21
1837.27
1837.66
1857.69
1837.24
1837.21
1837.25
56395.7
1837.96
1862.63
1837.21
17284.9
1862.68
5656.74
1837.34
1837.28
4839.28
1837.91
4552.92
4883.93
1852.47
1846.43
1837.27
1839.11
1840.46
45200
1837.22
3069.07
4799.23
1848.72
4807.78
1837.56
1873.89
1849.5
37736.4
1837.22
2427.44
1837.21
1849.62
1866.24
1903.28
1837.38
1837.3
1856.68
1842.95
1837.32
1837.3
21432.4
1836.94
1837.12
88119.9
1838.15
1837.28
1837.22
11610.4
2161.06
2047.56
1837.21
22415
1863.95
19429.2
1837.21
1837.21
19502.9
1837.41
2779.64
21973.6
1837.21
30078.7
16521.3
26537.6
1837.21
1837.99
1967.02
1837.67
1837.22
1837.21
1837.23
1837.22
1837.22
1837.21
1838.3
2329.39
1898.34
1894.13
2100.67
1837.22
1838.24
1837.1
1837.21
1837.24
1837.69
1837.21
1837.4
1837.2
1837.66
1838.29
1837.25
1877.37
1837.38
1877.55
6813.73
2194.9
1837.24
1837.23
1884.61
1837.25
1837.28
1944.32
1837.2
1837.21
1839.77
1837.25
2149.6
1837.23
2582.01
2310.71
3203.75
1837.22
1837.21
1837.21
1837.21
1837.46
1837.49
1837.24
1837.29
1957.96
1839.63
1837.16
1837.23
2532.4
1837.32
4147.25
1837.21
1837.71
1837.44
1837.22
1839.9
1837.21
1837.21
1837.23
1837.23
2967.52
4844.91
1837.22
1837.23
96742.7
1837.22
1910.41
1852.03
1837.21
1892.33
1837.22
1837.21
1837.21
1837.22
1844.15
1837.73
1842.13
1841.55
1858.74
1837.1
1838.21
2909.91
1836.06
1837.59
2894.05
1836.79
1852.43
1837.19
2871.36
1836.8
1837.31
1838.03
3719.89
1837.24
1958.5
1877.35
1837.21
2233.91
1837.2
1837.21
1837.77
1837.22
1837.21
2825.72
1838.03
1837.22
2230.14
1852.87
8889.32
1837.21
1837.18
1837.21
1837.21
1854.46
24912.3
1842.72
1837.93
1837.21
1837.55
1839.85
2024.84
2691.2
1837.37
1837.22
1839.87
1838.18
1837.95
1837.42
106976
2037.37
3681.51
1838.21
1837.3
2018.52
23515.7
1865.99
1842.65
1837.98
1837.21
1837.21
1838.54
4212.71
3485.07
2082.12
1838.69
1837.21
1838.94
1838.48
1845.07
1837.22
27684.7
1837.21
1837.22
1838.47
1839.45
1938.1
1837.23
1837.42
38415.5
2261.12
1837.25
1838.42
32107.1
1838.52
2157.23
1837.71
8361.46
1837.67
2027.78
1837.75
1841.32
1837.35
1841.93
1838.49
2785.64
1837.22
7336.4
1837.22
1837.76
3688.86
1864.64
1837.21
1837.21
2206.92
8550.65
1843.42
5747.14
1837.47
2433.55
2647.09
1837.48
1837.21
1838.53
19304.6
4412.25
2765.39
1840.77
3323
1837.33
1845.22
1837.23
1837.07
1838.37
2090.92
2343.43
1845.94
1849.56
4155.1
2465.89
5252.17
2437.3
1844.44
3274.62
5948.41
2005.67
5909.84
5507.12
1837.21
1954.78
1837.21
1837.21
1835.18
1940.84
1861.85
2106.62
2049.48
2040.99
1833.79
5322.64
5094.89
5315.99
1837.21
1848.56
2012.8
1837.21
4213.43
1868.84
2664.38
2741.98
1844.46
3773.06
1905.83
2640.33
1987.79
1926.76
27404.3
1837.21
1837.42
2146.69
1895.41
1838.63
81726.6
1909.45
2976.99
1966.68
90750.8
2199.45
1837.21
1837.21
1837.21
2613.33
1837.21
2435.95
1837.59
1837.25
1837.21
1837.19
2108.86
41510
1837.21
36866.7
1837.21
2476.8
2621.01
1837.21
2552.59
1843.52
1837.2
2675.34
1838.52
1836.76
1837.81
1922.35
3352.67
2684.43
1837.19
2296.15
1837.5
1838.88
1835.56
1837.24
1837.21
2062.49
1837.21
1837.23
1840.2
1837.4
1834.28
17414.5
3586.77
1850.15
1858.53
1857.01
1922.35
1862.93
2239.39
1837.39
1837.21
1837.21
1840.38
1837.21
1851.71
1837.21
1838.41
2321.55
1837.24
1838.99
1837.21
1840.6
1837.93
1848.29
1838.1
1840.01
1877.68
1837.21
1837.21
1838.07
2514.04
1837.33
2547.11
3857.66
1836.94
1838.08
46094.6
2199.13
1858.29
1837.21
2201.98
1837.79
1837.85
1838.18
1836.36
1870.04
1837.19
1837.25
1851.54
1837.22
12151.5
1837.26
1838.6
15795.3
1899.01
4895.45
1946.85
9799.35
1837.21
1870.87
2008.84
1837.21
1837.41
1872.41
1837.21
1837.47
1836.94
1837.21
1837.24
1837.62
1838.18
1837.23
1848.66
1838.47
5260.41
1836.9
1837.28
26699.8
1836.91
30595.5
1886.94
1836.96
1963.85
135856
1874.1
1836.45
1850.79
3023.76
1850.29
1872.82
2212.02
1861.95
1837.98
2485.58
1836.76
1837.42
1894.01
13931.5
1837.33
1837.55
1838.91
1843.21
1838.99
1836.08
1915.39
1837.5
1837.23
29042.6
1838.79
38216.6
1838.35
25177.3
1838.81
1863.69
1890.12
2263.43
2480.15
1837.35
1895.75
1900.22
2902.66
1834.58
8391.36
1837.23
1837.23
1837.32
4140.92
1988.97
2701.98
1837.21
1837.25
2182.03
8703.57
1838.07
2347.69
2837.58
2034.27
1837.84
2897.74
8339.53
8009.66
1843.36
4535.6
1835.84
9564.58
1837.21
11718.9
11117.4
18967.4
1837.21
1837.21
1883.77
2621.66
2111.02
1837.56
1837.19
3762.59
3478.78
1837.21
5797.52
1897.41
1840.56
9428.7
1837.22
1837.99
14453.3
21829.6
1837.81
1844.2
1837.18
1837.13
2996.44
4805.91
10994.6
1837.75
11509.3
1953.55
2955.74
1849.27
1837.68
2176.86
1848.11
1848.05
1837.21
1921.53
1837.22
5397.67
1837.84
1837.21
2330.66
1837.21
2452.67
3853.63
2264.31
3124.03
1837.21
4607.4
1837.83
17025.3
1837.48
1837.22
1837.21
2191.4
5242.01
1837.21
1977.53
6957.92
3115.76
3103.77
1837.21
2824.55
3123.77
4943.02
1837.08
1919.16
4297.39
3065.6
1976.4
2836.55
1837.92
2782.99
5483
4443.64
2590.17
3198.3
2321.89
2314.43
1837.98
1838.53
3224.58
6301.75
1978.1
1837.21
1845.78
3774.88
1837.21
1837.91
1837.22
3827.74
1837.89
1837.24
1837.84
1846.21
1838.15
1838.07
1842.44
4798.05
1837.66
1837.34
1977.23
1837.21
10952.2
1837.96
1837.21
1848.02
1837.21
1847.14
22310.9
1858.42
1837.7
1837.92
1837.21
3550.77
1855.26
4445.86
1840.45
1838.09
2234.75
1837.24
1962.16
4886.09
2027.68
1837.21
1837.97
1838.12
1837.67
1837.9
1836.58
1837.09
1837.21
1838.01
1837.21
2242.59
1838.1
1833.76
1837.21
1837.85
1837.04
2666.19
1861.24
1892.41
1838.02
1837.51
1836.68
2329.4
1837.68
1837.21
1837.21
36209.8
1837.58
1838.54
1838.29
1931.66
1838.56
1837.21
5645.57
3681.9
2002.18
1837.74
11428.6
2648.83
3442.87
1843.73
4134.33
1837.97
1837.42
1837.61
2354.51
1888.26
47493.3
2602.16
1831.18
1846.82
1837.95
2238.6
1837.83
1938.01
3182.82
1903.41
1873.28
3431.46
3136.6
2088.46
1837.22
1837.21
1837.21
1837.21
1837.21
1837.21
1839.27
9466.47
1840.85
23932.6
1843.14
1838.6
1837.31
2027.16
4913.67
1837.21
1844.03
1837.27
2293.63
1837.21
2238.08
15471.6
2040.74
1837.87
2189.29
1837.23
1837.21
1837.22
1837.21
1837.21
1837.73
134238
2273.72
1837.21
1837.22
1837.21
1842.55
1845.82
1837.21
1838.11
1837.22
1837.24
1837.22
1838
1838.19
1837.6
1837.51
1837.33
1837.21
1837.42
1837.99
1838.96
2252.33
4171.48
3172.47
6822.14
1838.77
1837.2
1837.17
1837.21
1841.22
1839.08
1839.47
1837.29
1837.99
6134.46
1840.95
1831.91
1838.8
1839.46
1838.99
1837.49
39580.4
20009.2
1837.41
1837.21
1837.22
1837.39
1839.17
1837.28
2446.69
1837.23
1837.21
1837.21
1837.21
1837.21
1872.11
1843.06
1851.91
2444.99
1853.04
1840.51
1842.53
5233.45
1841.96
1846.02
1837.21
1837.48
9622.91
1837.2
1977.47
1860.95
1871.42
1845.69
26363.1
1841.79
1837.21
2944.74
1837.21
3791.4
2311.21
1840.81
1837.21
1837.21
1837.66
1837.21
1839.29
1837.21
5085.82
29450.6
2025.54
1837.26
1837.21
1992.91
1839.5
1837.21
1839.48
1837.21
1838.36
25063.9
2589.85
2039.09
1837.69
2015.76
1837.22
1947.89
2383.13
1835.22
1837.24
2657.8
1839.89
2076.59
3011.25
2055.36
4999.53
1837.21
1837.26
2107.56
1837.21
1837.35
74565.8
1838.3
1837.37
1837.22
4438.31
1837.65
1837.21
1864.71
1837.23
2493.79
3248.36
1837.22
1851
1838.01
1956.18
1838.08
1837.89
1837.21
1837.69
1837.21
4264.07
2731.52
1838.44
3036.18
1837.95
1837.36
1837.22
1921.92
17141.8
1837.25
1949.57
3482.09
29897.7
2657.37
1836.88
1837.22
2206.25
1837.22
1956.39
1995.33
1952.18
2626.34
1956.12
1837.21
1999.01
2009.52
1839.85
1844.41
1837.21
3275.39
1837.22
1837.21
1837.29
1852.13
1837.21
1837.24
1837.22
3295.19
1837.21
1837.22
1840.69
1840.51
1842.22
1840.34
1837.21
2366.82
7977.55
1842.36
5696.04
1841.13
1837.93
1837.29
1845.71
3265.46
1837.35
1839.04
2502.62
1842.99
1838.19
1839.2
1837.6
1839.64
8387.42
1838.79
2081.8
1838.12
2691.15
3643.85
1842.01
1837.21
1852.46
1837.48
1841.92
1837.21
1837.21
1838.1
1852.51
2106.48
1837.43
6173.69
1839.34
3329.05
2051.05
1837.21
1870.12
1837.21
1852.4
1851.9
1837.45
1837.61
2444.26
1902.64
2853.99
1843.58
9508.64
3024.57
1837.22
1838.03
1837.2
1839.74
1842.99
1836.99
9740.66
1837.22
1837.22
1840.39
1936.67
1852.22
1837.27
1837.72
8525.51
15991.8
1893.33
1837.21
3144.5
1840.17
1838.18
1837.74
1837.64
2538.64
1837.78
1838.97
1838.27
1933.6
77303.7
2057.91
1961.79
3576.69
2368.69
1838.34
4022.44
5470.93
1837.85
1837.65
1849.13
3903.14
2385.9
1837.22
1841.37
4093.3
2198.51
1961.05
1838.16
1843.39
3337.5
1860.09
1837.21
2268.42
1859.26
1837.21
1867.63
1837.38
7692.04
1837.21
1838.38
7919.1
1869.51
9869.74
1867.42
4410.31
1859.8
1914.79
2793.41
1838.81
1901.57
4761.36
2181.66
1837.49
5271
1837.21
1837.21
1837.65
5912.1
3496.8
1837.21
1889.68
1837.21
2187.74
5048.58
7125.91
1852.31
17117.2
1837.21
101106
1837.21
1837.21
1837.96
1837.21
1837.21
1837.21
1837.21
1837.69
1904.57
13083.4
2289.47
1859.71
1838.18
1837.21
1837.21
1837.9
1838.18
1837.74
13380.4
3048.92
1837.21
1837.21
1837.21
5363.74
1837.36
1837.21
3935.06
1837.26
1837.21
1837.21
1844.74
5656.12
3206.08
1938.18
12997.8
1837.21
1839.99
13657.2
1837.21
1837.21
1837.29
2160.11
5629.43
2057.88
81885.5
1837.21
1837.21
111016
1837.21
1842.01
1837.63
1837.21
1838.1
1837.21
1839.49
1837.22
1839.09
47495.8
2900.43
1839.7
2320.49
4078.61
1837.21
6187.55
1837.21
1837.44
1837.21
1837.32
1837.21
1837.21
1837.32
1837.21
2216.85
14292.4
4628.44
2616.28
1837.47
1837.31
17993.7
12068
1837.21
1914.43
1837.21
1837.22
2022.07
2391.15
18618.7
1994.94
1837.21
18422.2
17620.3
6381.92
1837.21
1899.95
1998.52
1979.86
2791.05
1869.96
12523.4
1966.15
1842.21
1948.9
1894.98
1980.13
1981.04
3289.11
2025.79
1838.19
2630.88
15645.3
18110.9
1837.21
1837.22
26477
1837.21
1838.45
8215.48
1837.21
20504.6
1978.74
1837.21
1838.56
1837.22
1837.21
1997.11
2414.24
4170.58
1865.49
4289.35
1837.21
6096.7
2047.44
1896.83
1837.54
1837.12
1837.45
1837.22
1838.64
1837.23
1881.85
1837.21
1837.21
1850.92
6906.04
2005.05
1908.31
5328.59
4110.63
1842.14
2073.98
1837.21
1837.48
1860.29
1837.21
1837.22
1837.39
1863.19
4261.1
2281.99
9212.13
19736.4
1859.23
1837.53
2357.97
4867.12
1840.28
33644.7
1837.35
1870.21
1837.23
5468.56
1854.53
1921.76
1837.68
1837.21
1837.19
1837.21
4354.04
1837.21
2400.89
1837.22
15407.2
4885.44
1837.21
1837.53
12211.4
5030.53
2649.44
4252.42
1837.21
10940.9
99441.7
1837.21
1866.39
2071.66
2587.62
2514.76
1837.23
2529.01
17871.6
2093.8
2340.01
7458.83
1873.96
2537.49
1837.28
15034.6
53827.7
3194.51
63134.7
1860.7
1851.97
2541.85
1837.59
70390
3985.6
2002.13
1839.48
1862.88
2229.68
1849.32
1841.05
1836.54
1838.78
1837.21
1837.55
1842.92
1837.24
23885.3
14951.8
2033.42
53582.8
1840.95
1837.21
2312.75
5808.3
5980.09
1923.4
2279.76
3253.26
18405.3
74577.7
5349.48
1838.28
10879.3
1838.09
1837.46
1837.99
15532.6
1839.91
3940.23
1867.19
4635.32
4695.47
13729.3
1839.12
2274.96
1839.27
1839.79
1837.21
1837.77
1837.21
1838.69
2089.25
6809.93
17400.9
15780.7
2095.07
60366.8
2039.18
4970.91
1838.24
8035.15
4641.77
49210.6
1844.42
1837.25
1837.22
1837.21
1837.21
1837.29
1843.37
2132.62
1932.94
74200.2
2326.12
3754.4
10891.7
14179.7
11555.7
17446.2
1837.19
38975.1
2316.29
1838.07
1837.69
10891.9
3258.85
1837.21
1844.26
1837.15
1935.97
1837.2
30885.9
33351.2
29250.5
12758.3
1837.21
42000
3524.31
1837.21
2768.77
1837.21
1964.82
24150.5
1904.94
1961.18
31124.6
1918.3
1837.99
1995.56
1837.69
1837.21
1837.22
1956.9
1837.38
1846.33
5911.46
2768.77
2370.39
2093.88
1837.03
1851.14
1837.29
1839.12
1837.42
3578.86
4893.02
1838.32
1837.22
3394.57
1838.7
1837.21
1840.62
1840.66
5845.8
3488.86
15493.3
3998.44
7399.18
1837.21
2382.03
1841.34
1846.46
2479.14
1837.21
2055
1837.21
1837.21
4293.33
1837.21
1838.14
2899.96
2168.25
3183.23
3185.69
1837.21
2084.48
2041.58
2207.45
1832.62
1929.42
2139.15
3130.07
1883.56
20174.6
1838.32
1839.91
1975.79
6353.94
1875.68
4984.45
2968.66
3172.15
1837.21
1837.21
232685
2701.16
2061.91
4397.17
1911.03
10763.8
15792.4
1837.21
2307.3
1837.29
2930.15
1837.21
2763.65
5017.29
1837.21
6159.65
1837.21
2592.24
2896.33
1837.22
1837.21
2175.33
1837.21
1837.21
1837.21
1837.21
1995.89
1837.32
2892.34
4391.74
1837.21
1837.21
10615.8
1831.82
1837.1
1923.03
1837.09
1837.12
1837.21
1838.84
2193.79
2211.42
11115.1
1837.8
1837.21
2882.44
1837.21
2300.35
18670.4
1837.21
1837.21
1838.43
1838.21
3003.33
1837.2
1837.22
1837.21
1837.21
1837.22
11530.9
35250.3
1838.27
1837.95
142544
1837.18
4162.99
1837.21
2097.7
1837.21
4894.91
2255.41
1840.65
1837.58
1837.73
5068.69
2958.91
1837.2
1863.38
1841.24
1837.21
2218.76
1946.85
1837.21
1856.73
1837.21
3911.16
1837.25
1837.2
1837.23
1837.33
1837.21
2307.25
3674.72
1837.2
1837.2
3634.37
1837.21
1860.83
1838.2
1837.21
13499.1
7830.06
1840.62
1840.8
1837.96
1856.28
4477.64
1837.25
8202.06
1837.24
9269.18
2670.42
1837.22
38884.2
2518.2
24876.6
15710.3
3589
1837.95
1837.26
1837.21
2955.93
1873.23
1867.52
8839.66
1837.21
2443.97
1837.22
3796.34
2957.93
2876.25
1837.26
4637.39
2072.13
1837.21
12474.6
1837.35
1837.21
1837.21
3586.45
2338.94
1942.46
1837.21
1837.21
1837.22
11151.1
1850.24
10071.5
1837.21
1837.21
9444.75
2983.88
1837.25
1837.25
2871.88
1837.26
1837.48
1849.07
9795.33
5489.44
3559.34
1837.23
4678.99
93029.8
2165.95
11619.4
1836.97
43638.5
1837.68
2092.32
30290.2
50499.9
44536.8
45764
33495.4
58832.6
1837.2
144245
3622.29
12520.7
1837.23
9588.73
140025
1837.21
2002.38
70888.4
1837.21
49747.4
1837.2
8374.83
2714.92
3832.43
2001.73
3007.53
1837.21
1837.2
1837.47
1837.34
34357.1
1837.21
2654.45
2780.09
1837.27
1837.27
1837.21
1837.54
1837.52
1837.27
1850.28
1837.26
6522.75
1837.31
22712.2
1837.27
1884.37
1836.59
2528.11
1882.17
1837.21
1837.21
1837.38
1837.72
1939.91
23273.1
23460.7
19750.8
1870.02
1837.35
1837.33
1837.21
1841.18
1971.28
1837.98
1837.49
5291.18
4133.92
25751.2
1837.71
1837.77
1839.64
4104.79
1900.16
1837.23
1835.02
1901.96
3348.29
23821.2
2031.48
18512.9
1837.83
1931.46
4418.48
12424.2
1837.21
1845.06
2207.57
1837.42
2365.9
1834.81
1859.63
1994.25
1864.17
1840.39
1837.22
1870.62
3522.66
1837.22
1934.91
1839.17
1991.72
1837.22
1837.2
2076.26
2753.29
5296.02
1834.72
1837.21
1837.21
5956.96
22969.3
1837.25
2750.99
27890.3
1856.45
2553.66
1844.52
2024.6
24007.8
1841.38
1867.29
1952.55
1837.22
30918.9
2134.11
1838.11
1847.45
1837.52
1837.25
1838.23
1837.51
1837.23
1838.93
1934.55
1837
1838.29
2772.98
1839.26
2350.66
3008.53
1837.22
1838.48
2718.18
2501.35
1837.23
1874.05
1837.3
1837.55
2706.55
1837.12
1838.91
3935.45
1839.63
1837.28
1837.25
1837.35
1838.01
1837.31
2340.29
4791.94
7031.95
5277.21
5565.09
2396.03
2278.81
1869.21
1841.68
5396.36
1855.23
1850.26
4174.12
1855.14
4913.52
1837.06
1851.31
1842.38
1962.38
1898.8
1919.63
1900.88
1837.9
1909.44
2175.95
1837.2
4929.48
1837.35
2009.7
1964.64
3528.47
2077.74
1927.48
1875.78
2426.92
1920.68
1907.01
1837.39
1837.21
4894.41
2533.7
1838.55
1837.71
1840.69
1938.07
1837.04
2600.37
2006.87
1837.21
1837.21
1835.64
1933.67
1895.78
1837.21
1924.88
1839.05
1837.33
1925.63
1837.21
2028.94
1837.83
1837.51
1837.32
1837.21
1875.73
1837.21
1837.21
1837.21
1862.38
1838.15
1837.26
3819.25
1837.8
2695.08
32007.5
1837.21
1836.14
1892.77
1837.21
1837.21
1846.92
1837.21
1837.21
3864.19
3066.6
1967.83
1838.88
1842.44
1837.21
2133.1
5317.02
1837.21
1837.21
2056.89
1837.21
1837.21
3797.54
1837.21
1947.94
1876.99
1837.26
1837.21
1844.5
31729.1
5904.14
1838.32
1837.21
1837.21
1837.47
1993.56
1836.33
1837.21
1837.21
1853.91
2301.52
1837.21
1837.21
1837.21
7837.11
2062.08
2920.72
8032.43
1925.23
1838.64
1862.37
2266.4
1849.84
1832.1
15969.4
2040.87
1838.87
1894.85
8112.55
1838.87
1838.66
7420.8
2746.71
7209.08
1838.95
2485.94
1838.42
1837.53
7574.78
1838.88
8114
1923.36
1837.23
7819.21
1907.5
1837.2
2227.5
7918.18
1838.28
2902.22
7746.81
1865.36
1894.81
8192.48
1883.45
1852.69
1846.83
1901.93
5483.89
1877.93
24202.7
1837.21
1837.36
3022.9
1836.78
2990.85
1858.87
1836.84
1837.32
1841.05
1856.48
1854.01
1836.16
1837.78
1837.2
1875.06
1838.15
1859.72
17302.8
1838.13
1891.51
1862.69
20954.7
1836.82
2562.49
70578.2
1837.21
1855.97
2883.94
2272.82
1837.36
1858.37
1837.21
1837.21
1878.52
1837.21
6552.74
1909.33
1902.63
10499.1
4354.01
1837.11
1972.31
1925.64
1837.35
1838.04
1837.33
2242.33
1861.52
2744.65
1839.26
4250.35
12196.1
1939.49
1840.94
21171.6
2741.91
1840.73
1889.61
7202.94
4042.98
2507.6
2074.87
1993.89
1954.76
1904.85
17817.9
2059.63
1954.96
1853.79
2039.8
2571.97
1837.25
2092.19
2147.04
2237.6
2002.55
3361.62
22451
2460.47
1837.24
7902.44
1836.58
1842.45
3773.64
1837.3
8296.93
1837.21
20413.8
21904.6
104323
1837.21
1837.38
1837.19
7796.75
2363.46
17789.1
1837.93
8122.45
8313.48
5148.62
1837.21
30004.8
2012.53
2148.01
56289.5
3940.42
1837.58
3106.6
1836.8
2211.42
1837.23
1837.83
1837.22
1870.27
1867.55
1837.21
1837.65
38104.1
1838.09
2247.06
1837.2
3182.43
3821.62
1831.68
2419.42
1837.21
1841.17
2027.33
1843.14
1839.26
1837.15
1842.8
1837.21
2455.92
1858.32
17842.8
1837.22
1855.23
2063.25
10209.1
1837.21
2729.63
1875.19
1837.21
1837.27
37639.7
1837.21
1842.57
1837.21
1837.19
1838.5
1995.26
1837.21
1837.27
1837.8
1837.22
4605.08
26655.8
1837.21
1849.07
1837.21
5210.63
2330.16
1837.22
1837.21
6013.06
1836.25
1851.5
1837.2
2552.31
1836.63
1837.21
1837.21
5318.37
7582.96
1837.29
1951.92
1837.22
1837.17
1836.86
3140.12
1837.22
1842.31
2301.24
1839.76
1837.21
2068.22
1838.82
4019.22
2925.72
1847.43
1837.85
1849.52
4457.51
1837.21
1837.44
1837.21
1837.21
1837.21
1837.21
1837.21
5252.3
1844.59
1837.62
1835.61
7361.54
7184.64
1837.21
2313.04
2276.82
1837.77
2428.55
160947
1837.31
4773.87
4550.98
1839.72
1850.73
1840.75
3404.24
2458.57
1831.54
1831.54
1845.71
1837.28
1839.22
1866.84
1986.35
3005.09
1837.95
1837.25
1838.78
6127.51
1833
1840.24
1837.28
4348.49
17414.7
1837.21
1837.03
1837.23
1837.24
2054.55
10970
1836.9
3290.28
1870.24
1944.49
1837.21
1837.23
6272.43
1837.21
1837.21
1837.21
1837.21
1842.29
1859.89
1837.54
2405.98
1972.6
1837.5
1837.56
1837.21
6655.5
1851.05
1837.21
2898.42
1837.21
1837.21
1837.21
5075.1
1852.89
3127.48
1838.78
1837.39
1837.21
1843.91
1933.29
1844.82
52753.9
1837.31
1837.21
1834.57
7935.88
11144.4
1846.87
1837.21
54122.5
55319.7
2050.18
43323.1
8431.24
1841.18
3369.36
2457.89
1837.22
1837.04
1837.22
1836.75
1837.62
1837.02
57878.2
10484
7924.33
2008.92
6833.65
1839.8
2166.22
2416.32
4263.2
1844.45
6846.83
1895.51
12426.7
10736.6
1837.21
2141.8
7931.91
1837.95
1837.3
10228
1852.68
1837.21
11480.8
7900.02
1837.18
1837.21
1838.5
1846.57
1837.82
1837.21
1837.47
1893.97
5161.72
1837.22
1842.47
2069.57
8043.39
2659.83
1837.46
1837.21
1837.27
8158.57
1837.26
1843.66
2105.93
1837.21
1863.85
1837.21
1837.5
4567.55
1896.52
1837.21
1837.2
1837.22
1837.27
1837.41
1847.75
1837.21
1843.05
1837.63
1837.21
2188.89
1837.21
1837.85
1837.21
1844.06
1836.25
1837.35
1921.41
1837.22
1837.25
2194.12
1838.3
31699.3
1919.01
1837.21
1837.21
1837.41
1837.57
1922.77
2355.13
33218.6
2555.95
37931.6
2037.73
2044.22
1927.02
34550.4
34133.4
1918.43
1891.74
1837.22
1927.19
1837.21
1837.24
1837.21
1837.25
2100.5
16848.2
1837.21
3489.24
1837.96
1844.54
1949.73
1837.21
1845.71
1837.24
1842.38
8496.23
1896.09
1841.11
1837.21
1854.62
1885.65
1837.39
2355.46
21325.6
1950.36
13945.1
1837.18
1837.2
1876.98
11971.3
17389.7
18079
9376.19
19937.1
2017.76
6378.27
1848.15
15850.5
1837.22
1839.92
1837.21
1837.25
1985.87
4338.35
2457.16
2030.08
4358.75
4117.22
1836.42
4179.09
8762.03
1837.36
1837.2
1837.21
5768.89
3818.32
2249.53
1837.21
6084.95
4439.62
3498.47
5605.93
3478.14
4822.95
7470.04
1837.5
4593.07
6511.79
1983.7
1837.41
1852.69
3061.44
1837.21
1837.21
7335.79
1837.22
1837.23
19773.4
1845.15
6574.58
14725
1846.96
1863.83
3060.72
3124.32
1959.52
3075.31
2650.47
3440.72
1832.24
1837.18
3388.54
2131.33
2815.91
2783.02
2297.57
4182.92
2121.37
2646.1
4218.61
1837.21
1837.74
2195.72
1838.13
4146.86
1838.4
1837.21
1837.2
2266.78
1837.97
2149.58
1837.25
1837.26
2979.24
2123.58
2126.39
1872.76
1837.21
8801.93
3760.04
7681.25
1837.21
1964.99
31993.3
7228.18
3230.72
1838.83
2195.66
1837.73
1837.35
1838.28
1837.21
1837.25
1851.69
1837.21
3178.54
1837.22
1844.22
1837.21
1837.21
1837.21
1837.21
1837.21
2407.62
2374.48
1837.21
1837.21
3903.25
1838.53
3677.23
3170.27
1837.21
3406.48
1850.65
1837.21
1837.21
3259.56
1844.58
1837.21
2018.45
1834.97
1837.54
1837.21
1886.12
1838.59
1837.21
1837.2
1837.22
1837.23
1837.54
1877.84
1863.49
1837.21
1839.19
1837.21
2229.12
1837.21
1844.29
1836.59
7345.15
1837.36
1837.32
1837.45
1842.83
4558.29
1835.79
1837.21
1838.53
1837.22
1837.21
11767.9
1837.21
1837.21
1838.53
1837.41
1837.46
2475.64
1838.54
1838.54
1849.09
2671.55
1837.21
1838.56
1837.21
1837.87
1837.9
1837.22
1837.26
1938.16
1837.28
1837.22
1837.22
1837.4
1837.22
1837.39
6232.97
2846.09
1919.3
1838.33
1837.28
2435.98
1838.49
2022.44
2318.74
2477.64
2603.15
1837.28
1837.23
1837.21
1852.71
3754.43
1838.09
1837.22
3736.1
1837.35
1837.21
1837.21
1837.21
1837.86
1837.63
69749
1836.6
1837.23
1837.21
3935.75
4743.44
4713.79
1940.93
7154.99
18675.8
1837.04
1837.29
1868.21
4591.24
1837.21
1847.26
1837.21
1845.98
22763.5
1837.21
1837.21
1837.34
2082.34
1868.35
3434.46
2420.69
1837.19
5818.13
8623.75
1837.21
1947.43
1838.67
1837.21
1837.18
1835.64
1837.22
1848.51
1837.21
10373
3773.51
10910
6308.44
4440.66
1842.8
1837.21
1837.47
1837.3
1939.45
1837.21
1837.33
1837.32
1848.03
22006
1964.59
1848.16
2386.53
1837.21
3342.36
2029.06
2054.54
1847.18
1837.32
1897.8
1837.22
1837.34
1837.21
2288.28
3730.47
4161.37
1837.24
3606.82
1837.21
1840.19
1837.21
1848.63
1837.23
5575.66
2654.32
1837.21
1837.21
5685.29
2111.38
1837.21
6433.6
1837.33
1837.21
11455.4
1837.21
1863.31
1837.32
2263.16
1841.22
1837.28
1840.76
1837.21
1851.81
1840.2
9947.19
1837.21
1862.95
1840.52
1836.8
1963.25
1837.21
1839.74
1837.21
21315.6
1839
4701.26
19505.5
2162.56
1837.21
4249.06
2444.66
1839.6
1838.03
6827.88
3642.33
1837.21
2356.81
13028.6
1843.21
1836.78
1837.32
2587.24
1837.18
1837.3
1837.21
1849.4
34624.6
1849.2
121072
1838.17
3698.22
1847.67
1837.36
2501.05
1848.44
1836.01
1837.23
1837.22
1858.14
9951.08
2161.27
6191.99
2238.64
1955.22
2176.59
1837.68
1837.22
1837.21
2052.17
59504.2
8266.98
1892.8
1874.82
14542.1
2200.63
7939.69
7612.26
1837.21
26398.9
14978
2185.09
1837.21
4480.95
13667.8
14894.1
9064.69
1959.95
1935.3
11484.5
1842.66
7055.8
1842.92
13002.6
2036.05
6964.63
12626.7
1837.25
1839.41
4262.86
16847.6
1842.96
3281.58
1837.21
1837.21
14825.5
1841.09
1837.89
1845.37
1837.21
2381.79
1837.21
436939
3778.18
1837.21
1839.67
9182.36
1856.08
12044.8
15805.6
21994.6
1852.92
1837.21
1837.23
2537.81
1837.21
1837.21
1844.82
1843.76
1838.35
10477.7
1846.28
1837.35
4818.17
10875.2
1837.48
1837.13
17902.5
1838.12
1838.74
10747.2
1837.21
1837.21
1844.11
2028.89
21855.6
2686.62
1837.47
1919.52
1837.21
2033.11
92947.8
1882.51
17278.6
1837.21
1841.6
1837.21
1844.68
1837.21
21909.3
1885.05
1837.21
7426.49
1837.21
1837.21
1929.43
1837.37
1926.32
1840.51
2401.32
39246.1
1837.21
1837.21
4088.94
36908.4
1837.21
1879.9
17841
1837.23
1839.81
1843.7
1837.21
1837.21
1837.21
1837.21
1837.21
1843.96
1837.25
1838.29
11891.7
1837.22
1949.15
155638
3235.06
12133.9
1837.21
2645.93
1844.98
1837.21
10424.6
4031.93
7337.11
11816.7
17545.1
16672.8
1837.29
2265.14
22038.1
6185.99
4901.8
5134.4
1841.1
11041.8
1837.21
1837.21
1837.21
2194.67
4256.06
1837.7
4580.3
1837.21
1837.36
1837.34
5968.52
7163.54
1837.21
8502.21
5561.34
2279.5
7427.56
7751.09
1837.21
1837.86
14859.5
1859.4
1837.22
1837.21
1837.24
1837.21
1836.46
1837.21
26223.4
2021.79
24955.5
2650.85
1838.05
2661.07
1838.59
1837.21
1837.21
21844.6
1837.27
1837.21
1837.31
26755.2
1838.48
9719.34
6616.78
3829.82
3403.52
2483.74
1843.56
7056.38
1837.76
1838.18
2021.38
64677.2
5776.12
1855.41
1837.9
1836.81
11137.9
1840.01
6518.32
15759.4
7283.03
8394.68
1837.28
1837.35
17766.1
2399.69
1850.25
9288.32
3669.52
2255.69
1837.21
10241.8
1977.25
18928.7
1837.92
1837.21
1926.62
2062.17
1837.51
1837.23
4739.62
2835.4
6309.53
1844.92
1837.79
3948.92
4918.17
1837.65
1837.21
1837.21
14110.8
20302.7
113750
6545.01
1838.24
2889.49
2883.4
1837.33
1838.22
1846.46
1837.51
1838.34
1837.37
18730.9
1837.21
1848.88
1835.11
3029.4
1837.21
1837.22
1837.21
1837.21
2510
3550.13
1837.72
3041.05
1847.94
1837.62
1837.21
1838.93
1837.21
3087.94
4005.46
1836.85
1836.86
3996.93
1851.91
1844.17
1855.78
1837.21
1838.03
8401.29
1840.14
1941.67
1837.29
1837.21
1837.02
8053.14
1837.21
1837.04
3621.12
1837.38
1836.47
1837.23
1837.35
5993.81
1837.41
2063.76
1838.37
2847.38
1837.03
1848.97
1837.66
1837.22
1836.93
1902.83
1840.02
7785.98
10150.7
1837.23
1837.29
1862.2
1837.21
1850.22
1837.21
1837.51
1845.52
1850.81
1849.41
1847.4
1837.21
2463.99
7277.76
3182.09
1870.97
2697.06
1832.88
1840.1
22415.7
1847.01
26300.5
1886.8
2864.82
1838.45
1837.21
1837.3
1837.21
1848.29
1837.73
2142.96
13081.9
1837.33
1837.21
1838.6
1840.02
1852.35
1842.48
1837.29
1839.17
1837.23
3752.8
2117.12
3738.94
1844.1
1837.21
2186.28
2273.6
2960.31
1841.38
1838.2
1837.48
1997.69
1837.2
2308.53
1869.91
1856.97
2270
2032.72
18048.6
2166.42
8920.33
10400.2
1837.34
124550
1837.23
9611.53
1837.24
6994.96
2318.73
5351.02
3770.31
1837.21
1837.22
1839.25
2026.68
14222.9
1837.21
4656.39
1836.2
7922.52
1837.21
1840.89
1837.3
1837.9
5685.8
1837.21
1837.4
1838.06
1837.22
1847.16
1837.21
11872.8
16615.7
2276.05
1837.25
1837.21
3297.16
1837.21
1837.21
1975.78
7789.03
2040.46
1837.21
1837.38
5433.38
1970.08
1837.21
1837.21
2092.67
8619.34
2361.77
1837.43
11038
1966.58
1837.36
1849.46
1837.2
1837.21
1839.87
1837.01
1837.21
1837.21
1837.21
1837.16
1841.94
1837.21
1837.21
1837.53
1837.21
1837.21
1837.24
1837.24
1837.21
1837.21
1837.21
1837.21
3326.02
3855.92
3421.88
1837.21
1837.21
1837.21
1837.21
1947.46
1837.22
1838.31
1838.96
1837.21
1837.28
1837.21
1848.17
1837.21
1837.2
1837.29
1837.21
1837.22
3541.4
1837.32
4128.66
4173.23
1996.11
1837.21
1837.22
3510.42
1837.53
1837.21
1837.21
1837.21
1837.21
1837.23
1837.21
1837.93
1851.22
1840.59
2971.19
2617.14
1837.33
1840.59
1838.69
1837.2
1837.21
1837.21
1837.17
1837.2
1966.06
52117.8
1837.21
56634.2
1838.42
1837.21
58318
62335.2
1837.57
2243.96
1915.13
1837.73
1837.21
1837.21
1855.52
1837.21
51855
1838.37
53371.1
1837.29
1837.21
1837.97
8999.1
8754.85
8384.55
1837.55
1837.25
1837.27
1837.21
1837.21
1837.21
1837.21
1837.21
1837.22
1837.22
6901.51
1837.22
1838.59
1840.56
1837.15
1837.21
1837.28
1837.24
3863.41
8101.77
3303.06
1837.52
1849.14
1837.52
1837.33
1837.81
1837.64
1837.23
1837.91
7551.48
1852.84
1837.21
1848.62
2589.94
1837.22
2047.97
1841.01
1861.91
2144.16
1837.22
2155.77
14475
1863.29
1849.51
1837.2
1953.16
1862.96
1840.23
1837.21
1837.24
1838.4
1942.98
1839.07
1843.91
1852.74
2093.96
10099.4
12759.4
1837.23
1837.18
2090.77
1838.62
1838.4
1837.54
1837.22
1837.22
1840.85
12261.5
4890.15
10211.6
2230.99
2093.56
1837.23
1849.37
1839.86
2144.82
3085.39
1837.22
5325.35