/*--------------------------------*- C++ -*----------------------------------*\
| =========                 |                                                 |
| \\      /  F ield         | OpenFOAM: The Open Source CFD Toolbox           |
|  \\    /   O peration     | Version:  v2012                                 |
|   \\  /    A nd           | Website:  www.openfoam.com                      |
|    \\/     M anipulation  |                                                 |
\*---------------------------------------------------------------------------*/
FoamFile
{
    version     2.0;
    format      ascii;
    class       volScalarField;
    location    "2.5";
    object      H2O;
}
// * * * * * * * * * * * * * * * * * * * * * * * * * * * * * * * * * * * * * //

dimensions      [0 0 0 0 0 0 0];


internalField   nonuniform List<scalar> 
108993
(
1.80073e-70
4.42635e-47
3.3295e-55
9.43788e-160
2.47739e-155
0
0
0
7.69638e-121
2.71411e-79
0
8.40701e-103
0
0
0
6.17826e-24
1.42204e-74
0
5.96085e-155
1.91434e-76
4.79222e-160
2.74067e-138
1.18394e-86
0
5.17054e-164
8.77853e-113
0
0
1.50625e-89
0
9.5682e-131
0
0
4.71396e-55
0
0
1.26585e-139
0
1.96188e-07
3.6884e-10
0
1.63245e-116
0
4.51086e-165
3.83988e-32
0
0
0
0
2.4199e-80
0
4.16815e-18
0
0
3.32127e-108
1.15897e-96
1.07452e-143
2.66804e-139
1.47898e-133
0
7.5429e-132
0
2.44322e-115
2.59403e-151
3.85386e-154
8.06562e-92
0
7.6677e-144
0
6.9214e-29
6.01931e-124
5.01859e-150
1.74714e-145
5.7666e-148
5.29873e-85
0
0
6.21657e-58
1.22586e-149
6.1996e-161
0
0
0
4.46216e-115
0
2.14613e-110
0
0
1.01675e-148
2.73935e-157
6.54903e-147
1.51211e-131
0
0
0
6.32018e-89
0
4.32301e-113
0
1.72357e-139
2.18358e-140
4.24526e-136
6.74478e-116
0
0
0
2.59799e-110
0
0
2.8707e-15
0
2.22844e-145
0
1.78194e-29
0
2.7941e-29
1.10558e-150
1.61942e-83
1.88903e-20
0
1.0503e-100
2.30297e-126
4.06931e-24
1.51365e-68
2.00155e-148
3.4477e-37
4.25594e-65
5.14386e-82
2.69759e-127
2.58903e-131
3.32249e-81
2.80824e-130
0
1.66622e-14
1.26662e-127
0
2.90695e-125
4.41639e-122
2.02151e-115
2.64556e-101
7.32776e-69
4.24729e-127
1.03335e-28
1.53741e-127
2.26182e-129
5.38699e-144
4.54241e-119
0
5.61181e-67
0
0
0
4.26774e-56
1.03564e-08
0
1.24541e-41
0
3.7733e-144
9.92676e-140
1.02226e-15
5.67909e-09
3.28602e-143
2.53595e-131
0
0
1.23125e-24
2.54799e-154
0
7.49269e-150
1.06194e-117
0
5.29668e-104
7.66657e-23
8.7536e-116
0
3.10111e-102
1.13915e-10
5.70422e-152
6.13029e-100
0
0
9.67376e-132
2.21689e-143
1.79525e-74
1.88104e-95
0
4.11267e-147
0
0
1.12508e-71
0
1.35387e-142
0
5.23097e-12
1.70399e-126
2.88771e-53
2.69315e-67
0
6.94897e-124
1.28381e-72
3.89476e-151
8.79491e-16
5.81708e-151
2.50633e-143
0
8.40831e-20
0
8.37183e-19
6.44224e-105
0
1.12755e-25
0
1.56964e-10
1.58865e-25
0
0
1.77124e-103
0
1.5382e-142
4.3474e-127
4.39109e-99
2.16253e-11
1.47455e-36
1.75807e-15
0
4.05693e-152
2.95861e-144
3.17762e-79
0
3.72341e-110
3.47542e-09
1.49092e-114
1.80601e-150
0
0
0
6.77043e-133
1.97669e-130
0
0
6.39655e-136
7.39691e-96
0
1.07128e-145
0
1.23468e-23
1.59386e-27
7.50955e-24
4.06975e-140
0
0
0
0
5.88575e-122
3.49437e-142
1.26581e-141
3.55074e-142
5.20288e-79
7.20796e-124
1.89942e-146
1.18646e-84
0
1.7886e-38
3.47435e-35
0
4.20339e-85
3.02322e-85
2.69992e-100
1.29096e-143
8.10793e-109
8.92265e-166
1.94537e-61
1.08947e-36
0.00016729
2.36481e-30
1.28353e-105
2.65426e-138
2.38223e-20
0
9.38101e-71
1.25753e-70
6.56866e-23
4.46129e-21
0
2.65443e-121
0
8.97288e-156
5.71145e-75
2.6282e-67
2.16614e-34
3.1921e-100
5.32052e-97
6.8645e-73
2.35634e-92
0
2.66019e-83
9.35797e-127
3.71184e-88
0
1.43388e-161
7.8303e-23
0
0
3.57485e-164
1.55566e-114
3.45964e-109
2.05295e-140
3.71399e-81
1.33631e-106
0
0
1.19352e-129
3.91682e-51
1.46497e-137
7.81966e-104
7.40463e-15
0
1.19506e-52
0
3.77312e-111
1.05588e-51
1.68505e-153
2.42731e-105
4.06887e-108
0
0.000238208
0.0045105
8.40306e-12
0
4.35898e-50
7.63017e-101
2.07594e-13
6.85779e-08
2.70232e-106
0
0
6.98756e-130
0
1.44256e-111
3.73861e-125
0
0
2.33117e-79
0
2.10683e-102
8.98938e-115
3.16137e-74
0
0
2.83888e-72
2.53478e-104
0
0
1.88563e-47
0
0
0
3.50194e-23
5.8009e-110
1.01204e-153
2.75541e-50
8.00443e-81
7.56425e-75
1.66413e-73
6.8393e-90
7.44342e-72
1.91022e-76
4.28278e-124
0
0.0141483
1.41653e-34
7.83368e-58
2.4712e-71
9.52469e-06
1.55095e-70
1.55995e-06
0
0
1.38975e-11
0
4.0488e-10
6.09552e-11
7.2311e-77
5.0318e-18
2.07299e-110
4.50331e-103
7.10921e-63
0.0141258
2.94613e-78
2.21766e-26
8.97385e-10
5.37297e-105
1.77836e-09
3.86982e-94
2.52148e-42
1.02464e-70
0.000395352
3.47776e-152
4.88457e-35
6.11818e-122
1.19243e-68
0
2.77317e-22
2.61731e-127
4.93963e-106
0
8.9077e-98
5.07842e-121
2.36535e-49
0.00136568
0
3.64657e-83
0.0332243
2.0994e-120
4.01032e-98
1.22825e-117
8.53113e-06
7.73665e-37
4.3461e-49
8.85374e-151
0.00283747
5.12624e-48
6.70202e-05
6.23501e-159
7.50191e-151
1.53951e-05
2.58109e-139
0
0.000317503
1.18121e-167
0.000108036
1.50889e-10
0.000327391
1.39409e-134
1.43451e-123
4.04555e-80
3.06186e-123
2.32985e-100
1.53311e-142
1.41648e-115
1.22632e-107
1.67965e-84
4.04923e-80
1.45676e-148
7.56335e-23
1.26075e-26
1.45352e-33
1.97649e-24
0
6.46829e-152
0
1.9898e-151
5.5672e-80
0
5.58223e-140
2.82673e-119
3.1375e-105
0
6.72214e-96
0
0
9.43161e-53
7.61334e-29
0
3.00209e-34
5.43168e-62
0
0
1.17896e-60
1.95512e-58
0
0
8.79435e-122
0
6.60307e-140
0
0
0
5.46192e-47
5.36557e-19
5.78486e-120
1.6571e-114
3.51518e-112
5.00515e-78
1.42507e-41
1.78128e-64
2.13777e-58
2.49094e-63
5.65935e-26
0
1.92861e-108
2.51328e-77
0
1.26819e-58
1.05248e-27
0
1.53472e-40
1.53275e-94
7.51356e-72
0
9.47913e-139
0
0
1.00532e-66
2.23216e-37
1.33319e-22
6.47526e-75
0
0.0453674
6.47735e-72
2.76204e-25
3.75243e-32
4.54119e-114
4.60038e-66
1.17694e-74
2.17433e-143
2.82091e-120
1.05432e-75
9.39356e-80
1.39621e-88
1.85218e-97
8.80992e-99
3.69803e-37
0
5.24824e-86
4.18348e-10
3.28172e-99
3.52567e-82
6.77762e-09
0
4.36822e-122
5.13813e-140
3.63621e-12
0
0
0
0
0
2.56334e-51
1.44662e-46
4.22177e-115
2.61958e-38
1.60797e-162
0
0
1.0718e-100
1.06461e-121
2.77645e-12
3.36325e-109
1.02204e-140
9.31031e-22
0
1.2019e-17
0
2.36792e-109
0
0
4.90508e-57
0
0
2.51756e-52
0
0
4.49605e-43
7.18916e-46
2.7314e-12
0
1.1893e-110
2.48311e-62
0
9.13196e-65
9.38847e-40
0.0583803
1.25578e-42
0
2.82464e-47
0
7.90687e-47
0.000820537
2.33842e-23
1.73548e-53
0
6.316e-74
0
0
2.12776e-34
6.12425e-20
1.09185e-40
1.39444e-97
2.45537e-151
4.37445e-60
4.02191e-136
4.86933e-78
1.12419e-73
0.000174519
0
7.93607e-118
0
0
1.85951e-34
1.47e-68
1.15003e-86
1.49523e-05
5.27307e-53
0
0
0
1.23462e-137
9.10064e-43
1.53539e-69
2.74734e-09
0
0
2.17706e-65
6.29285e-51
0
3.42831e-33
7.42884e-140
3.56908e-23
0
3.94843e-19
7.06074e-139
2.80617e-76
0
0
1.25313e-123
2.91197e-108
4.71877e-33
8.34872e-15
1.73911e-36
7.08362e-09
1.05577e-66
1.84617e-30
6.81509e-14
2.82351e-37
5.68766e-128
5.96432e-134
0.0154303
9.62983e-21
1.36053e-30
0
8.85775e-29
0
6.26922e-32
1.27739e-113
1.68e-35
1.80621e-64
5.07695e-32
7.2615e-34
1.01615e-35
2.11634e-37
5.41231e-25
1.65138e-39
2.56877e-25
0
2.73423e-78
2.05255e-06
1.14263e-24
7.65696e-26
3.26186e-22
0
5.83286e-124
0
1.16244e-94
6.45117e-121
3.83938e-69
0
2.03592e-45
2.21364e-36
3.44397e-41
1.97903e-41
0
3.23757e-26
1.00876e-23
0
6.20618e-138
3.46601e-22
7.24682e-56
1.69038e-130
2.45158e-23
1.87955e-45
1.16133e-30
5.70171e-27
1.88148e-39
1.13158e-30
2.26095e-40
1.27671e-10
0
0
0.000533546
0
0
5.0247e-34
7.75048e-97
1.37516e-103
0.0118187
1.13563e-71
0
0
0.0258766
8.69856e-36
3.98873e-105
1.2781e-143
0
2.72504e-32
5.62715e-151
1.64812e-38
2.22037e-76
5.66538e-116
0
0
6.6362e-33
0.0142505
4.70995e-84
0.0217667
2.74936e-66
0
0
0
3.42754e-37
0
1.03274e-30
8.0349e-23
6.831e-25
0
1.24739e-31
2.03716e-25
0
1.7314e-33
0
1.84923e-28
8.07834e-30
4.70092e-23
1.22499e-27
3.79452e-74
1.5375e-160
2.5315e-40
8.25257e-154
5.12148e-64
0
0
8.81408e-26
8.47396e-07
7.99332e-13
1.14979e-40
2.17169e-33
2.48547e-33
1.84867e-33
1.69108e-38
1.65153e-22
1.08893e-89
0
2.82602e-152
0
1.08985e-156
1.38278e-26
2.88778e-150
1.23992e-30
7.17734e-27
0
1.27294e-32
1.57736e-149
0
0
3.16341e-34
0
0
8.86479e-41
6.50908e-166
1.34489e-77
0
4.23954e-14
0
4.16996e-20
0
0
3.89827e-52
0.00141342
2.22838e-17
5.71877e-62
1.65542e-75
6.41944e-12
4.10156e-50
6.0537e-52
8.58731e-40
5.13562e-84
2.73358e-26
1.74665e-176
2.79233e-112
0
6.25342e-139
1.34185e-19
2.47766e-117
2.93245e-88
1.75424e-12
3.46514e-39
3.21614e-06
1.14981e-69
2.3508e-09
1.55732e-114
0
3.97546e-39
7.05263e-146
1.7338e-59
2.79325e-42
1.21909e-108
2.24513e-91
0
9.55192e-88
4.47386e-88
2.79088e-50
0
0
0
1.19139e-93
0
1.02785e-108
4.35743e-97
8.53939e-06
0
2.81753e-05
1.30469e-78
5.52061e-95
9.44923e-58
0.0383066
2.41906e-21
2.27425e-109
3.36514e-30
3.10207e-47
3.38826e-62
8.77299e-72
5.43722e-22
0
8.06425e-48
1.79507e-22
0
1.1681e-43
2.37307e-30
8.325e-08
8.75481e-43
0
2.17066e-48
5.08542e-39
1.03375e-39
1.14344e-104
5.72752e-22
0
0
0.00110897
0
0.00363273
2.32859e-45
0.000736629
0
6.58525e-32
1.30809e-110
2.42787e-16
5.34757e-68
0
0
5.02788e-114
3.14377e-16
8.61726e-47
0
0
1.12628e-125
2.55742e-71
0
1.94396e-50
0
2.33753e-152
0
6.28782e-25
7.23633e-19
1.73414e-111
0
3.20353e-34
7.61331e-23
0
0
2.95474e-19
8.29555e-15
8.58867e-39
3.09761e-28
2.93772e-64
5.78423e-08
2.04487e-145
9.55057e-08
5.05515e-21
0.00804126
0
0
6.01379e-19
7.86841e-36
2.55802e-46
1.4296e-119
6.26376e-158
0
1.25626e-24
0
5.1022e-11
7.82381e-29
0
7.07127e-09
2.35523e-129
1.65922e-114
3.08744e-05
0.00393728
5.95097e-81
1.19064e-52
7.0537e-183
2.23151e-116
2.10764e-30
1.50794e-16
1.32926e-06
3.09819e-72
0
4.29509e-18
1.57515e-32
0
0
2.9606e-33
5.41865e-105
6.61245e-103
1.58924e-147
3.1552e-36
8.75135e-71
2.06548e-18
2.54161e-131
0
3.58685e-36
4.68761e-126
1.25182e-29
7.71944e-37
7.50356e-37
2.82905e-40
5.09899e-112
5.82082e-11
7.71262e-113
0.000187943
0
6.12818e-64
1.53273e-139
4.52885e-55
9.7415e-20
2.69426e-123
4.25336e-77
1.16421e-07
3.06289e-32
0
2.64184e-122
1.13257e-44
0
0
0
7.05593e-22
6.28808e-09
5.72882e-42
2.99548e-80
4.03516e-41
3.63551e-53
2.92588e-56
3.76898e-24
0
7.77811e-10
4.59484e-11
7.95128e-56
1.1442e-25
7.4637e-54
4.82616e-42
0
2.56284e-15
0
0
2.67753e-136
3.40627e-08
0
0
1.37979e-140
5.56173e-09
0
8.88909e-58
9.45012e-64
1.10945e-132
0
0
3.42847e-92
3.04643e-22
0
6.04248e-71
0
0
0
0
0
2.02081e-135
0
8.97301e-132
0.000114647
1.01486e-27
2.14217e-95
1.18106e-61
0
0
3.49636e-23
2.27906e-37
0
0
1.82472e-35
5.06267e-112
7.40206e-20
3.5021e-15
0
9.38659e-143
0
0
6.22624e-122
0
3.651e-34
5.13343e-125
3.12141e-147
0
0
5.33231e-15
1.43445e-62
1.76221e-35
4.31261e-140
0
4.45663e-39
1.74292e-18
0
0
5.60448e-63
4.07422e-93
1.38749e-49
0
2.36222e-105
0
6.73478e-113
0.000677532
1.24676e-72
1.34273e-25
4.47993e-121
1.03528e-20
2.40322e-27
9.53465e-127
1.21394e-26
5.77659e-53
1.39324e-34
1.15442e-38
7.40136e-07
6.20642e-48
0
5.94686e-28
0
0
2.52373e-124
0
2.98493e-30
1.12822e-19
0.0121596
0
0
1.99328e-39
2.48486e-73
1.14029e-13
2.19394e-45
4.72515e-15
2.71279e-48
9.60286e-17
1.39708e-41
0
6.79972e-18
3.14684e-21
6.41624e-93
0
6.71232e-150
1.43623e-81
0
2.1832e-153
8.95739e-43
0.000435907
0
0.00795193
1.15661e-34
7.0695e-75
0
3.2803e-23
2.01462e-18
0
3.73886e-34
3.26995e-60
0
1.01909e-150
1.17158e-41
0
2.58375e-22
0
0
3.19061e-151
0
1.84333e-62
2.18473e-138
0
0
0.0536865
2.59544e-39
3.53069e-155
0
0
1.47833e-78
1.74869e-96
8.33214e-152
7.52411e-57
0
9.18825e-67
0
1.83964e-65
7.31393e-66
1.21672e-119
0
0
8.7057e-83
0
0
0
4.51608e-20
1.27325e-35
1.64326e-47
1.732e-23
1.73693e-58
6.00016e-159
0
0
4.37132e-111
6.19333e-57
0
1.13296e-52
1.97552e-76
2.33012e-17
7.43724e-77
1.18498e-45
0
1.42654e-108
6.38663e-59
0
0.000646713
0.00578732
0
0
7.62636e-94
0
5.53923e-48
6.70712e-110
2.99825e-58
0
0
0
5.47384e-119
2.63998e-160
1.63303e-125
6.65084e-33
1.45476e-76
2.50599e-55
1.88518e-44
4.63166e-42
1.0904e-35
1.37737e-13
9.73635e-29
2.77221e-29
0
7.80341e-56
1.84832e-14
2.02785e-163
2.61859e-29
1.00417e-101
1.60766e-104
2.77624e-104
0.00179166
3.6867e-19
1.90716e-146
6.13601e-08
3.04131e-123
5.78506e-08
3.20736e-10
3.28603e-100
1.34093e-77
1.09052e-60
4.3055e-48
0
1.78927e-45
3.38359e-154
0
0.026094
8.24254e-16
9.02653e-96
3.679e-161
2.22833e-16
4.64612e-150
0
0
1.36973e-134
3.53965e-144
0.000621553
0
5.55285e-25
0
1.35959e-35
0
0
2.29652e-41
7.60246e-77
5.47218e-129
3.44387e-09
1.82025e-31
0
1.06485e-09
0
2.18398e-08
1.78745e-69
0
4.79755e-52
8.20754e-122
2.70153e-60
0.050922
2.67678e-102
5.1816e-60
2.09005e-109
1.04665e-09
7.40643e-85
5.21956e-98
0
1.8374e-47
0
0
1.98245e-102
1.51822e-38
3.92207e-52
0
0
2.04166e-53
1.36308e-127
0
0
6.73866e-27
6.23538e-36
0
1.32407e-25
3.03261e-112
1.35911e-125
0
0
5.65406e-06
0
2.01127e-24
3.78311e-45
0.000795828
3.55018e-26
3.39183e-97
0
1.54929e-26
8.78724e-75
4.43381e-37
0
8.77954e-39
5.88021e-45
0
2.06659e-138
0
2.98507e-36
0
0
0
2.72136e-45
3.32897e-72
3.29273e-112
1.89982e-103
1.84198e-94
0
1.38885e-60
8.5411e-64
3.37462e-22
5.6328e-122
5.15871e-69
1.06403e-97
8.58954e-43
0
4.7846e-99
2.19304e-82
0
7.29818e-06
4.81819e-100
1.47461e-06
7.0258e-33
9.27833e-82
0
7.38416e-100
0
3.78702e-107
3.36721e-56
2.61813e-43
0
1.13538e-45
2.36157e-44
8.33969e-123
1.31499e-44
1.24234e-06
2.40935e-46
0
0
7.75489e-24
6.99848e-32
0
0
1.05516e-128
0
5.3797e-39
0
4.00454e-134
3.11899e-39
0
0
4.64951e-48
1.69862e-14
0
0
1.63691e-24
2.59014e-118
1.76157e-25
1.70776e-133
0
0
1.26764e-80
1.61086e-105
1.28713e-36
0
5.04323e-14
9.00589e-32
4.04472e-05
0
2.04205e-113
4.64384e-73
0
9.67929e-38
3.36451e-37
5.8363e-56
2.00891e-09
2.71537e-135
0
3.46114e-50
1.26289e-39
1.67491e-126
2.06926e-41
3.5711e-39
2.7442e-07
1.52307e-08
0
7.78208e-126
4.55998e-30
0
1.11769e-55
1.28132e-22
1.50189e-42
2.90356e-45
2.4677e-98
5.76732e-56
0
2.88057e-41
0.0391065
1.42679e-32
6.00828e-58
3.45966e-26
3.85388e-13
0
1.1309e-30
0
2.338e-60
2.11194e-46
6.17924e-55
5.50875e-27
6.49465e-45
2.37411e-142
2.12106e-59
1.12151e-32
0
1.12783e-29
0
4.58687e-57
8.89602e-17
0
1.12273e-125
1.46515e-23
0
6.30195e-137
0
1.50565e-61
7.26991e-17
2.51049e-123
1.16628e-108
9.3938e-06
0
6.4804e-26
0
2.51038e-22
0
7.75981e-69
3.1393e-37
8.89612e-38
0
2.95425e-20
0
1.45083e-51
2.28793e-27
2.74061e-142
6.01574e-133
7.176e-114
8.09669e-20
8.98132e-30
1.85862e-79
6.15619e-30
3.68684e-105
3.58773e-13
3.96757e-16
1.00377e-07
3.76093e-26
0
0
0.00824608
2.65626e-78
7.42437e-87
0
0
3.90512e-134
1.5611e-136
1.25878e-112
1.42215e-154
4.60123e-28
1.00643e-22
1.11746e-40
0
0
1.32774e-97
1.43908e-125
0
0
1.4247e-118
2.84547e-06
1.21503e-15
2.61496e-110
4.70458e-87
2.42761e-78
0
1.27087e-43
6.21347e-78
1.25695e-46
6.53937e-80
6.98456e-86
0
7.17167e-46
8.01162e-11
0
5.25831e-24
0
1.17172e-83
0
3.70778e-22
3.18672e-97
6.04679e-99
3.99131e-109
0
1.94959e-22
0
0.0280726
6.27085e-113
1.96729e-146
0.0440992
0
4.36367e-48
1.67163e-69
1.31607e-100
2.99564e-38
2.11296e-109
8.35954e-49
0
1.31606e-47
0.0255578
3.69784e-15
1.52866e-50
0
1.02641e-24
4.4492e-145
1.13402e-14
0
0
2.29772e-107
2.92067e-89
1.52037e-128
1.44853e-90
2.82957e-56
2.74386e-129
0
5.05723e-06
0
1.69256e-14
9.22499e-142
4.09361e-93
1.72294e-08
3.15881e-24
8.23808e-106
2.51142e-26
0
1.79434e-103
8.517e-52
1.04606e-36
4.06083e-12
0
0
0.000522903
2.36304e-08
3.63734e-07
0
0
2.33694e-54
0
1.73411e-10
0
0
0
1.5151e-93
0
1.54737e-22
2.72564e-56
1.30356e-78
4.84024e-21
2.41035e-78
0
1.46894e-20
0
3.72808e-10
1.74808e-113
1.78026e-128
0.00492353
2.65282e-164
8.67951e-59
4.67017e-33
0
0.0068496
0
1.77429e-73
2.5604e-62
3.27348e-63
1.07803e-69
0
1.05268e-16
1.13955e-16
7.77619e-19
6.02371e-06
0
1.0459e-11
0
1.0366e-65
0
1.03383e-76
1.1927e-64
2.24067e-69
7.79986e-85
1.34729e-58
6.91332e-48
8.88449e-63
0
3.89885e-40
2.30926e-06
0
6.14134e-13
4.04911e-15
6.49364e-22
0
7.6815e-18
2.57677e-73
4.63414e-66
1.04029e-86
0
0
0
0
2.30537e-16
2.58531e-33
0.00172284
0.000509065
0
0
0
8.24718e-14
3.85389e-26
0.0311179
0
5.25566e-21
0
3.14005e-10
2.34117e-64
4.57231e-23
5.44565e-85
0
0
6.92611e-139
2.46513e-10
3.93821e-134
2.53901e-44
0
0.0112445
3.48153e-14
0
0
0
4.62421e-09
1.08069e-25
1.52704e-10
0
7.09299e-25
0.0464041
5.67589e-111
3.85354e-80
1.69806e-49
0
1.80828e-46
2.95762e-74
4.82552e-44
2.61688e-09
5.11247e-45
2.23775e-48
2.88547e-06
3.77386e-25
2.29556e-42
1.53812e-54
2.11278e-07
7.60814e-05
7.01739e-22
0.0306482
0
0
0
0
0.031587
5.16783e-24
6.56621e-43
0
1.83735e-45
1.64022e-15
0
1.9157e-119
0
2.45847e-38
0
0
5.52619e-45
8.1317e-86
2.36041e-05
0.0107639
3.19955e-54
0.0296842
1.0222e-41
1.59782e-152
3.27973e-36
1.28787e-07
2.80209e-21
1.00255e-13
1.24891e-14
1.97365e-10
0.000146521
0.0264564
7.1813e-13
5.59316e-40
1.50056e-09
0
9.42934e-48
1.78861e-53
0
8.66495e-35
2.77327e-08
7.77022e-15
7.47914e-23
2.21403e-10
1.45633e-07
4.51648e-37
0
4.36465e-54
0
7.09872e-115
1.29077e-38
1.6409e-89
5.60309e-36
0
0.00020452
0.00435032
0.000228805
0
0.00918957
0
0
6.24518e-38
7.61521e-07
3.51864e-13
0.000333633
1.51412e-56
1.34407e-49
0
0
7.47159e-147
3.2446e-134
1.05799e-25
0
0
0.0377292
0
5.87399e-39
0
3.46772e-07
2.01112e-12
0.00776048
6.0129e-150
6.45136e-05
5.68059e-38
2.23253e-126
7.13933e-81
2.03137e-11
2.47532e-23
1.79082e-150
1.74973e-112
0
7.12316e-74
0
0.000642332
0.000338442
0.00132295
1.09635e-12
3.01629e-121
0.00150451
3.69746e-28
4.30484e-149
0
7.08992e-78
0
0.0125181
1.4258e-66
3.16097e-77
1.18503e-05
7.92014e-72
7.36969e-46
2.95711e-73
2.09479e-51
0
1.72355e-91
2.44461e-22
1.58703e-33
9.33652e-54
3.79176e-20
3.49063e-20
3.83365e-30
0
2.11727e-53
1.52902e-86
5.60038e-48
1.1547e-43
3.1381e-55
1.15005e-23
6.12052e-19
2.43934e-56
0
0
6.40898e-46
1.06892e-138
1.09475e-47
1.0421e-45
1.18734e-06
0
7.11783e-11
3.05968e-15
0
3.46699e-144
0
5.45549e-44
6.65036e-28
3.20694e-35
2.43022e-110
1.22125e-20
0
1.0931e-92
2.34508e-23
0
1.38582e-44
2.44249e-40
0
9.83872e-32
0
4.59975e-69
1.53734e-15
8.78089e-23
1.38053e-32
1.985e-74
8.33579e-21
4.11376e-37
1.05835e-32
1.85624e-34
0.00560914
0
2.97079e-80
6.8722e-28
9.42155e-06
0
5.79152e-08
0
1.9948e-38
5.40251e-112
3.37169e-137
0.0764058
2.08656e-30
7.68594e-16
2.93668e-26
4.01075e-16
1.7999e-05
3.75265e-10
8.40109e-160
3.26768e-28
2.72664e-137
1.52532e-29
5.42448e-72
1.22122e-34
2.87086e-30
4.07202e-84
1.2369e-24
0
1.47089e-41
2.92513e-36
0
8.51464e-69
2.68797e-27
6.69088e-73
2.86152e-76
0
1.21114e-140
2.51371e-44
0
3.45555e-35
0
0
3.71644e-130
0
5.2614e-76
0
2.29346e-25
8.33056e-117
7.52763e-113
0
8.47308e-74
2.24188e-55
0
2.60279e-14
1.92474e-69
1.8849e-121
1.00025e-35
6.94701e-92
0
0.0113855
0
0
6.11153e-37
1.44716e-58
8.90296e-09
0
1.25513e-93
1.71706e-164
1.50592e-137
0
0.00978075
0.0257656
8.07594e-38
0
0.0484368
7.86932e-53
8.45997e-32
4.85549e-168
5.20296e-17
1.7925e-107
0.000361582
2.56513e-35
1.02996e-105
0
0
4.05108e-31
0
0
8.38239e-19
4.44062e-31
0
1.19936e-28
3.2223e-18
3.30539e-91
0
1.7582e-83
7.40478e-20
9.61616e-85
8.53025e-174
1.45547e-113
0
0
1.48561e-22
4.52402e-06
2.64534e-169
9.17465e-167
1.71897e-21
2.31631e-155
0
2.7949e-52
0
7.86066e-11
7.55256e-20
0
0
0
0
3.39958e-24
0
2.72522e-24
2.0181e-70
1.38479e-14
1.31987e-48
8.50949e-99
0.031224
1.9001e-33
0.000566855
1.16829e-09
2.05331e-19
9.6327e-35
1.68929e-75
1.88813e-122
1.0541e-10
0
1.90905e-19
9.67078e-15
7.05762e-58
0
3.33315e-73
1.48759e-06
1.4525e-32
5.49034e-31
5.46373e-74
0
1.95079e-40
0
3.51287e-12
0
2.35239e-125
5.88359e-130
0
2.14912e-32
2.94857e-24
4.93234e-95
0
0
3.22653e-13
8.65171e-34
6.87717e-16
1.02748e-154
0
8.08709e-15
1.69967e-15
3.69834e-161
4.26075e-62
1.3254e-17
3.4135e-57
7.37366e-57
0
4.24916e-28
1.17087e-24
0
1.23103e-160
4.29869e-19
0.0416603
9.13628e-19
4.63857e-23
4.55949e-68
0.00105452
0
0
0.00361287
0.036882
0.00655647
0.00169163
0.00184492
0.00120754
0
0.0478638
4.4078e-25
1.30222e-26
3.94817e-163
3.86665e-08
0.00237431
5.76042e-147
1.42401e-31
0.00409675
0
0.0126266
1.31074e-163
5.47556e-20
2.74943e-27
6.06899e-13
1.35433e-40
6.76514e-16
1.21148e-98
0
1.29929e-55
1.14246e-49
8.19381e-06
1.15003e-114
1.31908e-11
0
2.99576e-157
7.91109e-162
0
8.06169e-61
1.73167e-62
0
6.2588e-23
0
7.16337e-30
4.37111e-62
0.00559581
4.04228e-159
3.6151e-19
0
2.57095e-44
5.25936e-17
0
8.77511e-160
5.31401e-71
5.10021e-45
0
3.46095e-06
3.02796e-07
0.0167484
4.65916e-22
1.28102e-40
1.37252e-43
0
0
0
2.65591e-37
0
0
4.77794e-30
2.25997e-08
8.93769e-45
3.52536e-41
2.80634e-67
0
1.78694e-26
0
1.00852e-58
0
2.84885e-26
1.99488e-08
1.51218e-94
0.000278608
0
4.07691e-73
4.05984e-12
2.23669e-13
8.09197e-110
1.9154e-55
1.03318e-73
0
1.92165e-65
0
0
9.43357e-43
5.11235e-74
1.05379e-72
4.68981e-96
4.73436e-72
0
1.95588e-75
4.26458e-21
2.4812e-75
0
5.26816e-77
0
1.83595e-40
7.89021e-07
7.47802e-13
4.45614e-84
0
0
0
0.00135539
0
0
0.00186011
0
0
0
1.57672e-42
0.00104699
3.91267e-76
8.13151e-76
1.68588e-67
0
0.0020587
0
6.40914e-117
0
2.72512e-56
2.8178e-66
4.18046e-115
7.15677e-90
4.62227e-75
7.3389e-111
4.65267e-25
5.30641e-66
3.67335e-114
9.28662e-44
0
7.52627e-48
1.03236e-18
2.02766e-73
9.2923e-118
5.92532e-13
1.46958e-14
0
7.75465e-111
0
0
0
0
5.5696e-72
6.38111e-16
0
3.51933e-59
0
0
2.49167e-61
0
3.99718e-30
8.31626e-22
5.73075e-12
0
9.61565e-10
1.97287e-31
6.38881e-09
5.50826e-109
8.35337e-69
0
1.80319e-110
0
0
1.83877e-106
1.32303e-12
0
5.77207e-109
4.0985e-29
5.5347e-56
3.44495e-20
1.86441e-61
3.94928e-19
7.77122e-57
5.96777e-64
1.00684e-16
1.43058e-111
0
2.89359e-87
1.12941e-51
0
2.64457e-36
1.21267e-16
4.48083e-68
1.58295e-16
1.99622e-28
2.08592e-14
7.06091e-66
0
0
2.25711e-10
9.3681e-41
3.35917e-32
1.73501e-54
9.77314e-109
1.60371e-65
4.30108e-53
1.7218e-49
5.45123e-26
3.51361e-102
2.13996e-103
8.28059e-56
2.3137e-29
1.08595e-31
0
2.21569e-51
0
0
2.13261e-73
9.70342e-86
2.23195e-46
5.70085e-48
0
7.21477e-84
7.73331e-88
0
1.00001e-83
2.25113e-80
1.02023e-75
0
0
0
1.2475e-13
0
6.33364e-12
0.0116233
3.92429e-133
0
1.48479e-22
2.62186e-87
0
0
1.68853e-142
1.95554e-89
5.56931e-29
4.07647e-17
6.52648e-48
3.42319e-76
3.04954e-34
4.55072e-145
5.83233e-40
8.78446e-12
1.07668e-143
0
2.81183e-15
1.15338e-144
2.13628e-90
0
6.75833e-96
7.66046e-40
0
3.60101e-67
0
1.78412e-21
0.00557738
9.27918e-28
7.73018e-53
7.37148e-107
1.89997e-141
7.70842e-100
0
0
5.01444e-109
1.51283e-108
2.55367e-69
2.83495e-38
3.95505e-84
4.38768e-107
2.89813e-104
9.27063e-17
0
1.17168e-11
4.94458e-19
1.88423e-25
1.29133e-85
1.60802e-20
0
3.36459e-95
1.83741e-82
5.06829e-06
0
1.22304e-77
7.50105e-49
9.78886e-21
1.4975e-68
1.17288e-71
3.9036e-19
0
7.00626e-17
0
0
2.77088e-65
2.49975e-74
8.51556e-21
0
5.56163e-20
3.31607e-78
0
2.82781e-22
6.0661e-84
5.06421e-102
0
5.66475e-19
1.74394e-74
8.02921e-22
1.1344e-22
0
6.28566e-16
2.89844e-19
2.50311e-29
1.83855e-23
5.86658e-98
2.79494e-28
0
3.66486e-32
0.00280885
0
0
4.71277e-51
7.96598e-55
4.54027e-53
0
0
5.29136e-62
0
0
0
4.39694e-51
2.24643e-46
2.7356e-141
0
6.21648e-115
1.7884e-37
0.00369091
5.20067e-108
4.11138e-30
2.56005e-31
0.00652164
3.2452e-115
0
0.0438724
1.97378e-121
0
3.75475e-44
1.55465e-38
3.73274e-99
8.86748e-33
7.72155e-120
2.02294e-120
0
1.98983e-122
0.00125656
3.46469e-59
5.02698e-62
9.22583e-05
1.3713e-14
2.88774e-114
9.86995e-75
0
5.54153e-65
1.73285e-118
1.36505e-73
3.06436e-21
0
1.90109e-28
2.62197e-47
6.81912e-25
1.22786e-07
1.97681e-60
6.57826e-93
0.0217827
1.71182e-34
0
0
8.11205e-11
2.89608e-36
1.03495e-30
3.32557e-26
5.12521e-36
2.61129e-22
0
0.0124907
0
4.92865e-19
4.26752e-21
0
1.84327e-26
3.72289e-102
0
0
3.48845e-45
1.13723e-46
0
0.000176486
1.15078e-32
0
8.17822e-21
2.65829e-50
0
1.26412e-05
7.56901e-81
8.53153e-19
1.16319e-88
1.15508e-08
0.0191888
0.0408994
5.44764e-123
3.61307e-97
0
0
1.04486e-61
3.91929e-11
1.26116e-51
6.34524e-19
1.98738e-17
1.34562e-21
8.99117e-76
0.00186027
0
1.84031e-34
0.0179149
4.25513e-06
0
3.28293e-21
3.69378e-81
1.20381e-39
0
0
3.38494e-77
7.41086e-66
1.91614e-99
0
0
0.00161749
1.18711e-53
9.80941e-55
1.54556e-103
1.72051e-28
8.85214e-48
6.98172e-97
5.36056e-41
1.82866e-79
5.95374e-78
9.61203e-55
0
1.97955e-49
0
1.09482e-39
7.84054e-78
0
1.77759e-46
8.63344e-08
1.87793e-79
0
1.29992e-37
1.21257e-17
4.64961e-131
0
3.09523e-26
0
0
0.00658494
1.128e-71
4.60777e-44
0
2.94653e-99
0
2.17563e-65
4.78352e-133
0
1.85793e-43
8.1602e-97
4.90798e-32
0.0150292
1.50292e-131
1.36665e-18
2.32254e-129
4.54846e-29
5.87464e-44
1.64839e-98
2.25673e-129
6.47808e-22
0
2.79845e-117
0
0
0
0
1.67956e-163
3.81469e-25
1.14321e-20
2.19687e-133
1.59975e-31
2.10746e-100
2.30329e-139
0
4.0449e-58
0
5.45088e-49
0
3.72456e-70
1.83596e-102
0
0
5.17979e-05
7.07535e-43
0
0
3.34469e-115
0
0
0
9.30368e-82
2.40761e-80
0
4.20475e-90
0
2.24522e-08
5.53149e-120
2.76373e-63
7.04278e-73
0.00382648
0.000286909
1.57175e-86
2.64128e-48
2.49607e-14
1.48821e-99
4.41136e-48
0.0591641
2.14675e-133
2.62943e-08
2.84352e-29
0
5.72784e-66
1.31828e-94
5.81128e-17
1.22354e-45
5.83152e-111
1.35421e-113
4.30075e-70
3.13234e-94
0
8.33736e-25
2.01794e-09
5.64944e-43
5.0345e-29
0
2.21973e-20
0.000362987
0
1.07119e-48
0
0
0.0224703
2.06531e-98
1.27794e-88
4.86831e-140
1.33314e-53
9.13031e-48
8.0254e-09
0
0
0
4.85192e-21
0
1.07967e-102
0
4.43194e-100
6.03403e-105
4.00507e-123
1.57106e-104
7.69539e-39
2.84902e-30
0
2.66532e-42
0
5.04449e-91
0
3.95446e-126
0
4.51987e-20
3.60043e-136
0
4.66859e-128
0
6.39086e-108
4.09145e-21
2.39214e-34
0
2.28368e-50
5.17349e-124
2.80322e-148
0
1.21684e-20
2.11796e-35
0.00194947
2.96423e-81
1.33761e-121
0
4.78613e-15
1.42841e-14
1.8314e-26
0
0.00176621
0.00188281
1.36824e-20
0.000971935
0.00447538
1.71126e-56
4.63362e-22
3.17974e-17
0
0
4.58671e-148
7.82129e-87
2.89023e-124
1.67678e-67
0.013981
0
0.000117229
7.21777e-19
0.000239676
1.05682e-53
0
0
2.0987e-17
4.98108e-23
0.00524575
1.72995e-14
1.86415e-08
0.00619732
0
0
0.000268329
8.45527e-78
0
6.65695e-18
0
3.73413e-143
0.013725
0
0
1.68943e-116
1.33883e-98
0
1.70267e-41
0
4.01842e-122
5.03735e-23
1.62149e-11
0
4.12779e-42
5.38537e-69
0.00187498
1.01055e-16
1.46211e-52
3.91406e-147
8.72964e-132
0.000468106
2.5606e-88
2.96529e-82
2.79379e-19
0
1.3352e-54
0
3.14793e-88
1.5322e-26
2.25823e-22
3.137e-82
7.40115e-183
5.40842e-84
0
7.72562e-85
6.60498e-30
0
4.77147e-32
1.31259e-69
1.3539e-89
1.0655e-56
0
1.79992e-122
0
0
1.63941e-109
4.09779e-79
7.5012e-85
3.72948e-86
1.38166e-80
1.83286e-40
0
0.00018271
1.30317e-81
2.81963e-148
2.80127e-95
0
0
0
7.71948e-25
5.71101e-05
0
0.000221374
0
1.02395e-14
4.40253e-21
3.4584e-05
0.000241809
2.15836e-14
1.6191e-26
2.23954e-65
0
0
2.16326e-63
5.29519e-128
9.32961e-93
0
2.68888e-06
1.75304e-111
3.93429e-17
5.32045e-80
1.67487e-36
0
0
0
0
0
7.25597e-20
0
4.67079e-100
0
3.85583e-36
4.65385e-33
1.60022e-54
2.74415e-40
0.0156582
0
0.00713858
1.18338e-163
7.14686e-151
3.47398e-32
0.00421247
0.00460336
0.0102988
0.000373022
0.00100407
3.65544e-19
3.94177e-17
1.02956e-37
0.00699994
0
0
1.33449e-107
0
6.21068e-26
3.32318e-18
1.86438e-15
4.53467e-47
0
0
0
2.2653e-19
3.99926e-07
5.42994e-130
0
2.69269e-120
4.04878e-09
4.97984e-10
0
0
6.69998e-08
4.80331e-13
4.00319e-21
0
2.80711e-13
0
5.48958e-23
1.40785e-140
1.63225e-11
0
7.58758e-27
1.24328e-132
0
0
1.6184e-122
4.5005e-113
2.00814e-24
0
2.81092e-95
0
1.46509e-114
1.11432e-24
0
3.58668e-109
1.10603e-24
4.19278e-14
8.58722e-12
0
9.82039e-13
2.18349e-24
2.46188e-10
1.91916e-61
0
9.88065e-12
4.55102e-15
0
0
8.84993e-45
0
1.33e-25
3.11918e-37
1.21321e-19
0
8.09202e-58
1.32056e-16
0
2.48341e-28
8.51834e-136
1.19208e-78
0
1.6487e-16
0
0
0
1.07091e-79
0
0
0
4.30837e-19
0
8.52899e-09
9.85782e-25
0
0
4.01909e-44
0.00490136
0
4.34838e-25
1.3474e-82
7.43958e-38
2.97977e-100
8.80873e-61
5.67745e-112
3.65767e-107
3.06067e-112
4.34937e-84
4.75312e-114
1.52488e-26
4.4348e-161
0
9.91949e-106
0
5.17741e-116
5.10406e-148
0
1.4943e-16
0
2.15105e-135
0
1.21378e-31
0
6.58554e-27
2.52085e-31
8.4503e-118
6.98745e-27
6.14152e-79
0
1.06131e-64
1.63531e-28
1.45462e-33
1.19749e-109
3.82429e-47
3.2197e-77
3.466e-104
3.92084e-105
0
1.77238e-119
0
1.85095e-115
1.4034e-154
0
0
0
1.75093e-19
9.53533e-139
2.04868e-55
1.02061e-105
1.0326e-36
1.21689e-103
3.94998e-31
3.42949e-55
2.81142e-15
5.62541e-105
1.35188e-106
1.555e-108
0
2.3684e-25
3.23437e-67
0
0
0
0
1.36635e-29
3.4717e-105
2.01555e-122
0
8.30224e-102
0
8.76139e-24
3.62626e-117
0
0
0
2.5377e-74
1.37208e-93
8.79562e-92
2.05869e-52
3.05807e-121
3.42348e-143
1.51598e-52
3.027e-18
5.54339e-125
8.50323e-108
0
3.26456e-79
4.94858e-67
2.62136e-77
9.13543e-23
2.91866e-24
4.59371e-89
0
1.51044e-111
3.10956e-23
6.60269e-107
1.62997e-14
0
1.55861e-33
0
0
1.83357e-61
0
1.02004e-101
0
8.43987e-54
1.71063e-145
0
2.31763e-80
2.25206e-150
2.07661e-104
0
5.46595e-73
3.15168e-88
0.0195805
0
0
2.31528e-67
0
1.67777e-34
1.00954e-33
8.82541e-25
5.00926e-14
0
2.51561e-42
0
0
2.00786e-31
0
0
2.49119e-73
3.63407e-59
0.0102892
2.70936e-103
2.36595e-77
0
1.91448e-26
1.09302e-25
1.81886e-15
1.72127e-25
0
0
0.00412148
3.86476e-135
1.18607e-23
5.39196e-113
1.0583e-79
7.63258e-145
1.64751e-70
0
2.90152e-45
0
0.00264648
3.29959e-11
0.000344535
8.39294e-08
0.00029568
4.88739e-30
3.80341e-136
1.29949e-123
1.33551e-109
2.96132e-107
0
1.10253e-132
4.75461e-136
9.32609e-115
0.00326857
4.38744e-19
1.49185e-29
1.18356e-28
3.49885e-94
2.66522e-06
3.42072e-49
1.9999e-21
4.68559e-32
5.91371e-137
0
0
0
0
1.58468e-22
0
5.76848e-05
0
7.59545e-06
0
1.19255e-33
0
7.55258e-22
0
6.96321e-20
1.72481e-43
0
0
0
2.14287e-15
0
5.28433e-22
1.68144e-135
7.7113e-89
2.75999e-10
1.04294e-109
3.42747e-33
2.13071e-138
0
0
8.30917e-120
8.92474e-107
1.46568e-107
2.91203e-28
3.56225e-104
0
0
4.23441e-28
1.87644e-108
3.86236e-79
0
1.18788e-69
3.33176e-106
4.97039e-105
0.0234029
0
1.44297e-21
0.00292741
5.08455e-23
8.20175e-144
0
1.11015e-31
9.07193e-108
8.23145e-105
2.79191e-10
6.77463e-28
2.06492e-99
0
0.00221465
1.33318e-39
0
8.59901e-48
1.81068e-55
2.34986e-121
0
2.60704e-79
0
0.00158403
0
0.00252944
6.64238e-69
8.72198e-39
0
1.41694e-146
2.24903e-21
7.21284e-133
3.2845e-97
4.74164e-62
0
0
0.00935033
3.65743e-54
0.00260718
1.62884e-49
2.16106e-22
2.70881e-51
2.04479e-46
5.93459e-82
1.5933e-104
2.29896e-38
0.0398338
1.73983e-15
1.66546e-32
4.15979e-20
0.0286109
5.4956e-48
5.00793e-19
4.26215e-10
2.39279e-107
0.000231882
3.56961e-13
6.79762e-52
3.79966e-117
4.22738e-08
1.32841e-08
8.76411e-07
5.76978e-09
7.87165e-18
1.22545e-20
0.0145287
9.97397e-45
0.000263247
4.37158e-33
0
9.96786e-78
4.3435e-21
0.00274059
5.11885e-56
3.9426e-45
0
4.88484e-06
3.6228e-35
0.000118548
6.11672e-141
5.71807e-132
0.0164086
7.47782e-34
1.068e-58