/*--------------------------------*- C++ -*----------------------------------*\
| =========                 |                                                 |
| \\      /  F ield         | OpenFOAM: The Open Source CFD Toolbox           |
|  \\    /   O peration     | Version:  v2012                                 |
|   \\  /    A nd           | Website:  www.openfoam.com                      |
|    \\/     M anipulation  |                                                 |
\*---------------------------------------------------------------------------*/
FoamFile
{
    version     2.0;
    format      ascii;
    class       volScalarField;
    location    "2.5";
    object      ILambda_7_0;
}
// * * * * * * * * * * * * * * * * * * * * * * * * * * * * * * * * * * * * * //

dimensions      [1 0 -3 0 0 0 0];


internalField   nonuniform List<scalar> 
108993
(
146.199
146.201
146.2
146.201
146.201
146.2
146.201
146.2
146.2
146.125
146.2
146.2
146.201
146.2
146.2
146.2
145.872
146.199
146.201
146.201
146.201
146.201
146.201
146.2
146.201
146.2
146.2
146.201
146.201
146.2
146.2
146.2
146.201
146.193
146.201
146.201
146.2
146.2
1081.37
153.101
146.201
146.2
146.2
146.201
146.291
513.339
146.201
146.201
146.201
146.201
146.2
146.286
146.201
146.2
146.195
146.2
146.2
146.2
146.201
146.201
146.2
146.201
146.2
146.2
146.201
146.2
146.2
146.201
146.2
1379.96
146.2
146.201
146.201
146.201
146.201
146.2
146.2
146.09
146.2
146.201
146.2
146.2
146.2
146.2
146.199
146.2
146.2
146.2
146.2
146.2
146.2
146.2
146.2
146.2
146.2
146.2
146.2
146.2
146.2
146.2
146.2
146.201
146.2
146.2
146.2
146.2
146.2
146.201
146.201
147.592
146.386
146.2
146.247
146.399
146.2
146.452
146.201
146.2
146.203
146.2
146.199
146.201
146.209
146.2
146.201
146.208
146.201
146.2
146.201
146.201
146.2
146.201
146.2
146.559
146.2
146.2
146.201
146.2
146.2
146.2
146.2
146.2
146.525
146.201
146.201
146.201
146.2
146.275
146.2
146.863
146.946
146.2
146.2
146.918
146.2
146.203
146.2
146.201
146.201
146.446
146.915
146.201
146.2
146.2
146.2
146.229
146.2
146.2
146.2
146.2
146.201
146.2
146.344
146.2
146.201
146.2
146.204
146.2
146.2
146.2
146.19
146.2
146.201
146.2
146.2
146.2
146.201
146.2
146.2
146.2
146.2
146.201
146.2
146.201
146.2
146.2
146.201
146.2
146.2
146.2
146.2
146.202
146.201
146.201
146.203
146.422
146.2
146.236
146.2
104.599
146.257
146.2
146.204
146.225
9763.73
146.2
146.2
146.2
146.201
146.2
146.201
146.762
146.2
146.201
146.201
146.2
146.201
146.2
146.582
146.2
175.959
146.2
146.2
146.2
146.2
146.2
146.201
146.201
146.249
146.201
146.2
146.2
146.2
146.201
146.201
146.2
146.226
146.216
146.201
146.201
146.2
146.201
146.2
146.2
146.201
146.201
146.201
146.2
146.2
146.2
146.2
146.201
146.213
146.22
146.201
146.2
146.2
146.201
146.2
146.2
146.2
146.2
146.213
158.049
146.242
146.2
146.2
146.205
146.2
146.201
146.201
3552.17
4001.25
146.2
146.2
146.201
146.201
146.201
146.2
146.246
146.2
146.2
146.201
146.2
146.2
146.2
146.2
146.2
141.936
146.2
146.236
146.614
146.2
146.2
146.2
146.2
146.201
146.2
146.2
146.211
146.2
146.2
146.204
146.201
146.2
146.47
146.2
146.204
196.707
146.2
146.201
146.2
146.201
146.201
146.2
147.605
165.052
146.405
146.2
146.2
146.201
146.271
147.254
146.2
146.267
146.201
146.2
146.201
146.2
146.2
146.2
146.264
146.201
146.2
146.2
146.2
146.2
146.2
146.2
146.2
146.2
146.2
3450.34
146.232
146.201
146.2
146.2
146.64
146.2
146.2
146.2
146.201
146.2
146.2
146.201
146.201
146.2
146.201
146.2
3624.19
146.2
146.2
146.2
147.229
146.201
146.574
146.2
146.2
146.54
146.2
146.453
146.532
146.201
146.2
146.2
146.202
146.2
3886.99
146.2
146.234
146.485
146.204
146.469
146.2
146.224
146.201
351.256
146.2
146.257
146.2
146.201
146.204
146.206
146.2
146.201
146.204
146.202
146.2
146.2
184.09
146.2
146.201
1633.79
146.2
146.2
146.2
146.77
458.505
146.235
146.2
167.47
146.201
146.248
146.2
146.2
146.923
146.201
146.243
147.424
146.2
452.696
317.522
213.029
146.201
146.2
146.148
146.201
146.201
146.2
146.2
146.2
146.2
146.2
146.201
396.02
146.201
146.201
146.377
146.2
146.201
146.2
146.2
146.2
146.196
146.2
146.2
146.2
146.201
146.2
146.2
146.206
146.2
146.206
146.649
141.323
146.2
146.2
146.206
146.2
146.2
267.112
146.201
146.2
146.2
146.201
146.222
146.2
146.247
146.325
146.296
146.2
146.2
146.2
146.2
146.2
146.2
146.2
146.2
146.429
146.2
146.2
146.2
146.245
146.2
146.311
146.2
146.2
146.2
146.2
146.201
146.201
146.2
146.2
146.2
146.25
146.484
146.2
146.2
7608.76
146.2
146.201
146.201
146.2
146.2
146.2
146.201
146.2
146.2
146.201
146.2
146.201
146.201
146.201
146.201
146.201
146.861
146.203
146.2
146.755
146.201
146.201
146.201
146.84
146.2
146.2
146.2
146.213
146.2
146.099
146.22
146.2
146.223
146.2
146.2
146.2
146.2
146.2
146.806
146.2
146.2
146.225
146.201
2239.13
146.201
146.2
146.2
146.2
146.201
149.51
146.201
146.196
146.2
146.2
146.201
211.056
146.216
146.2
146.2
146.201
146.201
146.2
146.2
4342.59
211.783
146.257
146.201
146.2
190.167
147.711
146.201
146.2
146.2
146.2
146.201
146.2
146.339
704.958
197.065
146.2
146.2
146.201
146.2
146.201
146.2
157.983
146.2
146.2
146.2
146.2
146.229
146.2
146.2
114.719
146.203
146.2
146.2
156.358
146.2
146.203
146.2
146.609
146.2
146.202
146.2
146.201
146.2
146.2
146.2
146.362
146.2
146.311
146.2
146.2
146.316
146.201
146.201
146.2
146.221
5932.61
146.2
146.429
146.201
146.24
146.778
146.2
146.2
146.2
757.591
146.53
146.431
146.194
146.366
146.2
146.2
146.2
146.2
146.2
146.273
146.305
146.2
146.2
146.312
146.273
168.697
903.729
146.201
146.179
183.557
314.438
194.238
159.148
146.2
146.201
146.2
146.2
146.201
146.203
146.202
146.236
146.263
146.232
146.201
146.244
187.811
187.187
146.201
146.2
347.713
146.2
146.278
146.201
147.038
133.921
146.2
146.253
146.202
648.985
315.694
216.784
147.633
146.201
146.2
146.554
146.154
146.2
369.413
143.609
146.224
143.351
2039.1
146.337
146.2
146.2
146.2
146.292
146.2
146.244
146.2
146.2
146.2
146.201
146.218
10827.7
146.2
1538.8
146.2
146.371
144.999
146.2
146.481
146.201
146.2
146.21
146.2
146.197
146.201
146.201
146.39
146.246
146.201
146.37
146.2
146.2
146.2
146.2
146.2
146.216
146.2
146.2
146.201
146.2
146.2
476.638
146.247
146.2
146.201
146.2
146.2
146.2
145.371
146.2
146.2
146.2
146.2
146.2
146.201
146.2
146.2
146.346
146.2
146.2
146.2
146.2
146.2
147.022
146.201
146.201
146.221
146.201
146.2
146.2
146.211
146.2
146.237
146.318
146.2
146.2
549.122
146.211
146.185
146.2
146.345
146.2
146.2
146.201
146.201
146.201
146.2
146.2
146.571
146.2
152.837
146.2
146.2
167.589
146.202
146.279
146.201
146.912
146.2
146.201
146.221
146.201
146.2
146.204
146.2
146.2
146.2
146.2
146.2
146.2
146.201
146.2
147.442
146.2
146.733
146.2
146.2
217.987
146.2
173.612
146.198
146.2
146.2
2693.33
146.2
146.2
146.551
146.226
146.201
146.202
146.226
152.689
146.2
146.832
146.2
146.2
145.965
732.889
146.2
146.2
146.2
146.201
146.2
146.2
205.969
146.2
146.2
72.9046
146.2
1046.32
146.2
181.111
146.2
146.201
146.206
146.254
146.212
146.2
146.211
146.212
1437.39
146.201
4981.95
146.201
146.201
146.2
146.551
146.201
146.23
146.201
146.2
146.234
5138.96
146.2
146.201
146.45
146.221
146.2
146.231
222.175
4863.72
146.201
146.82
146.201
147.159
146.2
147.301
147.998
227.109
146.2
146.2
146.201
146.269
146.332
146.201
146.201
146.334
146.369
146.2
146.839
146.201
146.201
147.155
146.201
146.2
145.855
277.139
146.201
146.201
146.2
146.2
146.23
146.227
147.07
146.2
147.111
146.076
146.236
146.201
146.2
146.203
146.204
146.201
146.201
146.201
146.2
146.235
146.201
146.2
146.23
146.2
146.681
146.307
146.202
146.217
146.2
146.484
146.2
192.919
146.201
146.2
146.201
146.373
146.236
146.2
145.659
147.197
146.258
146.301
146.2
146.204
146.259
146.61
146.2
162.521
146.236
146.212
145.508
146.209
146.2
146.516
146.402
146.253
146.218
146.212
146.007
146.456
146.201
146.201
146.207
146.465
145.761
146.2
146.201
145.889
146.2
146.2
146.2
145.863
146.2
146.2
146.2
146.201
146.2
146.2
146.201
146.879
146.2
146.2
146.182
146.201
147.972
146.2
146.2
146.201
146.2
146.201
150.729
164.112
146.2
146.2
146.201
146.516
146.677
146.222
146.201
146.2
146.235
146.2
146.201
146.917
146.206
146.2
146.2
146.2
146.2
146.2
146.201
146.2
146.2
146.2
146.2
146.221
146.2
146.201
146.201
146.2
146.201
146.338
146.201
146.201
146.2
146.2
146.201
146.204
146.2
146.2
146.2
1100.15
146.2
146.201
146.2
145.83
146.2
146.2
3901.3
146.372
146.342
146.201
148.548
146.219
146.38
146.201
2609.13
146.201
146.2
146.2
146.305
146.061
2428.6
146.541
146.201
146.2
146.201
144.944
146.2
146.126
146.337
146.193
145.855
146.916
146.448
146.458
146.2
146.2
146.2
146.2
146.2
146.201
146.197
146.852
146.201
6888.6
146.14
146.2
146.2
146.632
146.969
146.2
146.129
146.2
146.202
146.2
146.201
147.411
146.233
146.2
146.229
146.2
146.2
146.2
146.201
146.201
146.201
9938.47
146.263
146.201
146.2
146.2
146.2
146.2
146.2
146.2
146.2
146.2
146.2
146.2
146.2
146.2
146.2
146.201
146.2
146.2
146.2
146.2
582.574
146.646
146.506
146.378
146.2
146.201
146.2
146.2
146.173
146.2
146.201
146.2
146.2
146.413
146.2
146.201
146.2
146.201
146.2
146.2
198.05
165.706
146.2
146.2
146.2
146.201
146.2
146.2
146.33
146.2
146.201
146.2
146.2
146.2
146.206
146.148
146.201
146.326
146.2
146.2
146.2
146.6
146.201
146.167
146.2
146.2
146.878
146.2
146.329
146.203
146.205
146.204
150.038
146.201
146.2
144.587
146.201
144.779
141.563
146.202
146.2
146.2
146.2
146.2
146.2
146.201
146.472
2138.06
145.032
146.2
146.2
149.062
146.201
146.2
146.201
146.2
146.201
148.608
318.916
146.221
146.2
146.41
146.2
240.706
146.24
146.2
146.201
219.863
146.2
146.207
145.474
146.205
146.579
146.2
146.2
146.146
146.201
146.2
2560.66
146.2
146.2
146.2
146.368
146.2
146.2
146.201
146.2
146.248
146.245
146.2
146.201
146.199
146.207
146.2
146.193
146.201
146.201
146.2
146.348
144.649
146.2
146.321
146.2
146.201
146.2
146.202
147.584
146.2
146.698
146.427
184.374
1184.35
146.2
146.2
146.242
146.2
146.223
146.226
146.223
146.255
146.226
146.201
146.225
146.223
146.202
146.203
146.2
146.432
146.2
146.2
146.2
146.202
146.201
146.2
146.2
146.592
146.201
146.2
146.201
146.2
146.201
146.201
146.2
146.21
146.741
146.201
146.362
146.2
146.201
146.2
146.201
146.404
146.2
146.2
146.215
146.201
146.2
146.2
146.201
146.2
146.662
146.2
146.233
146.2
146.459
146.412
146.191
146.2
146.201
146.2
146.19
146.2
146.2
146.2
146.201
146.202
146.201
146.458
146.198
146.297
146.218
146.2
146.207
146.2
146.201
146.201
146.2
146.2
146.226
146.206
146.444
146.197
169.259
146.26
146.2
146.199
146.201
146.19
146.188
146.201
146.764
146.201
146.2
146.2
145.14
146.201
146.2
146.2
2643.92
442.645
144.9
146.2
146.294
146.201
146.2
146.202
146.2
146.204
146.2
146.2
146.2
145.323
3811.88
146.338
146.035
146.321
146.204
146.2
146.315
147.346
146.2
146.2
145.93
146.216
146.252
146.201
146.02
146.608
146.229
146.22
146.022
145.93
146.227
146.133
146.2
146.221
146.132
146.2
146.116
146.2
147.29
146.2
146.2
146.832
146.134
147.03
146.111
146.287
146.124
146.204
146.259
146.307
146.204
2728.09
145.976
146.201
146.928
146.2
146.2
146.2
146.401
146.625
146.2
146.209
146.2
338.009
146.448
146.621
160.569
171.853
146.2
236.31
146.2
146.2
146.2
146.2
146.2
146.2
146.2
146.201
146.208
147.551
146.222
146.202
146.201
146.2
146.2
146.201
146.201
146.2
173.613
1602.9
146.2
146.2
146.2
146.502
146.2
146.2
146.29
146.2
146.2
146.2
146.2
1157.31
146.226
146.214
147.673
146.2
146.189
147.541
146.2
146.2
146.2
146.286
146.316
146.206
2890.11
146.2
146.2
20090.8
146.2
146.2
146.2
146.2
146.2
146.2
146.2
146.2
146.2
1594.29
146.471
146.2
146.232
146.334
146.2
146.299
146.2
146.2
146.2
146.2
146.201
146.2
146.201
146.201
146.141
138.943
146.523
146.228
146.201
146.2
602.617
147.545
146.2
146.208
146.2
146.2
146.221
146.236
892.699
146.207
146.2
148.067
576.201
146.385
146.2
146.206
146.227
146.22
146.224
146.203
981.954
146.216
146.201
146.217
146.206
146.222
146.207
146.229
146.206
146.202
146.298
318.693
876.31
146.2
146.2
2361.55
146.2
146.201
146.93
146.201
179.44
146.206
146.2
146.2
146.2
146.2
146.205
146.221
146.415
146.205
146.269
146.2
146.379
146.205
146.201
146.2
146.2
146.2
146.2
146.201
146.2
146.225
146.2
146.2
146.201
146.604
146.204
149.707
1838.08
146.55
146.201
146.231
146.2
146.2
146.201
146.2
146.2
146.199
146.208
146.464
146.452
147.545
265.659
146.19
146.2
148.941
146.37
146.201
1089.17
146.201
146.201
146.201
146.525
146.201
146.213
146.2
146.2
146.201
146.201
146.866
146.201
148.894
146.201
212.994
146.463
146.2
146.201
146.986
146.516
146.225
146.316
146.2
147.003
12255.9
146.2
146.201
146.223
146.264
146.939
146.2
146.994
147.16
146.284
148.021
146.616
146.208
147.63
146.2
3140.43
249.987
146.4
4721.63
146.195
147.669
1016.54
146.2
4813.89
146.422
146.143
146.201
146.201
146.282
146.201
146.201
146.2
146.2
146.2
146.2
146.201
146.2
7152.3
210.086
146.181
1101.95
146.195
146.2
146.241
146.536
146.31
146.203
146.298
146.227
147.735
5480.25
146.378
146.2
154.435
146.201
146.2
146.2
55.8105
146.2
146.5
146.266
146.66
146.746
1467.54
146.2
146.244
146.2
146.201
146.2
146.2
146.2
146.2
146.219
146.552
170.826
2834.59
146.218
3668.51
146.202
146.648
146.2
146.597
147.088
148.791
146.201
146.2
146.2
146.2
146.2
146.201
146.624
513.188
146.202
4354.9
146.219
146.386
221.087
749.633
6242.59
2139.28
146.201
147.818
146.232
146.2
146.2
146.661
146.426
146.2
146.2
146.2
146.201
146.201
149.127
147.532
149.293
146.852
146.2
156.127
146.51
146.2
146.27
146.2
145.122
579.951
141.902
145.024
162.748
146.201
146.2
145.299
146.2
146.201
146.2
146.212
146.2
146.201
146.522
146.318
146.235
146.202
146.201
146.201
146.2
146.2
146.2
146.311
146.322
146.2
146.2
587.425
146.2
146.201
146.2
146.2
146.236
146.252
7018.32
146.334
146.734
146.201
146.217
146.2
146.21
146.221
146.201
146.209
146.2
146.2
146.253
146.201
146.2
146.239
146.211
146.235
146.248
146.2
146.219
146.209
146.248
146.201
146.695
146.22
146.232
146.222
563.071
146.2
146.144
146.213
146.547
146.216
146.449
146.252
146.243
146.2
146.2
16556
146.225
146.214
146.41
146.207
146.895
187.682
146.2
146.233
146.201
146.231
146.2
146.27
146.459
146.2
146.339
146.2
146.229
146.237
146.2
146.2
146.215
146.2
146.2
146.2
146.2
146.221
146.201
146.242
2131.66
146.2
146.201
146.936
146.2
146.2
146.206
146.2
146.2
146.2
146.2
146.25
146.246
147.51
146.2
146.2
146.248
146.2
354.01
410.479
146.2
146.2
146.201
146.201
146.243
146.2
146.2
146.2
146.201
146.201
241.599
908.069
146.201
146.201
2585.81
146.201
146.611
146.2
146.215
146.201
146.37
146.253
146.2
146.201
146.2
146.82
146.274
146.2
146.204
146.533
146.2
146.395
147.171
146.2
146.201
146.2
146.241
146.2
146.2
146.2
146.2
146.2
146.217
1658.56
146.2
146.2
146.467
146.2
146.214
146.165
146.2
8341.46
147.006
146.201
146.201
146.2
167.266
146.326
146.2
146.665
146.2
151.706
146.3
146.2
1317.7
146.226
7671.45
7033.48
146.475
146.2
146.2
146.2
723.113
151.242
146.67
146.859
146.2
184.29
146.2
146.171
146.236
146.237
146.2
146.854
146.21
146.2
295.345
146.2
146.2
146.2
146.251
146.228
146.217
146.2
146.201
146.2
156.75
146.2
157.513
146.2
146.2
485.068
146.837
146.201
146.2
399.039
146.2
146.2
146.2
146.633
146.867
146.374
146.201
2788.82
6350.29
146.319
147.313
146.202
150.947
146.201
146.258
7639.81
2488.11
246.25
154.428
153.255
153.316
146.201
21330.8
146.263
147.504
146.201
147.661
220.115
146.2
146.213
183.967
146.2
2297.18
146.201
147.044
146.276
146.488
146.24
146.225
146.2
146.201
146.2
146.2
10584.8
146.2
146.218
150.72
146.201
146.201
146.201
146.2
146.2
146.2
146.2
146.2
146.357
146.2
3111.97
146.201
146.202
146.2
146.204
146.202
146.201
146.201
146.2
146.2
143.313
1069.39
1074.59
455.921
146.201
146.201
146.2
146.2
146.202
146.218
146.201
146.2
146.801
146.603
1010.36
146.2
146.201
146.201
146.251
146.658
146.201
146.201
146.202
146.534
990.906
146.204
147.773
146.201
143.038
147.165
147.671
146.2
146.21
146.205
146.2
146.21
146.201
146.201
146.214
146.201
146.201
146.2
146.203
146.752
146.2
146.939
146.201
146.213
146.2
146.201
146.216
247.684
146.302
146.2
146.2
146.2
182.031
216.769
146.201
146.445
221.235
146.2
145.802
146.382
354.799
197.72
146.201
146.201
146.204
146.2
475.366
146.107
146.201
146.2
146.2
146.2
146.201
146.2
146.2
146.201
146.221
146.201
146.201
146.311
146.201
146.217
146.243
146.2
146.201
146.216
146.219
146.2
146.212
146.201
146.201
146.209
146.2
146.2
146.834
146.201
146.2
146.2
146.2
146.2
146.2
146.423
146.395
152.065
146.824
146.597
146.336
146.645
146.207
146.201
147.707
146.21
146.184
146.406
146.205
146.539
146.2
146.206
146.2
146.232
146.207
146.212
146.207
146.201
146.213
146.22
146.2
146.338
146.2
343.552
146.211
146.326
146.216
146.209
146.206
146.241
146.209
146.213
146.077
146.2
146.898
145.863
146.2
146.2
146.2
146.209
146.2
146.214
146.515
146.2
146.2
146.201
146.2
146.242
146.2
146.207
146.193
146.2
146.203
146.2
146.226
146.2
146.2
146.2
146.2
146.206
146.2
146.2
146.2
146.204
146.196
146.2
146.46
146.194
146.095
798.726
146.2
146.201
146.198
146.2
146.2
146.201
146.201
146.2
146.317
146.382
146.213
146.2
146.2
146.201
146.261
146.366
146.2
146.2
146.334
146.2
146.2
146.345
146.2
179.549
165.678
146.2
146.2
146.603
2449.34
167.703
146.2
146.2
146.201
146.2
146.254
146.2
146.2
146.2
146.19
146.22
146.2
146.2
146.2
4348.07
238.492
139.77
4440.77
146.277
146.193
146.2
146.202
146.201
146.2
147.191
146.209
146.2
146.202
4506.33
146.2
146.2
4092.7
146.462
4029.57
146.2
146.078
146.2
146.201
146.718
146.2
146.839
146.202
146.2
146.79
146.148
146.2
146.206
146.918
146.2
146.353
146.666
146.201
146.211
146.948
146.206
146.201
146.201
146.206
146.528
146.206
240.708
146.2
146.199
146.369
146.201
146.338
146.148
146.2
146.2
146.201
146.088
146.201
146.201
146.2
146.201
170.749
146.201
146.204
321.204
146.201
146.204
146.11
802.723
146.197
146.208
7862.49
146.2
146.199
146.278
146.246
146.2
146.21
146.2
146.2
146.171
146.2
169.688
195.847
192.056
154.035
146.249
146.2
146.089
216.4
146.2
146.2
146.2
597.468
146.201
1286.78
146.2
146.488
147.561
242.659
146.201
762.326
155.331
146.201
183.899
146.783
146.418
974.493
146.646
146.206
146.205
146.203
503.374
367.21
148.806
146.202
354.389
146.273
146.2
146.203
478.113
146.124
146.202
146.451
3187.33
146.205
146.2
4557.34
146.201
146.201
147.132
146.201
5026.43
146.2
147.386
479.365
7145.62
146.2
146.2
146.201
3493.22
145.858
147.255
146.187
3676.51
4794.78
146.224
146.2
154.744
146.205
319.696
3283.37
1288.52
146.2
146.298
146.2
146.204
146.201
146.2
146.2
146.201
146.201
146.2
146.2
7794.82
146.2
146.204
146.2
146.23
146.502
146.201
146.229
146.2
146.2
146.205
146.186
146.2
146.2
146.2
146.2
144.998
145.899
4978.71
146.2
146.201
146.251
150.358
146.2
146.211
146.206
146.2
146.2
2653.54
146.2
146.2
146.2
146.2
146.2
146.203
146.2
146.2
146.2
146.2
146.627
663.471
146.2
146.44
146.2
146.247
146.518
146.2
146.201
146.388
146.2
146.203
146.201
146.208
146.202
146.2
146.2
368.393
147.22
146.201
177.578
146.2
146.201
146.204
146.231
146.2
146.201
206.824
146.201
146.2
146.216
146.203
157.422
146.394
146.201
146.201
146.202
163.747
146.2
146.2
146.2
146.2
146.2
146.2
146.2
146.403
146.203
146.2
146.201
163.627
156.632
146.2
146.271
151.645
146.201
146.341
20523.9
146.201
146.281
146.452
146.2
146.201
146.201
146.251
146.336
146.202
146.202
146.201
146.2
146.204
146.201
185.483
146.221
146.2
146.2
146.2
153.031
146.204
146.201
146.201
146.305
1245.82
146.2
146.2
146.201
146.201
146.237
150.599
146.201
146.225
184.313
178.379
146.2
146.2
3263.66
146.2
146.2
146.2
146.2
146.246
146.173
146.2
145.842
146.182
146.2
146.2
146.2
146.364
146.211
146.2
146.213
146.2
146.2
146.2
146.407
146.212
647.696
146.2
146.2
146.201
146.201
231.703
146.177
165.601
146.2
146.2
146.201
162.677
164.726
151.007
146.2
158.673
158.773
156.813
154.367
156.017
146.201
146.44
146.228
146.2
146.197
146.2
146.193
146.2
146.197
1949.98
147.678
146.517
146.208
146.51
146.199
561.104
878.459
146.43
147.195
156.369
153.391
147.378
162.412
146.2
166.637
146.559
146.201
146.2
290.449
146.2
146.2
274.081
199.349
146.201
146.2
146.201
146.201
146.2
146.2
146.2
157.578
2169.75
146.2
146.2
144.752
147.896
626.943
146.2
146.2
146.2
147.258
146.2
146.201
146.203
146.2
146.201
146.2
146.2
146.393
174.571
146.2
146.2
146.2
146.2
146.201
152.142
146.2
146.201
146.2
146.2
146.21
146.2
146.2
146.2
146.2
146.199
146.2
145.922
146.2
146.2
146.223
146.2
148.115
145.935
146.2
146.2
146.2
146.2
145.904
196.701
148.047
146.242
148.229
146.203
147.532
213.694
148.071
148.186
154.654
146.216
146.2
145.723
146.201
146.2
146.201
146.2
146.202
149.196
146.2
164.361
146.201
146.2
145.725
146.2
146.201
146.2
146.201
365.221
146.202
146.201
146.2
146.2
146.223
146.2
145.886
559.954
145.578
264.407
146.201
146.201
146.201
200.722
584.54
482.722
152.399
257.153
146.235
2125.47
146.216
235.896
146.2
146.201
146.2
146.2
146.358
146.262
146.282
146.223
146.29
146.273
146.2
146.264
146.741
146.2
146.201
146.2
146.682
146.277
146.227
146.201
146.642
146.355
146.234
373.166
146.31
146.906
175.303
146.201
146.868
207.763
146.262
146.2
146.201
146.459
146.2
146.2
163.107
146.2
146.201
147.486
146.201
190.329
147.626
146.201
146.2
146.25
146.244
284.637
146.25
146.49
146.257
146.2
146.201
146.257
225.495
146.241
146.248
142.934
146.258
146.665
151.147
2522.35
146.201
146.201
146.21
146.2
2618.21
146.2
146.2
146.201
146.211
146.2
544.945
146.201
146.2
146.225
146.21
146.21
146.305
146.2
146.537
2164.3
148.415
146.201
146.222
1082.58
146.503
1558.49
146.193
146.256
146.2
146.2
146.2
146.2
146.2
146.201
146.2
1519.73
146.201
146.201
146.2
146.2
146.2
146.201
146.2
146.275
146.231
146.2
146.2
146.541
146.201
2061.18
146.219
146.2
146.253
146.167
146.2
146.2
1656.89
146.2
146.2
317.319
146.201
146.2
146.2
146.202
146.2
146.201
146.201
146.2
146.2
146.2
146.132
146.204
146.2
146.201
146.2
146.233
146.2
146.187
146.201
146.656
146.2
146.2
146.2
146.201
146.22
146.2
146.201
146.2
146.2
146.2
147.53
146.2
146.2
146.2
146.2
146.2
146.225
146.2
146.2
146.201
146.203
146.2
146.201
146.2
146.194
146.2
146.2
146.2
146.204
146.2
146.2
146.2
146.2
146.2
146.2
146.868
146.21
146.166
146.199
146.2
146.209
146.2
146.201
146.27
139.045
146.214
146.2
146.2
146.201
146.201
146.258
146.2
146.2
146.26
146.2
146.201
146.2
146.2
146.201
146.2
862.525
146.2
146.2
146.2
146.268
146.274
146.284
146.202
146.777
226.873
146.201
146.2
146.201
146.277
146.2
146.201
146.2
146.201
318.769
146.2
146.2
146.201
146.207
146.201
146.22
146.232
146.201
146.581
171.004
146.201
276.327
146.201
146.2
146.201
146.201
146.2
146.2
146.201
149.767
146.283
150.54
146.634
146.416
146.201
146.201
146.201
146.201
146.205
146.201
146.201
146.201
146.201
153.821
146.201
153.663
385.006
146.2
146.239
146.219
146.217
146.201
146.201
146.205
146.201
146.201
146.2
146.215
146.385
146.285
146.2
146.244
146.2
146.2
146.2
146.2
146.201
146.488
146.26
146.2
146.2
147.26
146.203
146.2
147.381
146.201
146.2
158.374
146.2
146.2
146.201
146.233
146.201
146.2
146.201
146.2
146.201
146.201
5971.2
146.2
147.58
146.201
146.201
146.216
146.2
146.201
146.2
1117.59
146.201
146.383
154.497
146.221
146.2
146.279
146.255
146.201
146.201
146.379
146.374
146.2
146.332
149.223
146.2
146.201
146.2
146.328
146.2
146.2
146.2
146.201
152.252
146.201
167.741
146.201
146.505
146.201
146.201
146.295
146.201
146.201
146.2
146.2
146.202
277.27
146.266
863.446
146.257
146.209
146.266
146.2
146.2
146.2
146.223
1827.65
147.656
146.205
146.2
1541.6
146.257
147.439
146.741
146.2
9386.76
158.831
146.26
146.2
146.291
176.328
199.099
440.722
146.215
146.21
480.492
146.2
156.163
146.2
152.444
146.203
146.528
332.403
146.2
146.201
146.307
191.192
146.201
184.317
146.201
146.201
447.628
146.186
146.2
146.201
146.2
146.209
146.2
8400.9
349.861
146.2
146.201
155.836
146.201
5823.03
148.571
806.646
146.201
146.2
146.2
146.228
146.2
146.2
146.2
146.2
146.201
170.444
146.201
146.2
146.608
204.529
146.2
146.2
1225.1
146.2
146.201
183.134
146.2
146.2
146.19
146.21
9244.43
146.232
146.2
146.201
146.2
146.235
2631.16
146.206
992.031
146.2
146.199
146.2
146.2
146.2
148.614
146.216
146.2
148.509
146.2
146.2
146.216
146.2
146.203
146.2
146.224
572.25
146.2
146.2
146.736
148.719
146.2
146.208
6855.61
146.201
146.2
146.2
146.2
146.2
146.2
146.2
146.2
146.201
146.201
146.201
146.732
146.2
146.213
11263.1
146.311
146.716
146.2
146.241
146.201
146.2
146.672
146.262
146.903
146.678
142.701
147.811
146.201
146.234
364.09
146.652
146.723
146.692
146.201
146.767
146.2
146.2
146.201
472.285
146.539
146.201
146.617
146.201
146.2
146.2
150.049
227.361
146.2
146.776
147.109
146.287
147.055
147.018
146.201
146.201
147.557
146.2
146.201
146.2
146.201
146.2
146.201
146.201
175.222
146.236
148.627
146.379
146.202
146.241
146.201
146.201
146.2
147.458
146.201
146.2
146.201
147.965
146.201
147.276
147.29
146.582
146.346
146.217
146.201
147.211
146.201
146.201
146.204
3014.67
146.602
146.201
146.201
146.2
153.037
146.201
147.347
189.352
146.606
147.154
146.201
146.2
147.621
557.815
146.201
147.297
146.217
146.269
146.2
147.252
146.201
148.048
146.2
146.2
146.207
146.24
146.2
146.2
146.235
146.355
146.793
146.201
146.2
146.305
146.956
146.2
146.2
146.2
163.318
148.364
6022.92
146.391
146.2
146.382
146.405
146.2
146.2
146.201
146.2
146.2
146.2
159.379
146.2
146.201
146.201
146.503
146.2
146.2
146.2
146.2
146.3
146.239
146.201
146.451
146.201
146.2
146.2
146.2
146.2
146.398
146.963
146.199
146.198
146.515
146.201
146.201
146.201
146.2
146.2
146.577
146.201
146.204
146.201
146.2
146.199
146.568
146.2
146.199
146.472
146.201
146.201
146.201
146.2
146.901
146.201
146.223
146.201
146.217
146.199
146.201
146.201
146.2
146.199
146.2
146.201
146.579
147.025
146.201
146.2
146.201
146.2
146.201
146.2
146.201
146.201
146.201
146.201
146.201
146.2
146.535
1793.11
146.382
146.201
146.756
146.2
146.201
223.411
146.201
225.567
146.201
146.27
146.201
146.2
146.2
146.2
146.201
146.201
520.802
147.357
146.201
146.201
146.201
146.201
146.201
146.2
146.201
146.201
146.201
146.566
488.024
146.551
146.201
146.2
576.408
692.796
146.657
146.201
146.201
146.201
146.204
146.201
146.215
146.208
146.2
687.691
146.222
147.846
555.673
146.737
173.443
146.2
4890.86
146.201
146.729
146.201
147
146.309
146.741
146.245
146.2
146.201
146.201
146.243
153.484
146.2
146.61
146.201
147.331
146.2
146.201
146.201
146.2
146.675
146.2
146.2
146.2
146.2
146.201
146.2
146.686
148.525
146.299
146.201
146.2
146.561
146.201
146.2
209.009
147.293
225.103
146.2
146.201
146.383
189.418
146.2
146.201
146.272
146.537
146.238
146.201
146.687
146.204
146.2
146.201
146.201
146.2
146.201
146.2
146.2
146.2
146.2
146.201
146.201
146.2
146.2
146.201
146.2
146.2
146.2
146.201
146.201
146.2
146.2
146.2
146.312
146.503
146.41
146.2
146.201
146.2
146.2
146.213
146.2
146.201
146.201
146.2
146.201
146.2
146.201
146.2
146.2
146.201
146.2
146.201
146.377
146.201
146.426
146.817
146.229
146.201
146.201
146.892
146.201
146.2
146.201
146.2
146.2
146.201
146.2
146.2
146.201
146.201
146.317
146.243
146.201
146.201
146.201
146.2
146.2
146.2
146.201
146.201
146.238
234.733
146.2
216.434
146.2
146.2
278.769
184.349
146.2
146.212
146.213
146.2
146.2
146.201
146.201
146.2
217.456
146.201
173.334
146.201
146.2
146.201
146.458
146.547
146.376
146.201
146.201
146.2
146.2
146.2
146.2
146.2
146.2
146.2
146.2
146.583
146.201
146.201
146.201
146.201
146.201
146.201
146.2
146.228
143.327
146.223
146.2
146.201
146.201
146.201
146.201
146.2
146.201
146.2
145.697
146.201
146.2
146.201
146.408
146.201
146.218
146.201
146.201
146.248
146.2
146.27
160.492
147.026
146.201
146.2
146.212
146.498
146.201
146.201
146.201
146.201
146.21
146.201
146.2
146.321
146.239
150.322
147.099
146.2
146.2
146.234
146.201
146.201
146.2
146.2
146.201
146.201
147.204
146.391
146.691
579.619
146.265
146.201
146.201
146.201
146.24
146.327
146.201
146.573
146.2
147.047
146.201
146.203
146.201
146.201
146.223
146.201
146.201
146.201
146.201
146.201
146.201
146.144
141.392
146.201
146.201
653.637
146.2
146.201
146.201
146.201
146.201
146.201
146.201
146.201
146.201
146.2
146.2
146.201
146.2
146.201
146.201
146.201
146.201
146.2
146.201
146.201
146.209
330.616
146.201
208.09
146.248
146.201
146.2
146.201
147.73
146.201
146.357
1574.27
146.2
175.382
146.2
146.201
146.2
146.201
146.2
146.201
146.206
146.21
146.2
146.2
146.201
146.203
146.207
146.2
146.206
146.205
146.204
147.83
146.203
146.201
146.201
146.201
146.208
146.201
146.203
146.202
146.432
146.201
146.201
146.201
146.201
146.2
146.205
146.226
146.201
146.201
146.201
146.201
3675.73
146.201
146.201
147.827
146.201
146.201
146.201
146.201
146.201
146.2
146.2
2095.93
5010.57
274.334
290.569
337.016
147.085
3862.71
146.201
146.201
146.201
146.201
146.201
149.981
146.201
893.098
146.295
146.201
146.2
263.051
4185.7
146.201
146.201
2248.54
149.344
152.184
146.2
146.2
146.252
146.201
146.201
153.271
146.2
146.201
146.201
146.201
146.201
146.2
146.201
146.201
146.518
146.581
146.277
146.225
146.2
146.23
171.211
167.257
146.201
146.201
146.201
145.415
146.424
146.201
3624.59
957.636
146.2
2199.66
2141.53
146.201
146.201
146.2
146.201
2507.69
146.2
146.201
146.2
146.201
146.201
146.2
146.386
146.201
146.201
146.201
242.068
146.201
159.096
146.2
146.201
146.2
146.202
146.201
146.201
146.2
146.201
146.201
146.898
146.204
147.893
142.873
146.201
146.201
146.201
146.211
146.201
146.201
146.204
146.227
146.201
146.2
146.201
146.204
146.2
146.171
146.201
146.201
146.2
135.519
146.2
2863.39
146.2
163.433
146.53
2782.13
146.201
146.2
146.171
146.2
3107.65
146.201
560.209
146.2
146.201
146.237
146.201
146.2
146.318
146.597
146.201
146.2
1483.49
1739.93
145.57
146.2
146.213
146.17
301.94
146.2
146.2
146.2
146.2
146.191
146.2
146.2
146.2
146.2
146.2
146.169
146.242
146.2
146.2
146.2
146.227
146.2
146.209
146.249
146.188
146.196
146.232
146.2
146.2
146.249
146.2
146.2
146.2
146.2
3205.83
146.2
146.256
145.019
146.178
146.2
146.239
146.2
146.2
146.048
146.2
146.2
146.258
146.2
146.199
146.194
146.201
146.2
146.195
2087.99
146.2
146.134
146.201
145.431
146.2
146.2
146.201
146.2
146.201
146.2
146.2
145.977
146.2
146.2
146.201
146.2
146.201
146.2
146.201
146.2
146.2
146.2
146.491
146.2
146.2
146.201
145.463
146.2
146.201
146.2
146.2
146.214
146.2
146.25
146.2
146.2
146.201
146.229
146.239
146.2
146.2
146.2
146.223
146.743
146.355
146.2
146.2
146.2
146.2
146.2
146.2
146.2
146.2