/*--------------------------------*- C++ -*----------------------------------*\
| =========                 |                                                 |
| \\      /  F ield         | OpenFOAM: The Open Source CFD Toolbox           |
|  \\    /   O peration     | Version:  v2012                                 |
|   \\  /    A nd           | Website:  www.openfoam.com                      |
|    \\/     M anipulation  |                                                 |
\*---------------------------------------------------------------------------*/
FoamFile
{
    version     2.0;
    format      ascii;
    class       volScalarField;
    location    "2.5";
    object      ILambda_5_0;
}
// * * * * * * * * * * * * * * * * * * * * * * * * * * * * * * * * * * * * * //

dimensions      [1 0 -3 0 0 0 0];


internalField   nonuniform List<scalar> 
108993
(
146.2
146.201
146.2
146.2
146.2
146.2
146.2
146.2
146.201
146.204
146.2
146.2
146.2
147.784
146.2
146.247
146.206
146.201
146.2
146.201
146.2
146.201
146.2
146.2
146.2
146.2
146.201
146.201
146.201
146.2
146.2
146.451
146.201
146.2
146.201
146.2
146.201
146.2
154.829
146.691
146.2
146.2
147.043
146.201
146.442
146.743
146.201
146.2
146.2
146.201
146.201
146.243
146.201
146.201
146.201
146.2
146.201
146.2
146.2
146.2
146.2
146.2
146.2
146.2
146.2
146.2
146.2
146.2
146.33
146.221
146.2
146.2
146.2
146.2
146.2
146.2
146.2
146.201
146.201
146.2
146.2
146.213
146.201
146.2
146.2
147.378
146.2
146.198
146.2
146.2
146.2
146.201
146.2
146.2
146.2
153.444
146.201
146.2
146.201
146.2
146.2
146.201
146.2
146.237
146.2
146.2
146.2
146.201
146.201
146.827
146.238
146.2
146.228
146.226
146.2
146.479
146.2
146.2
1006.01
146.201
146.24
146.2
146.205
146.2
146.2
151.541
146.2
146.2
146.2
146.201
146.451
146.2
146.2
146.886
146.201
146.2
146.2
146.2
146.2
146.778
146.2
146.2
244.974
146.2
146.201
146.2
146.2
146.677
146.2
146.765
146.798
146.2
146.2
146.907
146.201
146.202
146.201
146.201
146.201
146.27
146.931
146.201
146.2
146.2
146.193
146.219
146.2
146.2
146.2
146.2
146.201
146.2
146.24
146.2
146.201
146.2
146.204
146.2
146.2
146.201
146.245
146.201
146.201
146.2
146.461
146.2
146.201
146.202
146.202
146.2
146.2
146.201
146.2
146.201
146.2
146.2
146.2
146.2
146.2
146.2
146.2
146.202
146.2
146.201
146.201
146.229
146.2
146.304
146.2
146.394
146.217
146.2
146.205
146.23
7835.82
146.2
146.2
146.2
146.201
146.201
146.201
146.599
146.198
146.201
146.201
146.2
146.201
146.2
146.571
146.2
146.772
146.2
146.2
146.2
146.201
146.2
146.201
146.2
146.21
146.201
146.2
146.2
146.2
146.201
146.201
146.41
146.228
146.206
146.201
146.201
146.2
146.2
146.2
146.2
146.201
146.201
146.201
146.2
146.201
146.2
146.2
146.2
1454.99
149.646
146.201
146.2
146.2
146.201
146.2
146.2
146.2
146.2
146.216
478.663
146.509
146.2
146.201
146.205
146.201
146.201
146.201
152.914
153.392
146.2
146.2
183.732
146.2
146.201
146.205
146.567
146.268
146.2
146.201
146.2
146.2
146.2
146.201
146.2
146.247
146.2
146.209
146.322
146.2
146.2
146.2
146.2
146.201
146.2
146.2
146.217
146.2
146.2
527.76
146.2
146.2
146.282
146.2
823.771
146.805
146.2
146.201
146.2
146.2
146.2
146.2
150.945
254.427
146.259
146.201
146.2
146.201
146.225
147.199
146.2
146.359
146.2
146.201
146.2
146.2
146.2
146.201
146.223
146.201
146.2
146.202
146.2
146.2
146.2
146.2
146.2
146.2
146.2
147.427
146.248
146.201
146.2
146.2
146.672
146.2
146.2
146.919
146.201
146.2
146.2
146.2
146.201
146.2
146.201
146.202
5282.21
146.201
178.487
146.2
147.321
146.201
146.057
146.232
146.2
146.271
146.2
146.285
146.275
146.201
152.48
146.2
146.203
151.776
6654.31
146.201
146.427
146.294
146.204
146.301
147.375
146.227
146.201
145.924
146.201
150.341
146.201
146.201
146.207
146.21
146.201
146.201
146.205
146.203
146.2
146.2
214.326
146.224
146.201
12696.8
146.2
146.186
146.201
147.242
146.235
146.244
146.2
222.772
146.201
146.139
146.2
146.2
145.305
146.2
146.27
145.415
146.2
146.014
147.236
145.591
146.2
146.201
146.21
146.201
146.201
146.2
146.2
146.201
146.2
146.2
146.201
146.23
146.201
146.201
146.241
146.2
146.201
146.029
146.2
146.2
146.2
146.2
146.2
146.204
146.201
146.2
146.201
146.206
146.2
146.205
146.671
147.03
146.2
146.2
146.205
146.2
146.2
146.235
146.2
146.2
146.2
146.201
148.891
146.2
146.21
146.348
1817.89
146.2
146.2
146.2
146.2
146.2
146.2
146.2
146.2
146.239
146.2
146.203
146.2
147.552
146.2
153.768
146.2
146.2
146.2
146.2
146.201
146.2
146.2
146.2
146.2
146.365
146.321
146.2
146.2
6208.35
146.2
237.968
146.201
146.2
216.286
146.2
146.201
146.2
146.2
146.201
146.2
146.201
146.201
146.201
146.2
146.201
1054.11
146.205
146.2
1018.08
146.2
146.201
146.2
1005.34
146.598
146.2
146.2
146.207
146.206
146.2
146.225
146.2
146.31
146.2
146.2
146.2
146.2
146.2
926.098
146.2
146.201
146.208
146.201
375.379
146.2
146.201
146.2
146.2
146.201
147.096
146.201
146.2
146.2
146.2
146.201
146.285
146.224
146.2
146.2
146.201
146.2
146.2
146.201
6560.33
146.315
146.26
146.201
146.201
146.275
148.229
146.201
153.014
146.2
146.2
146.2
146.2
146.749
147.538
146.317
148.076
146.2
146.201
146.2
146.201
146.2
463.93
146.2
146.201
146.2
146.2
193.915
146.2
146.199
3472.07
685.502
146.555
146.2
870.879
146.2
554.467
146.2
147.108
146.2
324.094
146.2
146.201
146.2
151.464
146.2
146.404
146.201
146.246
146.201
146.2
146.57
146.201
146.2
146.2
146.211
151.623
154.817
146.322
146.201
146.223
146.853
147.363
146.2
146.2
742.644
162.418
146.241
146.202
146.241
146.2
146.201
146.2
147.475
147.585
146.232
150.558
157.858
162.042
151.702
146.293
146.3
146.239
146.201
1661.91
146.345
146.207
146.308
146.337
146.2
297.713
146.2
146.2
146.201
146.204
161.987
146.251
146.291
370.712
146.2
146.23
146.309
146.3
146.2
146.201
146.243
146.2
146.561
146.201
146.224
148.731
155.737
146.47
224.879
146.209
146.234
146.238
191.337
146.201
146.2
146.241
146.204
146.2
3146.3
146.206
146.279
146.216
5385.33
146.204
146.2
146.2
146.2
1131.39
146.2
146.365
146.2
146.2
146.201
146.201
146.241
1529.86
146.2
1714.07
146.2
146.233
660.65
146.2
146.237
146.201
146.679
146.207
146.844
146.203
152.232
146.201
146.235
146.217
146.2
146.24
146.679
146.29
147.503
146.149
146.2
146.203
146.2
146.2
146.2
146.199
150.212
147.485
146.341
162.28
146.201
170.386
254.185
178.65
145.931
146.201
146.2
146.2
149.238
146.2
146.201
146.2
146.2
341.515
146.2
146.251
146.2
149.266
146.204
146.2
146.2
146.2
146.225
146.201
146.2
146.199
146.204
146.201
146.222
146.223
146.949
146.203
296.526
146.216
146.246
146.2
147.187
146.191
146.216
146.201
146.201
146.201
146.2
146.2
146.2
146.201
146.82
146.2
146.2
146.92
197.606
147.428
146.201
146.049
146.2
146.201
151.565
146.2
146.196
166.284
146.2
146.2
146.288
146.2
146.2
146.2
146.2
146.201
146.2
146.2
156.139
146.2
146.212
149.244
146.2
148.147
146.465
146.542
307.309
5207.29
146.201
146.2
146.2
146.209
146.201
146.205
146.287
146.201
146.2
146.735
146.2
146.2
146.201
146.655
146.2
146.2
147.838
146.2
146.398
146.2
146.202
146.318
146.182
9868.96
146.198
10404.7
146.205
10057.1
146.195
146.201
146.207
612.942
146.21
146.339
146.213
146.215
146.214
146.201
146.381
146.201
146.201
146.191
1922.71
339.151
1114.64
146.2
146.2
147.211
146.468
146.2
776.293
146.267
146.202
146.2
146.212
146.353
146.38
146.201
146.253
146.2
147.29
146.2
147.266
146.819
1027.37
146.2
146.2
177.106
1146.61
146.203
146.201
146.2
147.901
146.219
146.2
149.231
146.201
146.201
147.32
146.201
146.2
147.776
934.397
146.2
146.201
146.2
146.217
1618.71
146.217
147.825
146.2
147.672
146.159
1567.99
146.201
146.807
578.271
146.206
146.201
146.201
253.356
146.2
146.223
146.201
146.2
146.21
146.2
146.253
146.751
689.775
1785.09
146.2
146.274
146.2
154.298
146.2
146.2
146.201
146.205
146.225
146.2
146.203
148.084
146.23
146.27
146.2
1403.07
146.217
146.273
146.262
146.204
146.285
1710.13
146.205
1418.32
146.2
146.226
146.76
146.231
909.589
1836.12
146.208
686.227
146.201
146.201
1845.77
146.348
146.203
146.201
146.201
2512.39
146.2
146.2
146.201
2567.81
146.202
146.2
146.201
146.201
146.201
146.201
146.201
146.272
146.202
146.196
146.217
146.2
146.931
146.2
146.2
146.201
146.2
146.201
147.925
146.493
146.2
146.203
146.2
146.228
149.955
146.216
146.201
146.202
146.238
146.183
146.201
166.918
146.201
146.2
146.202
146.202
146.2
147.137
146.201
146.056
146.2
146.2
146.2
146.232
146.2
146.201
146.201
146.2
146.201
146.246
146.202
146.201
146.2
146.2
146.201
146.203
146.2
146.201
146.2
1218.19
146.613
146.201
146.201
146.171
146.221
146.2
148.99
146.232
352.918
146.201
146.683
1179
262.433
146.201
147.169
146.201
146.2
146.2
146.234
150.468
692.193
1061.54
146.201
157.81
146.2
188.591
146.2
147.948
146.226
146.453
146.2
147.356
146.261
146.245
146.2
146.2
146.2
146.2
146.2
146.2
146.2
148.478
146.201
165.308
146.2
146.201
146.2
146.248
146.563
146.2
146.2
146.2
727.24
146.2
656.409
147.62
146.941
146.2
146.234
146.2
146.2
146.2
146.201
146.201
146.2
8076.23
146.254
146.2
146.2
146.2
152.93
157.158
146.2
146.2
146.2
146.2
146.201
146.2
146.2
146.2
146.2
146.201
146.2
146.2
146.2
146.2
146.221
146.225
146.225
146.497
146.2
146.2
146.37
146.2
146.201
146.2
146.2
146.2
146.201
146.263
150.9
146.201
146.2
146.2
146.2
147.014
155.821
250.651
146.2
146.2
146.2
146.2
146.2
146.2
146.35
146.2
146.201
146.201
146.2
146.2
146.208
146.199
146.201
146.334
146.201
146.201
146.201
146.26
146.201
146.199
146.2
146.201
146.629
146.2
146.234
146.203
146.205
146.204
246.841
146.201
146.2
496.176
146.2
953.015
146.576
146.203
146.2
146.201
146.2
146.201
148.841
146.2
146.4
1116.21
146.04
146.2
146.2
146.207
146.201
146.2
146.201
146.2
146.201
277.999
146.628
146.24
146.2
146.319
146.2
146.333
146.233
146.2
146.201
146.162
148.737
146.201
554.501
146.211
146.463
146.2
146.2
146.176
146.2
146.2
5283.97
146.2
146.2
146.2
146.489
146.2
146.2
146.201
146.2
146.219
146.325
146.2
146.201
146.2
146.218
146.2
146.2
146.2
146.201
146.2
146.233
146.592
146.2
146.384
146.2
146.201
146.201
146.201
145.771
146.172
146.735
146.236
148.469
146.206
146.2
146.2
147.119
146.2
146.229
146.232
146.229
146.253
146.229
146.201
146.232
146.231
146.203
146.205
146.2
146.237
146.2
146.2
146.2
146.203
146.201
146.201
146.201
146.587
146.2
146.2
146.201
146.2
146.201
146.201
146.2
146.205
146.728
146.201
146.22
146.201
146.2
146.2
146.201
193.349
146.198
146.201
146.211
146.201
146.2
146.2
146.201
146.2
147.179
146.2
146.289
146.197
1232.36
146.261
146.185
146.2
146.201
146.2
146.187
146.2
146.2
146.737
146.201
488.877
146.201
146.332
146.191
146.322
146.279
146.2
146.205
146.201
146.201
146.201
146.472
146.708
146.309
146.22
146.258
146.2
146.683
146.212
146.2
146.2
146.2
146.199
146.155
146.2
146.738
146.201
146.201
146.2
146.201
146.201
146.2
146.2
147.156
146.743
146.203
146.2
146.24
146.201
146.201
146.471
146.2
146.203
146.2
146.201
146.312
146.201
4177.92
410.756
146.202
146.218
146.203
146.201
149.582
147.49
146.201
146.2
146.201
146.21
149.47
146.2
146.201
146.243
146.21
146.27
146.2
146.201
146.318
146.202
146.2
146.316
146.202
146.2
146.202
146.194
146.872
146.2
146.2
146.789
146.203
146.831
146.203
146.583
146.202
245.092
146.426
146.2
228.345
155.107
146.204
146.201
146.25
146.2
146.2
146.2
146.51
146.248
146.2
146.205
146.2
146.29
146.416
146.485
146.202
146.366
146.2
2865.02
146.2
146.2
146.2
146.2
146.2
146.201
146.2
146.201
146.21
147.69
146.211
146.2
146.201
146.2
146.2
146.201
146.201
146.2
147.766
146.259
146.2
146.2
146.2
146.253
146.2
146.2
146.223
146.2
146.2
146.2
146.2
146.44
146.216
146.253
147.854
146.2
146.2
147.689
146.2
146.2
146.2
146.293
146.77
146.206
5511.4
146.2
146.2
9065.47
146.2
146.2
146.2
146.2
146.201
146.2
146.2
146.2
146.2
2346.21
149.011
146.2
146.208
146.937
146.2
146.246
146.2
146.2
146.2
146.2
146.2
146.2
146.2
146.2
477.418
2250.1
146.247
146.217
146.201
146.2
148.022
147.564
146.2
146.205
146.2
146.2
146.209
146.276
148.718
146.218
146.2
148.826
147.485
146.441
146.2
146.224
146.214
146.209
146.289
146.204
156.651
146.211
146.201
146.216
146.208
146.218
146.222
146.208
146.212
146.203
146.377
147.366
149.466
146.2
146.201
2306.44
146.2
146.2
146.885
146.201
567.597
146.228
146.2
146.2
146.2
146.2
146.228
146.213
146.544
146.206
147.671
146.2
146.623
146.212
146.201
146.201
146.2
146.2
146.2
146.201
146.2
146.201
146.2
146.2
157.294
145.777
146.214
190.814
171.084
150.994
146.201
146.204
146.2
146.2
146.201
146.2
146.2
146.2
146.225
146.564
146.206
148.129
146.716
167.172
146.2
146.311
146.268
146.201
1784.05
146.201
163.21
146.201
146.329
146.201
146.201
146.201
146.2
146.2
146.2
147.568
146.2
146.289
146.201
552.053
146.27
146.2
146.201
146.695
146.318
146.272
146.257
146.2
147.144
10222.6
146.2
146.201
146.219
149.238
146.318
146.2
146.278
147.533
146.296
146.317
146.692
146.211
146.278
146.2
3514.75
373.753
327.657
6607.41
146.249
146.2
146.223
146.463
6419.59
151.044
173.352
146.201
146.201
146.207
146.201
146.201
146.2
146.2
146.201
146.202
146.201
146.2
634.661
384.281
152.828
2314.14
146.2
146.2
147.855
146.409
146.786
153.787
185.918
146.266
148.302
9725.52
146.601
146.2
146.845
146.201
146.2
146.218
146.049
146.201
146.568
146.888
146.27
147.152
146.477
146.201
146.212
146.2
146.201
146.2
146.2
146.2
146.201
151.519
167.322
1258.24
3297.41
156.941
6318.34
146.201
146.68
146.834
149.52
147.557
301.028
146.201
146.2
146.2
146.2
146.2
146.201
149.96
146.201
146.202
6213.48
146.207
146.247
151.641
146.839
221.783
2722.23
146.2
149.93
146.24
146.201
146.202
147.1
146.516
146.2
155.186
146.116
146.201
146.2
330.838
271.663
315.153
147.283
146.2
1787.07
146.213
146.2
146.247
146.2
146.204
2723.53
146.216
146.205
147.903
146.201
146.2
146.204
146.2
146.201
146.2
146.206
146.201
146.201
146.295
146.386
146.302
146.201
146.2
146.201
146.2
146.2
146.2
146.412
146.372
146.2
146.201
146.412
146.2
146.2
146.2
146.2
146.224
146.598
150.816
146.342
146.709
146.2
146.293
146.2
146.212
146.255
146.2
146.227
146.2
146.2
146.403
146.201
146.201
146.491
146.229
146.387
146.633
146.201
146.216
146.207
146.267
146.2
149.48
146.249
146.31
146.242
179.798
146.2
146.201
146.213
148.632
146.221
146.318
146.211
146.613
146.2
146.2
13325.9
146.319
146.213
146.408
146.215
145.626
146.833
146.2
146.245
146.2
146.352
146.2
146.292
146.499
146.2
146.849
146.2
146.361
146.403
146.2
146.2
146.247
146.2
146.2
146.2
146.2
146.229
146.201
146.419
152.649
146.2
146.2
146.818
146.2
146.059
146.206
146.053
146.084
146.2
146.2
146.226
146.217
146.899
146.2
146.2
146.383
146.2
146.211
728.251
146.2
146.2
146.201
146.201
146.33
146.2
146.2
146.2
146.201
146.201
261.842
1221.3
146.201
146.201
2836.48
146.201
146.248
146.2
146.213
146.2
147.125
146.274
150.593
146.2
146.2
146.25
146.402
146.2
146.213
146.202
146.2
630.944
146.172
146.2
146.201
146.2
146.436
146.2
146.2
146.2
146.201
146.2
146.289
147.571
146.2
146.2
146.505
146.2
146.201
146.2
146.2
169.103
146.881
146.2
146.2
146.2
146.2
146.675
146.2
146.612
146.2
146.803
146.353
146.2
2063.62
146.311
243.204
150.613
146.516
146.201
146.2
146.2
147.502
146.201
166.565
146.612
146.2
167.571
146.2
2261.57
146.429
146.421
146.2
146.258
146.204
146.2
146.553
146.2
146.2
146.2
146.594
146.259
146.253
146.2
146.201
146.2
146.705
146.201
146.887
146.2
146.2
146.337
146.851
146.2
146.2
146.4
146.2
146.2
146.2
146.732
146.265
146.218
146.2
147.679
8228.29
146.204
147.352
146.201
921.835
146.201
146.207
954.082
2546.06
2267.96
947.857
688.488
1495.83
146.2
13857.9
146.464
147.567
146.2
148.347
1839.68
146.2
146.242
2423.78
146.2
5151.24
146.2
146.795
146.31
146.54
146.264
146.302
146.2
146.2
146.201
146.2
3365.52
146.2
146.274
146.289
146.201
146.201
146.201
146.2
146.2
146.2
146.201
146.2
146.706
146.2
3334.29
146.201
146.202
146.229
1025.41
146.201
146.201
146.201
146.2
146.2
146.209
159.858
161.917
1643.63
146.201
146.201
146.201
146.2
146.203
159.34
146.201
146.204
146.242
146.262
166.255
146.201
146.201
146.201
146.215
165.937
146.201
146.2
228.627
146.805
161.231
146.203
149.101
146.201
146.207
147.003
147.883
146.2
146.201
146.202
146.2
146.203
146.201
146.201
146.211
146.201
146.201
146.212
188.758
147.333
146.2
146.203
146.201
146.211
146.2
146.2
146.21
548.265
146.248
146.201
146.2
146.2
146.348
10667.7
146.201
146.228
10704.5
170.763
146.241
149.12
146.264
10153.8
146.201
146.201
146.206
146.205
10353.9
146.209
146.201
159.237
146.205
146.2
146.201
146.2
146.2
146.201
146.201
146.201
146.201
146.241
146.201
797.629
146.23
146.2
146.201
146.227
146.222
146.2
146.211
146.201
146.2
146.205
146.2
146.2
148.042
146.201
146.2
146.2
146.2
147.144
146.197
152.594
152.735
146.617
146.41
146.438
151.671
262.025
146.207
146.201
146.479
146.211
146.208
146.267
146.207
146.428
146.318
146.209
146.201
146.21
146.205
146.21
146.206
146.201
146.212
146.217
146.212
2266.68
146.204
146.231
146.211
148.588
146.212
146.214
146.216
206.243
146.216
146.213
146.2
146.2
153.02
146.172
147.031
146.193
150.633
146.211
146.201
1117.25
293.974
146.2
146.2
146.201
268.856
146.208
146.2
256.681
146.2
146.2
146.203
146.2
146.202
146.491
146.329
146.193
146.2
146.209
146.2
146.2
146.2
178.037
146.201
146.2
146.538
146.201
1143.49
1243.04
146.2
146.2
211.288
146.2
146.2
146.201
146.2
146.2
146.673
741.442
285.067
146.2
152.179
146.2
164.349
146.26
146.2
146.2
146.243
146.2
146.2
146.812
146.2
146.316
146.218
146.2
146.2
150.015
292.963
146.348
146.2
146.2
146.2
146.2
146.202
146.2
146.2
146.2
146.211
146.254
146.2
146.2
146.2
146.362
146.263
861.779
146.428
146.23
146.208
146.201
692.441
146.201
146.2
146.633
146.202
146.2
146.204
146.47
146.2
146.2
146.446
146.215
146.38
146.2
146.338
146.2
146.2
146.604
146.2
146.579
255.842
146.217
146.538
146.205
146.302
146.203
146.54
147.469
743.193
146.543
182.038
172.659
146.579
146.206
159.004
146.201
146.205
146.747
146.206
321.658
146.2
146.2
146.233
146.201
146.233
146.2
146.259
146.2
146.201
146.201
146.201
146.201
146.201
146.2
146.207
146.201
146.201
178.122
146.201
146.2
146.201
269.034
146.2
146.206
4230.9
146.2
146.2
147.065
146.23
146.2
146.201
146.2
146.2
146.189
146.2
146.762
146.233
146.227
146.704
146.224
146.245
146.205
146.234
146.233
146.2
146.201
146.373
177.896
146.21
146.2
146.219
146.751
146.224
146.201
1322.18
146.316
146.201
146.231
146.914
146.252
146.245
146.533
146.201
146.824
146.201
829.121
146.286
173.993
153.799
146.253
146.204
146.238
146.202
146.276
147.34
146.202
146.664
146.676
146.204
146.2
162.919
146.201
146.201
146.289
146.201
162.833
146.2
147.688
1179.4
6621.06
146.2
146.2
146.2
177.751
146.219
147.597
146.2
186.264
186.515
146.218
146.2
426.136
146.203
146.299
5070.89
146.244
146.2
1649.36
146.341
619.558
146.201
146.229
146.2
146.201
184.829
146.2
146.201
7386.22
146.2
669.198
146.219
146.212
146.233
146.201
146.234
146.2
151.585
387.131
146.201
146.2
146.245
152.43
146.2
147.677
146.201
6248.88
146.2
146.201
146.224
146.749
146.2
146.207
146.205
146.2
146.183
3705.85
146.2
152.799
146.2
146.22
146.201
347.384
146.2
146.187
146.2
146.2
146.25
2258.16
146.2
146.611
146.2
146.231
146.231
146.2
146.201
146.75
146.215
146.207
146.2
146.205
146.202
146.2
146.2
146.693
146.823
146.2
146.245
146.2
146.201
146.204
146.219
146.2
146.201
146.12
146.201
146.2
146.202
146.203
146.262
146.502
146.201
146.201
146.204
146.283
146.2
146.2
146.2
146.2
146.2
146.2
146.2
146.262
146.206
146.2
146.201
151.019
146.774
146.2
146.229
146.214
146.201
146.257
19856.9
146.201
146.245
146.417
146.2
146.201
146.201
146.232
146.236
146.202
146.202
146.201
146.214
146.204
146.201
183.52
146.209
147.615
146.2
146.201
147.371
146.204
146.201
146.2
146.381
985.001
146.2
146.2
146.201
146.2
146.207
146.714
146.201
146.217
146.207
146.215
146.2
146.208
146.624
146.2
146.2
146.2
146.2
146.2
146.022
146.2
146.194
146.225
146.2
146.2
146.2
146.651
146.225
146.2
146.207
146.2
146.2
146.2
146.759
146.214
146.884
146.2
146.2
146.201
146.201
146.539
146.2
876.996
146.2
146.2
146.201
146.486
146.829
146.783
146.2
919.532
731.621
146.212
484.227
267.414
146.2
146.494
146.24
146.2
146.2
146.2
146.204
146.2
146.202
2031.78
146.993
147.12
146.216
171.529
146.2
146.231
146.231
146.556
150.554
187.525
175.274
147.358
274.595
146.2
146.207
146.999
149.753
146.2
146.84
165.932
146.2
706.865
146.328
146.2
146.219
146.201
146.201
146.2
146.2
146.2
146.201
146.555
146.2
152.589
146.208
153.339
146.218
146.2
146.2
146.2
169.684
146.2
146.201
146.202
146.2
146.201
146.2
146.2
146.866
146.936
146.2
146.2
146.2
146.218
146.2
146.607
146.2
146.201
146.2
146.2
146.209
146.2
146.2
146.2
154.934
146.21
146.2
146.205
146.2
146.2
146.24
146.2
174.446
146.203
146.2
146.2
146.2
146.2
146.203
146.22
148.209
146.351
177.211
146.203
146.205
146.222
147.963
177.36
146.391
146.221
146.2
146.203
146.2
146.2
146.2
146.2
146.202
147.055
146.2
146.26
146.201
146.201
146.206
146.2
146.201
146.2
146.202
146.945
146.204
146.201
146.2
146.201
146.201
146.2
146.19
460.657
146.205
169.437
146.2
146.2
146.201
152.907
245.35
377.647
147.22
174.36
146.201
146.342
146.219
237.086
146.214
146.201
146.2
146.2
146.21
146.386
146.237
146.209
146.39
146.376
146.521
146.368
147.019
146.2
146.2
146.2
146.784
146.253
146.212
146.2
146.797
146.574
146.222
146.674
146.228
147.167
146.403
146.2
194.846
146.344
146.231
146.2
146.201
146.219
146.2
146.201
146.402
146.2
146.201
147.666
146.201
146.368
147.637
146.201
146.201
146.221
146.221
146.293
146.225
146.286
146.249
146.2
146.2
146.232
146.222
146.218
146.22
146.218
146.216
146.535
146.302
149.867
146.2
146.2
146.217
146.2
147.391
146.2
146.2
146.2
146.218
146.2
146.24
146.201
146.2
146.216
146.218
146.22
146.263
146.2
146.363
150.116
146.451
146.2
146.24
702.872
146.511
149.959
146.208
146.319
146.2
146.2
146.2
146.2
146.2
146.201
146.2
149.352
146.201
146.201
146.2
146.2
146.2
146.2
146.2
146.238
146.203
146.2
146.2
146.715
146.201
148.683
1845.97
146.2
146.413
146.204
146.2
146.2
147.162
146.201
146.2
146.251
146.2
146.2
146.2
146.201
146.2
146.201
146.2
146.2
146.2
146.2
146.203
146.208
146.2
146.2
146.2
146.237
146.2
146.2
146.201
146.383
146.2
146.2
146.2
146.201
146.215
146.2
146.2
146.2
146.201
146.2
146.943
146.2
146.2
146.2
146.2
146.204
146.203
146.2
146.2
146.201
1208.31
146.2
147.925
146.2
146.201
146.201
146.201
146.2
146.201
146.2
146.183
146.201
146.201
146.2
146.193
146.798
1434.16
146.209
146.2
146.201
146.203
146.2
146.201
146.225
146.784
146.206
146.2
146.2
146.2
146.201
146.517
146.201
146.201
146.596
146.196
146.201
146.2
146.2
146.2
146.2
1664.83
146.381
146.201
146.2
146.617
146.88
146.768
146.202
146.85
171.662
146.201
146.2
146.201
146.65
146.2
146.201
146.2
146.201
607.877
146.2
146.2
146.2
146.204
146.201
146.211
146.245
146.201
146.534
1606.13
146.201
146.201
146.201
146.2
146.201
146.201
146.2
146.2
146.201
184.404
146.233
146.707
147.737
146.482
146.201
146.201
146.2
146.201
146.207
146.201
146.201
146.201
146.201
179.111
146.201
146.24
146.277
146.2
146.32
146.221
146.23
146.201
146.201
146.216
146.201
146.201
146.2
146.29
146.318
146.401
146.2
146.323
146.2
146.201
146.2
147.787
146.2
146.822
146.242
146.2
146.2
289.013
146.202
146.2
147.532
146.201
146.2
146.903
146.2
146.201
146.201
146.232
146.201
146.2
146.201
146.2
146.201
146.201
149.007
146.2
146.2
146.201
146.2
146.232
146.2
146.201
146.2
622.938
146.201
146.477
189.905
146.248
146.2
146.722
146.267
146.201
146.201
146.621
146.218
146.2
146.337
153.11
146.201
146.2
146.2
146.366
146.201
146.2
146.2
146.201
685.484
146.201
2164.38
146.201
146.224
146.201
146.201
146.238
146.201
146.201
146.2
146.2
146.201
189.963
146.271
153.559
146.271
146.233
146.283
146.201
146.2
146.2
146.267
1831.42
146.473
146.201
146.201
1813.12
146.283
146.886
146.71
146.2
439.906
146.883
146.271
146.2
146.441
146.735
147.682
146.324
146.237
146.216
320.033
146.201
146.625
146.201
146.867
146.202
146.883
155.713
146.201
146.201
146.232
152.835
146.201
610.952
146.2
146.201
317.912
146.185
146.2
146.201
146.201
146.204
146.2
8955.71
1224.82
146.201
146.2
148.454
146.201
149.686
146.948
563.661
146.201
146.2
146.2
146.338
146.2
146.2
155.553
146.201
146.2
147.864
146.2
146.201
146.699
146.491
146.2
146.2
652.21
146.201
146.201
146.482
146.201
146.201
146.197
146.234
8546.48
146.295
146.2
146.201
146.2
146.242
4633.28
146.206
260.214
146.2
146.097
146.2
146.2
146.2
149.05
146.224
146.2
146.465
146.2
146.2
146.216
146.2
146.201
146.179
146.338
877.09
146.2
146.2
146.256
323.08
146.2
146.201
6157.84
146.201
146.201
148.912
146.2
146.2
146.2
146.2
146.2
146.201
146.2
146.2
170.968
146.2
146.256
9393.35
146.265
173.182
146.2
146.213
146.201
146.2
155.827
146.426
146.473
155.682
146.973
147.903
146.201
146.206
828.595
146.483
147.445
146.238
146.201
147.917
146.2
146.2
146.201
146.505
146.616
146.2
146.712
146.201
146.201
146.2
146.611
146.323
146.2
147.856
147.157
146.207
147.621
148.37
146.2
146.201
146.922
146.201
146.201
146.201
146.201
146.201
146.2
146.201
301.276
146.266
147.615
146.208
146.201
146.225
146.201
146.201
146.201
147.494
146.2
146.2
146.2
148.042
146.201
146.762
147.139
146.266
146.216
146.259
146.201
147.125
146.201
146.201
146.203
5953.17
146.703
146.201
146.201
146.201
162.194
146.201
148.514
150.239
153.898
147.158
146.201
146.2
147.025
146.233
146.201
147.228
146.216
146.205
146.2
147.263
146.201
147.805
146.2
146.2
146.201
146.204
146.2
146.2
146.222
146.483
146.553
146.201
146.209
146.236
147.206
146.212
146.2
146.2
146.784
147.326
6670.2
146.787
146.2
146.515
146.515
146.2
146.201
146.201
146.201
146.2
146.201
199.658
146.201
146.201
146.201
146.555
146.2
146.2
146.2
146.2
146.387
146.331
146.201
146.555
146.201
147.638
146.2
146.368
146.2
146.547
147.747
146.2
146.2
146.245
146.201
146.201
146.201
146.201
146.2
146.887
146.201
146.201
146.2
146.2
146.2
146.865
146.2
146.2
146.517
146.2
146.2
146.201
146.2
146.876
146.201
146.206
146.2
146.214
146.2
146.201
146.2
146.2
146.2
146.201
146.2
146.565
146.964
146.201
146.201
146.201
146.2
146.201
146.2
146.201
146.201
146.201
146.201
146.201
146.2
146.499
146.419
146.426
146.202
146.781
146.2
146.201
159.825
146.201
238.167
146.201
146.27
146.201
146.2
146.201
146.2
146.201
146.201
146.247
147.398
146.2
146.201
146.201
146.201
146.201
146.201
146.201
146.201
146.201
147.234
146.24
147.907
146.201
146.2
146.247
146.246
147.185
146.201
146.2
146.201
146.205
146.201
146.206
146.201
146.201
146.24
146.222
147.99
146.238
147.827
218.077
146.2
8118.66
146.201
147.499
146.201
147.523
146.207
147.504
146.36
146.201
146.201
146.201
146.249
146.853
146.2
147.258
146.201
146.524
146.2
146.2
146.2
146.201
146.684
146.201
146.201
146.201
146.201
146.201
146.2
149.894
148.331
146.206
146.201
146.2
146.577
146.201
146.2
146.285
146.552
146.311
146.2
146.201
146.584
146.288
146.2
146.201
146.29
147.262
146.321
146.201
147.322
146.205
146.2
146.201
146.2
146.2
146.201
146.2
146.2
146.2
146.2
146.201
146.201
146.2
146.201
146.201
146.2
146.2
146.201
146.201
146.2
146.2
146.2
146.2
146.279
146.642
146.494
146.2
146.201
146.2
146.2
146.215
146.2
146.201
146.201
146.2
146.2
146.2
146.201
146.2
146.2
146.201
146.2
146.201
147.138
146.201
150.15
155.267
146.235
146.2
146.201
147.905
146.201
146.2
146.201
146.2
146.2
146.201
146.2
146.2
146.201
146.201
146.402
146.305
146.201
146.201
146.201
146.2
146.2
146.2
146.201
146.2
146.249
2748.39
146.2
2701.42
146.2
146.2
2751.26
2699.29
146.2
146.21
146.225
146.2
146.2
146.2
146.201
146.2
2731.9
146.201
2688.18
146.201
146.2
146.201
146.283
146.424
146.244
146.201
146.201
146.2
146.2
146.2
146.2
146.2
146.2
146.2
146.201
146.616
146.201
146.201
146.201
146.201
146.201
146.2
146.2
146.21
3882.65
146.215
146.2
146.201
146.201
146.201
146.2
146.2
146.201
146.2
2428.28
146.201
146.2
146.201
146.233
146.201
146.213
146.201
146.201
453.322
146.201
454.8
146.837
146.2
146.201
146.2
259.506
146.2
146.201
146.201
146.201
146.2
250.377
146.201
146.201
146.2
146.269
505.377
145.788
146.201
146.201
146.239
146.2
146.201
146.2
146.2
146.201
146.201
240.956
146.763
171.791
146.259
146.269
146.201
146.201
146.201
146.294
146.21
146.201
146.787
146.2
2074.98
146.201
146.201
146.201
146.201
146.234
146.201
146.201
146.201
146.2
146.201
146.201
1647.39
2251.57
146.201
146.201
2802.82
146.2
146.2
146.201
146.201
146.201
146.201
146.201
146.2
146.2
146.2
146.201
146.201
146.201
146.201
146.201
146.201
146.201
146.201
146.201
146.201
146.212
2617.13
146.201
2579.63
146.259
146.2
146.2
146.201
147.717
146.201
146.239
3639.72
146.2
647.341
146.2
146.201
146.2
146.201
146.2
146.201
146.204
146.205
146.2
146.2
146.201
146.202
146.206
146.201
146.204
146.201
146.203
146.893
146.202
146.201
146.201
146.201
146.206
146.201
146.203
146.201
146.228
146.2
146.201
146.201
146.201
146.2
146.204
146.226
146.201
146.201
146.201
146.201
6526.73
146.201
146.2
146.862
146.201
146.201
146.201
146.201
146.2
146.2
146.2
4669.06
6462.6
2379.57
3251.04
3263.08
147.109
6460.44
146.201
146.201
146.201
146.201
146.202
146.844
146.201
4000.87
146.207
146.201
146.2
3193.14
6513.29
146.201
146.201
6091.19
146.816
146.838
146.2
146.201
146.246
146.201
146.201
146.818
146.2
146.201
146.201
146.2
146.201
146.2
146.201
146.201
146.219
283.786
146.205
146.213
146.2
146.225
1924.93
1365.27
146.201
146.201
146.201
1913.62
146.484
146.201
5717.02
1418.55
146.2
1125.08
1348.81
146.201
146.201
146.2
146.201
1308.64
146.2
146.201
146.201
146.2
146.201
146.2
146.275
146.201
146.2
146.201
158.586
146.201
4271.48
146.2
146.201
146.2
146.202
146.2
146.201
146.2
146.2
146.201
146.804
146.202
146.209
4362.15
146.201
146.201
146.2
146.209
146.201
146.201
146.204
146.207
146.201
146.201
146.201
146.203
146.2
146.202
146.201
146.201
146.201
4221.68
146.2
830.593
146.2
490.107
146.241
1773.56
146.2
146.201
146.202
146.201
975.065
146.201
503.361
146.2
146.2
146.209
146.201
146.201
146.221
146.276
146.2
146.2
797.305
1536.4
146.2
146.2
146.208
146.2
146.249
146.2
146.2
146.201
146.2
146.238
146.199
146.192
146.204
146.203
146.201
146.201
146.267
146.19
146.2
146.153
1187.8
170.929
156.929
146.282
146.201
146.206
146.264
146.203
146.435
146.256
148.467
146.253
146.201
146.265
146.361
146.2
146.281
146.205
146.235
146.2
146.255
146.2
146.184
146.203
146.283
146.201
146.283
146.201
146.208
146.2
146.201
197.062
146.235
304.415
146.202
146.2
146.2
224.148
146.201
146.2
146.201
146.2
146.2
146.2
146.2
347.736
146.2
146.2
146.2