/*--------------------------------*- C++ -*----------------------------------*\
| =========                 |                                                 |
| \\      /  F ield         | OpenFOAM: The Open Source CFD Toolbox           |
|  \\    /   O peration     | Version:  v2012                                 |
|   \\  /    A nd           | Website:  www.openfoam.com                      |
|    \\/     M anipulation  |                                                 |
\*---------------------------------------------------------------------------*/
FoamFile
{
    version     2.0;
    format      ascii;
    class       volScalarField;
    location    "2.5";
    object      ILambda_9_0;
}
// * * * * * * * * * * * * * * * * * * * * * * * * * * * * * * * * * * * * * //

dimensions      [1 0 -3 0 0 0 0];


internalField   nonuniform List<scalar> 
108993
(
146.2
179.355
146.2
146.2
146.2
146.2
151.155
146.2
146.2
146.207
146.2
146.2
146.2
146.2
146.2
146.2
146.213
146.2
146.2
149.444
146.2
146.2
146.268
146.2
146.2
146.201
146.2
146.745
166.02
146.2
146.2
146.2
146.2
146.2
146.2
146.2
146.2
146.2
148.051
2000.84
146.301
146.2
146.2
146.2
146.24
146.296
146.2
147.136
147.871
146.234
146.2
146.213
151.356
146.2
146.2
146.2
146.2
146.2
146.2
146.2
146.2
146.2
146.2
146.2
146.2
146.202
146.2
146.2
146.2
146.213
146.2
146.2
146.2
146.2
146.54
146.2
146.2
146.206
146.2
146.2
146.2
146.2
146.2
146.2
146.2
146.2
146.2
146.2
146.2
146.2
146.2
146.2
146.2
146.2
146.2
146.201
146.2
146.2
146.2
146.2
146.2
146.2
146.2
146.2
146.2
146.2
146.2
146.2
146.2
242.635
146.255
146.2
146.351
146.301
146.2
256.172
146.2
146.2
146.219
146.2
146.2
146.2
146.219
146.2
146.2
146.204
146.299
146.2
146.2
146.2
146.201
146.2
146.2
146.444
146.2
146.2
146.2
146.2
146.2
146.2
146.2
146.2
146.203
146.2
146.2
146.2
146.2
147.206
146.2
837.911
872.571
146.2
146.2
2043
146.2
146.339
146.2
146.2
146.2
146.202
2235.89
146.2
146.2
146.2
146.2
146.247
146.2
146.2
146.2
146.2
146.2
146.2
146.204
146.2
148.857
146.2
148.385
146.2
146.2
146.2
146.203
146.2
146.2
146.2
146.2
146.2
146.2
146.2
146.2
146.2
146.2
146.2
146.2
158.518
146.2
146.2
146.297
146.2
146.2
146.2
146.2
146.356
146.2
146.2
146.603
146.465
146.2
388.426
146.2
394.409
146.231
146.2
149.571
156.578
147.568
146.2
146.2
146.2
146.2
146.2
146.19
516.77
146.201
146.438
146.201
146.2
146.2
146.2
146.262
146.2
204.071
146.2
146.2
146.612
146.2
146.2
146.2
146.2
146.25
146.2
146.2
146.2
146.2
146.2
146.2
146.202
173.478
146.24
146.2
146.2
146.2
146.2
146.2
146.2
146.2
146.2
146.2
146.2
146.2
146.2
146.2
146.476
146.23
146.207
146.2
146.2
146.2
150.187
146.2
146.2
146.2
146.2
146.383
145.593
147.225
146.2
146.2
146.309
146.2
146.19
146.186
146.543
146.508
146.2
146.2
146.205
146.2
146.167
146.2
146.881
146.2
146.2
146.147
146.2
146.2
146.2
146.2
146.2
146.208
146.2
146.257
147.013
146.2
146.2
146.2
146.369
146.2
146.207
146.377
146.583
146.2
146.2
146.212
146.2
146.464
147.198
146.2
146.216
147.591
146.2
153.159
146.2
148.205
148.462
146.2
627.832
393.466
146.673
146.2
146.2
146.201
146.504
149.16
146.2
147.163
146.2
146.2
146.2
146.2
146.2
146.2
146.432
146.242
146.2
146.2
146.2
146.2
146.2
146.2
146.2
146.2
146.2
146.412
146.798
146.196
146.2
146.2
1410.1
146.2
146.2
146.202
146.242
146.2
146.2
146.593
146.295
146.2
146.2
146.2
781.459
146.2
146.204
146.2
2512.83
146.35
146.95
146.2
146.2
146.602
146.2
146.654
146.626
146.218
146.206
146.2
146.219
146.201
908.86
146.199
147.619
146.65
146.213
146.693
146.2
146.252
146.209
443.446
146.2
146.214
146.2
146.201
146.244
146.226
146.2
146.199
146.211
146.227
146.2
146.2
167.319
146.2
146.204
751.067
146.2
146.2
146.2
1029.54
146.21
362.721
146.2
165.663
179.189
159.36
146.2
146.2
148.505
146.2
204.682
150.978
146.2
336.841
147.017
157.477
146.2
146.2
146.208
146.2
146.199
146.2
146.2
146.2
146.2
146.2
147.59
146.207
146.202
146.088
146.205
146.2
147.513
146.2
146.2
146.2
146.2
146.2
146.2
146.2
146.776
146.2
146.2
146.207
146.2
146.21
549.986
146.21
146.2
146.204
146.211
146.2
146.2
146.218
146.2
146.2
146.2
146.201
146.213
146.2
146.241
158.958
146.226
146.2
146.2
146.2
146.2
146.2
146.2
146.2
146.2
146.204
146.2
146.2
146.2
146.23
146.2
146.215
146.2
146.2
146.2
146.2
149.257
146.2
146.2
146.2
146.2
146.247
147.482
146.2
146.2
9429.12
146.2
146.209
147.56
146.2
146.205
146.2
146.2
146.2
146.2
154.78
146.935
146.202
146.202
148.947
146.446
147.387
146.222
146.305
146.2
146.22
146.454
165.518
146.2
146.222
146.2
146.2
146.2
146.422
146.2
146.208
146.462
146.2
146.737
146.2
146.2
146.2
146.2
146.2
146.22
146.2
146.2
146.238
166.081
146.77
146.2
146.2
146.2
146.2
146.435
2661.65
152.972
146.2
146.2
146.2
146.6
146.219
146.332
146.2
146.2
146.303
146.297
146.2
146.217
6959.23
146.218
166.421
146.39
146.2
146.231
166.066
180.635
146.202
146.2
146.2
146.2
146.2
146.296
146.314
146.223
146.201
146.2
146.297
146.2
155.952
146.2
145.009
146.2
146.2
146.2
146.443
146.204
146.2
146.2
128.175
146.221
146.2
146.2
137.192
146.2
146.212
146.2
146.366
146.2
146.206
146.2
146.426
146.2
146.205
146.2
1107.01
146.2
146.257
146.2
146.2
285.251
180.856
146.2
146.2
146.289
146.58
146.204
152.883
146.414
146.677
195.537
146.202
146.2
146.2
2100.32
146.216
146.213
146.201
146.214
146.2
146.246
146.2
146.202
146.201
146.221
146.214
146.204
146.204
146.22
823.357
152.366
146.216
155.079
146.226
147.438
146.218
149.758
147.389
146.201
146.206
146.2
146.2
146.203
146.241
146.204
466.935
168.498
146.212
146.685
146.234
151.443
153.091
146.2
146.245
146.209
146.202
147.332
185.407
146.225
146.212
146.204
146.991
146.207
146.289
146.21
146.208
4651.3
146.2
146.2
146.214
146.204
147.878
26963.1
146.206
146.928
146.21
10669.9
146.515
146.2
146.2
146.2
146.22
146.2
146.228
146.373
146.2
146.2
146.403
146.564
1015.58
146.2
4001.73
146.2
146.263
146.215
146.2
146.224
153.923
146.202
146.274
146.202
146.2
146.203
146.314
146.263
146.335
146.2
146.208
146.202
146.202
146.202
146.2
146.2
146.268
146.2
146.2
149.809
146.2
146.205
218.536
147.151
146.205
146.283
146.205
146.21
146.207
146.205
146.2
146.2
146.2
146.203
146.2
146.396
146.2
146.2
146.214
146.211
146.203
146.2
146.203
146.2
146.214
146.288
149.604
146.277
146.2
146.2
146.201
169.926
146.2
147.368
146.601
146.2
146.201
222.094
146.26
146.201
146.2
146.213
146.201
146.201
146.294
146.203
147.462
146.2
146.2
146.213
146.2
147.145
146.2
146.2
286.458
146.206
151.503
146.403
147.011
146.2
146.294
146.207
146.2
146.2
146.204
146.2
146.2
146.2
146.2
146.2
146.2
146.296
146.2
146.214
146.2
146.233
146.478
146.2
6824.6
146.474
8391.63
146.204
146.2
146.21
13443.7
146.191
146.401
146.21
146.303
162.629
146.301
216.792
146.205
146.2
146.214
146.446
146.2
146.214
574.146
146.2
146.2
146.202
150.757
146.202
146.42
146.213
146.201
146.2
186.434
146.2
204.687
146.2
186.353
146.201
146.55
146.241
146.218
146.516
146.2
146.228
146.226
146.219
146.307
146.962
146.2
146.201
146.2
146.227
146.21
146.222
146.2
146.2
146.22
146.655
146.2
146.219
146.221
148.823
146.854
146.358
147.178
148.402
146.549
146.4
146.252
150.063
146.2
148.249
146.878
256.688
146.2
146.2
146.21
146.221
146.43
146.201
146.2
146.245
146.392
146.2
146.233
146.034
150.216
149.211
146.2
146.2
210.84
389.595
146.704
154.74
146.2
146.2
146.229
146.267
288.701
146.2
211.511
146.206
146.23
161.185
146.2
146.217
146.249
159.883
146.2
146.21
146.203
146.265
146.988
146.2
146.25
146.2
146.207
146.259
146.216
146.232
146.2
146.617
146.2
1186.24
146.868
146.2
146.2
146.445
146.234
146.2
146.211
1059.61
146.236
146.626
146.202
146.228
146.36
146.822
146.2
146.206
147.834
146.235
146.207
146.228
146.201
146.337
147.465
146.221
146.222
146.224
146.221
146.216
146.25
146.516
146.224
152.575
146.212
146.2
157.097
146.227
146.2
146.2
146.2
146.226
146.2
146.2
146.2
157.632
146.2
146.2
152.637
146.704
146.2
146.2
146.209
146.2
188.084
146.2
146.2
159.936
146.2
158.82
9151.88
146.201
146.24
146.2
146.2
146.411
146.201
146.267
146.208
146.2
184.785
146.2
300.368
146.219
148.017
146.2
146.2
146.2
146.2
146.201
146.333
146.2
146.2
146.2
146.2
180.178
146.2
146.31
146.2
146.2
146.414
146.204
146.346
146.421
146.2
146.2
146.367
146.276
146.2
146.2
146.2
356.715
146.201
146.461
146.2
146.204
146.201
146.2
146.45
146.328
146.206
146.555
5808.68
146.234
146.213
146.31
146.392
147.145
146.2
146.2
146.21
146.204
3284.28
146.22
146.313
146.204
146.317
146.211
146.2
146.209
146.357
146.207
146.206
146.235
146.211
146.203
146.2
146.2
146.2
146.2
146.2
146.2
146.201
148.556
150.768
1201.53
146.202
146.2
146.2
146.204
146.566
146.2
146.202
146.2
146.214
146.2
146.214
3099.75
146.227
146.2
148.646
146.226
146.2
146.2
146.2
146.2
146.333
10901.3
146.22
146.2
146.2
146.2
146.201
146.201
146.2
146.201
146.2
146.2
146.2
146.2
146.2
146.2
146.2
146.201
146.2
146.2
146.201
146.2
146.205
146.426
146.292
147.31
146.2
146.2
146.201
146.2
146.201
146.2
148.941
146.2
146.2
146.231
146.201
146.295
148.104
148.94
146.2
146.2
184.951
397.901
146.2
146.2
146.2
146.348
146.2
146.2
171.188
146.2
146.2
146.2
146.2
146.2
146.218
146.203
164.663
173.817
146.225
146.192
146.208
146.638
147.73
146.202
146.2
146.388
546.7
146.2
146.209
146.226
146.216
146.214
5221.51
146.88
146.2
146.216
146.2
146.24
146.211
146.226
146.2
146.2
146.201
146.2
146.201
146.2
161.227
5891.42
146.208
146.2
146.2
146.207
149.103
146.2
149.082
146.2
147.661
1869.93
146.212
363.272
146.2
146.21
146.2
146.206
146.393
146.392
146.2
146.213
146.205
146.711
146.215
146.274
146.268
146.2
146.2
146.208
146.2
146.2
3431.65
146.2
146.2
146.2
146.599
146.2
146.2
146.255
146.2
146.34
939.742
146.2
146.289
146.2
146.242
146.2
146.2
146.2
146.359
146.2
146.454
146.217
146.2
1439.27
146.2
146.2
146.2
146.302
148.311
146.2
146.203
146.261
157.203
146.22
146.203
146.2
146.225
146.2
282.102
333.652
276.279
146.683
283.625
146.2
337.561
347.95
146.217
146.213
146.201
146.253
146.2
146.2
146.2
146.233
146.2
146.2
146.2
146.243
146.2
146.2
146.201
146.2
146.202
146.201
146.2
146.297
145.842
146.202
256.019
146.242
146.346
146.748
156.902
146.211
146.2
146.178
146.371
146.202
146.2
146.2
146.201
146.2
238.167
146.2
146.215
146.2
146.221
146.332
146.201
146.2
165.567
146.2
146.201
146.2
146.2
146.203
165.627
146.214
146.382
150.899
146.2
147.051
159.702
146.2
146.228
146.2
165.484
164.843
146.201
146.2
146.961
146.411
146.207
146.201
1788.54
146.355
146.2
146.2
146.2
146.201
146.201
146.363
558.827
146.2
146.2
146.2
146.212
165.255
146.2
146.2
153.967
577.232
146.214
146.2
146.535
149.932
146.201
146.204
146.2
146.323
146.2
146.205
146.201
146.212
9789.22
146.21
146.208
146.444
258.553
146.201
146.221
390.089
146.201
146.2
146.209
146.255
146.214
146.2
146.205
146.229
146.235
153.689
146.205
146.206
147.088
146.203
146.202
156.012
146.203
146.2
146.203
146.2
149.59
146.2
146.2
146.626
146.204
147.117
146.203
167.711
146.203
146.207
148.005
146.208
146.207
146.513
146.216
146.365
146.338
146.2
146.2
146.2
147.423
146.22
146.201
146.213
146.2
146.22
147.434
167.902
146.212
9402.15
146.2
32635.4
146.2
146.2
147.079
146.2
146.2
146.2
146.2
146.805
147.499
918.993
146.239
148.326
147.428
146.2
146.203
147.076
147.436
146.2
1391.15
146.217
146.2
146.2
146.2
146.228
146.2
146.2
146.351
146.2
146.2
146.2
146.24
162.054
146.425
171.349
1883.04
146.2
146.202
914.304
146.2
146.2
146.256
147.544
148.412
146.272
9987.81
146.2
146.2
2888.14
146.2
146.2
146.2
146.2
146.2
146.2
146.2
146.2
146.2
4377.4
146.217
146.2
146.252
146.257
146.2
146.229
146.2
146.2
146.2
146.2
146.2
146.2
146.34
146.2
146.211
146.434
146.703
146.648
146.522
146.2
146.761
339.899
146.2
146.212
146.2
146.2
146.236
556.968
147.009
146.366
146.2
4895.94
146.79
292.381
146.2
147.466
146.237
146.235
324.435
146.232
146.771
146.234
146.202
146.229
146.22
146.229
146.244
147.564
146.265
146.247
1015.93
147.141
146.822
146.2
146.2
191.898
146.2
146.878
166.261
146.2
2937.32
146.245
146.2
146.2
146.2
146.2
146.245
146.279
1147.85
146.674
148.283
146.2
146.498
146.275
146.404
146.2
146.391
146.2
146.2
146.134
146.2
146.405
146.2
146.2
146.204
146.941
146.271
146.202
146.577
146.221
152.46
161.906
146.2
146.2
175.393
146.2
146.2
146.2
148.299
146.662
146.599
151.084
8343.74
146.201
146.2
146.272
147.141
146.327
1503.8
146.199
146.21
146.201
148.219
146.381
147.314
146.2
146.2
146.2
146.2
631.702
146.2
146.259
146.201
158.091
147.098
146.2
146.189
8440.62
146.838
725.303
146.764
146.2
638.51
4719.9
146.2
146.389
146.283
146.216
146.282
146.2
146.27
7172.55
151.498
146.282
755.556
146.223
146.265
146.2
147.305
6257.36
146.214
4318.25
146.203
146.207
146.215
146.201
6901.69
146.221
146.209
148.932
177.937
182.589
159.299
151.042
146.387
146.2
146.2
146.2
147.556
146.2
148.199
335.864
146.211
13076.9
146.207
146.2
146.217
157.114
168.211
146.206
146.21
150.176
2968.37
1131.76
146.462
146.2
162.066
147.115
146.2
146.2
558.178
146.202
146.211
146.207
146.739
150.282
222.835
146.201
146.252
146.232
149.471
146.2
146.2
146.2
146.2
146.208
211.917
219.471
147.189
146.207
2555.81
146.379
3357.49
146.202
146.253
363.588
10886.9
146.187
146.2
146.2
146.2
146.2
146.2
146.2
146.219
146.335
2464.49
146.256
146.272
185.638
223.444
146.897
248.39
146.2
10832.1
150.974
146.2
146.2
4259.04
1383.73
146.2
146.201
146.2
146.416
146.2
8307.77
8927.95
6319.35
5250.3
146.2
3898.87
146.686
146.2
146.248
146.2
146.212
286.972
146.204
146.207
7956.86
146.415
146.2
146.213
146.2
146.2
146.206
146.328
146.201
146.407
146.794
146.86
206.624
146.39
146.357
163.742
146.2
146.2
146.2
500.805
147.115
146.2
146.2
146.439
146.2
146.2
146.2
146.2
146.657
146.908
146.992
251.518
206.326
146.2
151.761
146.2
146.751
146.496
146.2
146.351
146.2
146.2
147.177
146.2
146.989
146.776
146.362
146.826
146.908
146.2
146.773
146.215
587.92
146.43
146.203
146.525
146.696
150.611
2344.6
146.202
146.202
147.049
147.716
146.35
147.114
146.371
146.81
146.2
146.2
12956
146.87
146.428
182.662
147.998
151.181
627.038
146.2
185.818
146.29
146.942
146.2
164.242
243.459
146.2
150.287
146.2
146.534
146.768
146.204
146.2
146.525
146.2
146.2
146.2
146.2
146.266
146.34
146.851
146.45
146.2
146.2
7540.86
146.431
146.2
146.21
146.2
146.2
146.202
146.2
146.258
146.261
169.775
146.2
146.199
147.378
146.2
146.221
2457.23
146.2
146.2
146.355
146.237
739.411
146.2
146.204
146.2
146.2
146.201
1181.53
4568.52
146.348
146.192
15178
146.353
146.222
146.2
146.309
146.2
260.255
644.795
146.201
146.2
146.231
146.283
197.966
146.2
146.553
146.21
146.2
146.212
146.205
146.2
146.289
146.2
147.705
146.2
146.2
146.216
146.241
146.2
147.172
146.211
146.2
146.2
2165.29
146.2
146.285
146.202
146.2
146.754
149.214
146.86
150.612
146.2
146.216
147.198
146.2
147.351
146.2
147.877
179.824
146.2
5492.54
146.839
233.186
147.026
2076.15
146.199
146.2
146.201
146.214
146.213
146.201
2962.99
146.2
146.206
146.2
146.23
147.087
147.26
146.2
146.29
146.28
146.2
169.572
146.2
146.2
146.2
147.079
430.284
172.934
146.2
146.2
146.2
932.878
161.621
147.039
146.2
146.2
150.053
237.813
146.2
146.2
146.638
146.2
146.2
148.104
147.25
146.255
146.409
146.2
146.521
7244.88
148.485
539.822
146.392
12358.3
146.564
146.224
590.299
4057.5
14303.8
12601.2
10910.8
9975.44
146.2
5034.15
212.613
395.529
146.2
2753.58
26214.9
146.2
146.557
24033.4
146.2
14224
146.2
147.041
310.897
147.385
220.699
147.013
146.2
146.2
146.375
146.2
148.029
146.2
232.591
146.23
146.275
146.272
146.202
146.2
146.2
146.2
146.337
146.224
147.197
146.2
188.336
146.279
146.367
146.2
146.225
178.928
146.195
146.198
146.2
146.2
146.209
147.948
147.907
309.673
146.381
146.352
146.384
146.202
146.225
146.207
146.474
146.2
146.45
146.237
147.905
146.463
146.454
146.375
146.27
146.202
146.159
146.597
146.205
146.229
148.148
146.329
1590.58
146.183
146.207
146.294
2085.93
146.2
146.34
146.416
146.359
146.445
146.438
174.336
146.234
180.315
146.325
146.2
146.204
221.34
146.2
146.367
146.274
146.229
146.2
146.2
146.231
146.209
146.221
146.48
146.203
146.2
146.552
210.722
146.242
465.83
217.47
146.201
146.23
146.201
146.212
198.557
146.226
146.385
146.275
146.2
212.246
146.215
146.201
146.201
146.201
146.2
146.201
146.2
146.2
146.201
147.923
146.24
146.201
146.244
146.201
146.223
147.408
146.2
146.201
146.326
146.318
146.2
146.23
146.2
146.417
146.441
146.374
146.2
146.243
146.396
146.2
146.2
146.2
146.201
146.2
146.209
146.219
148.25
146.295
147.466
146.212
146.207
146.246
146.379
147.647
146.23
146.202
146.512
146.25
147.746
146.2
146.247
146.202
146.228
146.338
146.227
146.415
146.398
146.218
146.967
146.2
146.231
146.2
146.21
146.234
146.222
146.627
146.219
146.836
146.209
147.054
146.219
146.203
146.2
146.236
146.212
146.203
146.201
146.201
146.232
146.227
146.234
146.205
146.2
146.2
146.229
146.21
146.234
146.2
146.206
146.201
146.2
146.338
146.2
146.479
146.201
146.201
146.2
146.2
146.227
146.2
146.2
146.2
146.205
146.2
146.2
147.175
146.201
146.221
9689.27
146.2
146.751
146.207
146.2
146.2
158.249
146.2
146.2
146.303
146.22
146.21
146.2
146.203
146.2
146.207
146.221
146.2
146.2
146.203
146.2
146.2
146.318
146.2
146.208
146.206
146.21
146.2
146.201
5768.01
146.514
146.2
146.2
146.2
146.2
146.349
146.382
146.2
146.2
146.202
146.475
146.2
146.2
146.2
147.117
146.213
146.218
146.646
146.208
146.201
146.19
146.219
146.216
146.42
872.25
146.466
146.2
146.303
146.682
146.2
146.2
146.834
146.486
148.552
146.2
146.214
146.2
146.466
1669.86
146.2
2277.59
146.206
146.2
1355.38
146.205
146.2
149.092
1454
146.201
146.221
1272.3
146.202
146.207
2144.77
146.207
146.208
158.368
146.211
147.8
146.207
3824.56
146.2
146.2
146.266
146.214
146.265
146.224
146.2
146.2
151.037
146.225
167.013
146.26
146.486
146.2
146.219
146.202
146.245
5202.51
147.294
146.218
146.238
5729.06
146.2
146.359
4337.44
146.2
146.229
146.238
146.297
146.2
146.245
146.2
146.2
146.202
146.2
353.752
146.207
146.208
3716.86
146.708
146.2
146.209
146.208
146.2
146.2
146.221
146.207
146.202
146.22
146.2
146.589
1640.23
146.208
146.277
1207.75
146.22
150.434
146.209
146.423
146.323
146.214
146.207
146.395
146.21
148.02
1352.73
146.211
146.202
146.205
146.211
146.304
146.2
146.408
146.21
146.211
146.323
146.295
2887.51
146.283
146.215
146.655
146.331
152.312
146.244
146.261
146.619
146.2
7590.57
1209.02
8972.04
146.202
146.2
146.2
146.66
146.226
6454.03
146.201
146.674
146.648
146.246
146.2
8229.2
146.345
146.21
8494.49
146.525
146.2
146.228
146.2
146.216
146.187
146.2
146.2
188.033
146.202
146.2
146.2
148.875
146.2
146.214
146.2
146.338
146.323
146.319
146.265
146.2
146.201
146.214
146.201
146.2
146.2
146.203
146.2
146.214
146.207
147.397
146.2
146.294
146.244
146.668
146.2
146.428
146.281
146.2
146.2
171.081
146.2
146.204
146.2
146.2
146.2
146.21
146.2
146.2
146.2
146.2
146.266
465.758
146.2
146.201
146.2
146.233
146.257
146.2
146.2
147.652
146.2
146.227
146.2
146.49
146.286
146.2
146.2
146.321
148.786
146.283
146.217
146.2
146.134
146.24
146.456
146.2
147.369
146.211
149.283
146.2
146.293
146.241
146.614
191.782
159.004
145.939
146.246
187.005
146.2
146.207
146.2
146.2
146.2
146.2
146.2
146.232
146.23
146.203
146.522
1069.98
252.4
146.2
146.27
146.211
146.172
146.281
2880.83
146.201
146.241
171.263
146.204
145.967
146.202
146.227
146.275
146.251
146.234
146.325
146.2
146.236
156.412
146.203
146.295
146.203
146.224
147.21
710.952
146.227
146.452
146.252
204.19
1320.72
146.2
146.673
146.188
147.392
146.244
3513.81
146.343
146.465
146.217
146.203
146.2
146.2
146.758
146.2
146.2
146.2
146.2
146.208
146.202
146.2
146.214
146.208
146.451
146.705
146.2
151.201
148.924
146.2
146.421
146.2
146.2
146.2
147.453
146.245
146.271
146.2
146.2
146.2
154.589
146.202
146.203
13060
146.227
146.2
146.301
770.409
154.594
146.201
146.2
12916.3
12914.6
146.205
11166.7
853.794
150.339
1240.33
157.891
146.216
146.2
146.212
146.2
146.2
146.2
7499.77
162.932
662.676
146.312
412.493
146.201
146.216
146.219
146.671
146.201
483.591
146.202
5912.85
160.24
146.2
146.541
782.785
146.201
146.2
146.48
146.201
146.2
902.666
1026.19
146.2
146.2
146.198
158.078
146.2
146.2
146.2
146.224
146.745
146.2
146.202
146.212
850.471
146.208
146.2
146.2
146.2
760.851
146.2
154.206
146.321
146.2
179.838
146.2
146.2
305.849
146.202
146.2
146.2
146.2
146.2
146.779
146.201
146.2
148.031
146.393
146.2
146.463
146.2
146.2
146.2
146.201
146.2
146.2
146.207
146.2
146.2
146.406
146.2
5463.46
146.209
146.2
146.2
146.2
146.2
146.21
146.21
8914.76
149.886
8907.63
146.314
146.799
146.202
9248.44
8785.36
146.202
183.74
146.2
146.21
146.2
146.2
146.2
146.2
146.364
651.143
146.2
228.342
146.202
147.473
146.207
146.2
146.412
146.213
146.361
146.543
146.368
151.065
146.2
167.715
146.304
146.201
146.212
3412.39
146.207
1692.52
146.2
146.2
147.763
1685.07
1498.07
2194.23
834.746
2548.5
148.325
148.357
147.378
2893
146.2
149.364
146.2
146.212
146.211
147.526
146.206
146.258
147.498
147.147
146.2
147.412
146.307
146.2
146.2
146.2
147.068
146.864
146.229
146.2
147.288
477.839
146.285
146.321
146.505
146.251
147.048
146.2
146.217
147.953
146.211
146.2
165.658
146.47
146.2
146.2
147.145
146.213
146.2
5194.63
156.187
147.424
5760.74
158.554
158.111
146.341
146.407
146.204
146.402
146.811
147.02
146.38
146.2
146.487
146.208
146.389
146.345
146.225
146.403
146.208
146.233
146.479
146.2
146.356
146.278
146.2
146.391
146.2
146.2
146.2
146.27
146.329
146.212
146.201
146.2
146.454
146.29
146.339
146.203
146.2
146.305
146.385
1545.88
146.2
146.592
187.27
282.859
146.34
146.201
166.529
146.2
146.201
146.2
146.2
146.228
146.25
146.2
146.365
146.209
146.938
146.2
146.2
146.2
146.2
146.2
146.208
146.595
146.2
146.2
521.411
147.698
146.376
146.227
146.2
166.855
146.202
146.2
146.2
146.348
146.243
146.2
146.212
146.645
146.675
146.2
146.434
146.2
146.2
146.2
146.2
146.2
146.693
146.204
146.502
146.2
148.797
146.2
162.728
146.2
146.201
146.322
146.264
146.607
146.596
146.624
146.206
146.246
146.377
146.2
146.2
146.2
146.2
147.01
146.2
146.2
146.2
146.662
146.2
146.399
146.2
146.2
161.223
146.226
146.2
146.201
146.2
146.2
146.2
146.2
146.2
159.189
146.2
146.2
146.2
146.2
146.2
146.2
148.025
146.222
146.205
146.2
146.2
150.145
146.2
371.481
146.266
146.214
146.296
146.2
146.2
146.2
165.792
147.003
146.2
146.2
147.057
146.2
146.2
146.2
146.2
146.753
146.881
4492.76
146.2
146.2
146.2
147.112
147.056
147.113
148.261
3554.29
2192.38
146.326
146.2
185.337
147.118
146.2
158.945
146.2
146.45
1981.17
146.2
146.2
146.29
146.446
182.576
150.506
156.135
146.153
157.068
154.472
146.167
146.22
146.201
146.2
146.143
146.205
146.225
146.508
146.167
184.396
146.295
505.832
179.128
655.499
151.169
146.169
146.495
145.998
146.236
146.166
146.199
146.198
159.887
5129.13
301.82
146.204
146.212
146.201
445.38
146.955
207.251
154.778
146.198
146.408
146.201
146.199
146.2
149.619
537.616
684.85
146.2
518.611
146.2
146.205
146.2
146.202
146.2
570.307
146.386
146.2
146.2
146.215
217.295
146.2
202.246
146.196
146.2
161.427
146.2
171.894
146.196
146.405
146.201
146.2
146.201
146.2
154.668
146.201
146.611
146.201
146.206
146.201
146.917
146.429
146.2
146.201
146.2
2093.83
146.288
526.677
6537.4
493.026
146.2
147.162
210.004
146.201
147.21
357.304
146.392
146.2
176.814
428.021
146.219
146.798
146.2
171.313
146.2
146.2
146.2
161.689
11151.3
161.433
34540.8
146.491
146.316
159.495
146.386
146.206
160.477
146.312
146.2
146.204
147.009
1137.11
369.271
468.3
424.636
146.692
331.268
146.198
146.2
146.2
146.709
10235.4
1936.77
146.757
146.273
877.267
347.653
149.337
5026.74
146.2
178.623
428.556
398.156
146.2
149.2
467.82
1123.29
766.391
238.153
152.612
1411.36
146.207
1198.78
146.207
322.624
146.476
731.758
1888.11
146.2
146.228
146.842
1089.15
154.664
146.467
146.2
146.2
1866.84
146.201
146.409
147.361
146.2
146.403
146.2
51794.3
146.662
146.2
148.761
1633.44
154.068
146.74
8668.49
4177.08
159.257
146.2
146.205
146.981
146.2
146.2
146.205
146.208
147.524
1778.35
149.379
146.2
3303.63
153.667
146.2
146.23
457.093
146.202
148.09
148.095
146.2
146.2
146.201
146.581
147.864
435.898
146.242
149.686
146.2
336.163
8893.86
146.486
146.887
146.2
146.201
146.2
146.219
146.2
5140.36
146.32
146.2
980.339
146.2
146.2
165.273
146.2
150.752
146.201
146.736
137.107
146.2
146.2
146.224
10722.3
146.2
146.432
147.555
146.2
146.911
146.206
146.2
146.2
146.2
146.2
146.2
146.204
146.2
147.385
146.341
146.2
147.339
10170
147.342
146.358
146.2
146.274
146.232
146.2
146.356
269.807
954.433
146.353
886.148
4620.73
146.252
146.472
522.945
158.054
240.063
146.301
146.169
289.991
146.2
146.2
146.2
146.207
146.652
147
874.62
146.2
146.209
146.271
147.781
415.163
146.2
288.115
148.733
146.227
254.122
575.361
146.2
146.201
296.333
154.3
146.2
146.2
146.199
146.2
146.593
146.2
1914.07
146.99
3145.88
146.781
146.557
146.242
147.778
146.2
146.2
7561.53
146.2
146.2
146.2
8149.53
146.548
1005.91
146.294
146.351
146.382
154.972
149.757
146.303
146.881
147.173
146.353
7066.05
146.932
146.341
146.925
146.351
312.654
146.21
862.423
1741.64
146.246
149.11
146.261
146.261
755.112
146.206
162.634
146.298
146.294
146.551
146.2
147.896
146.348
2012.02
146.2
146.2
147.875
146.278
146.2
146.208
146.276
219.27
146.331
146.417
146.2
146.394
146.272
146.2
146.2
146.2
204.605
749.346
8797.55
146.533
146.2
248.571
252.164
146.44
146.2
148.946
146.411
146.48
146.224
3157.11
146.2
155.399
146.313
278.464
146.201
146.204
146.2
146.2
148.81
873.361
146.733
286.014
159.789
146.202
146.2
146.201
146.2
297.763
146.241
146.2
146.2
146.221
146.231
146.236
169.646
146.2
146.201
146.299
146.325
146.588
146.269
146.2
146.2
146.332
146.2
146.2
2125.98
146.4
146.747
146.2
146.205
150.032
146.197
146.278
148.391
164.276
146.2
146.228
146.734
146.2
146.2
152.088
149.699
146.327
7099.06
146.215
146.198
146.091
146.2
162.664
146.202
146.579
156.504
163.424
146.359
159.069
146.2
146.222
248.448
1607.12
146.242
191.57
146.401
146.133
3773.14
158.571
6789.54
147.175
148.717
146.191
146.2
146.2
146.2
160.206
146.858
146.214
1021.44
146.291
146.2
146.201
149.835
146.211
146.393
146.197
146.206
146.212
146.246
146.218
146.226
146.257
146.2
146.215
146.217
146.219
146.255
146.369
146.179
146.338
146.181
146.288
146.434
169.41
146.22
146.378
3717.03
146.22
225.274
182.988
146.2
18209.2
146.201
188.928
146.2
254.6
146.622
254.306
1129.3
146.2
146.201
146.207
319.924
602.375
146.2
159.843
146.525
1115.82
146.2
150.589
146.2
146.195
146.452
146.2
146.214
146.186
146.199
146.21
146.2
146.314
5609.81
146.779
146.207
146.2
158.642
146.2
146.2
146.219
1149.48
146.215
146.2
146.201
1260.89
146.24
146.2
146.2
216.332
146.303
147.256
146.201
146.357
146.223
146.2
146.276
146.2
146.2
149.536
146.714
146.2
146.2
146.2
145.977
152.161
146.203
146.2
146.2
146.2
146.2
146.2
146.198
146.2
146.2
146.2
146.201
146.464
153.712
146.809
146.2
146.2
146.2
146.2
148.938
146.2
147.596
148.262
146.2
146.254
146.2
146.986
146.2
146.2
146.197
146.2
146.195
146.232
146.2
146.221
146.217
315.253
146.2
146.199
146.22
146.2
146.2
146.202
146.2
146.201
146.201
146.2
146.325
163.84
146.167
1342.25
877.925
146.201
146.187
146.201
146.2
146.2
146.2
146.133
146.2
146.808
9543.72
146.201
12208.4
146.408
146.2
20654.8
19295.3
146.2
146.436
182.495
146.2
146.2
146.2
167.924
146.2
10556.7
146.201
9476.9
146.294
146.2
146.2
146.304
146.322
146.316
146.463
146.2
146.2
146.2
146.202
146.2
146.2
146.2
146.2
146.2
146.428
146.201
146.207
146.273
146.112
146.188
146.2
146.233
146.424
146.31
146.444
146.2
159.81
146.181
146.201
146.29
146.201
146.111
146.201
146.599
146.255
146.2
160.297
146.246
146.201
146.396
146.136
177.235
146.216
146.199
146.216
254.989
146.214
146.326
146.2
146.214
146.213
146.204
146.2
146.2
147.548
146.213
146.203
153.673
146.212
146.346
149.942
147.198
146.2
146.22
146.35
146.324
147.526
146.367
146.2
146.2
149.789
146.618
147.311
146.446
146.207
289.589
146.2
146.043
146.304
146.349
146.599
146.2
147.313
146.2
146.267
146.208
146.524
152.553
146.201
374.358
146.036
146.238
146.195
146.361
146.232
146.201
146.228
146.487
146.2
146.318
588.142
146.2
146.561
146.287
146.292
146.201
146.199
146.203
146.362
146.2
146.2
146.315
157.796
146.199
146.206
146.191
146.36
146.1
147.73
146.35
233.972
147.404
1420.06
146.342
1953.93
157.963
146.269
146.384
146.249
260.108
146.251
146.466
17764.3
146.328
181.053
146.2
146.191
146.2
146.071
146.201
146.751
146.346
146.303
146.2
146.2
146.231
146.374
146.354
146.2
146.361
146.345
146.378
146.92
146.276
146.415
146.203
146.375
146.351
146.294
146.281
146.21
146.33
146.2
172.604
146.203
147.269
146.201
146.511
149.101
146.2
169.667
146.192
146.206
3733.68
146.204
146.374
146.787
146.205
146.202
146.376
146.028
149.768
146.689
147.323
17041.3
7529.97
13651.3
31574.8
23544.4
146.277
2749.76
146.201
146.373
146.158
146.337
146.272
146.73
146.364
10492.4
146.474
146.32
146.2
24211.6
4846.66
146.198
164.559
10951
146.771
146.696
146.601
146.294
146.267
146.252
146.314
146.665
146.214
146.312
147.571
146.2
156.071
146.516
146.31
146.242
146.436
146.207
146.481
146.348
146.2
146.438
146.536
146.234
146.304
146.788
160.226
146.292
1986.74
146.415
3839.68
904.104
146.2
1606.45
1390.98
146.343
146.726
146.212
146.073
1742.49
146.327
146.156
146.222
147.101
153.266
146.2
146.242
146.585
146.2
146.201
2171.02
146.353
146.679
146.2
146.2
146.75
146.378
146.295
156.74
146.2
146.228
146.37
164.648
146.384
199.252
146.379
146.482
146.202
147.208
146.401
147.018
146.199
146.407
146.287
146.082
146.458
146.56
146.355
146.2
146.201
146.359
146.297
146.211
147.001
146.404
147.297
146.301
9157.72
146.206
146.419
146.274
146.2
146.202
146.239
146.68
146.275
1591.74
146.2
146.2
146.266
146.2
146.2
146.547
146.793
146.2
146.2
147.26
146.484
146.206
146.2
146.289
146.202
146.217
146.2
146.2
146.146
146.2
146.201
146.2
146.2
146.2
146.2
146.106
146.201
146.842
146.2
146.2
146.2
146.218
146.201
146.205
147.021
146.201
146.2
492.161
146.201
146.2
146.856
146.201
146.2
146.2
146.2
148.557
146.2
147.015
146.221
146.208
146.2
146.86
146.2
146.2
146.214
146.2
146.158
147.057
146.2
146.2
146.2
150.508
146.207
146.201
146.721
146.2
146.204
146.2
146.21
146.2
146.2
150.405
146.2
146.2
148.509
146.2
146.21
146.2
146.2
148.573
146.2
149.66
146.2
146.2
146.2
146.2
146.2
147.117
146.2
146.2
146.2
146.209
146.2
146.2
146.2
146.2
147.39
146.2
146.306
146.2
146.2
146.208
147.846
148.192
146.2
146.201
146.2
146.289
147.099
148.202
146.2
146.2
146.2
146.2