/*--------------------------------*- C++ -*----------------------------------*\
| =========                 |                                                 |
| \\      /  F ield         | OpenFOAM: The Open Source CFD Toolbox           |
|  \\    /   O peration     | Version:  v2012                                 |
|   \\  /    A nd           | Website:  www.openfoam.com                      |
|    \\/     M anipulation  |                                                 |
\*---------------------------------------------------------------------------*/
FoamFile
{
    version     2.0;
    format      ascii;
    class       volScalarField;
    location    "2.5";
    object      ILambda_15_0;
}
// * * * * * * * * * * * * * * * * * * * * * * * * * * * * * * * * * * * * * //

dimensions      [1 0 -3 0 0 0 0];


internalField   nonuniform List<scalar> 
108993
(
146.216
146.257
146.2
146.2
146.2
146.201
146.299
146.2
146.2
146.218
146.2
146.2
146.2
146.201
146.203
146.206
146.22
146.201
146.2
146.201
146.199
146.2
146.202
146.204
146.2
146.201
146.2
146.201
146.201
146.2
146.2
146.201
146.2
146.218
146.2
146.199
146.2
146.2
9571.01
3281.73
146.203
146.2
146.201
146.2
146.225
1449.77
146.2
146.281
146.201
146.201
146.2
146.312
146.236
146.2
146.202
146.208
146.2
146.2
146.2
146.2
146.2
146.2
146.199
146.2
146.2
146.201
146.2
146.2
146.204
146.387
146.203
146.2
146.2
146.2
146.204
146.2
146.2
146.219
146.2
146.2
146.2
146.203
146.2
146.2
146.201
146.201
146.2
146.2
146.2
146.2
146.2
146.2
146.2
146.2
146.2
146.204
146.2
146.2
146.2
146.2
146.2
146.2
146.204
146.207
146.2
146.2
146.2
146.2
146.2
3274.46
146.271
146.2
146.387
146.528
146.2
146.696
146.2
146.2
146.236
146.2
146.2
146.2
146.373
146.2
146.2
146.22
146.204
146.204
146.2
146.2
146.202
146.2
146.2
146.859
146.2
146.2
146.2
146.2
146.2
146.201
146.2
146.2
146.203
146.2
146.2
146.2
146.2
1303.26
146.2
147.812
147.93
146.201
146.2
148.002
146.2
146.36
146.206
146.2
146.2
146.21
147.977
146.2
146.2
146.202
146.201
146.457
146.2
146.2
146.2
146.2
146.2
146.205
146.229
146.2
146.201
146.201
146.5
146.2
146.2
146.2
146.207
146.2
146.2
146.2
146.204
146.2
146.2
146.202
146.205
146.2
146.2
146.2
146.2
146.465
146.2
146.202
146.203
146.2
146.2
146.2
146.2
146.469
146.2
146.2
146.431
146.608
146.2
146.408
146.2
211.116
146.276
146.2
146.502
146.836
211.926
146.2
146.207
146.2
146.2
146.2
146.201
147.845
146.229
146.481
146.201
146.2
146.2
146.2
146.484
146.2
146.857
146.203
146.2
146.2
146.2
146.2
146.2
146.2
146.233
146.2
146.2
146.2
146.2
146.2
146.2
146.236
146.843
146.38
146.2
146.2
146.2
146.2
146.2
146.2
146.2
146.2
146.2
146.2
146.2
146.201
146.2
146.205
146.218
146.238
146.2
146.2
146.2
146.201
146.201
146.2
146.2
146.2
150.346
127.719
1131.98
146.2
146.2
146.453
146.2
146.201
146.201
146.393
149.475
146.2
146.2
146.203
146.2
146.201
146.202
1269.43
146.2
146.2
146.201
146.2
146.2
146.2
146.2
146.2
146.208
146.2
146.454
146.767
146.2
146.2
146.2
146.204
146.201
146.222
146.207
146.465
146.2
146.2
146.227
146.199
146.206
146.812
146.2
146.231
8479.46
146.2
146.212
146.2
146.2
146.2
146.2
146.836
5551.11
146.759
146.2
146.203
146.201
146.751
147.278
146.2
1510.78
146.2
146.2
146.2
146.2
146.2
146.2
146.271
146.201
146.2
146.203
146.202
146.2
146.199
146.2
146.2
146.2
146.201
146.275
151.051
146.201
146.2
146.2
167.851
146.2
146.2
146.201
146.201
146.2
146.2
146.203
146.2
146.2
146.2
146.203
3855.21
146.22
146.203
146.2
230.877
146.201
201.398
146.212
146.2
146.926
146.2
147.495
148.018
146.2
146.305
146.203
146.208
146.21
3635.16
146.201
556.242
151.709
146.207
154.528
146.201
162.025
146.201
5418.23
146.2
146.268
146.2
146.201
146.644
147.731
146.2
146.201
146.207
146.21
146.2
146.201
202.468
146.2
146.2
16800.6
146.201
146.2
146.2
197.503
146.207
146.359
146.199
316.426
146.228
311.804
146.2
146.2
177.637
146.2
147.154
175.235
146.199
4574.76
11083.7
2502.34
146.2
146.2
146.213
146.201
146.201
146.2
146.2
146.204
146.2
146.2
146.201
146.258
146.311
146.232
146.229
146.2
146.201
146.2
146.2
146.2
146.219
146.2
146.205
146.205
146.201
146.2
146.2
146.337
146.2
146.333
147.439
146.203
146.2
146.202
146.333
146.2
146.2
146.218
146.2
146.2
146.2
146.201
146.217
146.2
146.324
147.324
146.248
146.2
146.2
146.2
146.2
146.2
146.2
146.2
146.2
146.211
146.225
146.202
146.204
146.251
146.2
146.299
146.2
146.2
146.2
146.2
146.206
146.2
146.2
146.2
146.2
146.233
146.666
146.2
146.2
7691.23
146.2
146.275
146.295
146.2
146.21
146.2
146.2
146.201
146.2
146.21
146.202
146.201
146.201
146.257
146.227
146.201
146.222
146.209
146.2
146.217
146.217
146.201
146.199
146.221
146.2
146.2
146.2
146.388
146.201
146.213
150.94
146.198
490.108
146.199
146.199
146.2
146.2
146.2
146.215
146.2
146.2
146.424
146.201
209.239
146.2
146.203
146.197
146.2
146.201
247.766
146.204
146.218
146.2
146.2
146.271
146.236
154.007
146.208
146.2
146.201
146.201
146.2
146.256
4875.54
146.236
147.3
146.206
146.203
146.244
1807.56
146.42
146.211
146.207
146.2
146.2
146.208
146.321
1187.41
146.247
146.202
146.2
146.203
146.201
146.211
146.2
160.319
146.2
146.2
146.201
146.319
146.203
146.2
146.2
127.951
146.215
146.2
146.202
127.609
146.201
146.222
146.2
147.095
146.2
146.204
146.2
146.223
146.2
146.224
146.201
146.757
146.2
146.477
146.2
146.208
160.892
146.22
146.2
146.2
146.236
163.65
146.213
147.548
146.201
146.311
146.344
146.203
146.201
146.201
869.945
146.243
146.28
146.202
146.283
146.2
146.21
146.2
146.206
146.202
146.258
146.213
146.213
146.21
146.295
146.373
146.825
146.234
146.213
146.353
146.521
147.702
146.99
146.466
146.201
146.223
146.2
146.2
146.201
146.239
146.205
146.322
146.928
146.213
146.257
146.404
147.224
147.345
146.2
146.368
146.215
146.201
1146.69
146.299
146.232
146.203
146.205
1243.08
146.212
224.778
146.216
146.214
215.38
146.2
146.2
146.234
146.208
146.2
538.379
146.205
620.356
146.214
6516.51
146.4
146.2
146.2
146.2
146.209
146.2
146.215
146.204
146.2
146.2
146.263
363.898
10878.3
146.202
1249.81
146.201
146.287
146.208
146.2
146.279
146.211
146.212
146.455
146.238
146.202
146.234
146.42
146.284
146.265
146.2
146.237
146.214
146.206
146.218
146.201
146.2
146.318
146.2
146.2
146.24
146.2
146.281
10507.9
833.599
146.212
146.355
146.233
146.229
146.217
146.218
146.207
146.2
146.2
146.214
146.2
146.371
146.2
146.2
146.227
146.203
146.228
146.2
146.215
146.201
158.591
146.2
146.215
164.283
146.2
146.2
146.202
146.435
146.2
146.477
146.545
146.206
146.202
5310.83
147.391
146.212
146.2
146.373
146.202
146.202
146.294
146.201
146.359
146.199
146.2
163.137
146.2
7734.12
146.2
146.2
6634.73
146.213
551.035
146.266
152.982
146.2
146.331
146.229
146.2
146.2
146.209
146.2
146.204
146.2
146.2
146.2
146.2
146.201
146.2
158.645
146.2
146.464
146.202
146.202
232.865
146.203
177.607
146.205
146.201
146.21
10198.8
146.358
146.201
156.765
146.472
146.228
146.389
146.196
147.711
146.2
146.23
146.201
146.2
214.837
6187.62
146.2
146.214
146.206
146.407
146.212
146.205
173.213
146.203
146.2
202.088
146.202
199.949
146.209
185.648
146.203
146.309
146.219
146.268
146.434
146.203
146.219
146.217
156.401
146.237
159.933
146.201
146.201
146.2
146.24
146.205
146.261
146.2
146.2
146.286
152.725
146.2
146.256
146.28
147.644
146.201
146.407
146.601
193.452
146.259
146.55
146.202
147.014
146.2
147.058
8957.07
6350.74
146.2
146.2
146.281
146.211
146.36
146.201
146.2
146.32
146.504
146.2
146.404
146.257
146.204
147.15
146.201
146.204
147.035
6563.84
146.21
146.261
146.2
146.2
146.227
146.487
147.169
146.202
147.016
146.284
146.22
146.218
146.201
146.234
146.216
146.201
146.2
146.223
146.201
146.485
146.201
146.2
146.249
146.2
146.238
146.266
146.225
146.215
146.2
147.281
146.205
149.501
146.211
146.221
146.2
146.382
146.424
146.2
146.215
147.136
146.352
146.35
146.201
146.215
146.277
146.723
146.201
157.986
940.862
146.218
146.212
146.215
146.2
146.418
2160.85
146.375
146.264
146.247
146.223
146.21
146.201
146.205
146.257
147.172
146.216
146.2
146.201
146.249
146.2
146.201
146.2
146.254
146.203
146.2
146.202
146.201
146.2
146.202
146.202
147.017
146.203
146.2
146.21
146.2
3568.24
146.2
146.204
146.201
146.203
146.201
324.38
146.202
146.2
146.202
146.2
146.489
146.201
146.448
146.201
146.202
146.265
146.2
146.442
146.243
146.375
146.201
146.203
146.203
146.201
146.201
146.253
146.2
146.201
146.201
146.2
147.161
146.201
146.263
146.2
146.201
146.27
146.229
146.228
146.256
146.201
146.2
146.208
146.42
146.2
146.2
146.2
14404.9
146.201
146.397
146.2
146.814
146.205
146.2
146.197
146.353
146.204
146.327
1169.02
146.219
146.258
146.335
145.28
146.201
146.201
146.201
146.25
146.225
1122.58
146.209
146.203
146.215
146.204
146.252
146.2
146.268
146.392
146.241
146.212
146.416
146.263
146.214
146.2
146.2
146.2
146.2
146.2
146.2
146.221
146.592
146.201
6173.17
146.218
146.2
146.2
146.211
147.078
146.2
146.224
146.208
146.23
146.2
146.213
147.607
146.237
146.2
146.289
146.201
146.202
146.203
146.2
146.2
146.204
8971.11
146.234
146.2
146.203
146.2
146.204
146.202
146.2
146.245
146.206
146.205
146.2
146.202
146.202
146.201
146.2
146.201
146.2
146.2
146.257
146.202
146.228
146.608
146.46
2396.18
146.201
146.2
146.201
146.2
146.202
146.201
146.2
146.2
146.2
146.39
146.203
146.268
146.2
146.2
146.201
146.205
3739.64
4584.18
146.201
146.2
146.2
146.237
146.2
146.2
146.365
146.2
146.201
146.2
146.2
146.2
146.217
146.223
146.212
146.439
146.202
146.203
146.215
146.867
146.371
146.223
146.201
146.219
147.654
146.199
146.225
146.21
146.209
146.206
212.46
146.442
146.2
149.057
146.2
155.159
148.533
146.209
146.201
146.2
146.201
146.2
146.216
146.2
146.94
6269.92
147.327
146.2
146.2
147.29
146.201
146.2
146.201
146.2
146.201
147.534
151.167
146.774
146.2
146.214
146.201
146.203
146.274
146.203
146.201
157.564
146.241
146.352
153.403
146.353
146.568
146.2
146.209
146.213
146.2
146.228
2647.1
146.2
146.228
146.2
168.47
146.2
146.2
146.263
146.2
146.251
146.862
146.2
146.34
146.217
146.291
146.201
146.216
146.2
146.276
146.2
146.363
146.206
146.202
146.719
146.201
146.201
146.2
146.346
164.83
146.2
146.206
146.296
2063.83
147.597
146.2
146.2
146.248
146.205
146.286
146.258
146.255
146.312
146.246
146.2
146.294
146.294
146.207
146.206
146.201
146.272
146.205
146.2
146.2
146.208
146.2
146.2
146.2
146.27
146.2
146.202
146.201
146.222
146.201
146.201
146.2
146.441
146.787
146.201
146.443
146.203
146.201
146.208
146.201
146.228
146.2
146.201
146.427
146.201
146.22
146.221
146.201
146.221
423.678
146.222
146.212
146.223
146.209
146.392
146.218
146.2
146.201
146.2
146.218
146.2
146.2
146.204
146.201
146.21
146.201
146.953
146.218
146.4
183.613
146.2
146.301
146.2
146.201
146.201
146.201
146.201
415.857
150.865
146.252
146.223
662.464
146.313
146.2
146.216
146.2
146.217
146.218
146.237
147.964
146.2
146.2
146.2
146.211
146.201
146.2
146.2
1684.99
6816.19
146.213
146.2
146.342
146.201
146.201
146.206
146.2
146.391
146.2
146.201
146.215
146.211
5346.66
146.206
146.215
146.424
146.461
146.201
146.241
146.524
146.2
146.2
146.22
146.472
146.238
146.2
146.22
146.315
146.244
147.85
146.22
146.221
807.73
146.205
146.201
246.545
146.205
146.2
146.207
146.2
3519.47
146.201
146.203
146.771
146.208
6980.79
146.204
275.668
146.208
146.205
204.761
146.799
146.205
143.635
146.225
146.2
146.586
146.201
146.201
146.204
1624.25
146.293
146.204
146.29
146.2
242.656
1455.34
154.923
146.818
483.686
146.199
396.406
146.2
146.202
146.2
146.2
146.2
146.2
146.2
146.201
146.363
147.659
146.225
146.394
146.201
146.2
146.201
146.201
146.201
146.2
148.702
150.128
146.201
146.2
146.2
146.346
146.349
146.202
146.421
146.2
146.2
146.2
146.443
2111.3
146.51
146.796
146.497
146.2
146.245
147.679
146.2
146.2
146.201
148.38
1403.51
146.346
5075.71
146.2
146.2
17231.2
146.2
146.455
146.2
146.2
146.209
146.2
146.454
146.2
146.463
754.716
146.316
146.457
146.319
146.253
146.2
146.36
146.2
146.202
146.2
146.2
146.2
146.2
146.234
146.2
146.209
149.468
146.614
146.658
146.201
146.2
11901.6
147.634
146.2
146.352
146.2
146.202
146.231
146.708
12167.9
148.226
146.2
153.977
11829.6
148.371
146.2
151.122
146.226
146.243
267.602
146.213
7844.64
146.238
146.201
146.225
146.643
146.221
146.286
146.388
146.307
146.205
146.95
9901.92
11018.6
146.2
146.2
11412.4
146.2
146.276
147.175
146.2
233.257
146.257
146.207
146.228
146.208
146.204
146.287
146.595
188.78
146.43
514.373
146.2
146.966
146.325
146.269
146.201
146.209
146.244
146.212
146.201
146.21
146.236
146.205
146.202
146.207
204.822
146.308
146.203
459.865
146.231
146.201
147.952
146.203
146.218
146.201
146.205
146.2
146.213
147.036
146.633
146.476
147.114
3965.86
146.2
146.217
146.279
146.802
146.358
1157.25
146.201
146.271
146.201
147.317
146.248
146.363
146.2
146.2
146.199
146.2
146.572
146.2
146.272
146.201
211.139
146.847
146.205
146.201
253.56
148.637
147.22
147.759
146.2
147.362
13463.4
146.2
146.232
146.225
146.273
146.276
146.2
146.265
147.134
146.824
146.285
1349.02
148.139
146.263
146.207
472.85
153.956
146.243
2754.09
146.204
151.51
146.525
146.203
4148.72
146.225
146.206
146.2
146.309
148.609
146.215
146.201
146.222
146.2
146.2
146.201
146.251
146.229
644.823
194.446
146.209
1656.65
148.701
146.199
146.244
165.067
1111.34
146.317
146.296
548.29
146.657
23161.2
146.974
146.2
1481.01
146.206
146.2
146.202
211.492
146.2
146.259
146.372
146.976
147.191
148.69
146.2
146.233
146.355
146.201
146.2
146.2
146.2
146.2
146.217
992.02
167.108
1548.75
146.217
4381.06
146.309
146.987
146.209
146.457
146.579
149.049
146.201
146.201
146.2
146.2
146.2
146.201
146.201
152.52
146.327
3410.19
146.264
146.328
1421.69
147.226
171.168
805.118
146.198
227.198
146.289
146.2
146.201
147.472
146.73
146.2
146.201
146.2
146.267
146.2
157.944
187.641
215.909
147.643
146.2
205.081
146.714
146.2
146.263
146.2
146.214
344.269
146.204
146.212
152.666
146.267
146.2
146.215
146.2
146.2
146.201
146.342
146.324
146.2
146.684
146.486
147.88
146.312
146.233
146.201
146.2
146.217
146.214
146.876
1644.65
146.218
146.2
1425.11
146.221
146.2
146.222
146.222
146.456
1205.96
160.704
147.269
146.832
146.2
338.847
146.222
146.737
604.455
146.2
240.875
146.2
146.2
982.367
146.2
146.242
926.275
324.878
929.535
1129.1
146.2
146.573
146.44
146.327
146.223
146.204
407.438
909.757
144.266
297.297
146.424
146.216
146.339
787.406
161.406
151.444
146.324
1126.42
146.201
146.199
22136.6
709.038
146.647
146.97
146.787
227.696
6811.09
146.2
146.459
146.201
830.198
146.201
146.426
146.77
146.2
1371.24
146.201
731.515
916.936
146.201
146.201
359.663
146.201
146.2
146.2
146.201
243.546
146.201
907.087
233.296
146.2
146.2
190.687
146.218
146.2
146.472
146.2
146.2
146.201
146.2
146.234
146.234
3195.04
146.2
146.201
384.004
146.2
353.378
319.265
146.2
146.2
146.201
146.201
145.562
146.199
146.202
146.2
146.2
146.201
2493.06
3644.83
146.211
146.201
23864.5
146.2
146.315
146.199
146.552
146.201
204.392
146.317
146.201
146.199
146.272
146.483
147.67
146.199
146.658
146.315
146.2
146.205
147.357
146.2
146.349
146.2
743.508
146.2
146.199
146.201
146.25
146.202
365.784
149.541
146.199
146.199
146.659
146.2
147.503
146.213
146.2
169.544
3849.5
146.4
146.207
146.216
148.639
2108.52
146.2
3460.77
146.2
2672.77
146.836
146.21
1373.6
664.393
891.045
179.48
146.659
146.221
146.2
146.201
156.313
182.797
146.201
233.07
146.206
146.202
146.2
146.365
933.382
524.104
146.2
146.529
146.332
146.2
146.901
146.2
146.198
146.201
1174.76
147.173
145.529
146.2
146.201
146.2
3160.66
146.367
7381.53
146.2
146.2
147.238
146.595
146.199
146.2
942.692
146.2
146.2
146.381
5955.04
146.509
146.425
146.199
164.066
7717.28
155.058
147.647
146.216
155.541
146.201
146.227
1533.99
2685.86
183.154
153.176
158.835
151.389
146.199
7435.43
166.574
147.595
146.199
146.864
619.652
146.2
245.415
177.243
146.2
1290.05
146.199
6996.42
146.554
146.54
146.808
717.042
146.2
146.199
146.21
146.337
5540.19
146.201
263.992
146.235
146.201
146.201
146.201
146.201
146.365
146.2
146.345
146.202
3542.78
146.201
760.844
146.201
146.489
146.2
146.212
146.421
146.201
146.201
146.2
146.2
146.21
10009.8
11633.2
310.963
146.474
146.2
146.201
146.201
146.207
146.211
146.212
146.201
146.639
146.392
15036
146.205
146.201
146.2
146.479
146.202
146.201
146.363
146.205
146.228
13490.4
146.296
146.741
146.2
146.207
146.753
146.576
146.2
146.213
146.307
146.201
146.369
146.221
146.223
146.225
146.208
146.2
146.206
146.204
146.7
146.203
213.577
146.2
146.22
146.203
146.2
146.227
146.208
146.345
146.209
146.201
146.2
146.512
199.407
146.201
173.469
199.5
146.202
146.225
146.201
146.207
191.209
146.201
146.228
146.406
146.202
193.223
146.221
146.201
146.207
146.201
146.208
146.201
146.2
146.205
146.201
147.561
146.2
146.201
146.261
146.201
146.216
146.586
146.204
146.201
152.678
149.099
146.208
146.218
146.201
146.231
146.461
146.201
146.2
146.339
146.215
146.209
146.211
146.215
146.201
146.2
146.21
146.274
1289.37
146.616
2130.62
146.215
146.217
146.217
146.2
1677.93
146.214
146.207
147.481
146.218
1084.5
146.2
146.215
146.241
146.229
146.348
146.249
146.401
146.2
146.234
146.634
146.202
146.324
146.206
146.218
146.299
146.275
146.528
146.251
146.777
146.285
146.782
146.225
146.223
146.2
146.421
146.21
146.216
146.201
146.201
146.294
146.2
146.219
146.205
146.2
146.2
146.201
146.259
146.343
146.2
146.207
146.227
146.2
146.365
146.2
146.319
146.21
146.202
146.2
146.2
146.222
146.2
146.2
146.2
146.204
146.201
146.2
146.541
146.201
146.237
555.364
146.201
146.222
146.24
146.2
146.203
146.205
146.2
146.2
146.296
146.26
146.208
146.2
146.226
146.2
146.243
146.315
146.2
146.2
146.221
146.2
146.2
146.335
146.2
146.206
146.209
146.22
146.2
146.201
8148.53
146.447
146.214
146.2
146.2
146.201
146.265
146.217
146.2
146.2
146.208
497.674
146.201
146.2
146.2
167.351
146.225
146.211
157.252
146.219
146.204
146.365
146.218
146.201
146.206
1177.05
146.305
146.2
146.41
153.065
146.2
146.2
155.855
146.489
183.131
146.2
146.209
146.201
146.209
180.947
146.2
181.058
146.206
146.204
184.48
146.212
146.201
146.436
207.19
146.202
146.243
167.521
146.203
146.307
219.101
146.366
146.284
146.201
146.352
147.188
146.299
157.148
146.2
146.209
146.3
146.201
146.291
164.264
146.201
146.319
146.201
162.481
146.248
146.201
146.205
146.199
146.244
146.201
153.255
5053.85
146.201
212.365
163.021
5143.22
146.201
146.339
7359.15
146.2
159.927
146.24
146.38
146.208
152.372
146.2
146.2
146.214
146.2
148.027
146.211
146.213
3458.18
146.373
146.2
146.221
146.214
146.212
146.202
146.2
146.265
146.221
146.743
146.21
146.797
4683.77
146.215
146.213
3534.42
146.236
146.201
146.213
146.771
146.398
146.343
146.212
146.371
146.242
146.43
4508.54
146.218
146.201
146.307
146.217
146.257
146.203
146.27
146.218
146.208
146.339
146.283
7679.5
146.472
146.205
148.331
146.201
146.222
146.285
146.201
150.962
146.201
146.787
5564.49
10688.7
146.201
146.209
146.2
147.97
146.228
147.253
146.24
151.173
150.356
146.454
146.2
151.571
146.347
146.232
2423.1
149.492
146.2
146.238
146.208
146.226
146.201
146.201
146.2
146.215
146.202
146.2
146.218
9648.99
146.2
146.227
146.203
146.575
146.383
146.206
146.249
146.2
146.209
146.213
146.202
146.201
146.201
146.214
146.2
146.205
146.213
1723.32
146.2
146.535
146.268
9102.56
146.2
146.402
146.278
146.2
146.2
16664.8
146.2
146.204
146.2
146.204
146.2
146.208
146.2
146.2
146.2
146.203
146.397
657.377
146.2
146.202
146.2
146.402
146.301
146.205
146.2
1976.26
146.201
146.221
146.2
146.427
146.214
146.2
146.2
3805.36
5203.33
146.201
146.225
146.203
146.201
146.214
146.485
146.203
146.234
161.957
146.213
146.201
146.443
146.214
146.314
147.258
146.201
146.201
146.225
148.747
146.202
146.269
146.201
146.2
146.2
146.2
146.2
146.347
146.214
146.306
146.307
1043.95
1882.12
146.2
146.232
146.221
146.201
146.255
13764.3
146.201
146.339
146.866
146.2
146.201
146.201
146.366
146.251
146.205
146.204
146.2
146.204
146.209
146.426
146.205
146.474
146.232
146.201
146.465
976.005
146.204
146.202
146.201
909.898
2686.32
146.2
146.213
146.201
146.243
146.243
3465.34
146.202
146.518
146.288
146.207
146.2
146.201
281.224
146.2
146.2
146.2
146.2
150.904
146.216
146.367
146.211
146.21
146.201
146.201
146.2
1595.13
146.77
146.201
146.477
146.2
146.2
146.199
1702.31
150.281
1020.75
146.219
146.201
146.2
146.201
146.202
146.49
590.255
146.215
146.2
146.204
751.586
7810.96
146.202
146.2
628.232
640.604
146.211
324.97
351.891
146.304
149.905
146.941
146.201
146.202
146.201
146.204
146.2
146.214
12317.8
3783.02
150.798
147.4
685.632
146.258
146.216
146.214
146.618
146.201
268.989
146.202
147.552
157.778
146.2
279.92
149.991
146.202
146.202
8375.48
146.205
146.2
1121.82
161.68
146.199
146.201
146.201
146.201
146.213
146.2
146.2
156.704
537.975
146.2
146.214
146.212
153.498
146.281
146.2
146.2
146.2
881.224
146.204
146.203
146.503
146.2
146.237
146.2
146.2
240.892
146.201
146.2
146.2
146.2
146.211
146.213
146.202
146.2
146.379
146.21
146.2
146.398
146.2
146.203
146.2
146.205
146.201
146.2
146.212
146.2
146.2
459.257
146.2
147.205
146.214
146.2
146.2
146.203
146.206
146.218
146.219
147.008
163.573
147.247
146.274
195.551
146.212
147.002
147.389
146.205
146.714
146.2
146.216
146.198
146.2
146.2
146.204
146.32
153.037
146.2
158.902
146.201
146.24
146.209
146.2
146.226
146.201
146.353
6542.2
146.37
146.201
146.2
146.329
157.164
146.342
146.21
2592.55
146.213
1852.5
146.199
146.199
146.364
1089.55
1331.13
1478.63
1062.35
147.062
146.385
153.84
145.305
1978.49
146.202
146.201
146.206
146.203
146.218
1040.25
146.253
146.253
1050.89
1001.5
146.212
1015.75
146.657
146.2
146.2
146.2
146.749
151.24
146.232
146.198
146.737
421.155
146.419
4040.55
146.629
146.495
146.87
146.199
146.25
147.116
146.243
146.2
146.23
146.49
146.2
146.2
146.606
146.201
146.2
146.539
146.201
146.645
147.597
146.201
146.447
146.548
146.961
146.209
146.616
146.64
150.698
146.213
146.199
147.139
174.835
146.703
146.511
146.211
146.453
146.218
146.238
190.32
146.199
146.219
148.121
146.201
143.948
146.201
146.2
146.197
148.141
146.2
146.21
146.201
146.207
146.455
148.122
148.4
146.209
146.2
146.635
145.042
210.7
146.2
221.74
13266.2
148.381
226.131
146.206
147.498
146.2
146.323
146.202
146.2
146.201
146.201
146.201
148.156
146.201
146.287
146.2
146.2
146.201
146.199
146.205
146.25
146.332
146.2
146.2
151.41
146.2
136.921
146.217
146.2
180.463
146.208
146.2
146.2
132.187
146.205
146.2
146.211
146.22
146.201
146.2
146.419
146.2
146.2
146.199
146.2
146.2
146.201
146.217
146.569
146.2
146.262
146.2
146.261
146.2
146.228
146.2
146.519
146.201
146.2
146.2
146.201
146.455
146.202
146.198
146.2
146.2
146.2
10547.6
146.2
146.2
146.203
146.201
146.21
146.332
146.2
146.2
146.201
146.235
146.201
146.201
146.2
146.219
146.2
146.2
146.2
146.415
146.202
146.2
146.2
146.2
146.203
146.2
3474.15
146.235
146.208
146.217
146.202
146.436
146.208
146.474
146.233
146.204
146.48
146.202
146.201
146.199
146.201
1374.57
146.2
146.2
1342.88
146.2
146.2
146.2
146.2
146.213
146.206
9752.64
146.201
146.2
146.201
1484.76
2229.14
2179.73
146.416
147.54
146.939
146.2
146.209
146.217
2046.75
146.201
146.201
146.202
146.2
5786.62
146.2
146.201
146.202
146.429
146.403
146.43
146.643
146.201
146.901
153.94
146.201
151.788
146.201
146.201
146.201
146.201
146.2
146.409
146.201
147.41
146.313
147.266
147.074
160.455
146.38
146.201
146.201
146.201
146.223
146.201
146.201
146.201
146.201
151.73
146.444
146.204
146.315
146.201
149.339
146.246
146.981
146.337
146.201
148.215
146.201
146.201
146.201
347.092
253.643
150.522
146.203
146.714
146.2
146.204
146.2
146.291
146.2
649.656
146.276
146.2
146.2
146.412
146.45
146.2
146.934
146.201
146.2
1958.98
146.2
146.4
146.201
146.265
146.201
146.203
146.201
146.2
146.379
146.201
151.091
146.203
153.688
146.201
146.212
230.545
146.2
146.201
146.2
1569.81
146.212
147.167
153.181
147.004
146.2
1536.75
146.334
146.201
146.201
2038.9
146.39
146.2
146.364
1797.4
146.2
146.224
146.202
146.508
146.202
146.203
146.203
146.201
156.532
146.201
374.605
146.201
146.518
146.201
146.201
146.252
146.201
146.211
146.225
146.201
146.417
1733.34
146.288
507.218
146.433
188.708
146.379
146.202
146.2
146.2
197.889
5040.81
205.617
146.669
146.407
488.172
146.43
3868.53
174.796
146.2
956.108
6494.68
146.3
146.2
261.48
146.923
146.988
171.763
147.218
146.624
670.156
146.2
820.818
146.219
146.908
146.32
561.97
972.029
146.2
146.201
146.611
147.043
146.355
146.289
146.2
146.201
994.934
146.222
146.284
146.206
146.201
146.447
146.2
47751.9
147.498
146.2
146.237
932.226
146.403
162.966
767.479
947.993
146.398
146.2
146.206
512.118
146.2
146.2
146.222
146.25
146.237
901.312
146.339
146.347
146.831
146.86
146.2
146.2
1522.02
146.2
146.214
146.685
146.2
146.2
146.231
210.743
197.827
145.902
146.247
146.4
146.198
146.524
5561.73
146.368
9303.38
146.2
146.229
146.2
146.451
146.2
149.643
168.801
146.2
194.162
146.2
146.2
146.256
146.351
146.422
146.235
645.573
3063.66
146.2
146.201
146.327
150.613
146.201
146.244
160.489
146.2
146.449
146.243
146.2
146.203
146.2
146.203
146.201
146.201
146.2
146.218
146.768
146.214
180.617
13629.9
146.475
146.849
146.2
146.351
146.201
146.201
146.882
465.844
182.784
146.78
141.106
147.673
146.201
146.477
8141.56
146.994
147.055
146.498
146.2
146.934
146.202
146.201
146.2
146.213
146.787
146.206
151.732
146.2
146.323
146.224
1842.92
157.891
146.2
147.135
147.272
146.229
147.185
147.125
146.2
146.201
147.666
146.306
146.201
146.2
146.201
146.2
146.237
146.2
5142.07
145.682
148.735
146.673
146.449
146.398
146.202
146.201
146.2
147.222
146.2
146.2
146.2
146.915
146.225
3588.39
146.653
146.469
146.412
249.16
146.305
146.55
146.201
146.203
146.487
3090.43
146.748
146.201
146.201
146.204
152.691
146.201
146.953
149.921
146.57
147.364
146.201
146.233
148.266
146.231
146.201
146.937
146.501
146.51
146.201
146.735
146.315
147.949
146.2
146.201
147.329
146.261
146.2
146.201
146.53
147.379
146.833
146.205
146.2
146.718
146.675
146.2
146.199
146.2
6460.12
148.501
23870.9
146.961
146.2
147.489
147.472
146.203
146.2
146.29
146.255
146.309
146.318
156.422
146.201
146.321
146.204
146.964
146.201
146.201
146.2
146.201
155.045
148.202
146.201
147.31
146.341
146.244
146.201
146.216
146.201
148.011
146.63
146.201
146.201
146.309
146.201
146.201
146.203
146.2
146.201
146.733
146.201
146.451
146.201
146.2
146.201
146.795
146.201
146.201
146.766
146.201
146.214
146.201
146.345
2449.19
146.201
146.33
146.243
146.475
146.201
146.201
146.201
146.22
146.201
146.32
146.217
146.789
148.614
146.201
146.201
146.201
146.201
146.201
146.201
146.201
146.21
146.201
146.201
146.201
146.201
146.223
1979
146.712
146.524
146.324
146.205
146.201
174.881
146.201
688.791
146.389
146.43
146.201
146.2
146.2
146.2
146.201
146.201
146.218
147.531
146.201
146.201
146.201
146.232
146.201
146.204
146.201
146.201
146.201
146.263
146.22
146.231
146.201
146.201
146.219
146.224
146.223
146.201
146.214
146.201
146.278
146.201
146.426
146.255
146.378
146.224
146.24
147.424
146.223
147.1
151.347
146.202
14362.9
146.201
147.034
146.201
147.147
146.555
147.096
156.396
146.202
146.201
146.201
146.368
5646.27
146.2
147.172
146.33
197.725
146.2
146.209
146.2
146.201
147.197
146.2
146.2
146.201
146.201
146.201
146.2
146.804
147
146.494
146.201
146.2
146.47
146.201
146.2
146.237
194.969
146.232
146.201
146.201
147.55
146.238
146.2
146.2
146.773
146.966
210.279
146.201
147.013
146.217
146.2
146.201
146.2
146.2
146.201
146.208
146.2
146.2
146.201
146.201
146.201
146.201
146.201
146.201
146.2
146.201
146.217
146.201
146.198
146.2
146.2
146.201
146.349
146.661
146.483
146.2
146.2
146.201
146.201
146.388
146.214
146.201
146.2
146.201
146.201
146.201
146.333
146.2
146.2
146.201
146.201
146.201
146.23
146.201
146.23
146.231
146.268
146.2
146.201
146.252
146.201
146.2
146.201
146.2
146.201
146.201
146.199
146.201
146.202
146.201
147.035
147.338
146.201
146.201
146.201
146.2
146.201
146.2
146.201
146.2
146.155
202.413
146.201
197.012
146.304
146.2
173.419
162.198
146.404
146.408
147.015
146.405
146.202
146.2
146.228
146.2
175.682
146.201
160.143
146.201
146.2
146.201
146.646
146.681
146.648
146.201
146.201
146.2
146.2
146.201
146.201
146.201
146.2
146.218
146.2
146.738
146.201
146.201
146.201
146.201
146.201
146.2
146.201
146.412
146.773
146.507
146.43
146.207
146.201
146.201
146.2
146.432
146.201
146.413
146.74
146.201
146.205
146.218
146.25
146.201
146.236
146.201
146.235
146.281
146.2
146.282
6425.34
176.212
146.357
146.199
146.286
176.88
146.201
146.2
146.201
146.201
146.289
146.201
146.442
164.798
386.961
149.548
150.3
146.2
146.2
381.81
146.2
146.216
146.201
146.214
146.201
146.208
146.864
2198.62
146.843
146.221
146.477
146.201
146.201
146.201
438.445
146.661
146.201
2180.88
146.2
146.363
146.201
146.395
146.249
146.201
146.396
146.201
146.2
146.201
146.215
146.201
146.201
146.546
146.722
146.201
146.201
430.996
146.2
146.276
146.201
146.201
146.201
146.201
146.201
146.229
146.2
146.2
146.255
146.351
146.201
146.2
146.201
146.201
146.201
146.232
146.201
146.407
146.314
230.409
146.203
197.409
146.3
146.2
146.2
146.201
147.51
146.201
146.327
698.909
146.201
174.94
146.2
146.201
146.2
146.201
146.201
146.201
146.392
146.455
146.2
146.2
146.201
146.354
146.391
146.214
146.383
152.617
146.334
10257.7
146.221
146.203
146.201
146.2
146.393
146.208
146.225
146.202
146.362
146.2
146.201
146.201
146.207
146.201
146.369
146.243
146.201
146.201
146.201
146.201
13997.8
146.201
146.2
10209.2
146.201
146.201
146.203
146.201
146.201
146.201
146.2
852.616
3820.91
-37.5259
319.233
647.532
146.629
10175.4
146.201
146.202
146.201
146.201
146.218
10834.1
146.227
1739.64
146.426
146.207
146.201
427.909
5645.94
146.201
146.201
6286.18
11004.5
10942
146.208
146.285
146.239
146.201
146.201
11016.4
146.201
146.203
146.26
146.2
146.201
146.202
146.203
146.202
146.51
146.206
146.359
146.449
146.2
146.484
147.769
146.559
146.206
146.215
146.201
146.446
148.726
146.205
3071.49
783.642
146.2
1290.19
1055.83
146.201
146.201
146.201
146.201
1539.95
146.2
146.2
146.2
146.203
146.202
146.2
146.363
146.2
146.199
146.201
163.632
146.201
154.412
146.2
146.201
146.2
146.334
146.2
146.379
146.201
146.201
146.301
146.589
146.389
163.267
146.719
146.236
146.201
146.206
146.388
146.201
146.201
146.314
146.434
146.201
146.208
146.365
146.373
146.2
146.203
146.2
146.201
146.243
152.111
146.206
246.54
146.201
158.321
146.21
207.514
146.204
146.217
146.203
146.201
235.963