/*--------------------------------*- C++ -*----------------------------------*\
| =========                 |                                                 |
| \\      /  F ield         | OpenFOAM: The Open Source CFD Toolbox           |
|  \\    /   O peration     | Version:  v2012                                 |
|   \\  /    A nd           | Website:  www.openfoam.com                      |
|    \\/     M anipulation  |                                                 |
\*---------------------------------------------------------------------------*/
FoamFile
{
    version     2.0;
    format      ascii;
    class       volScalarField;
    location    "2.5";
    object      ILambda_11_0;
}
// * * * * * * * * * * * * * * * * * * * * * * * * * * * * * * * * * * * * * //

dimensions      [1 0 -3 0 0 0 0];


internalField   nonuniform List<scalar> 
108993
(
146.2
146.201
146.203
146.2
146.2
146.2
146.2
146.2
146.2
146.207
146.2
146.2
146.2
146.2
146.2
146.217
146.21
146.2
146.2
146.201
146.2
146.2
146.326
146.2
146.2
146.2
146.2
146.2
146.201
146.2
146.2
146.2
146.2
146.2
146.2
146.2
146.2
146.2
148.293
146.508
146.245
146.2
146.2
146.2
146.221
146.264
146.2
146.2
146.2
146.239
146.2
146.243
146.202
146.2
146.2
146.2
146.2
146.2
146.2
146.2
146.2
146.2
146.2
146.201
146.2
146.2
146.2
146.2
146.201
146.245
146.2
146.2
146.2
146.2
146.2
146.2
146.2
146.203
146.2
146.2
146.2
146.201
146.2
146.2
146.2
146.2
146.2
146.2
146.2
146.2
146.2
146.2
146.2
146.2
146.2
146.2
146.2
146.2
146.2
146.2
146.2
146.2
146.2
146.2
146.2
146.2
146.2
146.2
146.2
146.898
146.24
146.2
146.363
146.484
146.2
2183.06
146.2
146.2
146.215
146.2
146.201
146.2
147.709
146.201
146.2
146.219
146.26
146.2
146.2
146.2
146.201
146.2
146.2
162.739
146.2
146.201
146.2
146.2
146.2
146.2
146.2
146.2
146.202
146.2
146.2
146.2
146.2
146.769
146.201
5118.49
5474.27
146.2
146.551
5487.23
146.2
146.474
146.2
146.2
146.2
146.213
5533.86
146.2
146.2
146.2
146.2
146.297
146.2
146.2
146.2
146.2
146.2
146.2
146.206
146.2
146.201
146.2
161.266
146.2
146.2
146.2
146.213
146.2
146.2
146.2
146.2
146.2
146.2
146.2
146.2
146.2
146.2
146.2
146.2
149.447
146.2
146.201
146.239
146.2
146.2
146.2
146.2
148.77
146.2
146.2
146.21
161.489
146.2
147.028
146.2
7975.16
146.25
146.2
160.544
148.226
147.505
146.2
146.2
146.2
146.2
146.2
146.201
5024.24
146.205
155.607
146.208
146.2
146.2
146.2
151.706
146.2
146.858
146.2
146.2
146.201
146.2
146.2
146.2
146.2
146.32
146.2
146.201
146.2
146.2
146.2
146.2
146.218
147.872
156.484
146.2
146.2
146.2
146.2
146.2
146.2
146.2
146.2
146.2
146.2
146.2
146.2
146.2
146.2
146.214
146.218
146.2
146.2
146.201
146.2
146.2
146.2
146.2
146.204
146.563
715.641
146.657
146.2
146.2
149.714
146.2
146.201
146.2
146.431
146.421
146.2
146.2
146.221
146.2
146.201
146.201
146.885
146.201
146.201
146.201
146.201
146.2
146.201
146.2
146.201
146.206
146.2
154.258
1643.66
146.2
146.2
146.2
146.201
146.202
146.2
146.201
146.679
146.2
146.2
146.207
146.2
146.201
1332.4
146.2
146.207
147.002
146.2
146.202
146.201
146.2
146.2
146.2
1923.43
2286.57
622.524
146.2
146.201
146.241
475.239
131.117
146.2
147.243
146.2
146.2
146.2
146.2
146.2
146.2
921.981
146.203
146.2
146.2
146.2
146.201
146.2
146.2
146.201
146.2
146.2
146.412
146.253
146.201
146.2
146.2
146.752
146.2
146.2
146.205
146.202
146.201
146.201
146.2
146.205
146.201
146.2
146.2
2185.12
147.056
146.21
146.202
8462.44
146.211
319.688
146.201
146.2
193.371
146.2
262.359
206.649
146.203
146.221
146.2
146.211
146.211
465.071
146.201
146.679
190.408
146.209
227.344
146.2
146.392
146.206
6022.83
146.2
146.215
146.2
146.207
147.437
146.515
146.2
146.201
146.209
146.213
146.2
146.202
1848.38
146.2
146.353
2299.73
146.2
146.2
146.2
5163.01
146.225
146.857
146.2
3179.41
146.202
3956.6
146.2
146.2
1043.86
146.2
411.776
1585.38
146.2
5723.02
146.356
4518.28
146.2
146.2
146.212
146.204
146.2
146.201
146.2
146.2
146.2
146.2
146.201
146.227
147.015
146.537
146.206
146.2
146.201
146.201
146.2
146.2
146.201
146.201
146.2
146.2
146.201
146.2
146.2
146.374
146.203
146.635
3117.29
146.208
146.202
146.2
146.826
146.203
146.203
146.221
146.2
146.2
149.355
146.204
146.213
146.2
146.242
146.457
146.217
146.2
146.2
146.2
146.201
146.207
146.201
146.203
146.202
146.205
146.2
146.2
146.2
146.215
146.203
146.214
146.2
146.206
146.2
146.201
146.201
146.2
146.2
146.2
146.202
146.225
2304.3
146.202
146.2
7232.99
146.201
146.219
146.279
146.2
146.204
146.201
146.2
146.2
146.2
146.2
146.2
146.207
146.211
146.259
146.262
146.201
146.21
146.227
146.2
146.209
146.268
146.201
146.2
146.207
146.2
146.2
146.2
146.432
146.2
146.206
146.269
146.2
146.347
146.2
146.2
146.2
146.2
146.2
146.206
146.2
146.2
151.304
146.201
146.698
146.2
146.2
146.2
146.2
146.271
16350.8
146.201
146.201
146.2
146.201
146.221
146.246
148.309
146.2
146.2
146.228
146.245
146.201
146.231
19690.7
146.241
803.716
146.454
146.2
146.252
1328.3
146.239
146.206
146.2
146.2
146.2
146.2
146.218
146.29
146.251
146.201
146.2
146.269
146.2
146.201
146.201
489.366
146.2
146.2
146.2
146.2
146.206
146.201
146.2
1352.27
146.234
146.2
146.2
864.117
146.2
146.213
146.2
147.276
146.201
146.203
146.201
146.219
146.2
146.214
146.2
176.883
146.2
146.863
146.2
146.2
147.106
146.2
146.2
146.2
376.463
146.5
146.217
1416.72
146.201
668.438
592.061
146.214
146.2
146.2
1229.51
146.209
146.223
146.201
146.229
146.2
156.321
146.2
146.215
146.205
146.23
146.207
146.215
146.215
146.216
147.026
146.346
146.235
146.2
146.458
146.405
146.216
146.404
146.356
146.2
146.217
146.2
146.2
146.477
146.23
146.225
147.492
146.538
146.219
146.225
146.283
146.346
146.369
146.2
158.913
146.222
146.2
146.961
146.2
146.311
146.21
146.219
146.994
146.225
146.229
146.223
146.218
6349.9
146.2
146.2
146.212
146.203
146.2
8062.79
146.204
147.05
146.204
6237.94
146.641
146.201
146.201
146.201
146.208
146.2
146.214
146.274
146.2
146.201
147.48
146.524
156.37
146.2
4240.18
146.2
146.275
146.212
146.2
146.234
146.2
146.213
146.318
146.216
146.201
146.216
146.564
146.241
677.956
146.2
146.214
146.214
146.218
146.216
146.201
146.2
146.265
146.201
146.201
146.2
146.2
146.217
146.316
147.275
146.211
146.313
146.215
146.214
146.214
146.205
146.2
146.201
146.201
146.211
146.201
146.752
146.201
146.212
146.208
146.2
146.213
146.201
146.21
146.203
146.201
146.209
146.2
146.419
146.2
146.2
146.203
146.325
146.2
541.681
591.507
146.202
146.204
1715.16
147.147
146.21
146.203
146.338
146.204
146.204
146.301
146.29
146.539
146.2
146.2
146.2
146.2
146.626
146.2
146.2
146.619
146.224
473.201
146.391
434.295
146.2
146.804
146.217
146.2
146.202
146.223
146.2
146.2
146.2
146.2
146.2
146.203
146.234
146.2
146.202
146.2
147.265
146.2
146.2
5317.25
146.2
12771.3
146.207
146.2
146.208
13090.1
152.81
146.201
146.201
146.228
146.2
146.217
146.863
146.203
146.204
146.221
146.2
146.207
146.201
146.334
146.207
146.2
146.206
146.201
146.207
146.201
146.214
146.201
146.2
406.902
146.204
660.448
146.204
215.872
146.204
146.384
146.222
146.22
146.446
146.2
146.221
146.222
146.243
146.397
146.522
146.203
146.205
146.201
146.219
146.227
146.219
146.2
146.2
146.219
146.521
146.2
146.215
146.215
146.217
146.2
146.332
146.529
146.511
146.885
146.438
146.468
121.987
146.2
147.678
146.697
448.671
146.2
146.2
146.212
146.207
146.445
146.205
146.2
146.215
189.489
146.2
146.618
147.109
146.2
129.016
146.203
146.2
234.896
215.534
146.2
146.2
146.2
146.2
146.212
146.65
151.615
146.2
120.547
146.206
146.211
146.201
146.2
146.216
146.222
146.201
146.2
146.214
146.2
146.604
146.201
146.2
153.066
146.2
146.209
146.217
146.214
146.213
146.2
328.513
146.2
164.126
146.2
146.2
146.2
146.429
146.287
146.2
146.206
20.0902
146.259
1333.63
146.2
146.218
722.924
674.612
146.2
146.207
147.587
146.217
146.206
146.215
147.085
146.362
146.767
146.247
146.228
146.217
146.21
146.204
148.033
147.175
146.219
2094.04
146.206
146.2
146.201
146.225
146.2
146.2
146.2
146.242
146.201
146.203
146.201
146.201
146.201
146.201
146.2
147.455
146.2
146.201
146.21
146.2
146.743
146.2
146.2
146.201
146.2
146.201
1109.46
146.204
146.292
146.201
146.2
146.272
146.201
146.358
146.237
146.201
193.457
146.2
146.272
146.249
146.309
146.2
146.201
146.201
146.2
146.21
146.735
146.2
146.2
146.201
146.2
201.783
146.2
146.734
146.2
146.2
146.662
146.211
146.306
146.364
146.2
146.2
146.435
146.309
146.2
146.2
146.2
155.121
146.205
146.457
146.2
146.205
146.216
146.2
146.431
146.256
146.204
146.239
147.473
146.226
146.212
146.815
146.377
146.201
146.2
146.2
146.218
146.206
2342.22
146.206
146.235
146.212
146.261
146.213
146.204
146.211
146.381
146.206
146.202
146.414
146.328
146.205
146.2
146.2
146.2
146.2
146.2
146.2
146.2
406.75
146.201
159.374
146.201
146.2
146.2
146.205
147.594
146.2
146.201
146.2
146.208
146.2
146.211
4298.24
146.221
146.2
272.821
146.2
146.2
146.2
146.2
146.2
146.265
20231.7
146.215
146.2
146.2
146.2
146.201
146.201
146.2
146.2
146.2
146.2
146.2
146.2
146.2
146.2
146.201
146.205
146.201
146.2
146.2
146.201
146.214
146.358
146.322
147.216
146.201
146.2
146.215
146.2
146.201
146.201
146.2
146.204
146.2
146.611
146.203
146.401
146.2
146.2
146.2
146.201
1703.36
1889.83
146.2
146.2
146.2
146.358
148.592
146.2
146.379
146.2
146.204
146.201
146.2
146.2
146.213
146.201
146.201
146.416
147.119
146.844
148.975
186.465
146.252
146.201
146.2
146.2
5036.72
146.2
146.214
146.211
146.21
146.209
5595.39
146.688
146.2
146.223
146.2
146.235
146.221
146.213
146.2
146.197
146.204
146.194
146.21
146.2
2561.88
808.045
146.21
146.2
146.2
146.209
146.201
146.2
146.201
146.2
146.201
8484.79
146.228
155.875
146.2
146.206
146.2
146.208
644.912
146.377
146.201
146.224
146.215
146.312
146.221
146.228
236.325
146.2
146.2
146.212
146.2
146.2
12172.6
146.2
146.2
146.2
218.324
146.2
146.201
146.615
146.206
728.845
170.027
146.2
146.434
146.2
146.222
146.2
146.201
146.2
147.029
146.2
989.953
146.213
146.2
148.625
146.2
146.203
146.2
146.425
1438.28
146.201
146.201
146.239
1098.28
146.24
146.298
146.2
146.218
146.2
149.158
147.735
149.31
762.246
148.013
146.2
147.764
149.169
146.214
146.211
146.2
146.23
146.2
146.2
146.2
146.224
146.2
146.217
146.204
146.242
146.2
146.2
146.218
146.2
146.214
146.219
146.201
146.443
551.233
146.207
152.114
151.693
146.276
146.2
146.201
146.206
146.2
146.272
146.349
146.207
146.2
146.2
146.206
146.2
2555.63
146.2
146.211
146.203
146.207
146.248
146.202
146.2
146.201
146.2
146.202
146.2
146.2
146.208
146.201
146.226
146.808
1985.67
146.202
1364.02
146.841
146.2
151.175
146.2
146.201
146.201
146.204
146.2
146.366
147.116
146.294
146.201
401.467
375.904
146.2
146.2
146.2
146.201
146.202
146.288
4838.61
146.2
146.2
150.209
146.203
146.201
146.207
146.207
146.412
146.324
146.203
146.2
1263
146.201
146.387
146.218
146.205
146.422
146.2
146.358
146.207
146.203
8608.84
146.205
146.206
345.233
146.438
146.334
146.21
1776.24
146.288
146.205
146.202
146.314
146.213
146.2
146.201
146.255
147.242
146.618
146.201
146.201
147.12
146.202
146.2
146.767
146.202
146.2
146.203
146.201
146.706
146.2
146.2
542.238
146.203
146.934
146.203
147.062
146.202
146.212
146.477
146.2
146.209
146.394
146.208
146.589
146.594
146.2
146.2
146.2
147.088
146.233
146.2
148.105
146.2
146.225
147.204
2839.15
146.206
160.776
146.2
13305.7
146.2
146.2
146.2
146.2
146.2
146.2
146.2
146.201
172.065
3317.79
201.591
146.207
146.201
146.2
146.2
146.201
146.201
146.2
216.347
146.242
146.2
146.2
146.2
146.358
146.2
146.2
146.4
146.2
146.2
146.2
146.2
146.33
146.399
147.163
3119.9
146.2
146.2
3650.35
146.2
146.2
146.2
146.31
146.772
146.25
6300.67
146.2
146.2
1244.71
146.2
146.2
146.2
146.2
147.071
146.2
146.2
146.2
146.2
9859.64
146.252
146.2
149.459
146.224
146.2
146.654
146.2
146.2
146.2
146.2
146.2
146.2
146.317
146.2
146.217
156.053
670.004
425.671
146.2
146.2
146.321
3314.67
146.2
146.54
146.2
146.2
146.235
147.069
146.734
148.802
146.2
4674.14
146.315
1707.56
146.2
148.69
146.235
146.23
148.675
146.214
146.459
146.22
146.213
146.22
147.033
146.223
146.225
146.315
146.227
146.242
162.395
146.367
146.443
146.2
146.2
176.006
146.2
146.2
3781.59
146.2
3644.07
146.228
146.2
146.2
146.2
146.2
146.231
171.22
147.089
153.672
402.403
146.2
165.959
146.229
146.433
146.2
146.304
146.2
146.2
146.201
146.2
146.519
146.2
146.2
146.224
360.802
146.231
146.204
146.482
146.213
146.201
146.227
146.2
146.2
146.201
146.2
146.2
146.2
147.912
164.014
146.729
454.286
146.582
146.201
146.2
146.312
973.226
146.819
5392.15
146.201
146.21
146.213
1339.27
146.417
146.246
146.2
146.201
146.2
146.2
420.582
146.2
146.31
146.213
3303.67
956.966
146.2
146.201
146.799
810.624
148.105
857.16
146.2
4357.7
4880.82
146.2
146.292
365.081
146.212
146.326
146.203
146.324
3814.67
146.402
146.315
152.214
146.373
146.309
146.2
146.99
20498.2
146.209
3315.48
146.205
146.202
146.23
146.201
4009.27
146.209
146.218
146.2
146.2
146.247
146.202
146.201
146.354
148.003
146.201
146.2
146.213
146.2
147.347
2499.32
146.217
5984.46
146.2
146.2
146.215
1050.79
146.973
146.23
146.239
147.751
3274.63
2106.12
161.176
147.345
146.795
146.2
146.203
146.203
8833.09
149.439
146.429
146.262
148.603
120.469
146.77
148.449
146.307
146.2
146.201
146.2
146.673
146.2
147.809
146.209
706.27
1871.62
146.845
146.21
879.747
146.459
190.084
146.211
152.638
1293.86
23520.1
146.259
146.227
146.2
146.2
146.2
146.204
146.201
146.224
146.376
8743.27
146.288
146.232
169.283
146.941
146.657
219.824
146.2
15421.8
283.706
146.2
146.2
3499.64
188.744
146.201
146.201
146.2
146.359
146.2
7613.48
8516.1
6424.58
4419.38
146.2
9336.52
147.139
146.201
146.233
146.202
146.206
2359.38
146.204
146.206
13483.1
146.376
146.205
146.206
146.203
146.2
146.2
171.814
146.254
146.514
2089.26
164.837
146.764
146.458
146.288
146.201
146.206
146.2
146.2
1030.56
147.144
146.2
146.2
146.279
146.2
146.2
146.2
146.2
147.373
146.864
146.848
1313.24
3713.38
146.2
147.077
146.2
146.887
146.626
146.2
146.535
146.2
146.2
147.093
146.2
146.205
146.751
146.522
146.853
146.787
146.201
229.338
146.584
148.685
146.348
146.201
146.525
146.804
146.46
1076.13
146.2
146.201
222.352
311.614
146.492
968.474
399.225
146.762
146.2
146.2
17122.2
146.798
175.644
2118.85
163.067
2410.64
146.548
146.2
197.467
146.2
146.794
146.2
631.651
2279.63
146.2
146.798
146.2
146.565
146.754
146.2
146.2
146.679
146.2
146.201
146.2
146.2
146.338
146.2
146.828
146.38
146.2
146.2
154.645
146.332
146.2
146.469
146.2
146.2
146.2
146.2
146.271
146.271
146.708
146.2
146.201
146.359
146.2
146.224
2737.33
146.2
146.2
148.113
146.97
190.006
146.2
146.2
146.2
146.2
146.206
696.25
3299.52
147.099
146.207
13636
146.591
146.256
146.2
159.473
146.201
852.906
147.565
146.2
146.2
146.2
146.396
146.751
146.2
149.004
146.202
146.2
146.207
146.208
146.201
146.336
146.201
146.946
146.201
146.2
146.2
146.2
146.2
147.026
146.234
146.2
146.2
155.241
146.2
146.203
146.2
146.2
146.649
146.778
146.206
146.2
146.2
146.205
146.743
146.201
147.169
146.202
146.596
146.531
146.2
5407.8
146.658
152.845
146.789
153.134
146.931
146.201
146.2
146.232
146.202
146.201
146.509
146.201
146.215
146.202
146.647
146.558
146.488
146.201
146.343
146.265
146.2
146.679
146.202
146.2
146.2
146.933
147.093
147.219
146.2
146.2
146.2
146.592
146.203
146.46
146.2
146.2
146.555
1149.44
146.2
146.202
146.277
146.203
146.202
146.2
147.181
146.394
187.657
146.2
146.379
5446.06
146.219
3825.17
146.417
10270.4
146.201
146.241
154.795
5047.79
5257.13
13482.7
8159.14
21570.3
146.2
2754.3
147.071
3598.95
146.2
2112.02
37620.4
146.2
146.742
13193.6
146.2
4532.9
146.2
146.759
346.191
272.153
146.808
147.116
146.2
146.2
146.201
146.2
147.711
146.2
148.112
146.34
146.201
146.201
146.201
146.2
146.2
146.2
161.854
146.2
147.115
146.2
152.248
146.201
152.364
146.2
146.222
146.292
146.201
146.201
146.2
146.205
146.204
147.914
147.858
872.403
151.722
149.316
147.117
146.2
146.222
146.209
147.094
146.2
146.485
146.244
147.208
147.044
148.441
146.291
146.364
146.201
146.201
146.202
146.206
146.226
147.389
146.25
3324.69
146.201
146.204
146.757
2971.79
146.2
146.482
146.343
146.337
146.395
146.308
146.2
152.868
146.201
146.267
146.2
146.211
274.196
146.2
146.205
146.261
152.801
146.2
146.2
151.458
146.215
146.518
146.241
146.2
146.2
146.43
369.617
146.2
146.255
528.216
146.201
146.22
146.201
146.219
281.334
146.242
146.351
146.222
146.2
507.78
146.217
146.207
146.201
146.202
146.2
146.207
146.2
146.2
146.206
146.217
146.386
146.207
146.251
146.206
146.229
740.297
146.2
146.209
148.452
150.328
146.2
146.223
146.202
146.2
146.223
146.341
146.2
146.34
146.258
146.2
146.2
146.2
146.206
146.2
146.204
146.219
146.752
146.748
147.583
146.206
146.205
146.225
146.269
147.226
146.222
146.203
183.611
146.225
146.991
146.2
146.222
152.454
146.224
162.476
146.213
163.527
146.527
146.213
300.194
146.2
146.888
146.2
146.225
146.213
146.211
231.211
146.214
151.757
146.213
167.004
146.212
146.2
146.2
146.575
146.21
146.214
146.202
146.201
146.214
146.71
146.233
146.202
146.2
146.2
147.338
146.217
146.22
146.2
146.206
146.2
146.2
146.225
146.2
146.492
146.204
146.202
146.2
146.2
146.224
146.2
146.2
146.2
146.212
146.201
146.2
214.647
146.2
146.214
5729.92
146.2
146.205
146.211
146.2
146.2
146.2
146.2
146.2
146.22
146.222
146.214
146.2
146.21
146.2
146.214
146.534
146.2
146.2
146.213
146.2
146.2
146.222
146.2
146.214
146.213
146.2
146.2
146.202
171.444
146.367
146.2
146.2
146.2
146.2
146.392
146.351
146.2
146.2
146.206
146.565
146.2
146.2
146.2
146.496
146.222
146.214
146.496
146.215
146.202
153.734
146.224
146.205
146.321
7207.64
146.356
146.2
146.214
146.502
146.2
146.2
146.462
146.489
146.462
146.2
146.226
146.2
146.235
146.594
146.2
146.549
146.21
146.2
146.495
146.205
146.2
146.283
146.516
146.201
146.21
146.535
146.203
146.227
146.525
146.354
146.215
146.201
146.743
141.983
146.441
349.644
146.2
146.2
146.252
148.485
146.258
146.2
146.2
146.2
146.201
146.201
146.2
147.717
146.757
146.2
146.208
146.202
146.2
153.799
146.2
146.2
146.201
195.38
146.2
146.351
1460.31
146.2
146.2
146.235
146.317
146.2
146.201
146.201
146.201
146.204
146.201
170.038
146.212
146.212
147.36
146.31
146.2
146.207
146.216
146.201
146.2
146.425
146.223
146.203
146.249
146.202
147.176
147.464
146.217
146.241
643.924
146.354
146.2
146.211
199.303
146.237
146.224
146.204
146.258
146.22
146.243
671.593
146.219
146.204
146.222
146.22
146.318
146.2
146.429
146.217
146.227
146.412
146.265
146.447
146.493
146.2
146.579
147.204
146.2
146.344
146.2
146.551
146.2
3804.11
1312.79
7555.43
146.2
146.2
146.2
146.66
146.216
3807.79
146.2
146.661
146.563
146.328
146.203
5535.27
146.259
146.234
4800.48
146.243
146.201
146.214
146.201
146.218
146.201
146.201
146.203
146.2
146.202
146.202
146.2
151.231
146.202
146.207
146.2
146.659
146.256
146.23
146.287
146.203
146.201
146.218
146.201
146.203
146.2
146.21
146.202
146.213
146.202
147.117
146.202
163.69
146.245
146.59
146.2
146.379
155.829
146.2
146.201
214.534
146.2
146.208
146.2
146.2
146.202
146.219
146.2
146.2
146.204
146.2
146.286
4308.4
146.2
146.202
146.2
146.282
146.268
146.2
146.2
146.779
146.201
146.211
146.2
146.307
146.208
146.2
146.2
146.28
146.749
146.2
146.228
146.2
146.201
146.209
146.449
146.2
146.208
146.219
146.201
146.2
146.231
146.207
146.262
146.604
146.2
146.201
146.211
146.337
146.2
146.2
146.2
146.2
146.2
146.2
146.2
148.378
146.207
146.2
146.202
345.033
148.008
146.2
146.303
146.247
146.201
146.306
3290.85
146.206
146.624
2297.72
149.681
146.202
146.224
146.26
146.306
146.227
146.226
146.216
146.2
146.223
146.237
146.209
146.226
146.216
146.2
146.253
152.574
146.223
146.51
146.2
147.442
481.572
146.2
146.2
146.201
146.208
146.244
146.752
146.263
146.393
146.207
146.217
146.2
146.2
146.424
146.2
146.2
146.2
146.2
146.2
146.205
146.2
146.209
146.21
146.215
146.2
146.2
146.807
148.782
146.2
146.246
146.2
146.2
146.2
146.788
146.454
146.267
146.2
146.2
146.2
146.201
146.205
146.2
8552.97
146.2
146.2
146.202
146.398
146.39
146.203
146.2
9723.77
11326.8
146.231
9900.72
1140.21
146.2
147.02
345.813
146.2
146.2
146.2
146.201
146.2
146.201
277.544
146.847
2194.46
148.796
983.451
146.2
146.216
146.232
162.631
146.202
990.596
146.204
3157.49
1098.45
146.201
146.221
2035.34
146.202
146.2
146.318
146.201
146.201
1077.52
146.413
146.2
146.2
146.201
146.201
146.2
146.201
146.2
146.214
146.37
146.2
146.21
146.206
1693.03
146.226
146.204
146.201
146.2
909.555
146.2
146.2
148.424
146.201
146.2
146.2
146.2
147.056
146.204
146.2
146.2
146.2
146.2
146.2
146.203
146.2
146.245
146.257
146.2
146.491
146.2
146.2
146.2
146.2
146.201
146.2
146.205
146.2
146.2
146.483
146.2
10892.7
146.205
146.2
146.2
146.2
146.2
146.205
146.26
10660.3
146.549
16070.1
146.245
146.231
146.211
13868.8
10716.1
146.213
153.939
146.2
146.206
146.2
146.2
146.2
146.2
146.463
14009.1
146.2
146.295
146.266
146.263
146.206
146.2
146.327
146.2
146.208
146.349
146.215
146.201
146.2
146.201
146.202
146.2
146.206
552.945
146.206
270.524
146.2
146.2
146.234
209.741
443.619
651.741
170.379
229.108
146.31
146.484
146.454
608.09
146.2
146.2
146.2
146.2
146.251
147.105
146.23
146.248
147.153
147.172
146.205
147.111
205.124
146.2
146.2
146.2
299.151
536.385
147.031
146.2
695.85
147.298
146.28
146.281
415.981
146.62
146.489
146.2
146.378
146.496
146.219
146.2
146.2
146.466
146.2
146.201
146.474
146.2
146.226
4040.17
146.201
146.474
5418.42
146.201
146.215
209.671
291.006
146.208
218.924
148.879
420.919
146.446
146.2
418.602
146.212
289.378
232.891
146.206
146.435
146.207
146.324
146.352
146.2
146.273
147.047
146.2
146.367
146.2
146.2
146.2
147.151
146.239
146.212
146.204
146.2
146.448
148.359
148.854
146.213
146.2
181.935
146.354
146.332
146.2
146.295
236.954
2204.1
146.313
146.202
146.546
146.2
146.2
146.2
146.2
146.2
146.214
146.2
146.322
146.2
146.214
146.2
146.2
146.2
146.2
146.2
146.232
146.324
146.201
146.2
146.738
146.2
146.354
146.216
146.2
146.758
146.203
146.2
146.201
146.318
155.811
146.2
146.221
146.215
146.2
146.2
146.211
146.2
146.2
146.2
146.2
146.2
146.2
146.204
149.681
146.2
146.201
146.2
195.477
146.2
146.201
146.632
147.563
146.2
146.2
146.2
146.203
146.292
146.423
146.2
146.2
146.2
146.2
147.002
146.2
146.2
146.2
146.2
146.2
146.335
146.2
146.2
146.201
146.221
146.2
146.202
146.2
146.202
146.2
146.2
146.203
146.3
146.2
146.2
146.2
146.2
146.2
146.2
146.768
146.22
146.207
146.2
146.2
146.291
146.2
146.268
146.307
146.209
146.449
146.2
146.2
146.2
146.201
146.985
146.203
146.2
146.99
146.2
146.2
146.2
146.2
146.2
146.2
1758.04
146.201
146.2
146.2
147.073
147.018
147.067
146.281
1463.85
260.576
149.053
146.2
146.2
147.073
146.2
146.201
146.2
146.3
1145.48
146.2
146.2
146.2
146.284
146.242
146.324
380.852
146.201
3021.36
270.616
146.201
146.215
146.203
146.2
146.201
146.508
146.424
146.2
146.201
2288.29
146.278
444.9
213.361
432.955
146.233
146.201
146.2
146.201
146.22
146.201
146.201
146.202
146.201
3600.14
146.282
146.206
146.263
146.2
266.24
231.668
175.118
146.239
146.201
147.708
146.213
146.201
146.2
146.907
164.47
344.872
146.2
290.809
146.2
149.849
146.2
146.222
146.2
147.075
879.395
146.2
146.2
147.829
146.326
146.2
1958.74
146.201
146.2
146.449
146.2
146.201
146.201
486.369
146.209
146.2
146.212
146.2
146.24
146.205
146.586
146.2
146.202
146.213
146.202
146.564
146.202
146.21
146.2
820.296
146.254
1852.1
4015.79
154.66
146.201
146.984
251.324
146.211
146.201
147.249
303.888
146.2
146.379
3295.26
154.317
146.201
146.203
146.393
146.2
146.2
146.2
146.201
8596.22
146.201
27495.9
146.201
146.323
146.201
146.2
146.212
146.201
146.227
146.2
146.2
146.218
634.356
146.584
149.128
146.694
146.919
146.585
146.328
146.201
146.2
146.333
8101.53
146.376
146.203
149.889
665.661
146.695
146.755
148.414
146.2
146.691
146.692
146.685
146.2
459.333
147.362
149.815
146.417
155.843
168.63
867.268
153.818
154.015
153.289
148.886
146.261
147.008
922.293
146.225
151.271
930.677
159.07
146.215
146.667
146.2
146.201
951.302
146.202
146.2
146.209
146.201
146.24
146.2
59305.8
146.571
146.2
146.2
272.653
146.253
146.592
271.134
2369.16
146.246
146.2
146.2
146.419
146.2
146.2
146.212
154.107
146.205
430.298
146.2
146.2
176.871
146.603
146.2
146.326
476.338
146.537
146.201
146.575
146.2
146.201
146.201
146.949
147.734
147.342
146.2
147.439
146.2
146.985
12502.2
161.832
146.544
146.2
146.203
146.2
146.2
146.2
6107.73
146.507
146.2
146.401
146.2
146.2
160.042
146.2
146.247
146.202
146.418
2759.8
146.2
146.2
146.246
11596.7
146.2
146.361
147.466
146.221
146.505
146.206
146.2
146.2
146.2
146.2
146.2
146.213
146.2
146.203
177.302
146.2
146.741
17706.8
1408.82
164.007
146.2
146.262
146.201
146.2
170.352
146.92
146.472
155.896
13648.6
4748.16
146.201
146.517
260.629
3568.95
183.796
146.383
146.201
120.745
146.2
146.2
146.2
146.218
152.949
146.202
146.768
146.2
146.214
146.2
147.246
146.434
146.2
133.53
121.545
146.301
131.627
238.047
146.2
146.202
11941.1
146.344
146.207
146.196
146.201
146.2
146.201
146.2
6148.19
146.298
14746.8
147.953
146.21
146.283
146.2
146.2
146.2
6103.1
146.2
146.2
146.2
10636.6
147.511
146.837
145.82
146.243
185.191
147.969
146.221
143.717
146.201
146.201
150.119
7494.7
468.172
147.139
146.201
146.29
1461.58
146.205
1323.08
233.765
147.367
124.175
146.2
146.2
12529.5
146.227
146.201
137.896
150.466
147.187
146.2
140.013
146.451
9560.2
146.212
146.2
146.203
146.256
146.2
146.2
147.573
146.652
147.467
147.635
146.212
151.93
146.771
146.213
146.2
146.2
146.745
14224.3
416.107
168.775
146.211
146.721
146.676
146.238
146.212
146.239
146.2
146.2
146.207
954.668
146.201
146.256
146.257
146.625
146.2
146.2
146.2
146.2
146.408
148.751
146.2
146.652
146.207
146.217
146.2
146.214
146.2
146.703
146.807
146.2
146.2
146.253
146.204
146.201
146.201
146.2
147.199
149.049
146.225
146.22
146.2
146.201
146.2
149.336
146.2
146.2
153.946
146.2
146.203
146.201
146.2
146.744
146.205
146.265
146.202
147.266
146.2
146.207
146.2
146.2
146.2
146.901
146.201
148.554
244.1
146.2
146.206
146.218
146.2
146.201
146.2
146.201
146.2
146.201
146.203
146.201
146.2
146.215
146.385
153.293
162.225
704.595
146.4
146.201
313.511
146.201
6303.28
146.655
948.649
146.201
146.201
146.221
146.2
146.201
146.201
146.231
4320.1
146.2
146.201
146.202
146.201
146.271
154.952
146.201
146.202
146.2
146.25
146.232
146.233
146.201
146.201
146.231
146.236
146.241
146.201
146.216
146.201
146.31
146.2
146.224
146.397
146.228
146.237
295.478
4051.64
146.234
146.855
2448.67
146.335
2195.96
146.207
112.418
146.203
76.0393
147.244
-64.2207
163.686
146.201
146.21
146.217
146.9
146.664
146.2
104.784
146.203
146.494
146.2
146.2
146.2
146.324
146.651
146.193
146.352
146.237
146.201
146.217
146.199
149.634
5018.88
148.32
146.201
146.2
582.199
146.204
146.2
146.231
146.494
146.235
146.201
146.204
1847.96
146.242
146.2
146.2
146.632
148.518
146.34
146.216
146.596
146.219
146.2
146.201
146.2
146.2
146.201
146.203
146.2
146.2
146.2
146.201
146.201
146.2
146.201
146.201
146.2
146.2
146.212
146.201
146.2
146.2
146.2
146.2
1529.28
330.966
176.325
146.2
146.2
146.2
146.2
170.778
146.2
146.201
146.2
146.2
146.2
146.2
146.205
146.201
146.2
146.201
146.2
146.201
146.215
146.202
146.211
146.223
151.63
146.2
146.201
146.286
146.204
146.2
146.201
146.2
146.2
146.21
146.2
146.253
146.201
146.209
154.162
159.076
146.211
146.209
146.202
146.2
146.2
146.2
146.201
146.2
146.256
12616.9
146.2
11202.7
146.2
146.2
7430.92
9710.81
146.2
146.45
158.844
146.2
146.2
146.2
146.202
146.2
11004
146.21
11178
146.201
146.2
146.202
152.224
155.44
154.102
146.201
146.201
146.2
146.2
146.2
146.2
146.2
146.2
146.2
146.2
177.805
146.212
146.205
146.208
146.201
146.2
146.2
146.2
146.42
149.121
146.344
146.2
146.201
146.2
146.205
146.204
146.2
146.201
146.2
164.698
146.204
146.2
146.201
146.24
146.209
343.11
146.21
146.2
146.222
146.197
146.234
146.755
146.201
147.058
146.2
146.252
146.2
146.239
146.2
146.202
146.2
146.241
146.246
146.218
146.2
146.331
381.121
222.38
146.2
146.443
146.369
146.213
146.202
146.289
146.2
146.206
146.201
193.493
146.766
230.811
146.216
146.66
146.202
146.203
146.229
146.332
147.232
146.201
146.776
146.206
151.873
146.212
146.22
146.201
146.216
147.78
146.201
146.281
146.201
146.282
146.406
146.213
146.808
151.899
146.201
146.202
3261.82
146.206
146.2
146.207
146.22
146.312
146.201
146.356
146.282
146.2
146.201
146.734
146.218
146.201
146.366
146.201
146.205
146.201
146.233
146.206
146.215
179.263
2601.84
146.265
2437.4
330.382
146.203
146.3
146.202
3807.55
146.208
146.272
4300.05
146.253
815.536
146.205
146.2
146.205
146.201
146.2
146.2
146.287
146.328
146.206
146.205
146.207
146.298
146.31
146.433
146.328
146.202
146.332
146.786
146.229
146.202
146.299
146.229
146.377
146.27
146.226
146.231
146.351
146.2
146.201
146.2
146.208
146.2
146.325
207.865
146.205
146.201
146.201
146.201
1057.08
146.226
146.201
146.748
146.203
146.204
146.202
146.201
146.2
146.2
146.2
4488.57
5829.01
8623.16
6555.94
9979.87
146.785
992.752
146.212
146.251
146.235
146.208
146.267
146.582
146.26
8152.16
146.429
146.232
146.2
12627.5
1753.58
146.201
146.201
4298.15
146.752
146.581
146.21
153.63
146.293
146.206
146.2
146.611
146.2
146.233
146.209
146.2
146.201
146.205
146.262
146.238
146.42
146.203
146.426
146.418
146.2
146.473
146.891
146.239
146.274
146.204
146.201
146.527
155.927
146.206
5501.02
2044.98
146.2
2030.64
2038.41
146.2
146.201
146.2
146.201
1851.92
146.298
146.202
146.424
146.2
146.2
146.2
147.879
146.2
146.2
146.23
275.814
146.201
156.626
146.2
146.201
146.2
146.446
146.208
146.247
146.2
146.2
146.435
1809.29
146.268
146.253
151.485
146.309
146.2
146.2
146.477
146.201
146.201
146.383
146.233
146.201
146.241
146.24
146.447
146.2
146.201
146.223
146.223
152.466
156.603
146.322
146.307
146.261
4241.21
146.206
146.332
146.326
146.652
146.201
147.041
146.285
146.204
1780.86
146.2
146.2
151.27
146.2
146.2
559.877
1239.77
146.2
146.2
146.393
146.352
146.201
146.2
146.406
146.2
146.221
146.201
146.2
152.851
146.2
146.206
146.2
146.201
146.2
146.2
149.39
146.201
146.263
146.2
146.2
146.2
146.218
146.201
146.219
146.279
146.201
146.202
147.037
146.209
146.202
146.251
146.201
146.2
146.2
146.2
146.423
146.2
146.271
146.203
146.214
146.2
146.253
146.2
146.2
146.206
146.2
146.678
146.286
146.2
146.2
146.2
146.2
146.216
146.206
146.597
146.2
146.201
146.2
146.214
146.2
146.2
146.2
146.2
146.2
146.2
146.2
146.213
146.2
146.2
146.2
146.2
146.2
146.202
146.2
146.2
146.2
146.204
171.635
146.2
146.2