/*--------------------------------*- C++ -*----------------------------------*\
| =========                 |                                                 |
| \\      /  F ield         | OpenFOAM: The Open Source CFD Toolbox           |
|  \\    /   O peration     | Version:  v2012                                 |
|   \\  /    A nd           | Website:  www.openfoam.com                      |
|    \\/     M anipulation  |                                                 |
\*---------------------------------------------------------------------------*/
FoamFile
{
    version     2.0;
    format      ascii;
    class       volScalarField;
    location    "2.5";
    object      ILambda_6_0;
}
// * * * * * * * * * * * * * * * * * * * * * * * * * * * * * * * * * * * * * //

dimensions      [1 0 -3 0 0 0 0];


internalField   nonuniform List<scalar> 
108993
(
146.189
146.201
146.2
146.201
146.2
146.2
146.201
146.2
146.2
289.881
146.2
146.2
146.201
146.092
146.183
146.204
479.885
145.819
146.201
146.201
146.2
146.201
146.2
146.2
146.201
146.2
146.201
146.201
146.201
146.2
146.2
146.157
146.201
146.161
146.201
146.2
146.2
146.201
553.649
146.707
146.2
146.2
146.186
146.201
146.558
174.146
146.201
146.2
146.201
146.201
146.2
146.248
146.201
146.2
145.656
146.2
146.201
146.2
146.201
146.2
146.2
146.2
146.2
146.2
146.201
146.201
146.2
146.201
145.915
163.903
146.2
146.201
146.201
146.201
146.201
146.2
146.2
171.013
146.201
146.2
146.2
145.139
146.201
146.2
145.862
146.195
146.2
146.2
146.2
146.2
146.2
146.2
146.2
146.2
146.2
146.183
146.2
146.2
146.2
146.2
146.2
146.201
146.199
146.171
146.2
146.2
146.2
146.201
146.201
147.073
146.428
146.2
146.225
146.231
146.2
146.484
146.2
146.2
137.003
146.2
144.409
146.201
146.206
146.2
146.201
146.255
146.2
146.2
146.201
146.201
146.197
146.201
146.2
146.752
146.2
146.2
146.201
146.2
146.2
146.096
146.2
146.2
146.193
146.201
146.201
146.201
146.2
146.385
146.2
146.799
146.812
146.2
146.2
146.864
146.201
146.202
146.197
146.201
146.201
146.282
146.861
146.201
146.2
146.2
146.196
146.22
146.2
146.2
146.2
146.2
146.201
146.2
146.247
146.2
146.201
146.201
146.204
146.2
146.2
146.2
220.962
146.201
146.201
146.2
146.121
146.2
146.201
146.096
146.125
146.2
146.2
146.201
146.2
146.202
146.2
146.2
146.2
146.2
146.201
146.2
146.2
146.202
146.2
146.201
146.201
146.336
146.2
146.257
146.2
131.899
146.234
146.2
146.205
146.228
5744.13
146.2
146.182
146.2
146.201
146.2
146.201
146.728
146.198
146.201
146.201
146.2
146.201
146.2
146.455
146.2
146.989
146.2
146.2
146.2
146.2
146.2
146.201
146.2
146.209
146.201
146.2
146.2
146.2
146.201
146.201
146.202
146.227
146.208
146.201
146.201
146.2
146.201
146.2
146.2
146.201
146.201
146.201
146.2
146.2
146.2
146.2
146.201
146.133
146.269
146.201
146.2
146.2
146.201
146.2
146.2
146.2
146.2
146.216
1024.91
146.319
146.2
146.2
146.204
146.2
146.201
146.201
1310.27
1317.81
146.2
146.2
146.204
146.201
146.201
146.198
146.303
144.585
146.2
146.201
146.2
146.2
146.2
146.2
146.2
400.242
146.2
146.214
146.567
146.2
146.2
146.2
146.2
146.201
146.201
146.2
146.216
146.2
146.2
144.297
146.2
146.2
146.39
146.2
145.177
149.153
146.2
146.201
146.2
146.2
146.2
146.2
147.465
186.805
146.278
146.2
146.2
146.201
146.234
147.007
146.2
146.276
146.2
146.2
146.2
146.2
146.2
146.2
146.252
146.201
146.2
146.196
146.128
146.2
146.2
146.2
146.2
146.2
146.2
1079.38
146.247
146.201
146.2
146.2
146.691
146.2
146.2
146.199
146.201
146.2
146.2
146.201
146.201
146.2
146.201
146.188
6272.86
146.2
146.198
146.2
147.216
146.201
146.389
146.168
146.2
146.399
146.2
146.288
146.338
146.201
146.218
146.138
146.203
144.7
6410.89
146.201
146.282
146.306
146.204
146.291
145.476
146.225
146.201
228.962
146.2
146.373
146.2
146.201
146.205
146.206
146.2
146.201
146.205
146.203
146.2
146.2
201.243
145.844
146.201
3953.12
146.2
146.2
146.2
146.706
246.124
146.242
146.2
211.752
146.201
144.48
146.2
146.2
146.788
146.2
146.26
147.007
146.2
229.687
158.285
253.959
146.201
146.2
311.418
146.201
146.201
146.2
146.2
146.135
146.2
146.2
146.201
146.312
146.201
146.201
146.247
146.2
146.201
146.2
146.2
146.2
146.443
146.2
146.198
146.125
146.201
146.2
146.2
146.206
146.2
146.205
146.622
605.6
146.2
146.2
146.205
146.2
146.2
161.421
146.2
146.2
146.2
146.201
146.256
146.2
146.226
146.343
144.822
146.2
146.2
146.2
146.2
146.2
146.2
146.2
146.2
146.243
146.2
146.088
146.2
146.275
146.2
146.647
146.2
146.2
146.2
146.2
146.201
146.2
146.2
146.2
146.2
146.311
146.44
146.2
146.2
6376.95
146.2
146.065
146.201
146.2
146.175
146.2
146.201
146.2
146.2
146.201
146.2
146.201
146.201
146.201
146.2
146.201
146.607
146.205
146.2
148.236
146.2
146.201
146.2
145.621
145.282
146.201
146.2
146.207
146.192
300.52
146.223
146.2
146.263
146.2
146.2
146.2
146.2
146.2
148.009
146.2
146.2
146.211
146.201
6689.49
146.2
146.109
146.2
146.2
146.201
147.979
146.201
146.371
146.2
146.2
146.201
146.248
146.21
146.192
146.2
146.201
146.2
146.2
146.201
5501.67
146.251
146.262
146.201
146.197
146.227
147.518
146.201
146.112
146.2
146.2
146.201
146.2
146.352
231.193
146.231
146.195
146.2
146.201
146.2
146.201
146.2
1018.5
146.2
146.2
146.2
146.201
226.854
146.2
146.2
3022.08
146.345
145.9
146.2
1143.41
146.2
145.25
146.2
146.605
146.2
161.538
146.2
146.201
146.2
146.2
146.2
146.409
146.2
146.241
146.2
146.2
146.454
146.201
146.2
146.2
146.218
1896.67
146.243
146.364
146.201
146.229
146.652
146.214
146.2
146.2
880.14
146.546
146.24
150.734
146.24
146.2
146.201
146.2
146.22
146.198
146.233
146.426
146.239
146.234
146.656
146.294
146.306
152.501
146.201
179.467
146.352
146.212
146.345
146.339
146.2
144.225
146.2
146.2
146.201
146.205
146.222
146.246
146.28
146.484
146.2
146.229
146.306
146.313
146.2
146.201
168.03
146.2
146.379
146.201
146.212
1307.75
146.231
146.308
146.336
147.987
168.201
189.431
147.666
146.201
146.2
146.239
220.309
146.2
978.388
240.717
146.238
313.81
3670.14
146.28
146.2
146.2
146.2
145.301
146.2
146.453
146.2
146.2
146.2
146.201
146.23
6092.45
146.2
1627.54
146.2
146.232
630.626
146.2
146.238
146.201
146.204
146.207
146.212
145.572
146.282
146.201
146.427
146.237
146.201
146.243
146.203
146.21
146.243
146.199
146.2
146.203
146.2
146.2
146.201
146.2
146.224
254.993
146.261
146.166
146.201
146.072
146.11
145.997
655.803
146.193
146.2
146.2
146.169
146.2
146.201
146.2
146.2
146.452
146.201
146.194
146.2
146.166
146.2
146.195
146.2
146.201
146.222
146.201
146.2
146.2
146.205
146.2
146.226
146.251
145.077
146.199
1701.86
146.206
172.865
146.2
146.404
146.198
146.197
146.201
146.201
146.201
146.2
146.2
146.2
146.2
148.882
146.2
146.2
149.685
146.317
146.299
146.201
146.704
146.2
146.201
146.29
146.2
146.2
146.233
146.2
146.198
145.77
146.2
146.2
146.2
146.2
146.2
146.193
146.2
146.619
146.2
146.187
147.648
146.2
148.15
209.213
145.539
146.191
3158.86
146.201
146.2
146.195
146.214
146.201
146.201
146.241
147.791
146.2
146.281
146.2
146.2
146.201
160.942
146.2
146.2
146.18
146.201
146.196
146.2
146.11
146.196
146.2
2037.74
146.2
5397.24
146.199
1475.47
146.199
146.201
146.209
146.263
146.211
146.191
146.214
146.214
176.407
146.201
218.838
146.201
146.201
146.2
145.098
146.265
145.007
146.201
146.2
146.334
212.974
146.2
145.757
146.526
146.202
146.2
146.22
146.427
219.154
146.201
146.659
146.201
146.824
146.2
147.054
148.145
462.897
146.2
146.2
146.136
144.411
146.267
146.201
146.201
146.446
146.285
146.2
146.667
146.201
146.201
146.752
146.201
146.2
146.637
470.3
146.201
146.201
146.2
146.084
146.138
146.215
146.835
146.2
146.819
252.057
146.034
146.201
146.198
146.159
146.206
146.201
146.201
146.003
146.201
146.224
146.201
146.2
146.222
146.2
146.26
146.331
146.079
145.439
146.2
146.317
146.2
152.697
146.2
146.201
146.201
146.306
146.227
146.2
325.316
147.036
146.23
146.292
146.2
146.176
146.248
146.502
145.973
147.44
146.244
145.922
324.038
146.162
146.2
146.394
146.46
146.234
158.087
154.126
763.356
145.765
146.201
146.201
156.329
146.413
325.941
146.2
146.201
178.548
146.2
146.2
146.201
181.445
146.2
146.2
146.2
146.201
146.2
146.2
146.201
146.6
146.199
146.2
324.406
146.201
147.419
146.2
146.2
146.201
146.2
146.201
152.159
155.815
146.2
146.2
146.2
146.477
146.299
146.216
146.201
146.2
146.239
146.2
146.201
146.6
146.202
146.2
146.2
146.2
146.2
146.2
146.201
146.2
146.2
146.2
146.2
146.238
146.2
146.201
146.201
146.2
146.201
146.251
146.202
146.201
146.2
146.2
146.201
146.203
146.2
146.201
146.2
1408.33
146.199
146.201
146.2
196.587
146.2
146.2
1218.29
146.428
145.88
146.201
146.764
146.375
146.533
146.201
602.512
146.201
146.2
146.2
146.239
200.602
2550.92
158.782
146.201
146.108
146.2
593.795
146.2
199.768
146.226
149.814
191.764
146.607
146.259
146.25
146.2
146.2
146.2
146.2
146.2
146.201
146.249
147.058
146.201
3563.72
151.965
146.2
146.2
146.247
146.577
146.2
151.118
146.2
146.121
146.2
146.112
147.586
146.294
146.2
146.232
146.2
146.2
146.2
146.201
146.201
146.2
8374.31
146.382
146.201
146.2
146.2
146.192
146.191
146.2
146.2
146.2
146.2
146.2
146.2
146.2
146.2
146.2
146.201
146.2
146.2
146.2
146.2
151.573
146.352
146.271
146.554
146.2
146.201
146.201
146.2
151.326
146.2
146.2
146.2
146.2
146.256
146.195
146.201
146.2
146.2
146.2
145.721
261.741
183.807
146.2
146.2
146.2
146.2
146.2
146.2
146.338
146.2
146.201
146.2
146.2
146.2
146.208
149.124
146.201
146.331
146.201
146.201
146.201
146.448
146.201
151.266
146.2
146.201
146.776
146.2
146.238
146.204
146.205
146.204
152.99
146.201
146.2
1120.66
146.201
1466.67
683.961
146.203
146.2
146.2
146.2
146.2
145.915
146.201
146.481
2037.19
314.148
146.2
146.2
260.21
146.201
146.2
146.201
146.2
146.201
149.917
878.51
146.238
146.2
146.408
146.2
192.679
146.239
146.2
146.201
898.799
146.197
146.202
873.476
146.202
146.476
146.2
146.2
490.344
146.2
146.2
4106.85
146.2
146.2
146.2
146.255
146.2
146.2
146.201
146.2
146.239
146.328
146.2
146.201
146.187
146.203
146.2
146.181
146.2
146.201
146.2
146.325
1285.9
146.2
146.374
146.2
146.201
146.2
146.201
147.336
146.2
146.253
146.433
260.107
150.896
146.2
146.2
146.309
146.2
146.226
146.23
146.227
146.263
146.229
146.201
146.23
146.227
146.203
146.204
146.2
146.427
146.2
146.2
146.2
146.203
146.201
146.2
146.2
146.479
146.2
146.2
146.201
146.2
146.201
146.201
146.2
146.204
146.666
146.201
146.224
146.2
146.2
146.2
146.201
146.482
146.2
146.201
146.211
146.201
146.199
146.2
146.201
146.199
146.565
146.199
146.429
146.2
145.673
146.499
150.799
146.2
146.201
146.2
150.794
146.2
146.2
146.196
146.201
146.233
146.201
146.385
147.088
146.316
146.235
146.2
146.205
146.2
146.201
146.201
146.2
146.195
146.27
146.211
146.263
147.027
155.995
146.243
146.2
146.183
146.2
147.452
152.226
146.2
146.728
146.201
146.2
146.2
273.449
146.201
146.2
146.2
949.355
178.47
218.653
146.2
146.281
146.201
146.201
146.24
146.2
146.204
146.2
146.201
146.187
269.343
3266.99
145.884
304.831
146.28
146.203
146.201
146.6
147.285
146.201
146.2
161.517
146.21
146.332
146.201
151.525
146.261
146.225
146.235
147.427
154.199
146.261
175.371
146.2
146.246
174.318
146.2
184.982
146.2
148.268
146.2
146.2
146.936
187.349
147.102
184.725
146.381
174.997
146.203
146.323
146.087
146.204
1252.44
584.851
146.201
146.423
146.2
146.2
146.2
146.528
146.258
146.201
146.206
146.2
153.134
146.418
146.508
146.852
146.381
146.2
691.943
146.2
146.2
146.2
146.2
146.2
146.201
146.2
146.201
146.21
147.639
146.219
146.201
146.201
146.2
146.2
146.201
146.201
146.2
147.532
201.721
146.2
146.2
146.201
146.246
146.201
146.2
146.224
146.2
146.2
146.2
146.201
213.412
146.219
146.229
147.768
146.2
146.193
147.65
146.2
146.2
146.201
146.292
146.394
146.201
4932.87
146.2
146.2
12078.7
146.2
146.201
146.2
146.2
146.201
146.2
146.201
146.2
146.201
1854.71
146.566
146.201
146.219
146.645
146.2
146.25
146.2
146.2
146.2
146.2
146.2
146.2
146.2
146.2
298.293
241.703
146.433
146.218
146.201
146.2
219.865
147.553
146.2
146.205
146.2
146.2
146.204
146.259
269.118
146.207
146.2
147.968
208.479
146.39
146.2
146.213
146.204
146.204
146.242
146.206
392.31
146.203
146.201
146.203
146.205
146.203
146.203
146.213
146.203
146.202
146.365
158.358
242.399
146.2
146.2
3455.09
146.2
146.201
146.911
146.201
217.572
146.202
146.2
146.2
146.2
146.2
146.202
146.21
146.497
146.204
146.294
146.2
146.476
146.203
146.201
146.2
146.2
146.2
146.2
146.201
146.2
146.21
146.2
146.2
146.257
146.394
146.202
153.004
2484.51
146.524
146.201
146.205
146.2
146.2
146.201
146.2
146.2
146.092
146.218
146.551
146.344
147.445
147.012
152.706
146.2
146.214
146.314
146.201
1087.08
146.201
145.961
146.201
146.394
146.201
146.201
146.2
146.201
146.2
146.2
146.898
146.2
146.213
146.201
246.794
146.337
146.2
146.201
146.744
146.389
146.255
146.263
146.2
147.162
12904.1
146.2
146.201
146.223
146.332
146.211
146.2
146.211
147.503
146.291
146.212
147.227
146.208
146.212
146.2
9809.32
148.189
146.519
5506.94
176.036
146.196
146.507
146.196
5137.35
146.534
328.999
146.201
146.201
146.208
146.201
146.201
146.2
146.2
146.2
146.2
146.201
146.201
6919.37
221.833
389.314
1417.73
146.2
146.2
146.276
146.404
146.459
146.267
146.482
146.23
147.818
7145.03
146.5
146.2
150.402
146.201
146.2
146.199
116.361
146.2
146.284
146.294
146.325
146.55
152.534
146.2
146.209
146.201
146.201
146.2
146.2
146.2
146.2
146.248
146.406
319.605
9815.73
146.269
4715.27
146.201
146.705
146.194
146.718
147.156
148.575
146.201
146.2
146.2
146.2
146.2
146.201
146.635
146.44
146.201
3781.01
146.203
146.483
166.243
152.031
6012.11
3230.01
146.2
147.577
146.243
146.2
146.2
147.079
146.508
146.2
146.189
146.2
146.201
146.2
161.502
149.121
151.326
147.362
146.2
164.721
146.32
146.2
146.331
146.2
309.68
1051
236.676
305.139
148.294
146.201
146.2
348.628
146.2
146.201
146.201
146.209
146.201
146.201
146.473
146.327
146.25
146.201
146.2
146.201
146.2
146.2
146.2
146.394
146.339
146.2
146.2
191.372
146.2
146.201
146.2
146.2
146.225
146.303
2438.39
146.339
146.735
146.2
146.24
146.2
146.212
146.231
146.2
146.215
146.2
146.2
146.308
146.201
146.201
146.272
146.22
146.269
146.298
146.201
146.216
146.206
146.266
146.2
146.285
146.231
146.255
146.23
193.335
146.201
149.618
146.214
146.343
146.217
146.34
146.232
146.28
146.2
146.2
16095.3
146.256
146.209
146.407
146.209
146.706
148.761
146.2
146.248
146.201
146.272
146.2
146.293
146.497
146.2
146.431
146.2
146.246
146.271
146.2
146.2
146.226
146.2
146.2
146.2
146.2
146.223
146.201
146.287
1268.27
146.2
146.201
146.866
146.2
146.2
146.205
146.2
146.2
146.2
146.2
146.206
146.206
148.186
146.2
146.201
146.314
146.2
146.794
670.604
146.2
146.2
146.201
146.201
146.307
146.2
146.201
146.2
146.201
146.201
464.049
914.368
146.201
146.201
2462.92
146.201
146.255
146.2
146.209
146.201
146.522
146.272
146.184
146.2
146.201
146.425
146.34
146.2
146.205
149.04
146.2
146.905
200.16
146.2
146.201
146.2
146.318
146.2
146.2
146.201
146.201
146.2
146.239
600.762
146.2
146.2
146.503
146.2
146.201
146.773
146.2
3231.48
146.816
146.201
146.201
146.191
146.165
146.435
146.2
146.929
146.2
149.188
146.323
146.2
1604.35
146.261
4133.46
2449.49
146.526
146.201
146.2
146.2
905.937
146.17
148.672
146.642
146.201
859.369
146.2
180.034
146.301
146.303
146.2
146.481
146.202
146.2
147.399
146.2
146.2
146.2
146.321
146.241
146.231
146.2
146.201
146.2
146.667
146.201
152.33
146.2
146.2
146.454
146.821
146.2
146.2
187.743
146.2
146.2
146.201
146.817
146.324
146.333
146.2
649.867
9955.15
146.205
147.351
146.201
175.663
146.201
146.227
4890.51
2166.18
604.602
177.235
180.142
162.383
146.2
14471.9
146.347
147.566
146.2
147.421
166.234
146.2
146.224
384.658
146.2
3488.31
146.2
148.011
146.313
146.538
146.246
146.259
146.2
146.2
146.201
146.201
4600.87
146.2
146.235
146.211
146.201
146.201
146.201
146.2
146.201
146.2
146.201
146.201
146.519
146.2
4207.91
146.201
146.202
145.388
146.308
146.201
146.201
146.201
146.2
146.2
279.787
643.243
722.398
859.099
146.201
146.201
146.2
146.2
146.203
146.306
146.201
146.2
146.592
146.555
711.184
146.201
146.201
146.201
146.217
146.262
146.201
146.2
146.197
146.455
674.26
146.203
147.744
146.201
269.305
146.537
147.769
146.2
146.205
146.202
146.2
146.203
146.201
146.201
146.211
146.201
146.201
146.132
146.2
146.79
146.2
146.205
146.201
146.211
146.2
146.2
146.212
759.784
146.249
146.201
146.2
146.2
146.352
1724.56
146.201
146.233
4430.4
146.131
1058.57
152.871
176.056
1499.35
146.201
146.201
146.202
146.162
5218.35
524.157
146.201
146.166
146.2
146.2
146.201
146.2
146.2
146.201
146.202
146.201
146.201
146.353
146.201
146.468
146.233
146.2
146.201
146.21
146.21
146.2
146.213
146.201
146.201
146.206
146.2
146.2
146.576
146.201
146.2
146.2
146.2
146.198
146.2
146.33
146.618
147.551
146.372
146.512
146.425
149.5
146.207
146.201
146.618
146.211
162.769
146.28
146.206
146.489
145.902
146.209
146.201
146.208
146.206
146.203
146.207
146.201
146.203
146.219
146.145
177.677
146.192
168.217
146.203
146.419
146.212
146.203
146.206
146.587
146.209
146.203
145.889
146.2
146.58
1033.16
146.201
146.2
146.196
146.203
146.201
146.381
146.21
146.2
146.2
146.201
146.196
146.201
146.2
147.284
146.169
146.2
146.202
146.2
146.207
146.146
146.196
146.2
146.2
146.209
146.2
146.2
146.2
146.206
147.398
146.2
146.527
146.953
222.451
957.135
146.2
146.2
147.802
146.2
146.2
146.201
146.2
146.2
146.381
146.366
146.362
146.2
145.933
146.2
146.49
146.265
146.2
146.2
146.248
146.2
146.2
146.383
146.2
253.619
146.676
146.201
146.2
146.694
1509.77
146.35
146.185
146.2
146.2
146.2
146.23
146.2
146.2
146.2
167.368
146.231
146.2
146.2
146.2
166.585
146.321
814.998
173.034
146.235
147.951
146.201
146.218
146.201
146.2
147.135
146.203
146.2
146.201
175.765
146.2
146.2
186.67
146.368
193.505
146.2
972.031
146.2
146.2
146.622
146.2
146.61
146.192
146.156
146.528
235.674
146.078
146.204
146.579
146.198
146.304
146.547
146.191
146.309
146.609
146.206
146.126
146.201
146.205
146.408
146.206
225.354
146.2
146.128
146.445
146.201
146.405
146.201
145.659
146.201
146.201
146.201
146.201
146.201
146.201
146.2
169.576
146.201
146.201
239.515
146.201
146.201
146.201
1073.68
145.688
146.206
10734.8
146.2
146.201
146.316
146.228
146.181
146.201
146.2
146.2
198.257
146.2
147.549
188.225
183.484
147.069
146.228
146.039
318.215
188.42
146.165
146.2
146.2
211.903
145.381
160.309
146.2
146.255
146.766
179.786
146.201
990.485
146.213
146.201
175.052
146.878
146.484
146.426
146.276
146.201
146.288
146.201
824.027
146.322
266.191
146.28
146.386
146.21
146.166
146.202
146.417
654.805
146.201
146.716
479.255
146.204
146.201
3418.01
146.201
146.201
146.314
146.201
3434.39
146.2
147.64
758.653
6920.02
146.2
146.181
146.2
4338.8
816.39
147.567
146.128
4553.15
3661.56
146.217
146.2
191.976
146.201
146.254
5283.55
161.578
146.2
145.131
145.484
146.331
146.201
146.963
146.2
146.201
146.193
146.2
146.171
5002.95
146.2
144.909
146.134
146.21
146.471
146.201
146.204
146.2
145.838
146.303
153.756
146.2
146.074
146.123
146.2
933.591
173.01
3509.36
146.2
146.202
146.232
149.225
146.2
146.208
146.205
146.2
146.2
2857.68
146.2
146.198
146.2
146.127
146.2
146.208
146.2
146.2
146.2
146.2
146.548
841.042
146.2
146.266
146.2
146.23
146.263
146.2
146.201
146.512
144.941
146.204
146.2
146.206
146.202
146.2
146.2
160.811
147.498
146.201
146.265
146.2
146.201
146.205
146.223
146.2
146.201
388.095
146.201
146.2
146.205
146.204
146.278
146.494
146.201
146.201
146.203
146.3
146.2
146.201
146.2
146.2
146.2
146.2
146.2
146.257
146.205
146.201
146.2
175.192
147.543
146.2
146.207
146.317
146.201
146.208
16528.6
146.201
146.249
146.466
146.2
146.201
146.201
146.232
146.207
146.202
146.202
146.201
146.186
146.204
146.201
218.302
146.211
146.203
146.201
146.201
154.42
146.204
146.201
146.201
146.281
1291.25
146.2
146.2
146.201
146.2
146.21
146.742
146.201
146.218
149.816
146.845
146.2
146.198
478.748
146.2
146.2
146.2
146.2
146.2
174.297
146.201
870.501
318.494
146.2
146.2
146.2
146.532
146.218
146.2
146.208
146.2
146.2
146.2
146.644
146.213
202.131
146.2
146.2
146.201
146.201
182.502
146.186
169.649
146.201
146.2
146.201
146.555
154.468
152.071
146.2
161.322
153.145
146.449
151.879
161.619
146.201
146.471
146.242
146.2
145.92
146.2
145.54
146.2
145.748
1534.24
146.74
146.582
146.206
146.664
146.195
150.155
151.118
146.516
148.834
155.408
180.818
147.439
165.936
146.2
146.219
146.712
143.57
146.199
160.582
146.151
146.2
410.431
146.396
146.2
146.176
146.201
146.201
146.2
146.2
146.2
146.204
445.636
146.2
146.078
443.413
148.22
148.148
146.2
146.2
146.201
147.747
146.2
146.201
146.202
146.2
146.201
146.2
146.2
146.591
193.543
146.2
146.2
146.2
146.148
146.2
154.264
146.2
146.201
146.2
146.2
146.208
146.2
146.2
146.2
146.159
144.965
146.2
253.617
146.2
146.2
146.229
146.2
147.981
250.542
146.2
146.2
146.2
146.199
255.356
146.222
147.952
146.273
148.045
146.203
146.213
148.102
147.805
148.073
146.632
146.217
146.2
261.157
146.2
146.2
146.201
146.2
146.202
148.408
146.2
146.281
146.201
146.201
289.872
146.2
146.201
146.201
146.201
161.615
146.201
146.201
146.2
146.201
146.201
146.201
806.121
583.224
290.818
209.899
146.2
146.2
146.201
160.145
394.691
434.699
149.715
164.79
146.202
147.593
146.218
193.471
146.182
146.201
146.2
146.201
146.234
146.329
146.241
146.204
146.332
146.329
144.806
146.307
146.767
146.2
146.2
146.2
146.743
146.235
146.223
146.2
146.703
146.469
146.221
165.576
146.236
146.588
146.41
146.2
146.618
146.382
146.235
146.2
146.201
146.255
146.2
146.201
146.405
146.2
146.201
147.783
146.201
146.389
147.686
146.201
146.201
146.219
146.219
164.155
146.22
146.329
146.231
146.2
146.2
146.226
163.057
146.217
146.219
735.433
146.217
146.269
146.216
665.981
146.2
146.2
146.207
146.2
604.849
146.2
146.2
146.2
146.207
146.2
147.093
146.201
146.2
146.215
146.206
146.208
146.24
146.2
146.357
559.024
146.465
146.201
146.24
2020.17
146.439
396.294
148.173
146.282
146.2
146.201
146.2
146.2
146.201
146.201
146.2
452.479
146.201
146.201
146.2
146.2
146.2
146.2
146.2
146.24
146.209
146.2
146.2
146.65
146.201
567.897
143.376
146.2
146.296
163.253
146.2
146.2
450.803
146.201
146.2
205.605
146.2
146.2
146.2
146.201
146.2
146.201
146.2
146.2
146.2
146.2
197.906
146.205
146.2
146.201
146.2
146.237
146.2
146.855
146.201
146.331
146.2
146.2
146.2
146.201
146.214
146.2
146.2
146.2
146.201
146.2
147.212
146.2
146.2
146.2
146.2
146.189
146.206
146.2
146.2
146.201
146.151
146.2
146.2
146.2
146.659
146.2
146.201
146.2
146.202
146.178
146.2
146.201
146.2
146.2
146.2
146.95
141.806
250.688
146.173
146.195
146.206
146.2
146.201
146.207
968.087
146.206
146.179
146.2
146.2
146.201
146.318
146.2
146.201
146.347
146.2
146.201
146.2
146.2
146.201
146.2
820.699
145.236
146.201
146.2
146.361
146.358
146.396
146.202
146.892
157.136
146.201
146.2
146.201
146.392
146.2
146.201
146.2
146.201
369.548
146.2
146.2
146.201
146.204
146.201
146.213
146.245
146.201
146.592
393.091
146.201
146.422
146.201
146.2
146.201
146.201
146.2
146.201
146.201
150.832
146.239
146.67
146.582
146.464
146.201
146.201
146.201
146.201
146.207
146.201
146.201
146.201
146.201
155.888
146.201
147.77
146.228
146.201
146.277
146.22
146.228
146.201
146.201
146.208
146.201
146.201
146.2
146.237
146.267
146.36
146.131
146.282
146.2
146.2
146.2
146.225
146.2
146.648
146.257
146.2
146.2
146.893
146.202
146.2
147.358
146.201
146.2
151.703
146.2
146.201
146.201
146.234
146.201
146.192
146.201
146.2
146.201
146.201
1428.78
146.2
146.199
146.201
146.2
146.222
146.2
146.201
146.2
872.853
146.201
146.462
154.059
146.235
146.2
146.399
146.266
146.201
146.201
146.528
146.325
146.2
146.339
149.506
146.201
146.2
146.2
146.339
146.115
146.192
146.2
146.201
170.833
146.201
229.596
146.201
146.271
146.201
146.201
146.242
146.201
146.201
146.201
146.201
146.201
335.599
146.271
209.857
146.268
146.219
146.273
146.201
146.2
146.2
146.247
1673.84
146.479
146.201
146.201
1491.6
146.27
147.453
146.741
146.2
6010.92
146.839
146.268
146.2
146.251
147.891
151.817
146.547
146.227
146.215
400.024
146.201
146.69
146.201
146.872
146.202
146.693
200.741
146.2
146.201
146.258
152.557
146.201
321.846
146.201
146.201
351.55
147.159
146.201
146.201
146.201
146.205
146.2
6002.74
1145.48
146.201
146.201
152.784
146.201
978.991
147.167
600.051
146.201
146.2
146.201
146.282
146.2
146.2
146.204
146.201
146.2
155.763
146.201
146.201
146.683
146.525
146.2
146.2
1120.23
146.201
146.2
146.504
146.201
146.201
146.591
146.221
6504.6
146.252
146.201
146.201
146.2
146.238
3175.9
146.206
1258.75
146.2
147.163
146.2
146.201
146.2
149.661
146.218
146.2
146.451
146.2
146.2
146.216
146.201
146.202
146.204
146.261
1707.83
146.2
146.2
146.317
149.801
146.201
146.202
7491.17
146.201
146.201
145.985
146.2
146.2
146.2
146.2
146.2
146.201
146.201
146.2
146.698
146.201
146.227
11436.1
146.287
146.662
146.2
146.223
146.201
146.2
146.632
146.371
146.473
146.63
145.235
147.926
146.201
146.21
333.152
146.621
146.766
146.388
146.201
146.792
146.2
146.2
146.201
275.726
146.605
146.2
146.677
146.201
146.201
146.201
147.076
146.355
146.2
146.784
146.688
146.214
146.828
146.962
146.201
146.201
147.405
146.201
146.201
146.2
146.201
146.201
146.2
146.201
178.929
146.253
148.13
146.231
146.201
146.223
146.201
146.201
146.201
147.39
146.201
146.2
146.2
147.689
146.201
146.673
146.872
146.65
146.294
146.227
146.201
147.017
146.201
146.201
146.203
3899.98
146.658
146.201
146.201
146.201
158.521
146.201
147.226
149.248
146.61
146.75
146.201
146.201
147.541
147.546
146.201
146.854
146.216
146.206
146.2
146.951
146.201
147.798
146.2
146.2
146.201
146.209
146.2
146.2
146.222
146.456
146.421
146.201
146.2
146.244
146.513
146.2
146.2
146.201
147.647
148.071
6011.19
146.488
146.2
146.496
146.498
146.2
146.2
146.201
146.201
146.201
146.201
172.191
146.201
146.201
146.201
146.554
146.2
146.2
146.2
146.2
146.336
146.291
146.201
146.556
146.201
146.223
146.201
146.2
146.201
146.511
146.502
145.739
145.75
146.242
146.201
146.201
146.201
146.201
146.2
146.608
146.201
146.202
146.201
146.2
145.95
146.603
146.201
145.97
146.536
146.201
146.2
146.201
146.201
147.547
146.201
146.202
146.2
146.213
145.948
146.201
146.201
146.2
145.83
146.201
146.201
146.521
147.011
146.201
146.201
146.201
146.201
146.201
146.201
146.201
146.201
146.201
146.201
146.201
146.2
146.402
185.514
146.452
146.202
146.709
146.2
146.201
147.536
146.201
219.628
146.201
146.269
146.201
146.2
146.201
146.2
146.201
146.201
160.6
147.435
146.201
146.201
146.201
146.201
146.201
146.201
146.201
146.201
146.201
146.64
160.46
146.513
146.201
146.2
160.157
154.916
146.36
146.201
146.2
146.201
146.205
146.201
146.206
146.202
146.201
155.428
146.221
148.014
155.564
146.666
178.554
146.2
6480.39
146.201
146.691
146.201
146.805
146.221
146.743
146.338
146.201
146.201
146.201
146.244
146.863
146.2
146.58
146.2
146.539
146.2
146.201
146.2
146.201
146.424
146.201
146.2
146.201
146.201
146.201
146.2
146.574
147.687
146.229
146.201
146.2
146.512
146.201
146.2
146.302
146.54
146.3
146.2
146.201
146.566
146.274
146.2
146.201
146.28
146.461
146.282
146.201
146.558
146.206
146.2
146.201
146.201
146.2
146.201
146.2
146.2
146.2
146.201
146.201
146.201
146.2
146.201
146.201
146.2
146.2
146.201
146.201
146.2
146.2
146.2
146.201
146.294
146.479
146.476
146.2
146.201
146.2
146.2
146.215
146.201
146.201
146.201
146.2
146.201
146.2
146.201
146.2
146.2
146.201
146.2
146.201
146.492
146.201
146.535
146.488
146.234
146.2
146.201
146.377
146.201
146.2
146.201
146.2
146.2
146.201
146.2
146.2
146.201
146.201
146.408
146.301
146.201
146.201
146.201
146.2
146.2
146.2
146.201
146.201
146.247
811.586
146.2
704.713
146.201
146.2
841.723
552.031
146.201
146.209
146.219
146.201
146.2
146.201
146.201
146.2
706.87
146.201
531.56
146.201
146.2
146.201
146.301
146.466
146.248
146.201
146.201
146.2
146.2
146.2
146.2
146.2
146.2
146.2
146.2
146.543
146.201
146.201
146.201
146.201
146.201
146.2
146.201
146.21
244.798
146.217
146.201
146.201
146.201
146.201
146.2
146.201
146.201
146.201
261.17
146.201
146.201
146.201
146.376
146.201
146.215
146.201
146.201
146.3
146.201
146.26
147.173
146.194
146.201
146.2
146.102
146.2
146.201
146.201
146.201
146.201
145.986
146.201
146.201
146.2
146.235
155.508
146.966
146.2
146.2
146.229
146.2
146.2
146.2
146.201
146.201
146.201
147.479
146.481
146.663
146.819
146.266
146.201
146.201
146.201
146.236
146.226
146.201
146.692
146.2
220.851
146.201
146.202
146.201
146.201
146.227
146.201
146.201
146.201
146.2
146.201
146.201
222.664
229.64
146.201
146.201
1253.4
146.2
146.201
146.201
146.201
146.201
146.201
146.201
146.2
146.2
146.2
146.201
146.201
146.201
146.201
146.201
146.201
146.201
146.201
146.201
146.201
146.211
759.568
146.201
723.136
146.258
146.2
146.2
146.201
147.626
146.201
146.247
2273.06
146.2
203.256
146.2
146.201
146.2
146.201
146.2
146.201
146.204
146.206
146.2
146.2
146.201
146.202
146.206
146.2
146.204
146.201
146.203
147.429
146.203
146.201
146.201
146.201
146.206
146.201
146.203
146.202
146.455
146.2
146.201
146.201
146.201
146.2
146.204
146.228
146.201
146.201
146.201
146.201
4855.62
146.201
146.2
147.86
146.201
146.201
146.201
146.201
146.201
146.2
146.2
3189.98
6013.04
1065.64
912.984
1471.49
146.499
5091.6
146.201
146.201
146.201
146.201
146.202
148.249
146.201
2597.91
146.217
146.201
146.2
1090.98
5413.39
146.201
146.201
4215.91
147.918
148.387
146.2
146.201
146.205
146.201
146.201
148.377
146.2
146.201
146.2
146.201
146.201
146.201
146.201
146.201
146.391
149.403
146.226
146.214
146.2
146.223
687.974
643.945
146.201
146.201
146.201
296.55
146.515
146.201
4574.4
1327.67
146.2
1297.34
1355.02
146.201
146.201
146.2
146.201
1676.15
146.2
146.201
146.2
146.2
146.201
146.2
146.258
146.201
146.2
146.201
155.54
146.201
903.599
146.2
146.201
146.2
146.202
146.2
146.201
146.2
146.201
146.201
146.773
146.202
146.212
803.034
146.201
146.201
146.2
146.209
146.201
146.201
146.204
146.213
146.201
146.2
146.201
146.203
146.2
154.345
146.201
146.201
146.201
899.368
146.2
3587.75
146.2
180.186
146.24
4256.9
146.201
146.2
153.078
146.201
4066.35
146.201
454.839
146.201
146.201
146.222
146.201
146.2
146.259
146.486
146.201
146.2
3431.38
3941.11
149.729
146.199
146.208
146.226
655.042
146.2
146.2
146.201
146.2
149.998
146.2
146.2
146.195
146.198
146.201
151.36
146.264
146.2
146.2
146.2
148.241
146.103
146.321
146.273
148.167
145.723
146.251
146.2
145.1
146.255
143.913
146.003
145.927
146.112
176.774
146.2
146.264
294.099
390.337
146.2
146.249
146.198