/*--------------------------------*- C++ -*----------------------------------*\
| =========                 |                                                 |
| \\      /  F ield         | OpenFOAM: The Open Source CFD Toolbox           |
|  \\    /   O peration     | Version:  v2012                                 |
|   \\  /    A nd           | Website:  www.openfoam.com                      |
|    \\/     M anipulation  |                                                 |
\*---------------------------------------------------------------------------*/
FoamFile
{
    version     2.0;
    format      ascii;
    class       volScalarField;
    location    "2.5";
    object      ILambda_3_0;
}
// * * * * * * * * * * * * * * * * * * * * * * * * * * * * * * * * * * * * * //

dimensions      [1 0 -3 0 0 0 0];


internalField   nonuniform List<scalar> 
108993
(
146.2
146.2
146.2
146.2
146.2
146.2
146.2
146.2
146.2
146.201
146.2
146.2
146.2
146.2
146.2
146.199
146.204
146.2
146.2
146.2
146.2
146.201
146.191
146.2
146.2
146.2
146.201
146.201
146.201
146.2
146.201
146.2
146.201
146.2
146.2
146.2
146.201
146.2
147.369
146.951
146.201
146.2
146.2
146.2
159.022
146.294
146.201
146.2
146.2
146.2
146.201
293.382
146.2
146.201
146.2
146.2
146.201
146.2
146.2
146.2
146.2
146.2
146.2
146.2
146.2
146.2
146.2
146.2
146.2
146.225
146.2
146.2
146.2
146.2
146.2
146.201
146.2
146.2
146.201
146.2
146.2
146.2
146.2
146.2
146.2
146.2
146.2
146.2
146.2
146.2
146.2
146.201
146.2
146.2
146.2
146.2
146.201
146.2
146.201
146.201
146.2
146.2
146.2
146.2
146.2
146.2
146.2
146.201
146.201
146.8
1966.98
146.2
146.348
1502.65
146.2
146.254
146.2
146.2
146.201
146.201
146.2
146.2
146.208
146.2
146.2
146.197
146.2
146.2
146.2
146.2
146.2
146.2
146.2
2863.12
146.2
146.2
146.2
146.2
146.2
146.2
146.2
146.201
146.21
146.2
146.2
146.2
146.2
146.743
146.2
147.129
147.892
146.2
146.2
150.211
146.2
145.443
146.2
146.201
146.201
147.743
148.992
146.201
146.201
146.2
146.2
151.444
146.2
146.2
146.2
146.2
146.2
146.2
274.261
146.2
146.201
146.2
146.364
146.2
146.2
146.2
146.2
146.2
146.201
146.2
146.2
146.2
146.201
146.2
146.2
146.2
146.2
146.201
146.2
146.204
146.2
146.2
146.2
146.2
146.2
146.2
146.2
146.739
146.2
146.201
146.201
146.389
146.2
146.27
146.2
195.482
146.238
146.2
146.363
146.226
147.633
146.2
146.2
146.2
146.201
146.201
146.2
146.779
146.2
146.202
146.201
146.2
146.201
146.2
4489.77
146.2
183.744
146.2
146.2
146.201
146.2
146.201
146.201
146.2
146.32
146.201
146.201
146.2
146.2
146.201
146.201
146.197
146.23
146.209
146.201
146.2
146.201
146.2
146.2
146.2
146.201
146.201
146.201
146.2
146.201
146.2
146.2
146.2
146.203
146.188
146.201
146.2
146.2
146.2
146.2
146.2
146.2
146.2
146.22
306.119
146.604
146.2
146.201
146.207
146.2
146.2
146.2
146.355
146.321
146.2
146.2
146.2
146.2
146.2
146.2
146.787
146.2
146.2
146.2
146.2
146.2
146.2
146.201
146.2
146.205
146.2
146.225
146.385
146.2
146.2
146.2
146.2
146.201
146.2
146.2
146.217
146.2
146.2
146.201
146.2
146.2
146.289
146.2
146.201
147.367
146.2
146.2
146.2
146.2
146.2
146.2
1955.34
943.717
146.349
146.201
146.2
146.2
146.231
1121.83
146.2
146.918
146.2
146.2
146.2
146.2
146.201
146.2
146.208
146.2
146.2
146.2
146.2
146.2
146.2
146.2
146.2
146.2
146.2
146.371
146.233
146.201
146.2
146.2
146.798
146.2
146.2
146.2
146.2
146.2
146.2
146.2
146.2
146.2
146.2
146.2
2496.39
146.2
146.2
146.2
286.377
146.2
148.95
146.2
146.2
146.474
146.2
146.504
146.492
146.2
146.199
146.2
146.201
146.2
4515.52
146.2
146.326
146.626
146.201
146.616
146.2
146.234
146.2
619.533
146.201
146.163
146.201
146.2
146.209
146.216
146.2
146.2
146.201
146.201
146.2
146.2
176.729
146.2
146.2
1087.23
146.2
146.2
146.2
255.793
146.231
146.269
146.2
223.704
146.2
205.429
146.2
146.2
157.407
146.2
146.243
172.647
146.2
480.849
146.943
301.84
146.201
146.2
146.201
146.201
146.2
146.2
146.201
146.2
146.2
146.2
146.201
146.243
146.201
146.2
270.234
146.2
146.201
146.2
146.2
146.2
146.2
146.2
146.2
146.2
146.201
146.2
146.2
146.206
146.2
146.206
146.38
146.203
146.2
146.2
146.206
146.2
146.2
146.226
146.2
146.201
146.2
146.201
146.201
146.201
146.244
146.344
146.205
146.2
146.201
146.2
146.2
146.2
146.2
146.2
146.2
232.146
146.2
146.2
146.2
146.168
146.2
145.336
146.2
146.2
146.2
146.2
146.2
146.2
146.201
146.201
146.2
142.648
146.248
146.2
146.201
6172.04
146.2
146.2
146.2
146.201
146.2
146.2
146.201
146.2
146.2
146.2
146.2
146.201
146.201
146.2
146.2
146.2
146.934
146.201
146.2
147.155
146.2
146.201
146.2
147.296
146.2
146.2
146.2
146.251
146.2
146.2
146.222
146.2
146.323
146.2
146.2
146.2
146.2
146.2
149.424
146.2
146.201
146.218
146.201
146.623
146.2
146.2
146.2
146.2
146.2
289.108
146.2
146.2
146.201
146.2
146.2
146.247
146.283
146.2
146.201
146.2
146.201
146.2
146.2
6842.9
146.246
146.229
146.2
146.2
146.252
228.266
146.2
146.2
146.2
146.2
146.2
146.2
144.761
146.289
146.267
146.2
146.2
146.2
146.2
146.2
146.2
268.704
146.2
146.2
146.2
146.2
146.203
146.2
146.2
338.714
146.202
146.2
146.2
316.516
146.2
146.2
146.2
1033.52
146.2
147.079
146.2
146.2
146.2
146.2
146.2
146.294
146.201
2872.41
146.201
146.2
146.824
146.201
146.2
146.201
146.207
146.348
146.2
146.853
146.2
146.208
616.229
146.2
146.2
146.2
1019.37
144.538
255.203
146.2
256.024
146.2
146.195
146.2
146.2
146.2
149.151
146.015
146.2
146.2
144.753
146.321
146.317
146.247
146.2
146.205
146.32
146.21
146.321
146.317
146.2
146.2
146.2
146.2
146.2
146.212
146.2
146.244
146.281
146.204
146.2
192.491
146.317
146.32
146.2
146.202
146.214
146.2
146.768
146.2
146.324
146.203
146.2
146.778
146.201
146.203
146.219
146.213
821.042
146.201
146.2
453.192
146.202
146.2
8416.92
146.204
146.533
146.203
9608.43
150.315
146.201
146.2
146.2
146.204
146.2
153.947
146.201
146.2
146.2
145.919
146.294
159.451
146.2
813.227
146.2
163.279
146.204
146.2
335.849
146.2
146.2
146.273
146.19
146.2
146.195
146.231
2023.63
146.207
146.2
262.349
146.2
146.196
146.197
146.2
146.2
146.235
146.2
146.2
146.2
146.2
146.186
146.632
146.607
146.2
146.205
146.2
146.2
146.2
146.201
146.2
146.2
146.2
146.2
146.2
146.204
146.2
146.2
146.215
146.2
146.2
146.2
146.2
146.2
146.2
146.201
146.2
146.237
146.2
146.2
146.2
146.205
146.2
146.209
146.221
146.2
146.2
578.3
146.23
146.2
146.2
146.123
146.2
146.2
146.203
146.2
146.201
146.2
146.2
146.2
146.201
147.111
146.2
146.2
146.801
146.201
146.736
146.203
146.98
146.2
146.213
146.199
146.2
146.2
146.2
146.201
146.2
146.2
146.2
146.2
146.2
146.201
146.201
146.2
146.2
1418.99
146.2
146.2
1417.29
146.2
648.321
146.2
146.2
146.201
10917.6
146.201
146.2
146.2
146.21
146.2
146.209
146.243
146.2
146.2
430.066
146.2
146.2
146.201
146.59
146.2
146.2
146.2
146.2
146.2
146.2
146.201
146.2
146.2
6788.43
146.2
6841.81
146.2
3610.26
146.2
146.2
146.199
146.205
146.217
146.2
146.199
146.199
146.202
146.201
146.466
146.201
146.201
146.2
146.305
146.201
146.203
146.2
146.2
146.038
146.498
146.2
146.202
1318.56
146.201
146.201
146.214
146.381
146.441
143.75
3324.47
146.033
1203.63
146.2
1757.51
146.978
1574.61
146.2
146.201
146.201
146.203
148.413
146.201
146.2
145.889
146.243
146.2
2714.34
146.207
146.2
1253.41
146.201
146.2
1750.15
1010.47
146.2
146.2
146.2
146.2
146.204
194.289
1164.64
146.2
1204.34
146.201
146.205
146.201
146.2
146.201
146.197
146.201
146.201
146.2
146.2
193.451
146.2
146.2
146.21
146.2
926.133
145.239
146.201
146.203
146.2
146.44
146.2
1176.44
146.2
146.2
146.201
147.114
155.957
146.2
146.204
840.162
147.725
146.215
146.2
146.202
146.207
146.325
146.2
146.201
146.697
146.203
146.206
146.202
146.2
350.476
146.691
151.381
146.207
146.203
146.201
146.211
146.2
146.19
146.205
146.381
146.204
146.201
146.201
146.209
146.201
146.2
146.201
146.221
146.2
146.2
146.2
146.201
146.2
146.2
146.2
1924.89
146.2
146.2
146.201
146.2
146.791
146.2
146.2
146.201
146.2
146.201
278.575
146.225
146.2
146.2
146.2
1356.49
147.341
146.401
146.2
146.2
146.217
146.2
146.2
157.813
146.201
146.2
146.2
146.2
146.2
146.2
146.207
146.2
146.2
146.2
146.201
146.229
146.2
146.2
146.201
146.2
145.862
389.002
146.202
146.196
146.2
146.2
146.199
146.218
146.2
146.201
146.201
206.769
146.2
146.205
146.2
146.201
146.2
146.2
146.372
2158.05
146.204
146.201
147.057
146.203
146.029
146.225
146.369
146.2
146.2
146.2
163.445
146.2
17094.5
146.213
146.197
146.2
146.201
146.202
146.2
146.203
149.508
146.202
146.2
301.52
1604.75
415.268
146.2
146.2
146.2
146.2
146.2
146.2
146.2
4817.23
146.2
150.86
146.2
146.2
146.2
377.697
1521.94
146.2
146.2
146.2
146.201
146.2
146.201
147.813
145.945
146.2
146.216
146.2
146.2
146.2
146.201
146.201
146.201
11697.4
647.454
146.2
146.2
146.2
146.2
146.2
146.2
146.2
146.2
146.2
146.201
146.2
146.2
146.2
146.2
146.201
146.2
146.2
146.2
146.2
146.221
1562.63
319.748
147.148
146.2
146.2
146.2
146.2
146.201
146.2
146.201
146.2
146.2
3480.08
146.2
146.201
146.2
146.2
146.2
146.2
572.901
921.151
146.2
146.2
146.2
146.201
146.2
146.2
146.366
146.201
146.2
146.2
146.2
146.2
146.207
146.2
146.201
146.361
146.2
146.2
146.2
146.533
146.201
146.2
146.2
146.2
146.599
146.2
158.178
146.201
146.201
146.201
700.771
146.252
146.2
146.207
146.2
146.222
146.204
146.201
146.2
146.2
146.2
146.2
146.2
146.2
146.253
437.009
146.202
146.2
146.2
146.201
146.201
146.201
146.201
146.2
146.201
1042.18
146.202
146.245
146.2
225.388
146.2
146.235
146.213
146.2
146.201
146.205
146.2
146.204
146.221
146.219
1701.77
146.2
146.2
146.201
146.2
146.2
4051.03
146.2
146.2
146.2
146.573
146.2
146.201
146.2
146.2
146.208
146.284
146.2
146.236
146.2
146.222
146.2
146.2
146.2
146.037
146.2
146.215
146.202
146.2
146.396
146.2
146.201
146.2
146.201
150.118
146.2
244.491
2153.43
334.522
146.207
146.198
146.2
146.116
146.2
146.23
146.228
146.226
146.217
146.227
146.201
146.232
146.232
146.201
146.201
146.2
1929.16
146.2
146.2
146.2
146.201
146.201
146.2
146.2
322.125
146.2
146.2
146.201
146.2
146.201
146.201
146.2
146.238
5276.91
146.201
150.158
146.179
146.201
146.2
146.2
145.967
146.2
146.2
146.219
146.201
146.2
146.2
146.201
146.2
179.282
146.2
180.644
146.2
146.204
2399.11
146.2
146.2
146.201
146.2
146.2
146.201
146.201
146.2
146.201
146.201
146.179
146.32
146.2
146.22
146.245
146.2
146.205
146.201
146.201
146.201
146.2
146.2
146.288
146.231
1025.29
146.2
146.994
146.208
146.2
146.2
146.2
146.2
146.2
146.201
149.604
146.201
146.201
146.2
146.2
146.201
146.2
146.2
146.333
146.619
146.2
146.201
146.212
146.2
146.2
146.189
146.2
146.23
146.2
146.2
146.2
146.2
6479.82
146.206
146.2
146.217
146.215
146.2
144.611
202.591
146.2
146.2
146.201
146.963
146.195
146.2
146.2
2350.37
146.213
146.229
146.2
146.201
146.529
146.202
146.2
146.266
146.201
146.201
146.203
146.2
146.891
146.2
146.2
5129.85
146.201
147.081
146.203
146.758
146.202
146.201
146.341
146.2
146.201
146.322
146.201
146.192
3566.49
146.2
146.2
146.2
146.919
2016.99
146.2
146.206
146.2
146.205
146.867
149.402
146.2
148.158
146.2
6630.5
146.2
146.2
146.2
146.201
146.201
146.201
146.201
146.201
146.208
147.529
146.21
146.201
146.201
146.2
146.2
146.201
146.201
146.2
1097.97
146.203
146.2
146.2
146.2
3135.69
146.2
146.2
147.489
146.2
146.2
146.2
146.2
146.314
146.219
146.228
646.476
146.2
146.2
147.462
146.2
146.2
146.2
146.278
146.553
146.221
4451.58
146.2
146.2
1132.68
146.2
146.2
146.2
146.2
146.2
146.2
146.2
146.2
146.2
1778.95
145.207
146.2
146.212
152.313
146.2
1421.97
146.2
146.2
146.2
146.2
146.2
146.2
146.201
146.2
146.203
5368.07
146.256
146.212
146.2
146.2
146.706
146.977
146.2
146.208
146.2
146.2
146.238
146.31
146.928
146.224
146.2
832.836
146.886
147.829
146.2
146.222
146.236
146.227
146.34
146.201
146.682
146.219
146.201
146.219
146.21
146.224
146.223
146.208
146.221
146.201
146.306
147.037
146.795
146.201
146.201
161.664
146.2
146.2
146.33
146.201
765.193
146.228
146.2
146.2
146.2
146.2
146.232
146.225
146.897
146.206
146.737
146.2
1921.74
146.219
146.203
146.2
146.201
146.2
146.2
146.2
146.2
144.22
146.2
146.2
146.2
149.596
146.228
149.187
146.335
147.703
146.201
146.204
146.2
146.2
146.201
146.2
146.2
146.2
146.217
2290.86
168.067
4570.37
146.927
146.208
146.2
146.316
146.314
146.238
6318.11
146.2
146.2
146.201
146.854
146.201
146.201
146.2
146.2
146.2
146.2
684.218
146.2
146.331
146.201
3700.21
146.327
146.2
146.201
146.871
146.733
146.294
146.355
146.2
146.464
6174.79
146.2
146.199
146.214
146.177
146.329
146.2
146.356
151.587
146.29
146.315
146.577
146.216
146.355
146.2
146.551
3563.63
146.173
6306.27
146.2
146.2
146.221
146.2
6637.87
146.155
146.203
146.201
146.2
146.206
146.2
146.201
146.201
146.198
146.2
146.2
146.2
146.2
146.953
5396.26
146.202
2158.16
146.2
146.2
146.179
148.761
146.84
146.198
145.812
146.483
836.637
3957.26
1799.68
146.198
146.779
146.2
146.2
146.2
192.054
146.197
1119.38
146.158
2003.73
862.624
158.999
146.197
146.311
146.2
146.201
146.2
146.198
146.2
146.197
146.201
180.441
1943.13
146.592
146.201
7452.8
146.207
146.562
146.2
4597.18
502.136
1257.48
146.2
146.2
146.2
146.2
146.2
146.201
146.378
146.201
146.206
9073.7
146.277
2574.59
146.803
213.913
146.316
652.305
146.2
770.187
146.218
146.2
146.2
146.977
146.306
146.2
146.2
146.2
146.198
146.2
894.324
948.397
828.329
147.966
146.2
6265.58
1078.3
146.2
1325.87
146.2
146.204
5030.36
146.205
146.206
542.773
146.199
146.2
146.204
146.2
146.201
146.2
146.205
146.2
146.2
146.26
1020.08
146.286
146.209
146.201
146.2
146.2
146.2
146.2
146.242
146.893
146.2
146.201
146.28
146.2
146.2
146.2
146.2
157.325
146.776
146.378
146.268
146.296
146.2
146.311
146.2
146.211
146.404
146.2
146.293
146.2
146.2
146.656
146.201
146.2
146.652
146.315
146.622
146.775
146.2
146.21
146.214
146.249
146.196
164.121
146.319
146.605
146.221
5037.71
146.2
146.2
146.206
151.04
146.23
146.846
146.208
146.756
146.2
146.2
22645.5
146.42
146.214
146.25
146.211
158.989
146.81
146.2
146.222
146.2
146.58
146.2
146.22
146.265
146.2
146.688
146.2
146.508
146.629
146.2
146.2
146.336
146.2
146.2
146.201
146.2
146.261
146.2
146.629
146.288
146.201
146.2
146.987
146.196
146.2
146.208
146.2
146.2
146.2
146.2
146.274
146.276
146.793
146.2
146.2
146.342
146.2
146.203
672.106
146.201
146.2
146.061
146.2
146.27
146.2
146.2
146.2
146.201
146.2
400.054
1108.79
144.834
146.2
10506.9
146.196
2361.36
146.2
146.218
146.2
148.163
146.261
146.2
146.2
146.2
3772.87
146.518
146.2
146.209
146.2
146.2
146.204
146.201
146.2
146.21
146.2
146.437
146.2
146.2
146.2
146.2
146.2
146.323
146.212
146.2
146.2
146.403
146.2
146.201
146.2
146.2
146.334
146.778
146.201
146.2
146.2
146.2
146.732
146.2
147.148
146.2
146.998
146.41
146.2
4255.16
146.44
154.567
146.367
146.499
146.2
146.2
146.2
146.204
146.2
146.483
146.762
146.2
146.205
146.2
146.214
146.544
146.349
146.2
3407.03
146.23
146.2
157.103
146.2
146.2
146.2
146.831
146.288
146.228
146.2
146.2
146.2
146.773
146.2
146.824
146.2
146.2
146.341
274.579
146.2
146.2
146.276
146.2
146.2
146.2
147.19
3840.66
146.249
146.2
146.34
6630.67
146.205
146.726
146.083
1850.51
146.201
146.307
396.054
8138.69
1237.02
1710.93
1010.8
2335.94
146.2
19026.5
146.646
146.864
146.2
746.591
7553.17
146.2
146.268
2496.61
146.2
2864.07
146.2
146.813
146.237
2087.79
146.276
146.51
146.2
146.2
146.2
146.2
149.821
146.2
146.341
146.358
146.2
146.201
146.201
146.2
146.2
146.2
146.187
146.2
147.094
146.2
982.157
146.2
150.104
146.2
146.202
146.201
146.201
146.2
146.2
146.2
146.203
147.377
147.366
4802.41
148.144
146.175
146.014
146.2
146.201
146.203
146.104
146.2
3543.26
3037.35
147.531
145.973
146.179
146.2
156.222
146.349
146.2
146.201
146.2
211.784
147.729
146.212
1504.34
146.201
146.204
1472.44
183.272
146.2
144.392
146.197
146.2
146.184
146.192
146.2
146.21
146.201
146.2
146.2
146.2
810.903
146.2
146.201
146.2
146.211
146.2
146.2
146.208
146.24
746.249
146.2
146.2
146.2
146.339
740.88
146.2
146.232
745.229
146.2
146.203
146.221
146.244
1672.02
146.2
146.202
146.213
146.2
2127.25
146.201
146.201
146.2
146.2
146.2
146.201
146.2
146.2
146.201
146.201
146.2
146.201
1333.7
146.201
146.204
146.212
146.2
146.201
146.284
146.265
146.2
146.197
146.201
146.2
146.206
146.2
146.2
202.666
146.201
146.2
146.2
146.2
146.2
146.2
148.087
143.361
146.875
2835.08
147.183
146.039
169.778
146.196
146.2
147.043
146.198
146.2
146.474
146.196
146.643
146.2
146.197
146.2
146.238
146.204
146.213
146.205
146.199
146.213
146.21
146.2
146.466
146.2
146.222
146.21
146.124
146.208
146.214
146.21
146.156
146.211
146.212
146.2
146.2
1120.27
146.201
146.2
146.2
146.2
146.213
146.182
146.204
146.242
146.2
146.2
146.2
146.2
146.217
146.2
146.202
146.2
146.2
146.207
146.2
145.091
146.2
146.2
146.2
146.2
146.203
146.2
146.2
146.2
146.201
146.2
146.2
2045.38
146.2
146.202
915.063
146.2
146.2
146.2
146.2
146.2
146.2
146.2
146.2
143.972
146.145
146.203
146.2
146.2
146.2
146.203
2222.7
146.2
146.2
190.868
146.2
146.2
141.846
146.2
146.227
146.235
146.2
146.2
146.599
154.553
146.36
146.2
146.2
146.2
146.2
145.949
146.201
146.2
146.2
146.2
146.351
146.2
146.2
146.2
146.435
146.251
146.205
146.482
146.417
146.2
146.205
146.201
146.201
146.197
221.471
146.079
146.2
146.209
146.491
146.2
146.2
146.462
145.225
146.439
146.2
146.202
146.2
146.2
146.686
146.2
146.675
146.2
146.2
146.552
146.201
146.2
146.204
146.611
146.2
146.22
146.57
146.2
146.026
146.708
146.207
146.2
146.201
146.207
968.638
146.206
1873.04
146.201
146.2
1505.94
146.199
1509.73
146.2
146.2
146.2
146.2
146.2
146.2
146.197
146.155
146.2
146.201
146.201
146.2
148.971
146.2
146.2
146.2
155.859
146.2
146.226
1405.28
146.201
146.2
146.045
146.29
146.2
146.2
146.201
146.201
146.2
146.201
356.327
146.21
146.214
147.012
146.22
146.2
146.201
146.213
146.2
146.2
146.198
146.22
146.2
146.209
146.2
1691.27
146.892
146.217
146.201
1007.84
146.353
146.201
146.214
3700.46
2924.89
146.229
264.524
146.213
146.007
146.201
843.122
146.221
146.208
146.042
146.219
146.259
146.2
146.206
146.221
146.202
146.208
361.106
146.682
146.199
146.2
146.368
146.2
146.2
257.367
146.2
146.333
146.2
164.813
1626.43
6171.61
146.2
146.2
146.2
146.442
146.203
149.899
146.2
146.406
146.35
149.696
146.2
1162.01
146.218
146.248
2406.48
146.235
146.2
146.205
146.2
146.202
146.201
146.2
146.2
146.2
146.2
146.2
146.2
277.52
146.2
146.201
146.2
415.584
1876.83
146.199
146.28
146.2
146.2
146.203
146.2
146.2
146.2
146.2
146.2
146.203
146.2
146.985
146.2
146.293
146.273
146.737
146.2
146.218
146.205
146.2
146.2
306.27
146.2
146.2
146.2
146.2
146.2
146.201
146.2
146.2
146.2
146.2
3588.93
3520.12
146.2
152.065
146.2
175.169
408.785
146.2
146.2
146.691
146.2
146.209
146.2
146.211
146.202
146.2
146.2
146.342
146.758
146.2
146.252
146.2
146.201
146.204
146.219
146.2
146.2
146.205
146.201
146.2
146.209
146.205
146.48
146.546
146.201
146.201
146.208
146.274
146.2
146.2
146.2
146.2
146.2
146.2
146.2
595.442
146.207
146.2
146.201
152.043
147.223
146.2
146.308
146.241
146.2
146.313
7069.6
146.201
275.994
146.253
146.2
146.2
146.201
147.427
146.326
146.197
146.196
146.2
146.2
146.196
146.201
146.233
146.209
146.2
146.2
146.2
146.904
146.195
146.198
146.2
146.571
439.977
146.2
146.2
146.201
146.2
146.269
147.022
146.2
146.216
146.202
146.23
146.2
146.2
146.315
146.2
146.2
146.2
146.2
146.2
146.2
146.2
146.201
146.201
146.2
146.2
146.2
146.552
146.217
146.2
146.207
146.2
146.2
146.2
146.771
146.218
146.275
146.2
146.2
146.201
146.201
146.219
146.2
2195.91
146.2
146.2
146.201
146.519
146.534
146.221
146.2
2325.01
2191.85
146.245
1179.64
302.367
146.2
146.725
146.222
146.2
146.2
146.2
146.2
146.2
146.2
217.977
146.796
168.227
146.218
202.634
146.2
146.231
146.235
2262.6
146.212
223.939
146.213
147.68
4373.55
146.2
146.204
174.772
146.2
146.2
146.553
146.2
146.2
476.46
146.368
146.2
146.2
146.2
146.201
146.2
146.2
146.2
146.201
146.296
146.2
146.2
146.205
197.993
146.217
146.2
146.2
146.2
284.876
146.2
146.201
154.714
146.2
146.2
146.2
146.2
147.04
146.216
146.2
146.2
146.2
146.2
146.2
146.226
146.2
146.201
146.201
146.2
146.22
146.2
146.2
146.2
146.2
146.2
146.2
146.205
146.2
146.2
146.325
146.2
959.732
146.203
146.2
146.2
146.2
146.2
146.203
146.268
854.909
146.278
967.055
146.214
146.206
146.219
782.848
924.771
146.291
146.227
146.2
146.204
146.2
146.2
146.2
146.2
146.209
177.227
146.2
146.278
146.2
146.2
146.206
146.2
146.201
146.2
146.203
146.515
146.211
146.2
146.2
146.2
146.201
146.2
146.201
309.38
146.206
157.446
146.2
146.2
146.201
155.176
154.729
214.258
146.705
5091.03
146.202
146.412
146.216
178.623
146.2
146.201
146.2
146.2
146.27
146.611
147.192
146.248
146.645
146.672
146.2
146.611
4373.74
146.2
146.2
146.2
3805.44
146.329
146.215
146.2
3800.88
146.791
146.231
146.359
146.248
2249.18
146.326
146.2
586.405
146.326
146.492
146.2
146.2
147.441
146.2
146.2
146.327
146.2
146.2
711.876
146.201
146.327
152.331
146.201
146.201
146.249
146.261
146.238
146.27
629.983
146.291
146.176
146.2
146.265
146.207
146.232
146.23
146.201
146.409
383.39
146.355
146.283
146.2
146.201
146.235
146.2
146.359
146.2
146.2
146.2
146.232
146.201
146.218
146.201
146.2
146.268
146.226
146.233
146.316
146.2
4975.58
146.309
146.502
146.2
146.245
152.746
147.935
146.286
146.2
146.282
146.2
146.2
146.2
146.2
146.2
146.2
146.2
146.302
146.2
146.201
146.2
146.2
146.2
146.2
146.2
150.339
146.214
146.2
146.2
146.733
146.201
146.316
146.202
146.2
146.451
146.2
146.2
146.2
146.316
146.2
146.2
146.235
146.2
146.2
146.2
146.202
146.2
146.2
146.2
146.2
146.201
146.2
146.2
146.208
146.2
146.2
146.2
146.217
146.2
146.2
146.2
4005.4
146.2
146.2
146.2
146.201
146.836
146.197
146.2
146.2
146.201
146.2
147.027
146.2
146.2
146.2
146.2
146.2
146.213
146.2
146.2
146.201
146.201
146.2
146.2
146.2
146.2
146.2
146.2
146.2
146.201
146.2
146.2
146.2
146.2
146.2
146.2
146.77
146.201
146.201
146.2
146.2
146.203
146.2
146.204
146.305
146.203
148.029
146.2
146.2
146.2
146.201
146.856
146.2
146.2
146.922
146.2
146.201
146.2
146.2
146.2
146.2
2116.24
146.2
146.2
146.2
146.923
147.008
147.008
146.202
146.41
5048.87
146.162
146.2
146.2
146.992
146.2
146.201
146.2
146.2
1198.61
146.2
146.2
146.2
146.215
146.2
146.212
146.22
146.201
146.283
2208.14
146.201
146.2
146.201
146.2
146.201
146.2
146.197
146.2
146.201
4966.35
146.351
3476.6
1084.69
147.224
146.201
146.201
146.2
146.2
146.2
146.201
146.201
146.201
146.201
1324.41
146.2
146.224
146.253
146.2
146.28
146.218
146.23
146.2
146.201
146.217
146.2
146.201
146.2
146.287
146.342
146.33
146.2
146.293
146.2
146.193
146.2
146.138
146.2
147.148
146.214
146.2
146.2
562.357
146.202
146.2
156.947
146.201
146.2
146.811
146.2
146.2
146.201
146.215
146.201
146.2
146.201
146.2
146.201
146.201
146.362
146.2
146.2
146.201
146.2
146.256
146.2
146.201
146.2
541.451
146.201
146.26
511.806
146.26
146.2
146.938
146.221
146.201
146.2
146.709
146.22
146.2
146.356
241.666
146.197
146.2
146.2
146.393
146.2
146.2
146.2
146.201
1204
146.201
5858.18
146.2
895.488
146.201
146.2
205.178
146.201
146.199
146.2
146.2
146.201
222.874
146.284
147.523
146.304
146.251
146.299
146.2
146.2
146.2
146.244
4439.21
146.516
146.201
146.2
1195.98
146.306
146.775
146.978
146.2
154.854
146.843
146.28
146.201
146.607
365.55
385.943
146.372
146.234
146.215
426.69
146.197
146.682
146.2
380.63
146.204
147.029
153.358
146.2
146.193
146.22
1254.74
146.2
351.483
146.2
146.2
239.402
146.2
146.2
146.2
146.2
146.207
146.2
21523.9
155.165
146.2
146.2
147.481
146.201
146.355
147.5
587.893
146.201
146.2
146.2
146.332
146.2
146.2
146.2
146.197
146.2
148.265
146.2
146.2
146.48
147.664
146.2
146.2
249.39
146.2
146.201
146.394
146.2
146.2
146.2
146.279
147.138
146.27
146.2
146.2
146.2
146.257
4639.39
146.204
146.763
146.2
146.2
146.2
146.2
146.201
673.075
146.242
146.2
146.453
146.2
146.2
146.216
146.2
146.201
146.2
146.402
350.987
146.2
146.2
2959.98
1021.82
146.2
146.086
146.815
146.2
146.2
146.2
146.2
146.2
146.2
146.2
146.2
146.201
146.2
146.201
2406.68
146.2
146.242
9744.03
146.218
2412.01
146.2
146.225
146.2
146.2
1835.39
146.371
146.481
2024.25
187.289
158.76
146.2
155.612
781.026
146.283
879.176
3082.21
146.201
1272.22
146.2
146.2
146.201
146.218
2097.24
146.2
146.763
146.201
146.2
146.2
147.124
146.297
146.2
1024.22
829.176
146.312
921.969
1031.38
146.2
146.201
150.174
146.2
146.2
146.2
146.2
146.201
146.201
146.201
796.574
146.233
269.51
476.231
146.202
146.259
146.2
146.201
146.201
273.684
146.2
146.2
146.2
471.739
145.917
146.977
1085.33
2575.79
146.24
146.3
146.2
1147.84
146.2
146.2
162.287
7222.58
3683.92
146.2
146.2
146.2
5628.12
146.2
930.705
2829.21
2702.89
1118.59
146.2
146.2
156.213
146.218
146.201
1230.57
176.407
152.188
146.2
1213.47
146.207
228.969
146.2
146.2
146.201
146.184
146.2
146.2
565.058
146.562
2097.49
146.2
146.2
937.189
1497.8
146.2
146.2
146.2
146.769
170.456
12656.7
1895.35
146.2
146.629
146.557
146.2
146.2
146.2
146.2
146.2
146.2
3583.21
146.2
146.2
146.201
146.608
146.2
146.2
146.2
146.2
146.339
146.298
146.2
146.615
146.2
146.167
146.2
146.2
146.2
146.641
1021.27
146.2
146.2
1675.26
146.201
146.201
146.201
146.2
146.2
2421.99
146.2
146.202
146.2
146.2
146.2
2471.31
146.2
146.2
146.525
146.2
146.2
146.2
146.2
146.787
146.2
146.213
146.2
146.298
146.2
146.2
146.2
146.2
146.2
146.2
146.2
2469.99
147.272
146.2
146.2
146.2
146.2
146.201
146.2
146.2
146.2
146.201
146.201
146.201
146.2
291.63
146.357
146.392
146.234
261.99
146.185
146.2
2393.4
146.201
2440.32
146.201
146.218
146.201
146.2
146.2
146.2
146.201
146.201
146.228
146.874
146.2
146.2
146.201
146.2
146.2
146.178
146.201
146.2
146.2
273.76
146.232
147.07
146.2
146.2
146.236
146.24
206.367
146.201
146.201
146.2
146.209
146.2
146.212
145.995
146.2
146.238
146.218
154.163
146.234
1032.96
4165.48
146.2
10220.1
146.2
1298.43
146.201
852.806
178.764
777.76
146.3
146.2
146.201
146.2
146.258
146.947
146.2
819.512
146.201
146.501
146.2
146.2
146.2
146.2
957.971
146.2
146.2
146.2
146.2
146.2
146.2
1715.48
793.168
247.942
146.2
146.2
1275.09
146.2
146.2
146.244
146.544
146.245
146.2
146.2
146.408
146.247
146.2
146.201
146.301
1466.54
146.263
146.201
1383.18
146.201
146.2
146.201
146.2
146.2
146.201
146.2
146.2
146.2
146.2
146.2
146.201
146.2
146.2
146.201
146.2
146.2
146.2
146.2
146.2
146.2
146.2
146.2
146.218
1733.56
1801.79
146.2
146.201
146.2
146.2
146.213
146.2
146.201
146.201
146.2
146.2
146.2
146.2
146.2
146.2
146.2
146.2
146.2
146.09
146.201
147.063
160.754
146.227
146.2
146.201
808.494
146.201
146.201
146.2
146.2
146.2
146.2
146.2
146.201
146.2
146.2
146.365
146.296
146.201
146.2
146.201
146.2
146.2
146.2
146.2
146.2
146.234
4381.75
146.2
4238.9
146.2
146.2
1860.74
1978.24
146.2
146.222
146.225
146.2
146.2
146.2
146.2
146.2
2464.97
146.201
2608.01
146.2
146.2
146.201
4319.86
3970.92
4037
146.2
146.201
146.2
146.2
146.2
146.2
146.2
146.2
146.2
146.201
3381.74
146.201
146.2
146.2
146.2
146.201
146.2
146.2
146.259
283.521
146.218
146.2
146.2
146.2
146.201
146.201
146.2
146.2
146.2
769.008
146.201
146.2
146.2
1072.77
146.201
146.208
146.2
146.2
146.135
146.2
146.029
146.814
146.2
146.238
146.2
146.208
146.2
146.2
146.201
146.201
146.2
146.206
146.201
146.2
146.2
146.291
2100.7
147.558
146.201
146.191
146.289
146.201
146.201
146.201
146.2
146.2
146.2
2500.58
146.745
2278.08
146.228
146.29
146.201
146.2
146.2
146.329
497.998
146.2
146.79
146.2
276.881
146.2
146.203
146.2
146.201
146.233
146.2
146.2
146.201
146.201
146.2
146.201
146.241
357.708
146.2
146.201
4519.38
146.2
146.2
146.2
146.201
146.2
146.201
146.2
146.2
146.2
146.2
146.2
146.2
146.2
146.2
146.2
146.2
146.2
146.2
146.2
146.2
146.207
3699.77
146.2
6889.09
146.218
146.201
146.2
146.201
154.934
146.2
152.679
3120.56
146.201
5095.51
146.2
146.201
146.2
146.2
146.2
146.2
146.209
146.272
146.2
146.2
146.2
146.205
146.211
146.2
146.212
146.201
146.207
146.968
146.197
146.201
146.2
146.2
146.214
146.201
146.199
146.195
446.297
146.2
146.201
146.2
146.2
146.2
146.208
146.219
146.2
146.201
146.2
146.201
10003.7
146.2
146.201
146.886
146.201
146.2
146.201
146.201
146.2
146.2
146.2
2673.41
5082.31
2948.23
5100.51
4244.91
997.973
6938.32
146.201
146.2
146.2
146.201
146.202
146.884
146.197
2547.11
145.841
146.197
146.2
4542.07
6754.64
146.2
146.201
9706.66
146.77
146.791
146.2
146.21
146.284
146.2
146.2
146.764
146.2
146.199
146.2
146.2
146.201
146.2
146.198
146.194
183.202
147.017
145.895
146.439
146.2
146.231
166.046
149.443
146.201
146.201
146.201
160.389
146.584
146.2
7042.29
6465.07
146.2
5804.04
3089.63
146.2
146.201
146.2
146.2
1495.81
146.2
146.2
146.197
146.201
146.201
146.2
566.697
146.201
146.2
146.201
2526.35
146.201
487.931
146.2
146.201
146.2
146.213
146.201
146.201
146.2
146.2
146.2
1937.54
146.206
146.21
339.752
146.201
146.2
146.2
146.223
146.2
146.201
146.208
146.213
146.2
146.2
146.201
146.228
146.2
146.201
146.2
146.2
146.201
265.11
146.196
159.711
146.2
1246.23
235.35
146.338
146.172
146.2
146.201
146.2
146.278
146.2
6495.54
146.2
146.2
146.219
146.201
146.2
146.224
146.292
146.2
146.2
148.439
150.056
146.2
146.2
146.4
146.2
146.201
146.2
146.2
146.201
146.201
146.2
146.2
146.2
146.2
146.2
146.201
146.201
146.249
146.2
146.2
146.2
146.202
146.2
146.188
146.253
146.2
146.2
146.308
146.2
146.2
146.251
146.2
146.2
146.2
146.2
146.409
146.2
146.258
146.2
146.201
146.2
146.249
146.2
146.2
146.201
146.2
146.2
146.258
146.2
146.2
146.2
146.201
146.2
146.2
146.453
146.2
146.2
146.2
146.203
146.2
146.2
146.201
146.2
146.2
146.2
146.2
146.201
146.2
146.2
146.201
146.2
146.201
146.2
146.2
146.2
146.2
146.2
403.142
146.201
146.2
146.2
146.202
146.2
146.2
146.201
146.2
146.207
146.2
332.9
146.2
146.2
146.2
146.201
146.201
146.2
146.2
146.2
146.259
147.021
146.202
146.2
146.2
146.2
146.2
146.2
146.2
146.2
146.2
146.2
146.2
146.202
201.233
146.288
146.2
146.2
146.2
146.2
146.2
222.117
247.792
146.2
146.2
146.2
146.2
146.2
146.2
146.2
146.2
146.2
146.2
146.2
146.2
146.2
146.2
146.201
146.201
257.76
146.2
146.2
146.2
146.2
1531.06
146.202
146.2
146.2
308.024
146.201
146.2
146.2
146.2
146.2
146.2
146.2
1126.64
146.312
146.2
156.418
146.2
146.2
146.233
146.2
146.2
146.2
146.2
146.2
150.015
146.201
146.2
146.2
146.2
146.2
153.889
146.2
146.206
146.2
152.261
146.211
146.2
146.2
146.212
146.2
146.201
146.2
146.2
146.2
146.776
146.2
146.2
147.492
146.2
146.2
146.2
146.2
177.462
146.2
148.285
147.644
146.2
146.2
146.2
146.2
146.2
146.2
146.2
146.2
695.822
146.2
146.201
146.2
146.2
146.2
146.2
146.347
146.201
146.2
146.2
146.2
146.2
146.201
146.2
146.2
146.2
146.2
146.2
146.2
146.2
146.2
146.2
146.2
146.201
146.201