/*--------------------------------*- C++ -*----------------------------------*\
| =========                 |                                                 |
| \\      /  F ield         | OpenFOAM: The Open Source CFD Toolbox           |
|  \\    /   O peration     | Version:  v2012                                 |
|   \\  /    A nd           | Website:  www.openfoam.com                      |
|    \\/     M anipulation  |                                                 |
\*---------------------------------------------------------------------------*/
FoamFile
{
    version     2.0;
    format      ascii;
    class       volScalarField;
    location    "2.5";
    object      ILambda_13_0;
}
// * * * * * * * * * * * * * * * * * * * * * * * * * * * * * * * * * * * * * //

dimensions      [1 0 -3 0 0 0 0];


internalField   nonuniform List<scalar> 
108993
(
146.201
146.201
146.2
146.202
146.201
146.2
146.2
146.2
146.205
146.212
146.421
146.466
146.201
146.201
146.201
146.321
146.213
146.202
146.201
146.2
146.2
146.205
146.202
146.2
146.201
146.201
146.201
146.2
146.201
146.2
146.201
146.204
146.201
146.212
146.202
146.201
146.201
146.218
3231.14
146.374
146.2
146.894
146.201
146.201
146.213
146.998
146.201
146.201
146.201
146.2
146.206
146.415
146.201
146.204
146.202
146.205
146.203
146.2
146.215
146.2
146.2
146.2
146.2
146.201
146.201
146.201
146.201
146.202
146.21
146.248
146.201
146.201
146.206
146.201
146.2
146.202
146.2
146.208
146.205
146.201
146.2
146.218
146.217
146.744
146.202
146.203
147.257
146.385
146.2
146.201
146.2
146.203
146.2
146.201
146.2
146.216
146.204
146.395
146.202
146.211
146.2
146.203
146.208
146.246
146.218
146.2
146.2
146.201
146.208
147.237
146.251
146.2
146.404
146.427
147.096
146.545
146.201
148.24
147.85
146.203
146.203
146.201
209.617
147.744
146.209
146.237
146.201
146.206
146.201
146.201
146.275
146.201
146.212
146.444
146.893
146.266
146.201
146.301
146.2
146.201
147.57
146.215
146.201
146.201
146.201
146.215
146.23
146.999
147.524
148.91
148.588
146.201
146.202
149.663
146.249
146.252
146.287
146.202
146.202
146.234
148.555
146.202
146.201
146.201
146.221
146.416
146.2
146.2
146.2
147.597
146.207
146.207
146.275
147.328
146.201
146.201
146.306
146.2
146.553
146.31
146.227
146.215
146.205
147.782
146.209
146.241
146.205
146.213
146.212
147.85
147.023
146.206
146.691
146.286
146.705
147.279
146.2
146.42
146.243
147.826
146.2
146.315
146.2
146.201
146.234
203.3
146.2
149.616
146.284
1427.05
146.314
146.325
146.312
146.907
148.378
146.254
146.206
146.2
146.204
146.2
146.201
149
148.96
146.299
146.201
146.2
146.203
146.215
146.462
146.201
146.8
146.204
146.2
146.2
146.229
146.2
146.204
146.2
146.231
146.202
146.2
146.205
146.2
146.202
146.202
146.526
146.623
206.754
146.201
146.209
146.2
146.201
146.211
147.235
146.202
146.202
146.202
146.657
146.201
146.2
146.201
146.2
146.252
146.234
146.205
146.201
146.2
146.201
146.2
146.212
146.2
146.2
149.44
12124.3
147.056
146.579
146.204
164.608
147.366
146.2
146.201
146.48
146.516
146.201
146.2
146.221
146.202
146.201
146.65
147.879
146.202
146.2
146.201
146.201
146.201
146.2
146.202
146.201
146.208
146.2
286.702
147.721
146.203
146.2
146.213
146.201
146.201
146.2
146.201
151.247
146.2
146.2
146.212
146.201
146.201
149.439
146.2
146.217
317.719
146.222
146.201
146.201
146.2
146.2
146.364
151.097
2311.15
362.876
146.206
146.896
146.201
229.91
146.529
146.2
713.602
146.2
146.574
146.2
146.347
146.2
146.239
147.016
146.201
146.203
146.266
146.2
146.2
146.2
146.202
146.2
146.256
146.2
146.438
146.565
146.201
146.204
146.208
146.636
146.53
146.2
146.365
146.201
146.2
146.21
146.201
146.2
146.202
146.202
146.228
14849.8
146.209
146.24
146.2
150.882
146.2
465.314
146.307
146.288
287.732
147.084
621.205
296.959
146.2
147.248
146.2
146.205
146.22
795.511
146.2
148.077
472.976
146.205
500.776
146.201
148.887
146.201
4337.31
146.213
146.226
146.208
146.2
173.78
223.648
146.416
146.201
146.205
146.204
146.266
146.305
5228.41
146.2
146.2
32268.1
146.2
146.304
146.212
215.767
146.211
146.27
146.2
5286.53
146.201
1600.39
146.2
146.2
3776.98
146.203
148.186
2460.46
146.2
2576.65
295.382
2546.02
146.2
147.193
146.219
146.201
146.201
146.2
146.217
146.214
146.209
146.2
146.201
146.276
146.216
146.203
146.262
146.208
146.201
146.226
146.2
146.224
146.229
146.2
146.202
146.219
146.201
147.555
146.25
180.085
146.357
180.16
147.82
146.204
146.205
146.2
180.144
146.203
146.206
146.22
146.201
146.2
146.204
146.201
146.217
146.215
146.305
146.456
146.607
146.206
146.2
146.206
146.2
146.314
146.352
146.203
146.209
146.223
146.21
146.217
146.2
146.23
146.222
146.222
146.2
146.511
146.476
146.2
146.2
146.2
146.2
146.212
146.201
146.218
147.994
146.201
146.211
8620.52
146.201
147.537
146.207
146.201
146.258
146.2
146.201
146.2
146.202
146.201
146.2
146.201
146.201
146.205
146.206
146.201
146.638
146.207
146.68
146.645
146.206
146.201
146.201
146.307
146.201
146.297
147.24
146.338
146.23
146.215
146.856
146.2
146.434
146.2
146.2
146.907
146.216
146.2
146.307
147.226
146.215
279.647
146.201
147.579
146.201
146.212
146.2
146.2
146.2
151.257
146.2
146.228
146.201
146.378
146.206
146.26
1143.87
146.221
146.206
146.2
146.2
147.052
146.203
13303.5
146.259
162.478
146.203
146.256
146.261
2702.83
146.226
146.341
146.244
146.2
146.202
146.2
146.22
148.005
146.28
146.213
146.2
146.201
146.201
146.201
146.202
13802.6
146.2
146.209
146.201
146.2
146.205
146.208
146.45
14954.3
146.224
146.2
146.201
13165.1
146.2
146.24
146.767
146.57
146.673
146.248
146.77
146.202
146.272
146.841
146.2
146.562
146.214
146.446
146.214
146.208
146.693
146.2
146.2
146.201
146.985
146.587
146.258
169.951
146.2
146.926
146.465
146.306
146.2
146.201
3782.91
146.22
146.346
146.202
146.368
146.295
146.215
146.224
146.311
146.272
146.292
146.207
146.324
146.352
146.239
146.305
146.324
146.219
146.201
386.895
146.353
146.273
146.353
146.339
146.201
146.262
146.2
146.201
146.2
146.228
146.23
146.275
146.486
146.21
146.218
146.44
146.338
146.332
146.2
146.258
146.226
146.201
149.034
146.201
146.251
146.208
146.255
148.095
146.236
146.263
146.227
146.225
632.066
146.2
146.449
146.24
146.207
146.2
8116.06
146.205
480.826
146.207
6740.92
146.348
146.2
146.201
146.201
146.211
146.2
146.211
146.201
146.248
146.201
146.222
148.223
1879.83
146.2
5407.02
146.2
146.296
146.409
146.2
146.324
146.201
146.561
146.345
146.419
146.207
146.336
146.256
146.287
147.254
146.202
146.307
146.753
146.315
146.438
146.281
146.2
146.223
146.201
146.208
146.2
146.437
146.652
154.14
449.976
146.558
146.225
147.25
146.59
146.618
146.474
146.244
146.201
146.201
147.154
146.201
146.231
146.201
146.403
146.253
146.2
148.246
146.201
147.41
147.056
146.221
146.2
146.2
148.43
146.202
146.203
147.239
146.311
146.355
148.252
163.429
146.211
147.251
12885.8
566.595
146.225
146.2
146.462
146.886
146.941
146.212
146.201
146.224
146.2
146.255
146.204
146.215
168.154
146.245
147.939
147.529
146.239
2019.89
146.22
187.57
146.2
146.22
146.228
146.2
146.401
146.23
146.2
146.278
146.2
146.199
146.238
146.539
146.2
146.225
146.221
147.787
146.546
146.2
146.274
146.805
146.2
146.125
146.209
146.201
146.25
20841.6
146.234
146.2
146.289
146.333
146.2
146.221
150.681
146.345
147.102
146.212
146.2
146.417
146.221
149.058
146.315
146.2
146.695
146.203
148.21
146.201
146.373
146.423
146.25
434.709
148.156
4859.2
147.5
249.315
148.17
146.211
146.215
147.067
146.42
146.238
146.215
146.216
146.294
146.205
146.566
146.201
146.201
146.338
146.845
146.22
152.25
146.202
146.243
146.251
146.539
147.281
164.787
146.23
146.211
146.2
146.371
146.471
146.555
146.245
146.369
146.207
146.552
146.2
146.806
149.637
4399.13
146.2
146.2
173.498
146.205
146.321
146.201
146.202
146.218
162.145
146.2
146.377
146.208
146.201
146.544
146.201
146.204
147.332
5786.72
146.2
146.201
146.2
146.203
146.256
146.381
146.582
146.695
146.578
148.272
146.226
146.201
146.201
146.356
146.211
146.201
146.203
146.5
146.2
146.418
146.201
146.201
148.206
146.201
146.222
146.224
146.358
146.214
146.2
419.327
146.202
148.843
146.2
146.2
146.201
146.337
146.443
146.201
146.206
146.64
146.4
146.545
146.201
146.236
147.511
147.248
146.206
146.531
1573.72
146.236
146.206
146.245
146.201
146.444
147.058
146.438
312.724
174.059
146.212
146.212
146.201
146.204
189.806
149.344
146.206
146.204
146.201
189.423
146.201
146.207
146.208
201.852
147.005
146.202
146.929
146.201
147.351
147.192
146.201
146.45
146.688
146.344
146.213
146.203
148.075
147.151
146.2
146.201
146.2
146.201
207.16
146.208
146.2
147.034
146.2
146.439
146.201
146.412
146.201
147.237
146.241
146.267
146.244
146.264
146.226
146.2
147.099
147.267
146.218
146.245
146.211
146.203
146.2
147.187
146.2
148.2
147.305
146.211
146.2
146.995
146.221
146.31
146.224
146.212
147.193
146.57
146.203
146.295
146.752
146.204
146.2
11957.6
146.249
146.249
147.578
146.951
146.56
146.2
146.451
146.352
146.205
146.227
146.709
146.22
146.3
146.223
146.396
146.201
146.22
146.233
146.306
147.753
958.825
146.298
146.203
146.85
146.201
153.441
146.864
161.076
146.395
185.371
146.223
146.419
146.319
146.233
146.214
146.2
146.2
146.2
146.2
146.202
146.224
146.671
146.201
151.508
146.24
147.935
146.223
146.215
146.464
146.2
146.238
146.198
146.232
146.2
146.368
147.993
146.258
147.04
146.252
146.201
146.199
146.185
146.2
146.2
146.201
7208.24
146.239
146.202
146.185
146.2
146.254
146.21
146.2
146.2
146.2
146.2
146.213
147.082
147.316
146.232
146.561
146.201
146.2
146.28
146.2
148.363
146.249
146.433
146.441
168.024
148.128
146.203
146.311
146.2
146.201
148.53
146.2
146.212
147.169
146.414
146.25
146.208
146.2
146.2
148.411
146.207
9678.26
634.92
146.316
146.203
146.209
146.206
146.204
146.276
146.355
146.215
146.201
146.201
146.201
146.2
146.214
146.252
146.201
146.378
146.201
146.202
146.204
173.986
146.228
146.255
146.201
146.2
148.205
146.2
146.239
146.205
146.205
146.204
1202.14
146.277
146.201
174.187
146.204
305.233
153.829
146.204
146.2
146.201
146.683
146.201
146.415
146.21
147.888
2412.58
148.154
146.219
146.204
147.384
146.201
146.201
146.201
146.2
146.201
224.843
147.048
146.468
146.81
146.209
146.203
146.206
146.321
146.201
146.201
158.433
146.898
146.228
293.1
146.239
146.425
146.2
146.2
146.216
146.2
146.2
13924
147.583
146.2
146.206
1429.73
146.744
146.2
146.206
146.2
146.875
158.638
146.209
146.224
146.234
146.23
146.207
146.216
146.2
146.223
146.2
148.081
146.208
146.203
146.442
146.208
146.201
146.211
146.224
3014.66
146.284
146.204
146.304
6063.73
146.284
146.2
146.204
146.24
146.2
146.247
146.235
146.23
146.273
146.23
146.203
146.247
146.255
146.206
146.205
146.2
146.264
146.2
146.201
146.269
146.207
146.201
146.201
146.2
146.237
146.2
146.2
146.201
146.314
146.201
146.201
146.2
146.278
146.833
146.201
146.423
146.224
146.2
146.2
146.201
146.214
146.389
146.2
146.43
146.201
146.263
146.262
146.201
146.333
286.266
146.278
146.212
146.955
146.229
146.287
146.292
146.2
146.201
146.49
146.267
146.2
146.2
146.703
146.201
146.225
146.202
151.63
146.306
146.33
153.003
146.2
152.178
146.2
146.201
146.201
146.234
146.206
146.838
213.056
146.303
146.261
1528.56
147.775
146.203
146.201
146.201
146.237
146.29
146.204
148.967
146.208
146.212
146.202
146.222
146.201
146.2
146.513
146.993
149.939
146.224
146.2
147.287
146.201
146.2
146.29
146.523
146.286
146.907
146.2
147.343
146.223
5650.5
146.207
146.211
148.976
146.324
146.2
146.211
146.87
146.2
146.688
146.205
146.368
146.226
146.212
146.204
146.354
147.798
148.574
146.203
146.204
233.927
146.203
146.201
152.079
146.204
146.201
146.203
146.393
153.138
146.2
146.206
146.714
146.206
149.623
146.203
146.813
146.205
146.208
146.719
146.21
146.206
146.592
146.21
146.202
146.414
146.2
146.201
146.203
174.753
146.307
146.2
165.511
146.2
147.376
227.126
187.046
146.264
146.815
146.2
9104.5
146.2
146.2
146.2
146.201
146.2
146.203
146.201
146.201
146.428
147.815
147.177
146.206
146.201
146.201
146.2
146.201
146.201
146.865
146.872
146.289
146.201
146.2
146.2
146.386
146.201
146.2
146.427
146.238
146.2
146.2
146.201
146.575
146.485
154.008
147.027
146.2
146.217
147.735
146.2
146.2
146.2
146.443
147.018
146.216
7745.8
146.2
146.2
20356.9
146.2
146.201
146.672
146.2
146.205
146.2
146.2
146.204
146.2
4679.84
146.32
146.2
162.23
146.23
146.2
146.447
146.2
146.201
146.2
146.25
146.2
146.205
146.205
146.2
146.236
371.437
148.313
163.285
146.201
146.318
305.832
147.81
146.2
210.799
146.2
146.2
146.219
146.371
614.047
320.505
146.2
149.432
310.314
173.081
146.201
198.714
146.22
146.217
621.851
146.207
408.232
146.216
146.201
146.216
208.666
146.22
146.233
146.343
146.241
146.204
146.57
324.657
609.128
146.2
146.21
3538.55
146.2
146.2
147.108
146.2
2236.75
146.233
146.2
146.201
146.2
146.2
146.234
557.692
146.713
149.363
1989.24
146.201
146.493
146.244
146.22
146.595
146.202
146.2
146.2
146.201
146.2
146.277
146.2
146.2
146.249
372.236
146.237
146.214
147.066
146.226
146.201
146.221
146.2
146.2
146.201
146.2
146.208
146.207
162.267
146.618
146.352
147.072
146.727
146.201
146.2
146.308
155.508
146.233
1762.42
146.201
171.054
146.201
155.973
146.213
146.216
146.768
146.201
146.2
146.201
146.645
146.2
146.3
146.201
394.628
160.055
146.2
146.201
146.631
231.386
146.547
350.357
146.201
147.258
7176.75
146.2
146.205
146.262
146.227
146.317
146.201
146.297
148.433
146.552
146.312
300.961
187.111
146.292
146.2
159.307
154.292
146.276
3315.98
146.208
146.309
146.262
146.391
4274.47
146.212
146.207
146.201
146.201
146.233
146.201
146.201
146.204
146.213
146.2
146.597
146.203
146.2
147.786
227.427
146.213
4492.91
146.209
146.2
146.232
317.448
146.891
146.773
146.553
1174.57
151.729
5090.06
146.496
146.213
214.318
146.2
146.482
147.126
1820.69
146.226
146.386
146.469
146.422
146.542
146.654
146.214
146.231
146.2
146.201
146.201
146.219
146.2
146.225
146.217
1018.72
806.637
231.194
146.218
2479.02
146.234
146.723
146.802
146.47
146.545
219.559
146.2
146.202
146.201
146.2
146.2
146.201
146.201
146.287
146.265
5571.55
146.226
146.273
1961.37
146.798
147.165
1413.33
146.2
162.053
146.251
147.296
146.773
148.066
146.55
146.201
146.201
146.215
146.212
146.201
1196.84
708.573
993.868
147.81
146.2
445.335
146.41
146.201
146.251
146.2
146.206
1445.96
146.205
146.205
146.576
146.211
147.11
146.206
146.738
146.2
146.201
150.871
146.209
146.2
148.449
146.506
146.646
146.239
146.204
146.201
146.265
146.212
146.202
146.708
224.832
146.227
146.218
146.495
146.231
146.2
146.236
146.248
146.462
147.555
146.983
148.294
146.749
146.2
191.547
146.248
151.445
151.385
146.201
237.59
146.2
146.2
155.056
146.204
146.201
147.11
199.319
149.318
146.998
146.2
153.036
362.066
146.279
146.204
146.203
147.556
150.04
147.07
151.659
146.2
146.203
146.696
1243.19
149.042
328.839
148.025
147.026
146.201
146.2
19127.4
148.87
218.304
146.873
151.548
143.366
147.41
146.201
146.333
146.201
148.131
146.2
146.335
146.624
146.2
147.023
146.2
147.145
147.237
146.2
146.2
165.267
146.2
146.2
146.2
146.2
150.115
146.201
147.374
146.754
146.2
146.201
146.794
146.203
146.204
239.414
146.205
146.213
146.201
148.249
146.235
146.234
150.556
146.93
146.201
146.563
146.201
146.382
3107.33
146.2
146.2
146.219
146.2
193.013
146.2
146.201
146.2
146.201
146.201
3302.46
4331.03
146.234
146.2
26286.2
146.201
146.365
146.2
353.991
146.201
1290.63
146.276
146.201
146.2
146.2
146.354
146.523
146.2
160.878
146.241
146.2
146.206
147.382
146.2
146.225
146.2
160.228
146.208
146.2
146.201
146.201
146.2
166.366
146.251
146.2
146.2
146.512
146.201
146.209
146.21
146.2
146.748
146.886
146.203
146.2
146.205
146.225
146.864
146.214
164.907
146.205
191.835
146.43
146.2
2659.02
147.018
154.181
147.056
146.529
146.208
146.212
146.201
148.449
146.26
146.202
146.53
146.201
146.244
146.2
366.151
146.93
146.876
146.214
146.372
146.219
146.201
146.621
146.27
146.2
146.201
147.526
146.452
153.561
146.201
146.201
146.208
146.449
146.205
152.569
146.201
146.201
146.553
146.742
146.2
146.206
146.409
146.201
146.417
146.201
153.322
146.392
148.083
146.2
146.47
6079.3
146.215
147.755
146.216
690.716
146.201
146.231
163.286
2114.67
1665.42
688.445
981.796
449.296
146.2
7838.23
146.668
147.596
146.2
146.704
4124.82
146.2
151.924
2188.38
146.2
3931.3
146.2
147.346
146.452
146.545
146.413
233.664
146.2
146.2
146.2
146.201
3678.12
146.201
581.214
146.316
146.201
146.201
146.201
146.587
146.2
146.2
146.246
146.201
148.611
146.317
1125.75
146.201
146.293
146.201
146.227
146.252
146.201
146.201
146.398
146.752
146.205
6657.13
5576.25
739.051
146.275
146.204
146.209
146.2
146.205
146.211
146.208
146.525
146.418
146.278
5360.07
146.21
146.203
146.2
146.381
146.201
146.201
146.206
146.208
146.212
5776.2
146.24
150.899
146.201
146.205
146.475
146.969
146.201
146.231
146.233
146.2
146.264
146.207
146.2
147.321
146.2
146.2
146.233
146.212
146.667
146.2
146.225
146.2
147.018
146.2
146.201
147.403
146.276
146.438
146.204
146.2
146.201
146.359
298.377
146.201
146.263
2761.91
146.204
146.218
146.202
146.21
219.497
146.201
146.224
146.232
146.227
2781.22
146.224
146.201
146.22
146.546
146.2
146.201
146.517
146.2
146.201
146.211
146.2
146.201
146.256
146.201
146.217
149.554
146.2
146.201
1174.9
855.917
146.2
146.213
146.201
146.2
146.324
146.2
148.333
146.344
146.21
146.198
146.2
146.202
146.26
146.334
146.204
146.239
390.078
146.433
842.686
146.206
146.223
146.213
146.2
352.519
146.212
146.213
612.478
146.213
293.172
146.2
146.213
146.229
146.22
150.179
146.219
150.199
146.201
146.215
151.323
146.217
242.542
146.278
146.228
146.228
146.219
151.711
146.218
160.309
146.257
165.173
146.214
146.207
146.2
146.396
146.213
146.864
146.785
146.203
146.225
146.202
146.223
146.202
146.2
146.2
146.201
146.715
146.228
146.2
146.205
146.213
146.24
146.234
146.2
146.291
146.655
146.42
146.349
146.2
146.223
146.2
146.2
146.2
146.207
146.201
146.253
146.56
146.201
162.231
3566.68
146.2
146.203
149.993
146.2
146.2
146.2
146.2
146.2
146.228
146.658
146.208
148.292
147.013
146.2
146.219
146.398
146.2
146.2
146.273
146.2
146.2
146.236
146.2
146.209
146.222
146.2
146.2
146.203
516.638
146.366
146.428
146.2
146.2
146.269
146.255
146.202
146.2
146.2
146.222
148.607
146.2
146.2
146.2
146.55
146.262
147.246
146.527
146.236
146.215
146.235
146.235
146.201
146.202
141.557
146.249
148.287
146.212
146.532
148.275
148.01
146.504
146.474
146.532
148.376
146.214
147.679
146.202
146.561
148.293
146.556
146.222
146.229
146.482
146.211
146.203
146.312
146.471
146.28
146.353
146.535
146.206
146.888
146.471
185.698
152.688
146.201
195.803
146.527
179.643
162.017
146.2
146.202
146.327
146.201
146.288
146.208
146.206
146.2
146.201
146.215
146.2
146.201
146.205
146.2
146.232
146.201
146.203
340.589
146.201
146.223
146.216
473.596
146.201
146.324
3535.94
146.201
146.202
146.238
146.403
146.208
146.21
146.2
146.2
146.231
146.2
146.883
146.221
146.221
149.53
146.428
146.201
146.212
146.223
146.324
146.207
146.201
146.232
146.216
146.249
148.658
146.414
153.136
146.222
146.204
4268.41
146.325
146.2
146.218
146.419
146.283
146.268
146.206
146.219
146.268
146.244
4275.11
146.238
146.207
146.502
146.231
146.232
146.226
146.238
146.236
146.215
146.244
146.259
170.944
146.288
146.2
146.6
146.201
146.201
146.42
146.201
146.796
146.2
147.791
4085.09
10785.4
146.2
146.209
146.201
146.664
146.216
147.991
146.205
146.831
146.888
146.4
146.2
789.313
146.216
146.284
6487.94
146.268
146.621
146.439
146.225
146.269
146.201
146.202
146.2
146.2
146.203
146.2
146.232
814.273
147.185
146.216
146.219
146.364
146.405
146.203
146.24
146.2
146.205
146.215
146.202
148.737
146.207
147.096
146.2
146.207
146.221
210.947
146.2
146.324
146.277
147.931
146.201
146.388
148.313
146.201
146.295
4801.75
146.2
146.361
146.201
146.22
147.765
146.215
146.201
146.296
146.798
146.2
146.321
1932.29
146.201
146.209
146.201
146.438
146.32
146.2
146.201
147.473
146.211
146.21
146.2
146.334
146.206
146.2
146.2
146.87
146.775
146.2
146.247
146.2
146.201
146.207
146.472
146.2
146.202
155.276
146.2
146.2
146.245
146.208
146.342
146.559
146.2
146.201
146.211
146.298
146.2
146.2
146.2
146.2
146.2
146.2
146.2
146.471
146.208
146.2
146.203
2654.75
2349.45
146.2
146.239
146.252
146.201
146.267
27230.3
146.201
146.468
146.789
146.201
146.2
146.201
146.464
146.26
146.206
146.204
146.2
146.265
146.208
146.24
146.227
146.322
146.72
146.201
146.252
2569.58
146.205
146.202
146.201
811.437
4030.13
146.2
146.2
146.201
146.204
146.224
146.956
146.201
146.467
146.228
146.233
146.2
146.225
146.559
146.2
146.2
146.201
146.2
146.218
146.458
146.2
146.214
146.213
146.2
146.2
146.201
148.378
149.15
146.2
146.361
146.201
146.201
146.2
148.311
156.091
147.354
146.364
146.221
146.204
146.201
146.211
146.248
1265
146.2
146.201
146.202
146.334
146.625
146.207
146.201
1298.52
652.602
146.233
470.144
1935.78
146.2
146.582
147.858
146.2
146.201
146.2
146.21
146.207
146.215
10554.3
147.051
357.91
336.273
1698.51
146.202
146.215
146.22
146.631
146.204
1945.19
146.213
147.375
169.694
146.201
146.239
420.326
146.204
146.243
151.401
146.206
146.201
2748.31
146.366
146.2
146.208
146.201
146.201
146.213
146.201
146.203
146.239
146.568
146.204
146.564
146.207
571.19
146.259
146.358
146.201
146.27
1241.95
146.201
146.2
146.305
146.201
146.2
146.201
146.562
146.902
146.209
146.203
146.2
146.206
146.249
146.2
146.204
146.2
146.242
146.201
146.205
146.395
146.2
146.202
146.201
146.215
146.203
146.346
146.206
146.206
146.236
147.852
147.578
191.831
146.207
146.2
146.201
146.21
146.2
146.207
146.266
166.248
146.869
180.797
146.236
146.233
146.226
157.107
191.215
146.228
146.446
146.209
146.206
146.2
146.228
146.2
146.201
146.238
174.792
146.2
146.265
146.201
146.203
146.206
146.2
146.221
146.2
146.21
158.561
146.213
146.201
146.2
146.203
146.209
146.2
146.217
3723.79
146.206
2759.97
146.201
146.201
146.258
2911.31
4138.6
4146.79
1013.63
146.967
146.233
146.532
147.336
3264.36
146.217
146.2
146.2
146.2
146.234
214.367
146.343
146.219
217.771
217.861
146.228
186.502
146.496
146.327
146.201
146.2
146.802
848.495
146.535
146.2
146.802
146.788
146.457
146.837
288.434
146.382
146.405
146.201
146.281
146.39
146.285
146.207
146.2
146.477
146.201
146.201
146.405
146.201
146.201
163.649
146.201
146.385
147.773
146.201
146.212
670.854
682.211
146.209
674.576
146.376
730.18
146.204
146.2
687.305
147.15
382.469
375.712
146.214
146.426
146.207
146.303
146.437
146.2
146.202
572.389
146.202
146.394
146.201
146.198
146.2
654.117
146.2
146.21
146.201
146.2
146.444
475.063
476.714
146.228
146.2
146.457
146.442
146.377
146.201
146.509
9011.15
167.906
146.412
146.213
146.58
146.851
146.2
146.202
146.2
146.201
146.201
146.201
146.389
146.201
146.235
146.2
146.2
146.2
146.2
146.2
146.33
146.257
146.201
146.2
146.727
146.2
146.408
146.292
146.2
146.769
146.212
146.2
146.201
146.35
146.209
146.2
146.216
146.207
146.2
146.2
146.226
147.954
146.206
146.2
146.209
146.217
146.2
146.211
158.876
146.2
146.202
146.2
146.24
146.2
146.26
146.201
146.447
146.2
146.2
146.2
146.201
146.386
146.201
146.2
147.878
146.21
146.2
148.439
146.2
146.2
146.205
146.2
146.357
146.243
147.891
147.889
146.201
146.237
146.199
146.211
146.203
146.229
147.083
146.222
146.232
146.258
146.2
146.232
146.218
146.429
146.193
146.426
146.819
146.932
146.21
146.229
146.243
146.306
146.201
146.249
146.24
146.206
146.31
146.2
146.219
146.2
146.201
148.127
147.233
146.219
148.13
146.375
146.203
146.201
146.2
146.201
146.2
23888.5
146.204
146.232
146.199
148.297
147.534
147.983
146.291
147.178
146.814
146.204
146.2
146.2
148.482
146.2
146.201
146.2
146.2
1349.39
146.201
146.2
146.201
146.32
146.238
146.375
146.599
146.201
146.994
260.702
146.201
146.269
146.201
146.2
146.201
146.2
146.201
146.201
146.201
156.311
146.438
146.468
146.687
729.198
146.236
146.201
146.201
146.201
146.216
146.201
146.201
146.201
146.201
323.744
146.244
146.208
146.317
146.201
444.444
146.231
146.688
146.215
146.201
209.509
146.201
146.201
146.2
157.514
1048.58
455.841
146.205
434.44
146.201
146.231
146.201
146.422
146.203
146.806
146.329
146.201
146.201
148.875
146.291
146.2
146.848
146.201
146.2
189.788
146.2
146.204
146.201
146.265
146.201
146.207
146.201
146.2
146.244
146.201
146.685
146.2
146.373
146.201
146.201
148.687
146.2
146.201
146.201
4358.54
146.204
146.963
895.993
146.53
146.201
148.003
146.27
146.201
146.201
148.17
147.299
146.2
146.343
311.992
146.204
146.202
146.334
146.402
146.205
146.205
146.2
146.201
788.043
146.201
3781.76
146.2
146.43
146.201
146.201
146.314
146.201
146.204
146.2
146.201
146.234
3198.8
146.275
179.362
146.295
188.055
146.294
146.201
146.201
146.2
146.86
4409.98
146.464
146.205
146.241
691.318
146.309
146.892
146.879
146.2
157.588
146.634
146.271
146.2
1529.41
146.823
146.819
146.378
148.385
146.708
2853.69
146.203
1932.67
146.215
146.86
146.256
146.81
2787.39
146.201
146.202
152.469
146.835
146.216
146.47
146.213
146.201
3735.85
146.318
146.2
146.201
146.201
146.296
146.201
41809
154.463
146.2
146.2
1997.46
146.242
146.725
153.998
3154.52
146.233
146.2
146.2
146.838
146.2
146.2
146.49
146.233
146.203
2026.6
146.2
146.203
146.704
146.559
146.206
146.2
4388.36
146.201
146.201
146.556
146.201
146.201
147.019
233.563
149.145
148.113
146.2
146.237
146.2
146.296
9660.21
148.235
1863.29
146.2
146.912
146.2
146.201
146.2
687.616
149.795
146.2
146.406
146.2
146.2
146.221
146.2
146.264
148.472
146.731
10595.4
146.2
146.201
146.294
371.365
146.2
146.231
149.339
146.201
146.25
151.528
146.2
146.2
146.201
146.2
146.2
146.201
146.208
146.201
147.828
146.2
149.699
15453
146.899
147.894
146.201
146.333
146.201
146.2
147.355
160.709
146.465
147.402
562.277
147.831
146.2
146.329
5913.08
147.731
146.653
146.416
146.2
146.658
146.2
146.2
146.201
146.225
146.379
146.201
146.735
146.201
146.206
146.2
658.1
146.394
146.201
146.652
146.534
146.234
146.585
146.717
146.2
146.201
147.095
146.207
146.201
146.201
146.201
146.201
146.201
146.202
619.673
146.711
146.78
146.383
146.224
146.465
146.2
146.201
146.201
148.404
146.205
146.201
146.205
147.113
146.223
146.798
146.492
146.318
148.48
610.864
146.207
146.498
146.201
146.2
146.307
3873.24
146.754
146.201
146.201
146.202
165.106
146.201
146.895
145.733
146.5
146.539
146.201
146.2
147.128
146.245
146.201
146.536
146.375
146.323
146.2
146.512
146.222
146.698
146.382
146.2
146.205
146.247
146.21
146.2
146.4
146.543
146.469
146.203
146.368
146.39
146.451
146.334
146.2
146.2
146.719
146.702
1767.66
146.512
146.488
146.569
146.549
146.201
146.464
146.207
146.201
146.201
146.204
156.764
146.2
146.21
146.201
146.56
146.2
146.201
146.201
146.201
146.578
155.497
146.201
146.569
146.212
146.417
146.201
146.878
146.2
146.569
146.502
146.2
146.2
146.371
146.201
146.201
146.201
146.201
146.201
146.489
146.2
146.239
146.201
146.201
146.2
146.495
146.2
146.2
146.624
146.201
146.201
146.201
146.202
148.582
146.201
146.223
146.203
146.386
146.2
146.201
146.201
146.2
146.201
146.212
146.201
146.486
147.176
146.201
146.2
146.2
146.201
146.201
146.201
146.201
146.201
146.201
146.201
146.201
146.201
146.212
146.421
146.514
146.333
146.454
146.203
146.201
150.188
146.201
954.239
146.234
146.378
146.201
146.201
146.2
146.203
146.201
146.201
146.226
147.502
146.201
146.201
146.201
146.202
146.2
146.212
146.201
146.201
146.201
146.244
146.231
146.226
146.201
146.201
146.225
146.227
146.213
146.201
146.201
146.201
146.276
146.201
146.281
146.23
146.211
146.234
146.234
147.84
146.232
146.647
165.824
146.203
12444
146.201
146.583
146.201
146.561
146.333
146.575
203.287
146.201
146.201
146.201
146.282
147.58
146.201
146.558
146.207
146.479
146.201
146.201
146.205
146.201
146.513
146.201
146.2
146.2
146.2
146.201
146.201
146.663
146.534
146.338
146.2
146.2
146.541
146.201
146.201
146.245
146.486
146.259
146.201
146.201
148.025
146.245
146.2
146.201
146.359
146.544
146.803
146.201
146.571
146.214
146.209
146.201
146.202
146.2
146.201
146.201
146.2
146.201
146.2
146.201
146.201
146.201
146.201
146.201
146.2
146.201
146.203
146.201
146.2
146.2
146.2
146.201
146.416
146.717
146.505
146.2
146.204
146.2
146.2
146.292
146.2
146.201
146.2
146.2
146.201
146.2
146.221
146.201
146.201
146.2
146.2
146.201
146.214
146.201
146.22
146.237
146.237
146.2
146.201
146.244
146.201
146.201
146.201
146.201
146.201
146.201
146.2
146.2
146.201
146.2
146.513
147.116
146.201
146.2
146.201
146.201
146.2
146.2
146.201
146.201
146.599
2234.29
146.201
2236.65
146.2
146.201
1771.22
1808.27
146.2
146.405
147.527
146.2
146.2
146.201
146.201
146.201
1798.24
146.201
1838.49
146.201
146.2
146.201
146.475
146.476
146.454
146.2
146.201
146.213
146.2
146.201
146.2
146.2
146.201
146.2
146.21
146.41
146.201
146.2
146.2
146.201
146.201
146.202
146.201
146.405
288.795
146.467
146.2
146.2
146.201
146.201
146.2
146.2
146.201
146.2
259.566
146.201
146.2
146.2
146.253
146.201
146.508
146.2
146.2
147.253
146.201
147.213
146.719
146.22
146.231
146.2
154.364
146.204
146.201
146.201
146.201
146.201
152.991
146.201
146.222
146.202
146.505
200.892
1470.69
146.227
146.201
146.545
146.2
146.201
146.2
146.201
146.201
146.2
148.866
146.91
147.005
146.261
146.292
146.201
146.2
146.2
146.477
146.391
146.201
147.822
146.2
322.73
146.201
146.252
146.202
146.201
146.28
146.201
146.2
146.201
146.201
146.2
146.201
709.707
303.127
146.201
146.201
1713.83
146.202
146.2
146.201
146.201
146.201
146.201
146.2
146.203
146.201
146.201
146.207
146.216
146.201
146.2
146.201
146.201
146.201
146.202
146.201
146.215
146.493
1358.94
146.202
1273.17
146.261
146.2
146.2
146.2
146.873
146.2
146.439
2621.01
146.2
291.679
146.2
146.201
146.203
146.201
146.2
146.201
146.345
146.326
146.2
146.201
146.201
146.292
146.346
146.207
146.341
146.207
146.294
148.209
146.213
146.2
146.2
146.2
146.368
146.203
146.217
146.202
146.368
146.201
146.201
146.201
146.201
146.201
146.317
146.228
146.201
146.201
146.201
146.201
3740.93
146.201
146.2
148.17
146.201
146.201
146.2
146.201
146.2
146.2
146.2
3654.48
7267.58
3912.1
4664.78
4175.4
146.469
3527.11
146.201
146.201
146.2
146.201
146.219
148.51
146.209
5702.96
146.363
146.204
146.201
4771.26
4208.57
146.201
146.201
6579.55
147.307
147.646
146.202
146.224
146.253
146.2
146.201
147.772
146.2
146.201
146.207
146.201
146.2
146.201
146.202
146.202
146.467
146.233
146.319
146.386
146.2
146.498
166.955
153.391
146.203
146.201
146.201
156.589
146.774
146.201
4436.88
985.914
146.2
1102.33