/*--------------------------------*- C++ -*----------------------------------*\
| =========                 |                                                 |
| \\      /  F ield         | OpenFOAM: The Open Source CFD Toolbox           |
|  \\    /   O peration     | Version:  v2012                                 |
|   \\  /    A nd           | Website:  www.openfoam.com                      |
|    \\/     M anipulation  |                                                 |
\*---------------------------------------------------------------------------*/
FoamFile
{
    version     2.0;
    format      ascii;
    class       volScalarField;
    location    "2.5";
    object      ILambda_4_0;
}
// * * * * * * * * * * * * * * * * * * * * * * * * * * * * * * * * * * * * * //

dimensions      [1 0 -3 0 0 0 0];


internalField   nonuniform List<scalar> 
108993
(
146.2
146.2
146.2
146.2
146.2
146.2
146.2
146.2
146.201
146.202
146.2
146.2
146.2
146.2
146.2
144.779
146.204
146.2
146.2
146.201
146.2
146.201
146.2
146.2
146.2
146.2
146.201
146.201
146.201
146.2
146.201
146.2
146.201
146.2
146.201
146.2
146.201
146.2
146.85
146.85
146.201
146.2
146.2
146.2
1359.64
146.303
146.201
146.2
146.2
146.201
146.201
146.287
146.2
146.201
146.2
146.2
146.201
146.2
146.2
146.2
146.2
146.2
146.2
146.2
146.2
146.2
146.2
146.2
146.2
146.223
146.2
146.2
146.2
146.2
146.2
146.201
146.2
146.2
146.201
146.2
146.2
146.2
146.2
146.2
146.2
146.2
146.2
146.2
146.2
146.2
146.2
146.201
146.2
146.2
146.2
146.2
146.201
146.2
146.201
146.201
146.2
146.2
146.2
146.2
146.2
146.2
146.2
146.201
146.201
147.029
146.902
146.2
146.236
146.323
146.2
146.423
146.2
146.2
146.314
146.201
146.2
146.2
146.207
146.2
146.2
190.893
146.201
146.2
146.2
146.2
146.2
146.2
146.2
196.802
146.2
146.2
146.2
146.2
146.2
146.2
146.2
146.201
157.1
146.2
146.2
146.2
146.2
146.74
146.2
147.225
147.783
146.2
146.2
147.687
146.2
146.202
146.2
146.201
146.201
146.248
148.123
146.201
146.201
146.2
146.2
146.229
146.2
146.2
146.2
146.2
146.2
146.2
146.411
146.2
146.201
146.2
146.205
146.2
146.2
146.201
146.201
146.2
146.201
146.2
146.2
146.2
146.201
146.2
146.2
146.2
146.2
146.201
146.2
146.201
146.2
146.2
146.201
146.2
146.2
146.2
146.2
146.202
146.2
146.201
146.201
146.248
146.2
146.399
146.2
208.91
146.211
146.2
146.205
146.231
449.058
146.2
146.2
146.2
146.201
146.201
146.201
146.995
146.2
146.201
146.201
146.2
146.201
146.2
475.996
146.2
146.728
146.2
146.2
146.2
146.201
146.2
146.201
146.2
146.26
146.201
146.2
146.2
146.2
146.201
146.201
144.813
146.233
146.206
146.201
146.201
146.2
146.2
146.2
146.2
146.201
146.201
146.201
146.2
146.201
146.2
146.2
146.2
146.409
379.383
146.201
146.2
146.2
146.201
146.2
146.2
146.2
146.2
146.217
473.56
146.568
146.2
146.201
146.206
146.2
146.2
146.2
146.345
146.327
146.2
146.2
146.06
146.2
146.2
146.2
146.777
146.2
146.2
146.201
146.2
146.2
146.2
146.201
146.2
146.216
146.2
146.211
146.416
146.2
146.2
146.2
146.2
146.201
146.2
146.2
146.216
146.2
146.2
146.206
146.2
146.2
146.332
146.2
146.209
146.9
146.2
146.201
146.2
146.2
146.2
146.2
839.026
771.484
146.473
146.201
146.2
146.201
146.237
712.698
146.2
146.35
146.2
146.201
146.2
146.2
146.2
146.201
146.213
146.201
146.2
146.2
146.2
146.2
146.2
146.2
146.2
146.2
146.2
146.37
146.238
146.201
146.2
146.2
146.72
146.2
146.2
146.163
146.201
146.2
146.2
146.2
146.201
146.2
146.2
146.2
2914.21
146.2
146.188
146.2
193.567
146.201
163.519
146.2
146.2
146.591
146.2
146.842
146.747
146.201
144.062
146.2
146.202
146.201
4303.42
146.2
146.346
147.36
146.203
147.578
146.2
146.229
146.201
525.08
146.201
892.963
146.201
146.201
146.208
146.214
146.201
146.201
146.204
146.202
146.2
146.2
270.569
146.2
146.201
4010.77
146.2
146.2
146.2
182.174
146.237
146.246
146.2
289.93
146.201
279.852
146.2
146.2
230.794
146.2
146.242
319.027
146.2
442.462
146.796
356.767
146.2
146.2
146.202
146.201
146.2
146.2
146.201
146.2
146.2
146.2
146.201
146.294
146.201
146.201
146.563
146.2
146.201
146.195
146.2
146.2
146.2
146.2
146.2
146.2
146.201
146.2
146.201
146.206
146.2
146.206
146.435
146.219
146.2
146.2
146.206
146.2
146.2
146.228
146.2
146.2
146.2
146.201
541.031
146.201
146.21
146.355
214.907
146.2
146.2
146.2
146.2
146.2
146.2
146.2
146.2
147.426
146.2
146.2
146.2
1029.41
146.2
3079.57
146.2
146.2
146.2
146.2
146.2
146.2
146.2
146.2
146.2
1588.18
146.26
146.2
146.201
5304.02
146.2
146.199
146.201
146.201
146.209
146.2
146.201
146.2
146.2
146.2
146.2
146.201
146.201
146.201
146.2
146.2
600.996
146.203
146.2
615.027
146.2
146.201
146.2
602.141
146.2
146.2
146.2
146.212
146.2
146.2
146.223
146.2
146.333
146.2
146.2
146.2
146.2
146.2
619.026
146.2
146.201
146.21
146.201
147.048
146.2
146.2
146.2
146.2
146.201
165.723
146.2
146.2
146.201
146.2
146.201
146.252
146.223
146.2
146.2
146.201
146.201
146.2
146.2
6514.18
146.282
146.277
146.201
146.2
146.259
399.54
146.2
146.202
146.2
146.2
146.2
146.2
3170.6
146.301
146.314
146.2
146.2
146.201
146.2
146.201
146.2
607.191
146.2
146.2
146.2
146.2
146.214
146.2
146.2
1468.58
146.302
146.2
146.2
452.062
146.2
146.206
146.2
1000.75
146.2
194.457
146.2
146.201
146.2
146.087
146.2
146.364
146.201
146.502
146.201
146.2
146.7
146.201
146.2
146.2
146.208
146.363
145.166
146.592
146.2
146.213
152.922
145.055
146.2
146.2
825.286
3409.15
146.28
146.2
146.281
146.2
146.2
146.201
144.403
146.185
146.236
786.044
145.269
145.713
3091.98
146.296
146.31
146.244
146.2
151.323
146.323
146.207
146.311
146.32
146.2
146.202
146.2
146.2
146.201
146.21
161.629
146.249
146.304
180.714
146.2
146.244
146.318
146.311
146.2
146.2
146.228
146.2
146.615
146.2
146.297
146.209
145.685
146.692
154.579
146.204
146.224
146.221
676.228
146.201
146.2
146.322
146.202
146.2
3104.96
146.204
146.28
146.203
5577.69
146.211
146.2
146.2
146.2
149.914
146.2
900.063
146.2
146.201
146.2
146.201
146.247
163.408
146.2
932.201
146.2
146.254
146.148
146.2
146.288
146.2
144.766
146.209
145.306
146.2
140.188
146.201
146.421
146.21
146.2
146.283
144.758
145.844
141.659
146.197
146.2
146.214
146.2
146.2
146.2
146.2
136.484
146.659
146.328
146.206
146.201
146.208
146.217
146.207
146.201
146.2
146.2
146.2
146.201
146.2
146.201
146.2
146.189
566.95
146.2
146.201
146.2
146.201
146.2
146.2
146.2
146.2
146.229
146.2
146.2
146.2
146.203
146.2
146.221
146.232
146.2
146.2
794.846
146.216
146.2
146.2
598.025
146.2
146.199
146.201
146.201
146.201
146.2
146.2
146.2
146.201
146.922
146.201
146.2
146.868
173.168
146.449
146.201
149.642
146.2
146.201
359.034
146.2
146.194
170.728
146.2
146.2
146.2
146.2
146.2
146.2
146.201
146.201
146.2
146.2
3115.99
146.2
146.2
1078.29
146.2
395.959
146.201
146.2
146.216
10204.5
146.2
146.2
146.2
146.208
146.201
146.21
146.335
146.2
146.2
688.706
146.2
146.2
146.201
146.566
146.2
146.2
146.205
146.2
146.2
146.2
146.201
146.201
146.2
14310.4
146.2
14404.6
146.2
14199.3
146.2
146.201
146.204
218.208
146.212
146.2
146.207
146.213
146.202
146.201
146.441
146.201
146.201
146.197
1301.36
146.29
270.337
146.2
146.2
583.24
146.483
146.2
146.617
246.439
146.202
146.2
146.216
146.336
146.426
146.201
153.074
146.201
981.528
146.2
1040.65
146.874
1349.46
146.2
146.2
146.217
146.224
146.205
146.201
146.2
2595.22
146.218
146.2
2584.43
146.201
146.2
873.313
146.201
146.2
964.248
1026.87
146.2
146.2
146.2
146.2
149.52
146.222
765.203
146.2
1084.11
146.202
148.555
146.201
146.199
146.352
146.203
146.201
146.201
146.216
146.2
146.228
146.201
146.2
146.207
146.2
154.799
2713.23
146.289
146.338
146.2
146.711
146.2
179.385
146.2
146.2
146.201
146.207
146.234
146.2
146.204
511.258
146.241
146.235
146.2
146.299
146.21
146.34
146.2
146.202
146.284
146.386
146.206
146.339
146.2
146.24
146.704
146.242
146.745
151.934
146.202
213.88
146.201
146.201
154.262
146.448
146.204
146.201
146.201
166.593
146.2
146.2
146.201
158.646
146.2
146.2
146.2
146.201
146.2
146.2
146.2
148.288
146.2
146.198
146.202
146.2
146.91
146.2
146.2
146.201
146.2
146.201
147.131
146.255
146.2
146.2
146.2
146.264
163.431
146.22
146.201
146.2
146.23
146.2
146.2
3993.79
146.201
146.2
146.2
146.2
146.2
146.04
146.201
146.198
146.2
146.2
146.2
146.239
146.2
146.201
146.201
146.2
146.201
147.168
146.201
146.201
146.2
146.2
146.201
146.204
146.2
146.201
146.2
361.652
146.187
146.201
146.2
146.201
146.004
146.2
146.378
146.323
149.66
146.201
146.738
146.394
2073.34
146.201
146.37
146.201
146.2
146.2
146.267
146.201
2387.86
191.695
146.201
146.205
146.201
146.207
146.2
146.206
146.24
146.202
146.2
2011.16
152.661
155.943
146.2
146.2
146.2
146.2
146.2
146.2
146.2
259.488
146.201
149.865
146.2
146.2
146.2
161.169
219.366
146.2
146.2
146.2
146.213
146.2
146.232
147.489
403.534
146.2
146.227
146.2
146.2
146.2
146.201
146.201
146.2
10856.3
200.033
146.2
146.2
146.2
146.201
146.199
146.2
146.2
146.2
146.2
146.201
146.2
146.2
146.2
146.2
146.201
146.2
146.2
146.2
146.2
146.251
146.259
146.244
146.698
146.2
146.2
145.622
146.2
146.201
146.2
146.2
146.2
146.2
149.738
146.193
146.201
146.2
146.2
146.2
146.2
769.032
740.479
146.2
146.2
146.2
146.201
146.2
146.2
146.365
146.201
146.2
146.2
146.2
146.2
146.208
146.2
146.201
146.342
146.2
146.2
146.2
146.527
146.201
146.2
146.2
146.2
146.827
146.2
146.28
146.202
146.203
146.203
687.162
146.201
146.2
146.22
146.2
146.297
146.212
146.202
146.2
146.2
146.199
146.2
146.201
146.2
146.285
600.787
146.203
146.2
146.2
146.203
146.201
146.201
146.201
146.2
146.201
2455.94
146.205
146.244
146.2
293.919
146.2
146.229
146.225
146.2
146.201
146.214
146.193
146.202
146.229
146.22
146.615
146.2
146.2
146.201
146.2
146.2
4841.77
146.2
146.2
146.2
146.555
146.2
146.2
146.201
146.2
146.211
146.418
146.2
146.201
146.2
146.223
146.2
146.2
146.2
146.201
146.2
146.223
146.21
146.2
146.365
146.2
146.201
146.2
146.201
177.003
146.198
192.867
146.447
449.516
146.205
146.2
146.2
614.383
146.2
146.231
146.232
146.229
146.24
146.229
146.201
146.234
146.234
146.203
146.204
146.2
146.522
146.2
146.2
146.2
146.202
146.201
146.2
146.2
1824.99
146.2
146.2
146.201
146.2
146.201
146.201
146.2
146.206
295.526
146.201
146.234
146.201
146.2
146.2
146.201
1917.07
146.2
146.2
146.214
146.201
146.2
146.2
146.201
146.2
193.071
146.2
422.639
146.2
147.484
185.069
146.2
146.2
146.201
146.2
146.2
146.2
146.201
146.189
146.201
146.188
146.201
146.438
146.2
146.293
146.265
146.2
146.204
146.201
146.201
146.201
146.178
146.2
146.284
146.22
174.183
146.2
146.816
146.209
146.2
146.2
146.2
146.2
146.2
146.2
147.586
146.201
146.201
146.2
146.2
146.201
146.2
146.2
146.355
146.678
146.2
146.2
146.22
146.201
146.2
144.87
146.2
146.204
146.2
146.2
146.2
146.2
4515.87
162.764
146.2
146.218
146.204
146.2
2925.83
149.72
146.2
146.2
146.201
146.212
841.157
146.2
146.2
146.584
146.207
146.266
146.2
146.201
146.295
146.202
146.2
146.304
146.202
146.201
146.203
146.197
146.789
146.2
146.2
351.977
146.202
147.026
146.203
146.908
146.202
146.015
146.41
146.2
145.938
146.303
146.201
146.201
152.619
146.2
146.2
146.2
146.614
146.627
146.2
146.205
146.2
146.209
146.451
148.962
146.2
146.493
146.2
2504.19
146.2
146.2
146.2
146.201
146.2
146.201
146.2
146.201
146.21
147.641
146.21
146.2
146.201
146.2
146.2
146.201
146.201
146.2
158.718
146.205
146.2
146.2
146.2
146.967
146.2
146.2
146.235
146.2
146.2
146.2
146.2
146.313
146.216
146.248
219.989
146.2
146.2
147.64
146.2
146.2
146.2
146.289
146.731
146.214
4423.67
146.2
146.2
3362.6
146.2
146.2
146.2
146.2
146.2
146.2
146.2
146.2
146.2
1806.49
1494.15
146.2
146.207
2991.95
146.2
146.63
146.2
146.2
146.2
146.2
146.2
146.2
146.201
146.2
146.198
7344.95
146.267
146.223
146.2
146.2
146.678
147.417
146.2
146.207
146.2
146.2
146.221
146.299
146.8
146.217
146.2
168.192
146.763
146.906
146.2
146.222
146.229
146.215
146.295
146.202
146.701
146.216
146.201
146.218
146.21
146.222
146.226
146.205
146.221
146.202
146.332
146.801
146.728
146.2
146.201
666.508
146.2
146.2
146.697
146.201
663.706
146.229
146.2
146.2
146.2
146.2
146.232
146.214
146.724
146.208
146.33
146.2
419.816
146.223
146.201
146.2
146.2
146.2
146.2
146.201
146.2
146.202
146.2
146.2
152.296
168.332
146.226
161.001
146.314
3033.36
146.201
146.203
146.2
146.2
146.201
146.2
146.2
146.2
146.226
149.26
146.219
229.722
146.696
146.793
146.2
146.319
146.313
146.201
4934.49
146.201
146.201
146.201
146.652
146.201
146.201
146.2
146.2
146.2
146.2
216.68
146.2
146.338
146.201
1713.77
146.372
146.2
146.201
146.655
147.193
146.329
146.446
146.2
147.022
7078.3
146.2
146.201
146.217
1098.09
146.331
146.2
146.343
148.544
146.301
146.318
146.973
146.214
146.347
146.2
208.095
1328.93
1692.06
6058.32
146.201
146.2
146.22
146.2
6304.74
2875.9
146.209
146.201
146.2
146.207
146.201
146.201
146.2
146.2
146.2
146.2
146.201
146.2
151.36
2927.17
146.205
2816.98
146.2
146.2
749.546
149.746
147.025
227.5
663.092
146.271
255.641
9036.74
292.813
146.2
146.825
146.2
146.2
146.2
200.981
146.2
206.437
167.155
147.966
428.454
146.597
146.2
146.255
146.2
146.201
146.2
146.2
146.2
146.201
461.606
235.099
4104.93
255.134
463.582
6264.56
146.202
146.584
146.201
1155.2
165.78
1411.69
146.2
146.2
146.2
146.2
146.2
146.201
149.001
146.201
146.202
9204.92
146.233
148.672
147.18
146.648
146.469
1349.76
146.2
521.665
146.234
146.2
146.2
146.859
146.456
146.2
146.199
146.199
146.201
146.2
784.329
743.949
691.379
147.182
146.2
3085.58
146.244
146.2
151.603
146.2
146.204
5491.63
146.206
146.206
232.958
146.201
146.2
146.204
146.2
146.201
146.2
146.205
146.2
146.201
146.325
150.71
146.357
146.202
146.201
146.201
146.2
146.2
146.2
146.324
146.426
146.2
146.201
146.28
146.2
146.2
146.2
146.2
146.233
146.777
146.417
146.277
146.624
146.2
146.27
146.2
146.212
146.298
146.2
146.231
146.2
146.2
146.449
146.201
146.2
146.648
146.238
146.551
146.777
146.2
146.219
146.209
146.262
146.201
241.45
146.294
146.476
146.237
699.727
146.2
146.2
146.21
173.58
146.223
147.368
146.209
146.745
146.2
146.2
17889.9
146.368
146.217
146.321
146.219
189.269
146.828
146.2
146.229
146.2
146.464
146.2
146.269
146.443
146.2
146.834
146.2
146.477
146.538
146.2
146.2
146.249
146.2
146.2
146.2
146.2
146.243
146.2
146.556
146.278
146.201
146.2
146.725
146.2
146.198
146.208
146.199
146.199
146.2
146.2
146.261
146.252
146.905
146.2
146.2
146.348
146.2
146.203
568.765
146.2
146.2
146.201
146.201
146.416
146.2
146.2
146.2
146.201
146.201
296.237
1352.88
146.201
146.2
9526.69
146.201
146.616
146.2
146.213
146.2
149.425
146.27
146.2
146.2
146.2
148.488
146.506
146.2
146.211
146.2
146.2
146.298
146.201
146.2
146.201
146.2
146.379
146.2
146.2
146.2
146.2
146.2
146.257
146.223
146.2
146.2
146.444
146.2
146.201
146.2
146.2
146.366
146.83
146.201
146.2
146.2
146.2
146.71
146.2
146.884
146.2
146.748
146.393
146.2
3759.78
146.387
159.433
146.391
146.481
146.2
146.2
146.2
146.208
146.2
160.73
146.617
146.2
146.245
146.2
209.432
146.492
146.371
146.2
158.15
146.213
146.2
146.443
146.2
146.2
146.2
146.754
146.309
146.252
146.2
146.2
146.2
146.766
146.2
146.744
146.2
146.2
146.316
147.408
146.2
146.2
146.282
146.2
146.2
146.2
147.047
159.957
146.219
146.2
146.338
6848.19
146.204
147.155
146.201
1001.85
146.201
146.226
267.562
5552.75
2870.51
1230.83
1215.35
2200.96
146.2
19193.1
146.653
147.417
146.2
275.591
3378.08
146.2
146.231
2270.78
146.2
5100
146.2
146.766
146.291
150.811
146.288
146.29
146.2
146.2
146.2
146.2
836.526
146.2
146.289
146.354
146.201
146.201
146.201
146.2
146.2
146.2
146.201
146.2
146.982
146.2
1105.85
146.201
146.202
146.2
146.399
146.201
146.201
146.201
146.2
146.2
146.203
146.862
146.877
3883.33
146.201
146.201
146.201
146.2
146.203
303.556
146.201
146.2
147.009
159.909
146.902
146.201
146.201
146.201
146.227
205.883
146.201
146.201
146.178
2003.05
146.892
146.209
474.293
146.201
146.204
1142.02
152.95
146.2
146.201
146.202
146.201
146.205
146.201
146.201
146.21
146.201
146.201
146.2
146.119
279.16
146.2
146.201
146.201
146.211
146.2
146.2
146.209
175.023
146.358
146.2
146.2
146.2
146.335
12817.3
146.2
146.229
12920.1
146.2
146.204
146.264
146.239
14376.8
146.201
146.201
146.213
146.2
14616.6
146.202
146.201
146.2
146.198
146.2
146.201
146.2
146.2
146.201
146.201
146.201
146.201
149.485
146.201
148.061
146.232
146.2
146.201
146.224
146.221
146.2
146.208
146.201
146.2
146.205
146.2
146.2
2755.43
146.201
146.2
146.2
146.2
146.175
146.2
777.945
3903.04
146.567
295.07
146.436
851.849
559.476
146.204
146.201
146.536
146.209
146.2
146.358
146.204
146.426
146.2
146.205
146.2
146.22
146.206
146.212
146.207
146.201
146.212
146.224
146.2
1762.76
146.2
146.225
146.212
2296.53
146.216
146.215
146.215
836.247
146.218
146.212
146.2
146.2
3033
146.201
145.883
146.199
146.199
146.215
146.201
146.424
214.019
146.2
146.2
146.201
145.634
146.214
146.2
146.21
146.2
146.2
146.207
146.2
146.203
146.2
146.197
146.2
146.2
146.208
146.2
146.2
146.2
146.352
146.2
146.2
150.925
146.2
147.707
1276.05
146.2
146.2
146.201
146.2
146.2
146.2
146.2
146.2
2727.65
1114
173.378
146.2
146.2
146.2
504.244
151.936
146.2
146.2
147.577
146.2
146.2
2644.49
146.2
146.241
146.307
146.2
146.2
147.986
157.551
146.355
146.2
146.2
146.2
146.2
146.202
146.2
146.2
146.2
146.2
146.29
146.2
146.2
146.2
146.426
146.326
146.193
146.477
146.229
146.2
146.2
146.21
146.201
146.2
238.554
146.202
146.2
146.208
146.501
146.2
146.2
146.462
146.219
146.426
146.2
146.204
146.2
146.2
146.633
146.2
146.616
146.175
146.2
146.551
146.201
146.2
146.203
146.551
146.199
904.478
146.551
146.197
184.371
146.603
146.206
146.184
146.201
146.206
478.164
146.206
262.541
146.201
146.2
146.324
146.201
146.341
146.2
146.2
146.2
146.201
146.2
146.2
146.201
146.201
146.2
146.205
146.201
146.2
150.997
146.2
146.2
146.2
173.388
146.2
146.208
1685.03
146.201
146.2
1477.65
146.23
146.2
146.2
146.2
146.2
146.2
146.2
177.026
146.216
146.217
146.978
146.217
146.2
146.201
146.216
146.2
146.2
146.201
146.219
146.202
146.21
146.2
146.318
147.126
146.217
146.201
1252.05
146.361
146.201
146.218
179.377
151.227
146.23
330.127
146.206
293.87
146.201
455.406
146.238
146.288
156.454
146.223
146.221
146.2
146.202
146.231
146.203
146.202
1869.9
146.695
146.207
146.2
146.331
146.201
146.2
151.999
146.2
146.322
146.2
151.547
1343.9
5741.11
146.2
146.2
146.2
146.36
146.203
148.155
146.2
146.36
146.343
146.224
146.2
1843.37
146.209
146.301
3747.26
146.224
146.2
259.818
146.2
148.959
146.201
146.2
146.2
146.201
146.196
146.2
146.2
2481.2
146.2
146.209
146.2
146.222
146.314
146.201
146.264
146.2
146.2
147.112
146.201
146.2
146.2
146.2
146.2
146.213
146.2
328.385
146.2
146.201
146.213
146.715
146.2
146.213
146.205
146.2
146.198
1243.99
146.2
146.178
146.2
146.2
146.2
146.132
146.2
146.2
146.2
146.2
150.882
4864.57
146.2
148.685
146.2
146.247
146.286
146.2
146.2
146.69
146.2
146.208
146.2
146.208
146.202
146.2
146.2
146.347
146.763
146.2
146.324
146.2
146.201
146.204
146.22
146.2
146.201
146.212
146.201
146.2
146.203
146.204
146.266
146.531
146.201
146.201
146.206
146.272
146.2
146.2
146.2
146.2
146.2
146.2
146.2
146.745
146.207
146.2
146.201
151.019
146.532
146.2
146.265
146.219
146.201
146.303
12964.9
146.201
146.287
146.311
146.2
146.201
146.201
146.236
146.294
146.201
146.201
146.201
146.2
146.203
146.201
146.36
146.206
144.339
146.2
146.2
146.602
146.203
146.201
146.2
146.344
572.142
146.2
146.2
146.201
146.2
146.228
147.044
146.201
146.218
146.205
146.272
146.2
146.2
146.34
146.2
146.2
146.2
146.2
146.2
146.2
146.2
146.201
146.202
146.2
146.2
146.2
146.85
146.223
146.2
146.206
146.2
146.2
146.2
146.74
146.216
146.272
146.2
146.2
146.201
146.201
146.238
146.2
1569.67
146.2
146.2
146.201
146.508
146.603
146.264
146.2
1345.19
1271.28
146.266
894.933
380.665
146.2
146.547
146.232
146.2
146.2
146.2
146.2
146.2
146.2
941.234
146.887
151.466
146.215
204.337
146.2
146.227
146.232
149.741
146.671
246.312
147.404
147.195
2413.9
146.2
146.206
151.368
146.2
146.2
146.616
146.2
146.2
611.923
146.312
146.2
146.2
146.201
146.201
146.2
146.2
146.2
146.201
146.309
146.2
146.2
146.204
165.01
146.233
146.2
146.2
146.2
317.317
146.2
146.201
146.204
146.2
146.201
146.2
146.2
147.029
146.238
146.2
146.2
146.2
146.2
146.2
146.256
146.2
146.201
146.2
146.2
146.213
146.2
146.2
146.2
146.2
146.2
146.2
146.205
146.2
146.2
146.281
146.2
1661.05
146.204
146.2
146.2
146.2
146.2
146.204
146.309
802.894
146.377
1254.7
146.21
146.204
146.254
716.435
1263.45
146.236
146.225
146.2
146.204
146.2
146.2
146.2
146.2
146.202
152.675
146.2
146.26
146.201
146.2
146.206
146.2
146.201
146.2
146.204
146.572
146.208
146.201
146.2
146.2
146.201
146.2
146.201
358.025
146.206
158.492
146.2
146.2
146.201
155.197
158.931
263.17
147.015
321.67
146.201
146.408
146.221
209.468
146.2
146.201
146.2
146.2
146.223
146.367
146.23
146.223
146.371
146.368
146.2
146.378
444.313
146.2
146.2
146.2
160.55
146.348
146.209
146.2
171.622
146.846
146.223
146.368
146.249
1622.56
146.343
146.2
3169.16
146.323
146.218
146.2
146.201
146.226
146.2
146.2
146.373
146.2
146.201
237.41
146.201
146.345
147.587
146.201
146.2
146.224
146.225
146.244
146.229
146.431
146.255
146.201
146.2
146.257
146.208
146.221
146.221
146.205
146.223
272.63
146.358
146.284
146.2
146.201
146.217
146.2
146.365
146.2
146.2
146.2
146.216
146.2
146.216
146.201
146.2
146.225
146.216
146.219
146.346
146.2
167.888
146.307
146.449
146.2
146.239
157.192
146.915
146.287
146.2
146.332
146.2
146.2
146.2
146.2
146.2
146.201
146.2
146.306
146.2
146.2
146.2
146.2
146.2
146.2
146.2
146.237
146.205
146.2
146.2
146.732
146.201
146.314
146.335
146.2
146.574
146.2
146.2
146.2
146.314
146.2
146.2
146.248
146.2
146.2
146.2
146.202
146.2
146.2
146.2
146.201
146.201
146.2
146.201
146.209
146.2
146.2
146.2
146.231
146.2
146.2
146.201
347.421
146.2
146.2
146.2
146.201
146.221
146.201
146.2
146.2
146.201
146.2
146.993
146.2
146.2
146.2
146.2
146.2
146.205
146.2
146.2
146.201
146.218
146.2
146.18
146.2
146.2
146.2
146.2
146.2
146.201
146.2
146.2
146.201
146.2
146.2
146.2
146.77
146.304
146.201
146.2
146.2
146.202
146.2
146.2
146.267
146.214
146.209
146.2
146.2
146.2
146.201
146.779
146.2
146.2
146.837
146.2
146.201
146.2
146.2
146.2
146.2
2586.07
146.2
146.2
146.2
146.797
147.001
147.016
146.202
146.713
344.269
146.201
146.2
146.201
146.862
146.2
146.201
146.2
146.201
879.088
146.2
146.2
146.2
146.205
146.201
146.209
146.225
146.201
146.405
3577.89
146.201
146.201
146.201
146.2
146.201
146.201
146.201
146.2
146.201
986.566
146.225
161.258
1148.65
146.642
146.201
146.201
146.2
146.201
146.203
146.201
146.201
146.201
146.201
704.202
146.201
146.291
146.296
146.2
146.374
146.219
146.229
146.201
146.201
146.214
146.201
146.201
146.2
146.254
146.393
146.474
146.2
146.398
146.2
146.201
146.2
154.988
146.2
147.075
146.228
146.2
146.2
4385.8
146.202
146.2
149.1
146.201
146.2
146.868
146.2
146.2
146.201
146.227
146.201
146.2
146.201
146.2
146.201
146.201
146.395
146.2
146.2
146.201
146.2
146.234
146.2
146.201
146.2
510.561
146.201
146.363
284.074
146.257
146.2
146.869
146.252
146.201
146.201
147.041
146.219
146.2
146.349
303.725
146.2
146.2
146.2
146.386
146.2
146.2
146.2
146.201
1181.3
146.201
2575.87
146.201
146.256
146.201
146.2
146.259
146.201
146.201
146.2
146.2
146.201
238.22
146.277
147.495
146.285
146.226
146.296
146.2
146.2
146.2
146.246
2354.66
146.46
146.201
146.2
1305.81
146.294
146.83
146.682
146.2
147.514
146.846
146.276
146.2
146.709
147.534
148.34
146.306
146.259
146.218
345.901
146.2
146.576
146.2
147.293
146.203
147.017
149.978
146.2
146.201
146.243
186.928
146.201
771.275
146.2
146.201
282.648
146.2
146.2
146.201
146.2
146.207
146.2
23248.9
259.568
146.2
146.2
147.908
146.201
146.377
146.832
529.147
146.201
146.2
146.2
146.331
146.2
146.2
146.074
146.2
146.2
147.911
146.2
146.2
146.594
146.441
146.2
146.2
273.776
146.2
146.201
146.407
146.2
146.2
146.2
146.229
1010.82
146.386
146.2
146.201
146.2
146.251
4251.37
146.206
146.979
146.2
146.2
146.2
146.2
146.2
330.175
146.23
146.2
146.463
146.2
146.2
146.216
146.2
146.201
146.2
146.376
447.991
146.2
146.2
149.852
1037.04
146.2
146.201
228.791
146.201
146.2
146.2
146.2
146.2
146.2
146.2
146.2
146.201
146.2
146.201
2894.86
146.2
146.235
7611.38
146.23
3044.98
146.2
146.21
146.201
146.2
2966.24
146.616
146.477
2951.7
165.69
148.195
146.2
146.208
1102.09
146.355
520.596
146.477
146.201
1277.33
146.2
146.2
146.201
146.219
148.837
146.2
146.763
146.201
146.2
146.2
146.577
146.284
146.2
1110.96
425.21
146.253
481.459
1023.59
146.2
146.201
147.539
146.2
146.201
146.2
146.201
146.201
146.201
146.201
772.9
146.253
151.289
146.244
146.201
146.233
146.2
146.201
146.201
155.436
146.2
146.2
146.2
172.645
146.201
147.126
906.225
203.153
146.217
146.253
146.201
920.584
146.201
146.2
146.206
7481.41
158.737
146.201
146.201
146.2
504.513
146.201
945.608
194.855
2627.59
550.928
146.2
146.2
148.379
146.231
146.201
909.234
146.225
146.215
146.2
968.013
146.201
154.269
146.143
146.2
146.201
146.203
146.2
146.2
146.333
146.514
253.023
146.201
146.058
146.429
1515.38
146.034
146.2
146.2
146.747
148.272
8972.38
570.145
146.19
146.545
146.518
146.2
146.17
146.201
146.2
146.2
146.2
350.074
146.2
146.201
146.201
146.577
146.2
146.2
146.2
146.2
146.386
146.467
146.2
146.586
146.201
143.372
146.2
146.083
146.2
146.593
1682.93
146.2
146.2
146.504
146.201
146.201
146.201
146.2
146.2
510.084
146.201
146.201
146.2
146.2
146.2
349.348
146.2
146.2
146.481
146.2
146.2
146.2
146.2
146.781
146.2
146.211
146.2
146.219
146.2
146.201
146.2
146.2
146.2
146.2
146.2
307.263
146.818
146.2
146.2
146.201
146.2
146.201
146.2
146.201
146.2
146.201
146.201
146.201
146.2
797.758
146.364
146.392
146.201
147.925
146.201
146.201
373.209
146.201
367.575
146.201
146.252
146.201
146.2
146.2
146.2
146.201
146.201
146.238
147.242
146.2
146.2
146.201
146.2
146.201
146.201
146.201
146.201
146.2
2455.06
146.233
2563.71
146.201
146.2
146.245
146.245
1514.19
146.201
146.201
146.201
146.204
146.201
146.214
146.201
146.2
146.238
146.22
148.181
146.235
1379.26
1642.18
146.2
7854.23
146.201
1063.64
146.201
363.341
146.219
343.826
146.468
146.2
146.201
146.201
146.257
147.01
146.2
374.38
146.201
146.501
146.2
146.2
146.2
146.2
433.478
146.2
146.201
146.2
146.2
146.201
146.2
2230.99
407.103
146.219
146.2
146.2
157.959
146.2
146.2
146.252
146.552
146.271
146.2
146.201
146.48
146.26
146.2
146.201
146.297
965.311
146.289
146.201
1086.61
146.202
146.2
146.201
146.2
146.2
146.201
146.2
146.2
146.2
146.2
146.201
146.201
146.2
146.2
146.201
146.2
146.2
146.2
146.2
146.2
146.2
146.2
146.2
146.255
217.22
148.492
146.2
146.201
146.2
146.2
146.214
146.2
146.201
146.201
146.2
146.2
146.2
146.2
146.2
146.2
146.2
146.2
146.201
2314.32
146.201
3057.86
3095.44
146.232
146.2
146.201
1614.36
146.201
146.201
146.201
146.2
146.2
146.201
146.2
146.2
146.201
146.2
146.362
146.313
146.201
146.2
146.201
146.2
146.2
146.2
146.201
146.2
146.237
4343.11
146.2
4025.98
146.2
146.2
2817.8
2739.32
146.2
146.213
146.237
146.2
146.2
146.2
146.2
146.2
3472.99
146.201
3362.03
146.201
146.2
146.201
158.013
157.148
149.634
146.2
146.201
146.2
146.2
146.2
146.2
146.2
146.2
146.2
146.201
147.248
146.201
146.2
146.2
146.201
146.201
146.2
146.2
146.217
3894.49
146.215
146.2
146.201
146.2
146.201
146.2
146.2
146.201
146.2
4076.3
146.201
146.2
146.2
146.406
146.201
146.21
146.2
146.2
221.543
146.2
226.982
146.782
146.2
146.201
146.2
149.972
146.2
146.201
146.201
146.201
146.2
148.248
146.201
146.2
146.2
146.29
3619.08
166.699
146.201
146.201
146.279
146.201
146.201
146.2
146.2
146.201
146.2
3344.61
146.742
2326.43
146.268
146.285
146.201
146.201
146.201
146.322
146.234
146.201
146.767
146.2
6930.85
146.201
146.202
146.201
146.201
146.235
146.201
146.201
146.201
146.2
146.201
146.201
148.139
6749.04
146.201
146.201
5354.45
146.2
146.2
146.201
146.201
146.201
146.201
146.201
146.201
146.2
146.2
146.2
146.201
146.2
146.201
146.2
146.201
146.201
146.2
146.201
146.2
146.21
5079.22
146.201
5353.41
146.246
146.201
146.2
146.201
149.239
146.201
146.235
5204.52
146.2
3074.46
146.2
146.201
146.2
146.201
146.2
146.2
146.206
146.207
146.2
146.2
146.201
146.202
146.208
146.2
146.207
146.201
146.204
146.976
146.201
146.201
146.201
146.201
146.208
146.201
146.202
146.201
146.251
146.2
146.201
146.2
146.201
146.2
146.206
146.224
146.2
146.201
146.201
146.201
7170.36
146.201
146.201
146.884
146.201
146.201
146.201
146.201
146.2
146.2
146.2
5150.3
5674.2
1350.93
3694.24
4519.84
1500.57
6671.01
146.201
146.2
146.201
146.201
146.201
146.889
146.201
1724.99
146.209
146.201
146.2
4467.18
6762.78
146.201
146.201
5980.78
146.78
146.813
146.2
146.2
146.277
146.201
146.2
146.74
146.2
146.201
146.2
146.2
146.201
146.2
146.2
146.201
146.229
204.767
146.206
146.218
146.2
146.226
776.952
237.957
146.201
146.201
146.201
659.84
146.497
146.201
7396.22
3068.13
146.2
2290.11
1878.09
146.2
146.201
146.2
146.201
1302.19
146.2
146.201
146.201
146.201
146.201
146.2
146.95
146.201
146.2
146.201
226.266
146.201
4145.7
146.2
146.201
146.2
146.202
146.201
146.201
146.2
146.2
146.201
156.618
146.202
146.207
3951.41
146.201
146.2
146.2
146.21
146.201
146.201
146.205
146.21
146.201
146.2
146.201
146.204
146.2
146.201
146.201
146.201
146.2
2351.9
146.2
211.964
146.2
1471.78
146.884
145.973
146.201
146.2
146.201
146.2
145.91
146.201
1359
146.2
146.2
146.208
146.201
146.201
146.234
146.327
146.2
146.2
161.855
257.005
146.2
146.2
146.211
146.2
146.204
146.2
146.2
146.2
146.201
146.2
146.2
146.198
146.2
146.2
146.2
146.201
146.252
146.2
146.2
146.199
146.179
146.2
177.978
146.273
146.2
146.2
146.297
146.2
146.2
146.251
146.2
146.2
146.2
146.2
146.405
146.2
146.272
146.201
146.201
146.2
146.252
146.2
146.2
146.201
146.2
146.2
146.273
146.2
146.2
146.2
146.201
146.202
146.2
146.389
146.2
146.2
146.2
146.204
146.201
146.2
146.201
146.2
146.2
146.2
146.2
146.203
146.2
146.2
146.2
146.2
146.2
146.2
146.2
146.2
146.2
146.2
146.659
146.201
146.201
146.2
146.203
146.2
146.2
146.201
146.2
146.211
146.2
146.249
146.2
146.2
146.185
146.201
146.201
146.199
146.2
146.2
146.219
146.9
146.201
146.2
146.2
146.2
146.2
146.2
146.2
146.2
146.2
146.2
146.2
146.201
146.392
146.271
146.2
146.2
146.2
146.2
146.2
146.512
153.979
146.2
146.2
146.2
146.2
146.2
146.201
146.2
146.2
146.2
146.2
146.2
146.2
146.2
146.2
146.202
146.202
146.256
146.2
146.2
146.2
146.2
276.95
146.203
146.2
146.2
157.634
146.2
146.2
146.2
146.2
146.201
146.2
146.2
1336.17
146.207
146.2
146.346
146.2
146.2
146.244
146.2
146.2
146.2
146.2
146.2
146.236
146.201
146.2
146.2