/*--------------------------------*- C++ -*----------------------------------*\
| =========                 |                                                 |
| \\      /  F ield         | OpenFOAM: The Open Source CFD Toolbox           |
|  \\    /   O peration     | Version:  v2012                                 |
|   \\  /    A nd           | Website:  www.openfoam.com                      |
|    \\/     M anipulation  |                                                 |
\*---------------------------------------------------------------------------*/
FoamFile
{
    version     2.0;
    format      ascii;
    class       volScalarField;
    location    "2.5";
    object      ILambda_0_0;
}
// * * * * * * * * * * * * * * * * * * * * * * * * * * * * * * * * * * * * * //

dimensions      [1 0 -3 0 0 0 0];


internalField   nonuniform List<scalar> 
108993
(
146.2
146.2
146.2
146.201
146.2
146.2
146.189
146.2
146.2
146.2
146.2
146.2
146.201
146.2
146.2
146.2
146.201
146.2
146.201
146.201
146.2
146.201
146.201
146.2
146.201
146.2
146.201
146.201
146.201
146.201
146.2
146.2
146.201
146.2
146.201
146.2
146.2
146.2
560.518
159.512
146.201
146.2
146.2
146.201
146.289
151.411
146.201
146.177
146.2
146.201
146.2
147.027
146.2
146.2
146.2
146.2
146.2
146.2
146.2
146.201
146.201
146.201
146.201
146.2
146.201
146.2
146.2
146.201
146.2
145.614
146.2
146.201
146.2
146.201
146.2
146.2
146.2
146.2
146.2
146.201
146.2
146.2
146.2
146.2
146.2
146.2
146.2
146.2
146.2
146.2
146.2
146.2
146.2
146.2
146.2
146.2
146.2
146.2
146.2
146.2
146.201
146.201
146.2
146.2
146.2
146.2
146.201
146.201
146.2
147.018
146.358
146.2
146.559
146.687
146.2
146.317
146.2
146.2
146.201
146.2
146.2
146.201
146.209
146.2
146.2
146.203
146.201
146.2
146.201
146.201
146.2
146.201
146.2
146.684
146.2
146.2
146.201
146.2
146.201
146.2
146.2
146.2
146.217
146.201
146.201
146.2
146.2
146.467
146.2
146.731
146.771
146.2
146.2
146.753
146.2
146.211
146.2
146.201
146.201
178.084
146.768
146.201
146.2
146.2
146.2
146.475
146.2
146.2
146.2
146.2
146.201
146.2
147.187
146.2
146.201
146.2
146.229
146.2
146.2
146.2
146.2
146.2
146.201
146.2
146.2
146.2
146.201
146.2
146.2
146.2
146.2
146.201
146.2
146.201
146.2
146.2
146.201
146.2
146.2
146.2
146.2
146.21
146.2
146.201
145.803
146.419
146.2
146.222
146.2
147.314
193.524
146.2
146.226
146.22
453.399
146.2
146.2
146.2
146.201
146.2
146.201
146.665
146.2
146.201
146.201
146.2
146.201
146.2
156.929
146.2
2891.43
146.2
146.2
146.201
146.2
146.2
146.201
146.201
684.858
146.201
146.2
146.2
146.2
146.201
146.201
146.2
146.226
146.216
146.201
146.2
146.2
146.201
146.2
146.2
146.201
146.201
146.201
146.2
146.2
146.2
146.2
146.2
146.202
146.208
146.201
146.2
146.2
146.2
146.2
146.2
146.2
146.2
146.214
156.817
146.265
146.2
146.2
146.206
146.2
146.2
146.2
161.327
170.364
146.2
146.201
146.201
146.201
146.2
146.2
146.691
146.2
146.2
146.2
146.2
146.2
146.2
146.2
146.2
146.201
146.2
146.241
146.63
146.2
146.2
146.2
146.199
146.201
146.2
146.199
146.212
146.2
146.201
146.202
146.2
146.199
146.446
146.2
146.201
154.6
146.2
146.2
146.2
146.201
146.201
146.2
148.855
214.486
146.422
146.2
146.2
146.201
146.275
147.287
146.2
146.787
146.2
146.2
146.201
146.2
146.201
146.2
146.264
146.201
146.2
146.2
146.2
146.2
146.201
146.2
146.2
146.2
146.2
150.104
146.224
146.201
146.2
146.2
146.368
146.2
146.2
146.2
146.201
146.2
146.2
146.2
146.201
146.2
146.201
146.2
540.635
146.2
146.2
146.2
147.04
146.201
146.619
146.2
146.2
146.527
146.2
146.477
146.527
146.201
146.2
146.2
146.202
146.2
3589.05
146.2
146.227
146.55
146.202
146.549
146.2
146.226
146.201
162.191
146.2
146.227
146.2
146.201
146.206
146.209
146.2
146.201
146.202
146.201
146.2
146.2
176.415
146.2
146.201
1278.8
146.2
146.2
146.2
146.634
146.104
146.237
146.2
169.847
146.2
146.887
146.2
146.2
147.625
146.2
146.23
148.605
146.2
161.368
203.071
161.697
146.201
146.2
146.2
146.201
146.2
146.2
146.2
146.2
146.2
146.2
146.201
522.469
146.2
146.2
146.939
146.2
146.201
146.2
146.2
146.2
146.2
146.2
146.2
146.2
146.201
146.2
146.2
146.206
146.2
146.206
146.526
146.197
146.2
146.2
146.206
146.2
146.2
146.194
146.201
146.2
146.2
146.201
146.217
146.2
165.885
146.325
146.202
146.2
146.2
146.2
146.2
146.2
146.2
146.2
146.2
146.782
146.2
146.2
146.2
146.243
146.2
146.226
146.201
146.2
146.2
146.2
146.2
146.201
146.2
146.2
146.2
146.268
146.457
146.2
146.2
6484.21
146.2
146.2
146.2
146.2
146.2
146.2
146.201
146.2
146.2
146.2
146.2
146.201
146.201
146.2
146.201
146.2
146.266
146.201
146.2
146.33
146.201
146.201
146.2
146.249
146.2
146.2
146.2
146.282
146.2
146.2
146.22
146.201
146.239
146.2
146.201
146.2
146.2
146.201
146.285
146.2
146.2
146.224
146.201
162.003
146.2
146.2
146.201
146.2
146.201
149.472
146.2
146.2
146.2
146.2
146.201
319.668
146.249
146.2
146.2
146.201
146.201
146.2
146.2
4935.08
334.856
146.254
146.201
146.2
332.464
149.748
146.192
146.2
146.2
146.2
146.201
146.2
146.338
152.322
406.427
146.2
146.2
146.201
146.2
146.2
146.2
153.051
146.201
146.2
146.2
146.2
146.204
146.2
146.2
122.755
146.202
146.2
146.2
162.65
146.2
146.201
146.2
150.206
146.2
146.549
146.2
146.2
146.2
146.2
146.2
146.227
146.2
146.774
146.2
146.2
146.267
146.2
146.201
146.2
146.222
1128.13
146.2
146.447
146.2
146.236
147.285
146.2
146.2
146.2
699.035
146.225
146.817
146.2
146.809
146.2
146.2
146.2
146.2
146.2
147.038
146.3
146.2
146.2
146.229
146.228
4074.24
146.08
146.2
146.223
4787.49
190.491
4793.18
4400.68
146.2
146.2
146.2
146.2
146.201
146.187
146.202
146.222
146.256
146.203
146.198
146.496
3888.08
4094.47
146.201
146.2
146.197
146.2
146.412
146.2
1194.86
146.195
146.2
146.638
146.201
569.041
146.195
146.197
150.023
146.201
146.2
146.625
146.2
146.201
666.906
146.2
146.414
146.201
3415.77
146.357
146.2
146.2
146.2
146.203
146.2
146.263
146.201
146.2
146.2
146.201
146.228
5193.94
146.2
1749.34
146.2
146.7
146.204
146.2
146.687
146.2
146.2
146.246
146.2
146.2
146.2
146.204
146.376
146.244
146.2
146.828
146.2
146.2
146.2
146.2
146.2
365.365
146.2
146.2
146.194
146.2
146.2
562.557
146.514
146.2
146.201
146.2
146.2
146.2
146.201
146.2
146.2
146.2
146.2
146.2
146.201
146.2
146.2
146.205
146.2
146.2
146.2
146.2
146.2
146.197
146.201
146.199
146.224
146.2
146.2
146.2
166.049
146.2
146.235
146.33
146.2
146.2
155.907
146.22
146.2
146.2
146.219
146.2
146.2
146.201
146.201
146.201
146.2
146.2
146.198
146.2
149.11
146.2
146.2
169.293
146.201
146.331
146.203
146.864
146.201
146.201
146.207
146.201
146.2
146.202
146.2
146.2
146.2
146.2
146.2
146.2
146.201
146.2
146.191
146.2
192.73
146.199
146.2
4451.55
146.2
1077.21
146.2
146.2
146.2
5770.19
146.2
146.199
146.2
146.823
146.199
146.004
146.213
146.2
146.2
146.408
146.199
146.2
146.201
490.88
146.2
146.2
146.2
146.039
146.2
146.199
146.199
146.2
146.2
150.649
146.2
354.68
146.2
207.666
146.2
146.201
146.205
146.201
146.232
146.2
146.206
146.208
165.598
146.201
3500.6
146.201
146.201
146.2
146.209
146.201
146.201
146.201
146.2
146.213
3756.11
146.2
146.201
146.357
146.954
146.201
146.251
7189.41
3032.32
146.202
146.755
146.201
147.252
146.2
147.384
148.218
305.313
146.201
146.2
146.201
146.204
146.351
146.201
146.2
146.285
146.362
146.2
150.401
146.2
146.2
147.269
146.201
146.2
276.634
363.853
146.2
146.197
146.2
146.2
146.202
146.485
169.99
146.2
167.858
146.201
146.203
146.2
146.2
146.201
146.204
146.201
146.201
146.2
146.2
146.5
146.201
146.2
146.231
146.2
146.551
146.315
146.201
146.203
146.201
146.472
146.2
2596.76
146.198
146.2
146.201
146.384
146.554
146.2
146.201
156.884
146.701
146.3
146.2
146.202
146.256
146.588
146.2
146.202
146.528
146.203
146.201
146.202
146.2
146.502
146.316
146.604
146.209
146.203
146.201
146.204
146.2
146.201
146.207
146.424
146.201
146.2
146.201
146.208
146.2
146.2
146.2
146.208
146.2
146.2
146.2
146.201
146.2
146.2
146.2
147
146.2
146.2
146.2
146.201
147.896
146.2
146.2
146.201
146.2
146.201
722.475
145.242
146.201
146.2
146.201
146.516
146.477
146.285
146.201
146.2
146.219
146.2
146.203
146.258
359.465
146.2
146.2
146.2
146.2
146.2
146.2
146.2
146.2
146.2
146.2
146.213
146.2
146.201
146.201
146.2
146.201
148.691
146.202
146.203
146.2
146.2
146.201
146.216
146.2
146.2
146.2
382.131
146.2
146.202
146.2
146.201
146.2
146.201
162.718
146.375
146.206
146.201
164.405
146.203
146.205
146.201
149.589
146.2
146.2
146.2
147.035
146.2
3391.75
146.22
146.201
146.2
146.201
146.201
146.2
146.202
146.58
146.201
146.2
146.401
147.034
147.291
146.2
146.2
146.2
146.2
146.2
146.201
146.2
161.876
146.2
3660.29
146.2
146.2
146.2
146.708
147.117
146.2
146.2
146.2
146.201
146.2
146.201
147.116
146.231
146.2
146.219
146.2
146.2
146.2
146.201
146.201
146.201
9896.57
146.259
146.201
146.2
146.2
146.2
146.2
146.2
146.2
146.2
146.2
146.2
146.2
146.2
146.2
146.2
146.201
146.2
146.2
146.2
146.2
232.586
146.724
146.603
147.033
146.2
146.2
146.2
146.201
146.2
146.2
146.201
146.2
146.2
147.04
146.2
146.201
146.201
146.201
146.2
146.2
155.416
183.317
146.2
146.2
146.2
146.201
146.2
146.2
146.332
146.2
146.2
146.2
146.201
146.2
146.192
146.2
146.2
146.345
146.2
146.2
146.2
146.587
146.201
146.2
146.2
146.2
146.779
146.2
147.133
146.202
146.203
146.202
153.025
146.206
146.2
146.205
146.201
146.164
146.204
146.202
146.2
146.2
146.2
146.2
146.2
146.2
146.401
1352.31
146.203
146.2
146.2
146.203
146.201
146.2
146.201
146.201
146.201
293.096
146.187
146.214
146.2
146.27
146.2
145.898
146.234
146.2
146.201
146.21
146.2
419.342
146.201
145.961
147.51
146.2
146.2
146.201
146.201
146.2
2504.64
146.2
146.2
146.2
146.499
146.2
146.2
146.2
146.2
146.246
146.229
146.2
146.201
146.2
146.019
146.2
146.2
146.201
146.201
146.2
146.349
146.203
146.2
146.225
146.2
146.201
146.2
146.203
147.555
146.2
146.411
146.421
149.139
145.705
146.2
146.2
146.231
146.2
146.22
146.223
146.221
146.242
146.222
146.201
146.221
146.22
146.201
146.201
146.2
146.411
146.2
146.2
146.2
146.201
146.201
146.2
146.2
146.328
146.201
146.2
146.201
146.2
146.201
146.201
146.2
146.236
148.822
146.201
356.37
146.2
146.201
146.197
146.2
146.239
146.2
146.2
146.261
146.201
146.2
146.2
146.201
146.2
146.64
146.2
146.228
146.2
146.205
146.414
146.2
146.2
146.201
146.2
146.2
146.2
146.2
146.2
146.201
146.202
146.201
146.41
146.2
146.281
146.212
146.201
146.207
146.2
146.201
146.201
146.2
146.2
146.222
146.21
152.592
146.2
200.134
146.261
146.2
146.2
146.2
146.2
146.2
146.201
146.659
146.201
146.2
146.2
146.2
146.201
146.2
146.2
2830.52
451.317
146.2
146.2
146.291
146.201
146.2
146.201
146.2
146.217
146.2
146.2
146.2
146.2
5768.1
146.206
146.2
146.336
147.085
146.2
146.288
147.605
146.2
146.2
146.2
146.252
146.229
146.2
146.2
146.772
146.228
146.212
146.2
146.2
146.413
146.2
146.2
146.214
146.2
146.2
146.2
146.2
149.469
146.2
146.2
149.382
146.2
147.225
146.2
146.267
146.2
146.204
146.231
146.2
146.204
167.329
146.201
146.201
146.921
146.2
146.2
146.2
146.809
146.71
146.2
146.207
146.201
212.562
146.725
146.576
146.199
773.226
146.2
646.999
146.2
146.2
146.201
146.2
146.2
146.2
146.2
146.201
146.207
147.548
146.222
147.381
146.201
146.2
146.2
146.201
146.201
146.2
1240.11
170.055
146.2
146.2
146.2
146.936
146.2
146.2
146.533
146.2
146.2
146.2
146.2
835.309
146.241
146.209
148.34
146.2
146.2
147.375
146.2
146.2
146.2
146.274
146.269
425.634
3005.46
146.201
146.2
13888.7
146.201
146.2
146.2
146.2
146.2
146.201
146.2
146.2
146.2
2135.71
146.207
146.2
146.233
146.329
146.2
147.121
146.2
146.2
146.201
146.2
146.201
146.2
146.201
146.201
146.203
467.583
146.528
146.231
146.2
146.2
226.084
147.547
146.2
146.208
146.2
146.2
335.424
146.232
162.82
146.209
146.2
184.767
277.775
146.368
146.2
146.208
328.651
252.027
146.231
146.203
169.651
238.856
146.201
232.323
146.207
305.896
145.916
215.36
145.926
146.201
146.222
216.242
174.677
146.2
146.2
1034.09
146.2
146.2
146.921
146.201
211.428
145.892
146.2
146.2
146.2
146.2
145.974
146.228
146.26
146.204
146.358
146.2
147.007
145.93
146.203
146.2
146.201
146.2
146.2
146.201
146.2
146.238
146.2
146.2
146.201
146.818
145.965
164.147
200.546
146.27
146.201
154.733
146.2
146.2
146.2
146.2
146.2
146.2
146.206
146.444
146.438
157.33
2146.48
146.168
146.2
805.607
146.397
146.202
1448.17
146.201
146.201
146.201
146.525
146.201
242.046
146.2
146.2
146.2
146.201
147.289
146.201
860.328
146.201
237.74
146.501
146.2
146.201
176.539
146.519
146.224
146.344
146.2
146.799
7841.6
146.201
146.201
146.223
146.239
1007.49
146.2
1025.75
146.853
146.275
783.754
152.13
146.21
1035.78
146.2
466.902
4892.2
146.207
5295.78
146.2
146.2
172.088
146.2
5074.81
146.28
146.203
146.201
146.2
181.877
146.2
146.201
146.201
146.2
146.2
146.2
146.2
146.2
10010.3
247.821
146.201
1694.67
146.2
146.2
146.218
146.545
146.308
146.203
146.201
146.343
147.747
5287
146.816
146.2
169.556
146.2
146.2
146.2
71.2235
146.2
189.922
146.204
146.927
147.029
7219.21
146.2
677.109
146.2
146.201
146.2
146.2
146.2
146.2
146.213
146.598
307.754
449.137
146.21
7775.16
146.205
146.229
146.2
170.958
147.552
262.32
146.2
146.2
146.2
146.201
146.2
146.201
146.433
148.005
146.205
4587.33
735.252
146.388
242.338
5834.58
447.975
2024.93
146.2
146.995
146.219
146.2
146.2
146.481
146.229
146.2
146.2
146.2
146.203
146.2
152.323
148.318
155.972
146.547
146.2
1945.48
146.596
146.2
146.272
146.2
146.2
525.64
146.201
146.2
673.613
146.203
146.2
146.201
146.2
146.201
146.2
146.212
146.2
146.2
146.488
146.36
146.228
146.204
146.201
146.2
146.2
146.2
146.2
146.243
146.883
146.2
146.2
232.771
146.2
146.201
146.2
146.2
148.664
146.666
8195.06
146.291
146.637
146.201
146.225
146.2
146.209
146.335
146.201
146.256
146.2
146.2
146.477
146.201
146.2
146.55
146.287
146.509
146.608
146.2
146.217
146.212
146.219
146.201
146.709
146.251
146.532
146.217
1474.77
146.2
146.2
146.211
147.135
146.218
146.471
146.255
146.615
146.2
146.201
15212.8
146.276
146.215
146.347
146.206
146.916
185.773
146.2
146.216
146.2
146.345
146.2
146.236
146.386
146.2
146.276
146.2
146.477
146.498
146.2
146.2
146.284
146.2
146.2
146.2
146.2
146.247
146.2
146.506
168.583
146.2
146.201
149.172
146.201
146.2
146.208
146.2
146.2
146.2
146.2
593.441
614.638
148.531
146.2
146.2
146.223
146.2
282.249
372.259
146.2
146.2
146.201
146.2
146.229
146.2
146.2
146.2
146.201
146.201
255.752
1082.39
146.204
146.2
4059.46
146.201
146.827
146.2
146.215
146.2
146.35
146.222
146.2
146.2
146.2
146.777
146.267
146.2
146.205
146.2
146.2
146.205
146.203
146.2
146.201
146.2
146.256
146.2
146.2
146.2
146.2
146.2
146.234
510.511
146.2
146.2
146.231
146.2
154.42
146.2
146.2
3655.81
147.071
146.354
146.2
146.2
146.182
146.364
146.2
147.152
146.2
151.686
146.306
146.2
1453.5
146.286
6152.03
8357.83
146.232
146.2
146.2
146.2
146.17
146.2
146.833
152.459
146.2
145.933
146.2
146.225
146.263
146.225
146.2
146.783
439.121
146.2
6220.72
146.2
146.201
146.2
146.595
146.23
146.21
146.2
146.2
146.2
161.972
146.2
156.157
146.2
146.2
7564.87
147.355
146.2
146.2
243.536
146.2
146.2
146.2
147.176
146.967
146.364
146.2
594.096
4819.31
154.758
147.285
146.203
165.931
146.201
266.582
6203.78
3747.09
233.576
170.452
149.638
525.367
146.2
17049.2
146.252
147.394
146.2
174.535
3313.88
146.2
146.217
230.774
146.201
1039.44
146.2
148.389
146.226
146.582
146.241
146.417
146.201
146.2
146.2
146.2
872.928
146.2
146.229
1341.41
146.201
146.201
146.201
146.2
146.2
146.2
146.2
146.2
146.998
146.2
4296.2
146.201
146.219
146.2
146.201
154.831
146.201
146.201
146.2
146.2
146.201
659.918
510.146
677.497
146.204
146.2
146.2
146.2
146.201
146.208
146.2
146.2
146.827
146.505
305.751
146.2
146.2
146.201
146.421
146.253
146.201
146.079
146.202
146.318
307.141
146.175
148.273
146.201
146.2
147.668
147.825
146.2
146.211
146.214
146.201
146.252
146.202
146.2
146.215
146.2
146.201
146.2
146.202
147.212
146.2
164.593
146.201
146.214
146.2
146.2
146.218
166.045
147.512
146.201
146.2
146.2
4827.11
219.712
146.2
271.189
206.879
146.2
146.203
145.629
146.095
219.161
146.201
146.202
145.914
146.2
208.504
146.201
146.201
146.2
146.2
146.2
146.201
146.2
146.2
146.201
146.928
146.201
146.201
146.286
146.201
146.202
146.24
146.2
146.201
146.248
146.231
146.2
146.211
146.201
146.2
146.126
146.2
146.2
146.243
146.201
146.2
146.2
146.2
146.2
146.2
146.294
146.234
151.725
147.108
147.038
146.289
150.764
146.21
146.201
147.224
146.208
146.2
146.458
146.207
146.468
146.2
146.205
146.2
247.945
146.208
159.474
146.208
146.201
158.936
146.22
146.2
146.223
146.2
146.197
153.217
146.286
146.216
150.06
146.206
146.203
146.209
156.844
146.2
146.201
150.792
146.202
146.2
146.2
146.2
150.313
146.2
146.203
146.226
146.201
146.201
146.201
146.2
218.651
146.2
146.202
146.2
146.2
146.072
146.2
146.264
146.2
146.2
146.2
146.2
146.203
146.2
146.2
146.2
146.204
146.2
146.2
146.538
146.2
146.202
476.839
146.2
146.198
146.2
146.2
146.2
146.2
146.201
146.2
146.324
146.202
146.203
146.2
146.2
146.201
146.212
150.794
146.2
146.2
165.117
146.2
146.2
146.348
146.2
146.17
176.618
146.2
146.2
148.493
1339.85
4885.61
146.2
146.201
146.201
146.2
146.256
146.201
146.201
146.2
146.2
146.293
146.2
146.2
146.2
3393.31
339.604
146.207
3546.28
157.751
146.2
146.2
146.201
146.201
146.201
147.186
146.23
146.2
212.654
3635.91
146.2
146.2
3151.45
146.496
2867.75
146.2
146.202
146.2
146.201
148.705
146.2
151.791
146.201
146.2
155.505
146.2
146.2
146.251
155.551
146.2
146.202
152.963
146.2
146.2
155.565
146.207
146.2
146.201
146.207
147.033
146.206
4214.41
146.2
146.2
146.362
146.201
146.335
146.393
146.2
146.2
146.2
146.885
146.2
146.201
146.201
146.201
146.199
146.201
146.857
351.246
146.2
146.201
148.565
972.258
146.2
146.258
10371.4
146.2
146.314
146.274
146.726
146.2
147.662
146.2
146.2
146.2
146.2
826.612
146.198
146.198
163.357
186.322
146.2
146.201
146.197
146.2
146.2
146.2
144.58
146.2
145.911
146.2
146.677
155.845
146.194
146.201
926.685
1288.04
146.201
146.2
146.934
146.417
170.747
146.324
330.003
146.201
151.586
1203.83
207.928
145.617
146.2
195.513
990.714
146.2
146.211
208.253
146.201
146.204
146.318
1257.74
146.238
146.2
162.114
146.201
146.2
213.996
146.2
172.803
146.2
147.206
608.49
5485.47
146.2
146.2
146.2
156.539
146.202
146.992
146.2
160.724
173.952
146.39
146.2
158.484
366.811
367.792
1497.82
1634.1
146.2
146.203
146.2
146.201
146.201
146.2
146.2
146.2
146.2
146.2
146.2
3140.25
146.2
146.201
146.2
146.36
146.478
146.201
878.339
146.2
146.2
146.203
146.2
146.2
146.2
146.2
146.2
146.202
146.2
392.397
146.2
146.22
150.268
150.651
146.2
146.177
146.206
146.2
146.2
1535.18
146.2
146.2
146.2
146.2
146.2
146.203
146.2
146.2
146.2
146.2
146.612
590.497
146.2
149.889
146.2
146.53
146.489
146.2
146.201
146.396
146.2
146.19
146.201
146.173
146.198
146.201
146.2
149.631
147.962
146.2
260.381
146.2
146.201
146.194
146.192
146.2
146.2
146.21
146.2
146.2
165.164
146.194
641.86
146.268
146.201
146.201
146.19
2787.94
146.2
146.2
146.2
146.2
146.2
146.2
146.2
155.167
146.19
146.2
146.153
154.689
154.243
146.2
744.871
525.378
146.201
898.704
20106.5
146.201
158.559
146.385
146.2
146.2
146.201
147.555
936.924
146.203
146.203
146.201
146.2
146.205
146.301
186.75
147.127
146.2
146.2
146.2
147.21
146.204
146.201
146.2
146.428
1065.93
146.2
146.195
146.201
146.2
360.125
155.273
146.201
146.168
146.198
249.054
146.2
146.2
2159.89
146.201
146.201
146.2
146.201
146.2
146.2
146.2
146.201
146.2
146.201
146.2
146.2
146.519
146.209
146.2
146.164
146.2
146.2
146.201
146.541
146.213
148.4
146.2
146.2
146.201
146.201
146.225
146.2
327.909
146.2
146.2
146.196
179.265
186.619
147.066
146.2
192.818
188.687
403.1
167.003
155.891
146.192
146.239
146.225
146.2
146.2
146.2
146.2
146.2
146.2
3329.87
146.691
146.471
146.21
146.517
146.2
146.007
146.069
146.44
146.995
160.653
148.359
146.401
194.05
146.2
263.252
146.518
146.2
146.2
159.189
146.2
146.2
280.092
3554.72
146.2
146.2
146.201
146.201
146.2
146.2
146.2
188.989
1579.81
146.2
146.2
146.201
148.358
710.262
146.2
146.2
146.2
146.973
146.2
146.2
146.222
146.2
146.2
146.2
146.2
146.304
145.132
146.2
146.2
146.2
146.2
146.198
145.066
146.2
146.203
146.201
146.2
146.232
146.2
146.2
146.2
146.2
146.2
146.2
146.201
146.2
146.2
146.265
146.2
166.221
146.2
146.2
146.2
146.2
146.2
146.201
754.825
147.725
146.225
187.981
146.181
216.115
190.656
147.732
166.327
228.997
146.214
146.2
146.201
146.201
146.2
146.201
146.2
146.206
149.187
146.201
965.494
146.201
146.2
146.201
146.201
146.202
146.2
146.107
151.827
219.945
146.2
146.201
146.2
150.174
146.2
146.201
896.016
146.201
377.248
146.2
146.2
146.201
337.665
1089.62
676.852
186.338
1957.1
332.85
3686.79
146.215
376.478
146.2
146.201
146.2
146.2
263.297
146.486
168.167
343.738
146.484
146.515
146.2
146.491
149.063
146.2
146.2
146.201
147.449
146.289
146.227
146.201
147.538
146.285
147.33
170.457
146.297
148.232
5760.31
146.2
148.068
5176.74
151.624
146.2
146.2
146.517
146.2
146.2
5699.34
146.2
146.201
147.265
146.201
5240.09
146.708
146.201
146.172
146.256
146.254
145.307
146.257
146.642
146.264
146.2
146.2
146.263
146.208
146.247
146.247
146.203
146.431
146.346
1170.44
220.722
146.2
146.201
146.222
146.2
155.172
146.2
146.2
146.201
146.222
146.201
144.095
146.201
146.2
146.383
146.214
146.214
168.466
146.201
147.218
157.972
226.599
146.201
146.224
732.332
146.453
155.748
146.2
146.245
146.2
146.2
146.2
146.2
146.2
146.201
146.2
163.756
146.2
146.192
146.201
146.201
146.2
146.2
146.2
161.794
540.299
146.2
146.201
146.284
146.201
156.537
146.203
146.201
146.239
146.2
146.201
146.2
152.631
146.2
146.201
146.182
146.199
146.2
146.201
145.991
146.2
146.2
146.201
146.2
146.2
146.2
146.2
146.205
146.2
146.191
146.201
146.218
146.201
146.2
146.201
147.196
146.2
146.2
146.2
146.201
146.331
146.2
146.201
146.2
146.2
146.201
147.132
146.201
146.201
146.2
146.2
146.2
764.882
146.2
146.2
146.201
146.202
146.2
146.201
146.2
146.2
146.2
146.2
146.2
194.888
146.2
146.2
146.2
146.2
146.2
146.2
146.777
146.201
146.2
146.2
146.2
152.056
146.2
146.214
750.979
146.197
146.279
146.2
146.2
146.201
146.201
146.657
146.2
146.2
146.658
146.2
146.201
146.2
146.2
146.2
146.2
3016.89
146.2
146.2
146.2
146.694
146.9
146.871
146.216
146.32
1436.39
146.201
146.2
146.2
146.753
146.2
146.201
146.2
146.201
614.513
146.2
146.2
146.2
146.229
146.201
164.961
146.228
146.201
146.561
487.756
146.201
150.023
146.201
146.2
146.201
146.201
146.2
146.2
146.201
170.324
226.396
204.584
155.398
146.434
146.174
146.201
146.2
146.201
146.211
146.201
146.201
146.201
146.201
157.536
146.203
150.913
606.01
146.2
146.235
146.219
146.209
146.201
146.201
146.207
146.201
146.201
146.2
146.215
146.492
146.319
146.2
146.239
146.2
146.2
146.2
146.2
146.2
146.416
146.251
146.2
146.2
197.269
147.001
146.2
147.49
146.201
146.2
206.865
146.201
146.2
146.201
146.229
146.201
146.2
146.201
146.201
146.201
146.201
3337.57
146.2
146.2
146.201
146.198
146.222
146.2
146.201
146.2
1425.03
146.201
146.304
161.535
146.214
146.2
146.669
146.219
146.201
146.2
146.872
146.374
146.2
146.331
149.572
146.2
146.195
146.2
146.338
146.2
146.2
146.2
146.201
149.823
146.201
2262.63
146.2
146.649
146.201
146.2
148.036
146.201
146.201
146.2
146.2
145.778
253.885
146.259
2227.29
146.258
146.216
146.26
146.2
146.2
146.2
146.219
3555.55
175.071
146.101
146.2
1699.83
146.261
147.449
146.173
146.2
11415.4
152.583
146.255
146.2
146.32
2541.66
2560.03
5123.87
146.209
146.208
551.64
146.2
153.995
146.2
1813.63
146.182
146.493
358.958
146.2
146.201
146.325
2457.15
146.2
312.888
146.2
146.2
610.936
146.2
146.2
146.2
146.2
146.075
146.2
25838.5
190.161
146.2
146.2
200.781
146.203
6465.86
305.36
999.504
146.201
146.2
146.2
146.228
146.2
146.2
146.2
146.2
146.2
247.912
146.2
146.2
146.236
6111.86
146.2
146.2
1334.3
146.2
146.2
6174.26
146.2
146.2
146.2
146.23
544.55
146.221
146.2
146.2
146.201
146.235
5182.88
146.206
296.128
146.2
146.2
146.2
146.198
146.2
148.873
146.22
146.201
164.047
146.2
146.2
146.216
146.2
146.114
146.2
146.263
164.55
146.2
146.2
146.699
147.85
146.2
146.218
330.617
146.2
146.2
146.2
146.2
146.2
146.2
146.2
146.2
146.201
146.2
146.2
388.982
146.2
146.213
11795.9
146.306
417.492
146.2
148.098
146.201
146.2
315.017
146.29
160.298
397.329
140.001
146.979
146.2
146.302
658.623
146.618
149.029
146.81
146.201
245.728
146.2
146.2
146.201
145.211
146.561
146.2
146.309
146.201
146.2
146.2
148.471
4232.06
146.2
184.038
147.117
693.083
147.698
212.217
146.201
146.201
147.543
146.2
146.201
146.2
146.201
146.201
146.189
146.201
205.275
146.224
148.526
146.594
146.685
146.575
146.2
146.201
146.201
147.232
146.2
146.2
146.2
147.806
146.201
149.007
147.146
146.533
146.336
146.234
146.201
147.17
146.201
146.2
146.246
2378.34
147.099
146.2
146.201
146.201
181.279
146.201
219.139
1321.5
218.711
147.25
146.2
146.2
147.542
447.284
146.201
147.32
146.609
146.341
146.2
147.287
146.202
148.202
146.2
146.2
146.34
146.255
146.2
146.2
146.454
146.263
147.155
146.2
146.2
146.505
147.867
146.2
146.201
146.2
167.548
148.39
11306.9
147.41
146.2
146.258
146.258
146.201
146.2
146.2
146.2
146.2
146.2
496.29
146.2
146.2
146.201
146.263
146.2
146.2
146.2
146.2
146.271
146.228
146.2
146.261
146.197
146.2
146.2
146.2
146.2
146.259
150.478
146.2
146.2
146.853
146.201
146.201
146.2
146.2
146.2
147.347
146.201
147.331
146.2
146.2
146.2
147.261
146.2
146.2
146.229
146.2
146.196
146.2
146.2
147.227
146.2
432.901
146.198
148.077
146.2
146.201
146.2
146.2
146.2
146.2
146.2
147.134
146.342
146.2
146.2
146.2
146.2
146.201
146.2
146.2
146.2
146.201
146.201
146.201
146.2
146.305
1297.44
146.227
146.22
147.151
146.201
146.201
2062.04
146.201
359.337
146.201
146.257
146.201
146.2
146.2
146.2
146.201
146.201
146.189
147.086
146.2
146.2
146.201
146.199
146.2
146.2
146.201
146.201
146.2
146.319
146.187
146.301
146.201
146.2
146.162
146.162
146.313
146.201
146.201
146.201
146.205
146.201
145.971
146.213
146.2
146.158
146.22
147.23
146.18
184.185
183.977
146.2
5653.22
146.201
161.644
146.201
147.036
146.34
147.158
146.243
146.2
146.201
146.201
146.244
153.424
146.2
146.948
146.144
157.103
146.2
146.2
146.2
146.2
147.198
146.2
146.201
146.2
146.2
146.201
146.2
233.517
317.707
146.35
146.2
146.2
147.125
146.201
146.2
259.264
157.419
325.462
146.2
146.201
146.302
271.559
146.2
146.201
146.275
149.153
146.221
146.201
159.365
146.209
146.2
146.201
146.2
146.2
146.201
146.2
146.2
146.2
146.2
146.201
146.201
146.2
146.2
146.201
146.2
146.2
146.2
146.201
146.201
146.2
146.2
146.2
146.318
147.267
146.409
146.2
146.201
146.2
146.2
146.21
146.2
146.201
146.201
146.2
146.2
146.2
146.118
146.2
146.2
146.2
146.2
146.201
146.317
146.201
146.281
146.257
146.217
146.201
146.201
146.599
146.201
146.2
146.201
146.2
146.2
146.201
146.2
146.201
146.2
146.2
146.224
146.218
146.201
146.2
146.201
146.2
146.2
146.201
146.201
146.2
146.229
279.552
146.2
270.64
146.2
146.2
240.916
236.014
146.2
146.245
146.208
146.2
146.2
146.201
146.2
146.2
256.53
146.201
261.86
146.201
146.2
146.201
146.974
147.101
146.797
146.2
146.201
146.2
146.2
146.2
146.2
146.2
146.2
146.2
146.2
146.869
146.201
146.2
146.2
146.201
146.201
146.2
146.2
146.381
152.409
146.185
146.2
146.2
146.2
146.201
146.201
146.2
146.201
146.2
158.516
146.201
146.2
146.2
146.387
146.201
146.218
146.2
146.2
146.201
146.2
146.201
152.173
146.197
146.201
146.2
146.201
146.198
146.201
146.201
146.201
146.2
146.201
146.201
146.2
146.199
146.267
283.824
147.089
146.2
146.2
146.255
146.201
146.2
146.201
146.2
146.201
146.2
556.927
146.362
257.534
213.164
146.267
146.201
146.2
146.201
146.295
146.439
146.2
146.73
146.2
153.012
146.201
146.102
146.2
146.201
146.224
146.201
146.201
146.201
146.201
146.201
146.201
146.179
166.158
146.201
146.201
502.547
146.2
146.2
146.201
146.201
146.201
146.201
146.201
146.201
146.2
146.2
146.2
146.2
146.2
146.201
146.2
146.201
146.201
146.2
146.201
146.188
146.208
381.052
146.201
613.506
146.224
146.201
146.2
146.201
147.891
146.201
248.614
971.343
146.201
324.745
146.2
146.201
146.2
146.201
146.2
146.2
146.223
146.24
146.2
146.2
146.201
146.211
146.228
146.2
146.222
147.515
146.212
147.42
146.206
146.201
146.201
146.201
146.229
146.201
146.209
146.202
146.398
146.2
146.201
146.201
146.2
146.2
146.209
146.22
146.201
146.201
146.201
146.201
4672.99
146.201
146.201
147.45
146.201
146.201
146.201
146.201
146.2
146.2
146.201
974.058
3429.68
445.401
316.925
295.172
147.695
4513.83
146.201
146.2
146.2
146.201
146.203
147.607
146.203
1078.18
146.354
146.201
146.2
270.438
4614.5
146.201
146.201
2736.69
147.068
147.631
146.2
146.2
905.849
146.201
146.2
147.32
146.2
146.201
146.2
146.2
146.201
146.2
146.201
146.201
146.54
146.582
146.33
146.327
146.2
146.363
156.007
152.29
146.201
146.201
146.201
151.891
146.229
146.201
3387.65
1004.38
146.2
2007.86
1987.33
146.2
146.201
146.2
146.201
2669.97
146.201
146.201
146.2
146.201
146.201
146.2
155.124
146.201
146.2
146.201
2322.71
146.201
152.433
146.2
146.201
146.201
146.21
146.201
146.201
146.2
146.2
146.203
147.728
146.214
250.541
152.597
146.201
146.2
146.2
146.238
146.2
146.201
146.21
147.402
146.201
146.201
146.205
146.215
146.2
146.2
146.201
146.201
146.2
150.837
146.201
1031.77
146.2
169.561
146.646
616.461
146.202
146.2
146.2
146.2
1572.27
146.201
1350.52
146.2
146.2
146.245
146.201
146.2
146.326
146.602
146.2
146.2
340.018
341.109
146.2
146.2
146.263
146.2
146.175
146.2
146.2
146.2
146.2
146.2
146.2
146.2
146.2
146.2
146.2
146.2
146.228
146.2
146.2
146.2
146.203
146.2
146.201
146.232
146.2
146.2
146.233
146.2
146.2
146.237
146.2
146.2
146.2
146.2
2319.56
146.2
146.247
146.201
146.2
146.2
146.23
146.2
146.2
146.201
146.2
146.2
146.239
146.2
146.2
146.2
146.201
146.2
146.2
171.093
146.2
146.2
146.2
146.202
146.2
146.2
146.201
146.2
146.201
146.201
146.2
146.201
146.2
146.2
146.201
146.2
146.201
146.2
146.201
146.2
146.2
146.2
154.47
146.2
146.2
146.2
146.201
146.2
146.201
146.2
146.2
146.211
146.2
147.359
146.2
146.2
146.201
249.107
249.628
146.2
146.2
146.2
146.248
147.089
303.928
146.2
146.2
146.2
146.2
146.2
146.2
146.2
146.2
146.2
146.2
301.794
233.783
146.259
146.2
146.2
146.2
146.2
146.2
238.923
316.647
146.2
146.2
146.2
146.2
146.2
146.2
146.2
146.2
146.2
146.2
146.2
146.2
146.2
146.2
146.2
146.2
146.951
146.2
146.2
146.2
146.2
250.718
146.201
146.2
146.2
478.528
146.201
146.2
146.2
146.2
146.2
146.2
146.2
2518.48
146.678
146.2
147.922
146.2
146.2
146.161
146.2
146.2
146.2
146.2
146.2
152.319
146.198
146.2
146.2
146.2
146.2
146.746
146.2
145.481
146.2
268.052
193.554
146.198
146.2