/*--------------------------------*- C++ -*----------------------------------*\
| =========                 |                                                 |
| \\      /  F ield         | OpenFOAM: The Open Source CFD Toolbox           |
|  \\    /   O peration     | Version:  v2012                                 |
|   \\  /    A nd           | Website:  www.openfoam.com                      |
|    \\/     M anipulation  |                                                 |
\*---------------------------------------------------------------------------*/
FoamFile
{
    version     2.0;
    format      ascii;
    class       volScalarField;
    location    "2.5";
    object      ILambda_2_0;
}
// * * * * * * * * * * * * * * * * * * * * * * * * * * * * * * * * * * * * * //

dimensions      [1 0 -3 0 0 0 0];


internalField   nonuniform List<scalar> 
108993
(
146.2
146.2
146.2
146.2
146.2
146.2
146.2
146.2
146.201
146.2
146.2
146.2
146.2
146.2
146.2
146.2
146.201
146.2
146.2
146.2
146.2
146.201
140.432
146.2
146.2
146.2
146.201
146.2
146.2
146.2
146.201
146.2
146.201
146.2
146.201
146.2
146.201
146.2
147.869
146.841
146.131
146.2
146.2
146.2
146.214
146.292
146.201
146.2
146.2
146.2
146.201
2393.71
146.2
146.2
146.2
146.2
146.201
146.2
146.2
146.2
146.2
146.2
146.2
146.2
146.2
146.2
146.2
146.2
146.2
146.207
146.2
146.2
146.2
146.2
146.2
146.201
146.2
146.2
146.201
146.2
146.2
146.2
146.2
146.2
146.2
146.2
146.2
146.2
146.2
146.2
146.2
146.201
146.2
146.2
146.2
146.2
146.201
146.2
146.201
146.2
146.2
146.2
146.2
146.2
146.2
146.2
146.2
146.201
146.201
146.65
145.933
146.2
337.611
1900.8
146.2
146.225
146.2
146.2
146.201
146.201
146.2
146.201
146.209
146.2
146.2
146.2
146.124
146.2
146.201
146.201
146.2
146.201
146.2
1701.21
146.2
146.2
146.201
146.2
146.2
146.2
146.2
146.2
146.203
146.201
146.201
146.2
146.2
146.782
146.2
146.386
146.477
146.2
146.2
146.632
146.2
390.562
146.2
146.201
146.201
168.165
146.575
146.201
146.201
146.2
146.2
2916.58
146.2
146.2
146.2
146.2
146.2
146.2
427.844
146.2
146.2
146.2
154.761
146.2
146.2
146.2
146.2
146.2
146.201
146.2
146.2
146.2
146.201
146.2
146.2
146.2
146.2
146.201
146.2
146.205
146.2
146.2
146.151
146.2
146.2
146.2
146.2
150.478
146.2
146.201
146.178
146.436
146.2
146.255
146.2
146.094
146.854
146.2
154.827
146.223
147.512
146.2
146.2
146.2
146.201
146.201
146.2
146.341
146.2
146.201
146.201
146.2
146.201
146.2
1853.91
146.2
2991
146.2
146.2
146.196
146.2
146.201
146.201
146.201
146.296
146.201
146.2
146.2
146.2
146.201
146.201
146.2
146.226
146.211
146.201
146.201
146.201
146.2
146.2
146.2
146.201
146.201
146.201
146.2
146.201
146.2
146.2
146.2
146.202
146.201
146.201
146.2
146.2
146.2
146.2
146.2
146.2
146.2
146.22
152.334
146.585
146.2
146.201
146.206
146.2
146.2
146.2
146.378
146.36
146.2
146.201
146.2
146.2
146.2
146.2
146.811
146.2
146.201
146.2
146.2
146.2
146.2
146.201
146.2
146.202
146.2
146.232
146.409
146.2
146.2
146.2
146.2
146.201
146.2
146.2
146.216
146.2
146.2
146.2
146.2
146.198
146.261
146.2
146.2
147.521
146.2
146.199
146.2
146.201
146.201
146.2
941.463
487.236
146.367
146.201
146.2
146.201
146.237
6673.94
146.201
147.047
146.2
146.2
146.2
146.2
146.201
146.2
146.211
146.2
146.2
146.2
146.2
146.2
146.2
146.2
146.2
146.2
146.2
146.375
146.227
146.201
146.2
146.2
146.951
146.2
146.2
146.2
146.2
146.2
146.2
146.2
146.2
146.2
146.201
146.2
1132.41
146.2
146.2
146.2
149.988
146.2
146.881
146.2
146.2
146.492
146.2
146.504
146.508
146.2
146.2
146.2
144.891
146.2
6526.08
146.2
146.365
146.64
154.8
146.663
146.2
146.233
146.2
196.499
146.2
146.201
146.201
146.2
146.208
146.214
146.2
146.2
165.039
150.056
146.2
146.2
150.133
146.2
146.178
747.759
146.2
146.2
146.2
150.535
146.204
146.254
146.2
151.779
146.2
147.479
146.2
146.2
149.289
146.2
146.215
149.241
146.2
175.242
147.155
161.014
146.201
146.2
146.2
146.201
146.2
146.2
146.2
146.2
146.2
146.2
146.2
146.212
146.101
146.18
285.448
146.2
146.2
146.2
146.2
146.2
146.2
146.2
146.2
146.2
146.2
146.2
146.2
146.206
146.2
146.207
146.27
146.203
146.2
146.2
146.207
146.2
146.2
146.217
146.2
146.201
146.2
146.201
146.201
146.2
146.262
146.334
146.203
146.2
146.201
146.201
146.2
146.2
146.2
146.2
146.2
192.521
146.2
146.2
146.2
146.201
146.2
146.204
146.2
146.2
146.2
146.2
146.2
146.201
146.201
146.2
146.2
146.21
146.234
146.2
146.2
10437.6
146.2
146.2
146.102
146.201
146.2
146.2
146.201
146.2
146.2
146.2
146.199
146.2
146.2
146.191
145.914
146.2
146.206
146.133
146.2
146.208
145.92
146.201
146.2
146.206
146.2
146.2
146.2
2058.48
146.2
146.2
146.223
146.2
146.316
146.2
146.2
146.2
146.2
146.2
146.136
146.2
146.2
146.223
146.201
146.729
146.2
146.2
146.2
146.2
146.188
147.678
146.2
146.2
146.201
146.2
146.037
146.235
146.299
146.2
146.2
146.185
146.112
146.2
146.2
6924.67
146.231
146.225
144.848
146.2
146.244
155.041
146.201
146.2
146.2
146.2
146.2
146.2
146.206
146.302
146.231
146.2
146.2
145.941
146.2
146.2
146.2
152.465
146.2
146.201
146.2
146.2
146.202
146.2
146.2
150.671
146.202
146.2
146.2
150.921
146.2
146.2
146.2
2510.93
146.2
146.243
146.2
146.105
146.2
146.2
146.2
146.237
146.2
2558.26
146.2
146.2
146.514
146.2
146.2
146.201
146.209
146.322
146.2
146.325
146.2
146.208
276.088
146.2
146.2
146.2
1263.36
146.206
867.26
146.2
1285.78
146.2
146.2
146.2
146.2
146.2
349.675
146.204
146.2
146.2
146.204
146.27
146.507
146.233
146.2
146.208
146.75
146.203
146.752
146.937
146.2
146.2
146.201
146.2
146.199
146.196
146.2
146.237
146.264
146.202
145.96
3073.46
146.483
146.674
146.2
146.201
146.206
146.2
146.845
146.2
146.245
146.203
146.2
146.8
146.201
146.204
146.213
146.206
628.406
146.201
146.2
202.897
146.201
146.201
4739.75
146.204
146.584
146.202
10969.2
598.54
146.201
146.2
146.2
146.203
146.2
146.211
145.849
146.2
146.2
143.968
146.304
820.934
146.2
1002.54
146.2
744.83
146.203
146.2
690.651
146.2
146.2
986.122
146.2
146.2
146.2
214.605
195.906
146.211
146.2
486.787
146.2
146.2
146.2
146.2
146.2
146.24
146.2
146.2
146.2
146.2
146.2
146.856
146.772
146.2
159.144
146.2
146.2
146.2
146.201
146.2
146.2
146.2
146.2
146.2
138.698
146.2
146.2
146.204
146.2
146.2
146.2
146.2
146.2
146.2
146.19
146.2
146.238
146.2
146.2
146.2
146.025
146.2
146.207
146.24
146.2
146.2
195.395
146.231
146.2
146.2
146.213
146.2
146.2
143.319
146.2
145.708
146.2
146.2
146.2
146.2
147.278
146.2
146.2
146.832
146.201
146.696
242.179
146.905
146.2
144.312
146.201
146.2
146.2
146.2
146.201
146.2
146.2
146.2
146.2
146.2
146.137
146.2
146.2
146.2
178.875
146.199
146.2
2222.52
146.199
266.357
146.2
146.2
146.2
14049.8
146.2
146.199
146.2
146.149
146.2
146.204
146.244
146.2
146.2
143.729
146.199
146.2
146.201
146.763
146.2
146.2
146.2
146.2
146.2
146.197
146.2
146.2
146.2
448.045
146.2
449.178
146.2
343.128
146.2
145.836
213.258
146.201
145.506
146.2
220.426
226.115
146.202
140.277
146.68
146.201
146.201
146.2
146.205
146.201
146.202
146.2
146.2
146.201
146.602
146.2
146.201
146.155
146.202
146.199
146.174
158.536
146.566
154.496
389.376
144.096
6019.18
146.2
8770.19
147.103
1893.04
146.2
146.201
146.201
146.202
490.046
146.201
146.2
146.203
146.291
146.2
169.332
146.096
146.2
6132.6
146.201
146.2
8826.24
1422.95
146.2
146.2
146.2
146.2
146.203
2574.14
5390.87
146.2
6048.41
146.201
146.204
146.2
146.2
146.201
159.813
146.201
146.201
146.2
146.2
2879.45
146.2
146.2
146.221
146.2
136.768
146.205
146.201
146.202
146.2
146.481
146.2
7639.95
146.2
146.2
146.201
593.934
3410.39
146.2
146.202
903.394
1115.38
146.212
146.2
146.202
146.211
146.438
146.2
146.201
146.85
146.203
146.205
146.202
146.2
1139.43
146.687
2312.08
146.204
146.202
146.201
146.204
146.2
146.145
146.202
146.257
146.202
146.201
146.201
146.203
146.2
146.2
146.201
146.204
146.2
146.2
146.2
146.201
146.2
146.2
146.2
2074.31
146.2
146.2
146.2
146.2
146.789
146.2
146.2
146.201
146.2
146.201
1451.71
146.204
146.172
146.2
146.2
1113.08
146.254
2376.27
146.2
146.2
146.216
146.2
146.201
146.209
146.204
146.2
146.2
146.2
146.2
146.2
140.972
146.2
146.2
146.2
146.201
146.212
146.2
137.824
146.201
146.2
143.825
749.396
145.064
210.656
146.2
146.2
143.828
568.1
146.2
146.201
146.201
168.572
146.2
135.276
146.2
146.201
146.2
146.201
146.375
480.881
146.203
142.336
146.746
146.203
146.203
139.491
146.375
146.2
146.2
146.2
589.67
146.2
11197.7
146.204
138.215
146.2
146.02
146.201
146.2
146.201
1459.93
146.201
146.2
146.211
234.31
178.007
146.2
146.2
146.2
146.2
146.2
146.2
146.2
3807.38
146.2
157.207
146.2
146.2
146.2
139.639
2268.25
146.2
146.2
146.2
146.201
146.2
146.201
146.497
146.2
146.2
146.213
146.2
146.2
146.2
146.201
146.201
145.92
10587
146.247
146.2
146.2
146.2
146.2
146.2
146.2
146.2
146.2
146.2
146.2
146.2
146.2
146.2
146.2
146.201
146.2
146.2
146.2
146.2
146.207
1669.26
1625.3
147.243
146.2
146.2
146.2
146.2
146.201
146.2
146.201
146.2
146.2
1166.26
146.2
137.139
146.2
146.201
146.2
146.2
229.544
472.053
146.2
146.2
146.2
144.838
146.2
146.2
146.367
146.2
146.2
146.2
146.201
146.2
146.205
146.2
146.2
146.354
146.2
146.2
146.2
146.603
145.178
146.2
146.2
146.2
146.348
146.2
273.288
174.64
187.754
154.716
465.979
117.976
146.2
146.205
146.2
146.212
146.203
148.562
146.2
146.2
146.2
146.2
146.2
146.2
146.226
462.89
146.202
146.2
146.2
146.202
146.201
146.201
146.201
146.2
146.2
1519.8
146.202
146.226
146.2
145.916
146.2
146.203
146.211
142.843
146.201
146.206
146.2
146.205
146.213
146.205
2088.85
146.2
146.2
146.201
146.2
146.2
3244.92
146.2
146.2
146.2
146.582
146.2
146.201
146.113
146.2
146.21
146.261
146.2
159.589
146.2
146.215
146.2
146.2
146.2
143.293
146.2
146.224
146.203
146.2
146.25
146.2
146.201
146.2
229.612
147.072
146.2
142.989
229.54
157.734
146.202
145.469
146.2
146.201
146.2
146.227
146.227
146.224
146.212
146.225
146.201
146.228
146.228
140.988
143.694
146.2
191.601
146.2
146.201
146.2
144.038
146.201
146.2
146.2
146.211
146.2
146.2
146.2
146.2
146.2
146.2
146.2
725.673
1987.93
146.2
1137.77
146.2
145.993
146.199
146.2
146.205
146.2
146.2
142.978
146.2
146.2
146.2
146.201
146.2
147.205
146.2
146.209
146.2
146.203
152.835
146.2
146.201
146.201
146.2
146.2
146.201
146.201
146.2
146.201
146.201
146.124
146.246
146.2
146.213
146.253
146.2
146.205
146.201
146.201
146.201
146.2
146.2
146.311
146.229
408.972
146.2
150.424
146.218
146.2
146.2
146.2
146.2
146.2
144.702
146.531
146.201
146.201
146.2
146.2
146.201
146.2
146.2
146.993
146.821
146.2
146.201
146.213
146.2
146.2
146.2
146.2
709.832
146.2
146.2
146.2
146.2
7853.54
146.204
146.2
146.249
145.577
146.2
146.207
171.193
146.2
146.2
146.2
2199.5
146.202
146.2
146.2
602.903
146.223
146.232
146.2
146.2
146.66
146.201
146.2
146.28
146.2
146.201
146.202
146.2
147.109
146.2
146.2
1894.07
146.201
147.154
146.202
146.39
146.201
146.201
146.274
146.2
146.201
146.363
146.201
146.099
996.691
146.2
146.2
146.2
147.109
330.109
146.2
146.206
146.2
146.208
147.006
146.511
146.2
417.417
146.2
4464.28
146.2
146.2
146.2
146.2
146.201
146.201
146.201
146.2
146.206
146.256
146.211
146.201
146.2
146.2
146.2
146.201
146.2
146.2
6363.25
146.203
146.2
146.2
146.2
1130.47
146.2
146.2
2103.45
146.2
146.2
146.2
146.2
146.375
145.832
146.224
365.144
146.2
146.2
146.247
146.2
146.2
146.2
146.264
146.461
146.216
6571.01
146.2
146.2
2622.47
146.2
146.2
146.2
146.2
146.2
146.2
146.2
146.2
146.2
2080.92
146.202
146.2
146.222
146.21
146.2
2886.8
146.2
146.2
146.2
146.2
146.201
146.2
144.931
146.2
146.202
421.059
146.317
146.213
146.2
146.2
146.875
146.246
146.2
146.209
146.2
146.2
146.272
146.26
147.079
146.221
146.2
2667.36
147.144
146.497
146.2
146.223
146.262
146.268
146.415
187.327
146.806
146.248
146.2
146.235
146.209
146.246
146.219
146.303
146.205
144.641
146.236
147.351
146.945
146.201
146.201
152.594
146.2
146.2
146.266
146.201
798.67
146.223
146.2
146.2
146.2
146.2
146.225
146.229
146.391
146.204
146.727
146.2
1560.6
146.2
172.48
146.2
145.185
146.2
146.2
146.2
146.2
203.768
146.2
146.2
146.2
147.327
146.209
146.701
146.407
146.208
146.201
146.206
146.2
146.2
146.201
146.2
146.2
146.2
146.215
707.815
684.467
3849.67
148.197
146.203
146.2
146.299
146.259
134.063
3697.72
146.2
146.2
146.201
146.357
149.728
146.202
146.2
146.2
146.2
146.2
301.164
146.2
146.29
146.2
1844.32
146.297
146.2
146.201
149.26
146.426
146.235
146.3
146.2
146.285
6863.3
146.2
181.077
146.214
146.202
146.319
146.2
146.312
154.869
146.28
146.307
146.661
146.214
146.294
146.2
146.803
6361.71
146.204
8463.43
146.2
146.2
146.212
146.2
8739.51
146.207
146.202
146.2
146.2
146.209
146.199
146.2
142.73
146.2
146.2
146.2
146.173
146.2
205.351
2872.69
146.201
2169.54
146.2
146.2
146.201
146.527
146.55
146.199
146.201
146.512
549.287
1145.53
1227.89
146.2
147.068
146.2
146.2
146.2
145.469
146.2
1385.38
146.203
1633.96
1963.71
370.904
146.2
146.299
146.2
146.201
146.2
146.2
146.2
146.2
146.201
147.965
2263.39
146.731
146.201
7535.34
273.692
146.314
146.2
1798.43
177.94
1103.02
146.2
146.2
146.2
146.201
146.2
146.201
146.249
146.201
154.931
8290.98
146.269
154.838
147.278
1746.99
146.44
2012.88
146.2
344.274
146.213
146.2
146.2
146.706
146.241
146.2
146.2
146.2
259.848
146.2
1010.71
859.623
656.342
146.674
146.201
8613.42
1345.29
146.2
146.441
146.2
146.202
4319.77
146.203
146.205
232.812
232.91
146.2
146.202
146.2
146.201
146.2
146.206
146.2
146.2
146.257
343.302
146.235
318.987
144.745
146.2
146.2
146.2
146.2
146.22
147.044
146.2
146.2
146.307
146.2
146.2
146.2
146.2
4096.83
146.79
147.159
146.229
146.247
146.2
146.353
146.2
146.211
146.44
146.2
146.316
146.2
146.201
146.758
146.201
146.2
146.646
146.336
146.641
146.774
146.2
146.208
146.215
146.234
139.331
146.076
146.336
146.642
146.219
5971.05
146.2
146.2
146.205
147.731
146.231
146.377
146.213
146.767
146.2
146.2
21588.3
146.481
146.214
146.223
146.207
147.028
146.828
146.2
146.215
146.2
146.607
146.2
146.211
146.228
146.2
146.532
146.2
146.52
146.642
146.2
146.2
146.345
146.2
146.2
146.201
146.2
146.26
146.2
146.64
146.342
146.201
146.2
147.251
138.424
146.2
146.209
146.2
146.2
146.2
146.2
146.297
146.304
146.904
146.2
146.2
146.307
146.2
146.204
939.819
146.201
146.2
146.194
146.2
146.267
146.2
146.2
146.2
146.201
146.2
688.437
1688.22
147.74
146.2
4341.27
146.131
605.622
146.2
146.22
146.2
146.886
146.24
146.2
146.2
146.2
601.812
146.363
146.2
146.208
146.2
146.2
146.202
146.201
146.2
154.407
146.2
146.563
146.2
146.2
146.2
146.2
146.2
146.364
146.212
146.2
146.2
146.254
146.2
146.201
146.2
146.2
146.368
146.812
146.201
146.2
146.2
146.2
146.751
146.2
147.251
146.2
147.254
146.377
146.2
3170.78
146.461
666.432
147.883
146.268
146.2
146.2
146.2
146.203
146.2
146.197
146.908
146.2
146.205
146.2
146.213
146.559
146.343
146.2
394.468
146.232
146.2
541.208
146.2
146.2
146.2
146.869
146.241
146.228
146.2
146.2
146.2
146.827
146.2
147.045
146.2
146.2
157.582
228.449
146.2
146.2
146.297
146.2
146.2
146.2
147.252
808.171
146.299
146.2
146.306
8272.24
146.206
146.263
145.168
1907.12
146.2
146.257
3059.95
6350.59
1802.09
1846.55
1163.9
3563.07
146.2
12303.1
146.328
146.279
146.2
413.414
14196.2
146.2
146.274
4154.8
146.2
2492.84
146.2
146.938
146.219
575.779
146.248
146.623
146.2
146.2
146.2
146.2
148.739
146.2
146.402
146.278
146.2
146.2
146.201
146.2
146.2
146.2
146.2
146.2
147.125
146.2
2588.94
146.2
179.964
146.2
146.201
146.198
146.2
146.2
146.2
146.2
146.202
147.913
147.828
5960.12
161.225
146.196
146.089
146.2
140.941
146.201
145.098
146.2
1131.74
162.996
147.879
145.78
146.194
146.182
2424.32
146.203
146.2
146.2
146.2
146.178
147.98
146.174
963.833
146.2
146.203
643.341
169.861
146.2
157.167
599.423
145.407
783.894
142.401
146.2
146.21
146.2
146.189
146.2
146.2
390.413
146.2
146.201
146.199
146.212
146.2
146.2
146.21
146.281
2981.07
146.145
146.2
146.2
147.366
327.297
146.2
146.241
359.082
146.2
146.202
146.21
146.208
353.756
146.2
141.528
146.206
146.2
387.28
146.201
146.201
146.2
146.2
146.2
146.201
146.2
146.2
146.201
146.201
146.187
146.201
145.992
146.201
146.203
146.21
146.2
146.201
146.284
146.262
146.2
192.852
146.201
146.2
146.08
145.294
146.2
146.209
145.951
146.2
146.2
146.2
146.2
146.2
146.204
146.206
147.167
1125.56
147.367
146.204
148.432
186.683
146.195
147.32
168.879
146.2
146.503
168.72
146.9
146.2
163.864
146.2
146.269
146.204
146.224
146.205
146.182
146.22
146.208
146.2
146.216
146.2
146.213
146.22
146.203
146.207
146.215
146.208
146.201
146.209
146.216
146.2
146.2
156.919
146.201
146.2
146.2
146.2
146.213
146.139
146.203
146.204
146.2
146.2
146.2
146.2
146.211
146.2
146.201
146.2
146.2
146.196
146.2
387.835
146.2
146.2
146.2
146.2
145.381
146.2
146.2
146.2
146.2
146.2
146.2
592.93
146.2
146.201
1413.04
146.2
146.192
146.2
146.2
146.2
146.2
146.201
146.2
146.208
146.203
146.202
146.2
146.2
146.201
146.202
1832.9
146.2
146.2
294.79
146.2
146.2
146.207
146.2
146.202
146.209
146.2
146.2
146.639
155.127
146.718
146.2
146.2
146.201
146.2
344.324
144.054
146.2
146.201
146.2
146.365
146.2
146.201
146.201
146.612
146.222
146.203
146.637
154.876
146.2
146.188
146.201
146.2
139.001
149.507
403.836
146.2
146.214
146.55
146.2
146.2
146.572
1301.45
146.613
146.2
146.202
146.2
146.031
146.945
146.2
146.95
146.2
146.2
146.755
146.2
146.2
145.035
146.872
146.2
146.203
146.693
146.2
146.2
146.896
146.207
146.2
146.2
146.207
1844.74
146.206
7844.87
146.201
146.2
294.198
146.2
249.976
146.2
146.2
146.2
146.2
146.2
146.2
146.199
145.744
146.2
146.2
146.201
146.2
149.101
146.2
146.201
146.2
156.648
146.2
433.809
5497.52
146.201
146.2
146.203
212.652
146.2
146.2
146.201
146.201
146.2
146.201
1755.51
146.203
146.207
146.801
159.437
146.2
146.2
146.206
146.2
146.2
146.023
146.204
146.2
146.203
146.2
1511.18
146.78
146.213
147.39
1457.1
146.278
146.2
146.207
1734.34
169.033
146.223
145.502
146.213
146.2
146.189
1143.46
146.225
146.204
146.2
146.22
146.221
146.2
289.72
146.225
146.202
252.734
146.268
147.303
688.357
146.2
146.473
146.198
146.2
1556.86
146.2
146.423
146.2
168.833
1708.78
9726.89
146.2
146.2
146.2
146.549
146.201
150.594
146.2
146.552
146.448
3424.16
146.2
1054.13
146.216
146.228
1732.85
146.369
146.2
146.204
146.2
146.201
146.201
146.2
146.2
146.2
146.2
146.2
146.2
152.142
146.2
146.201
146.2
1305
938.48
138.817
146.298
146.2
146.2
146.202
146.2
146.2
146.2
146.2
146.2
146.203
146.2
147.148
146.2
146.224
146.87
146.843
146.2
146.106
146.205
146.2
146.2
207.348
146.2
146.2
146.2
146.2
146.2
146.201
146.2
146.2
146.2
146.2
217.328
2106.14
146.2
149.341
146.2
2980.7
476.993
146.2
146.201
146.743
146.2
146.208
146.2
146.064
146.2
146.2
146.2
146.35
146.849
146.2
146.222
146.2
146.201
146.2
145.892
146.2
146.161
146.206
146.2
146.2
146.208
146.201
620.992
146.535
146.2
146.2
146.202
146.571
146.2
146.2
146.2
146.2
146.2
146.2
146.2
3140.31
146.206
146.2
146.2
151.708
147.513
146.2
146.319
146.642
146.2
146.319
9807.6
146.201
2765.1
146.225
146.2
146.2
146.2
1045.59
146.327
138.768
138.791
146.198
146.2
148.57
146.199
146.352
146.151
146.2
146.2
146.2
147.754
140.685
145.666
146.2
146.741
749.821
146.2
146.2
146.201
146.178
146.289
146.744
145.182
145.829
146.201
146.211
146.2
146.2
146.327
146.2
146.2
146.2
146.2
146.2
146.2
146.2
146.201
146.2
146.148
146.2
146.2
146.593
146.213
146.2
146.06
146.2
146.2
146.2
146.912
146.217
146.272
146.2
146.2
146.201
146.201
146.21
146.2
2403.44
146.2
146.2
146.2
146.719
146.67
146.212
146.2
2326.23
1988.25
146.222
1090.56
228.585
146.2
146.348
146.209
146.2
146.2
146.2
146.2
146.2
146.2
328.432
146.777
149.005
146.22
158.585
146.2
146.232
146.232
739.65
146.241
177.168
146.228
147.909
2668.7
146.2
146.206
154.245
146.2
146.2
146.648
146.2
146.2
512.987
171.815
146.2
146.2
146.2
146.201
146.2
146.2
146.2
146.201
146.313
146.2
146.2
146.202
164.025
146.209
146.2
146.2
146.2
167.875
146.2
146.2
370.829
146.2
146.2
146.2
146.2
146.903
146.21
146.2
146.2
146.2
146.2
146.2
146.204
146.2
144.425
145.912
146.2
143.714
146.2
146.2
146.2
146.2
146.2
146.2
146.203
146.2
146.2
146.326
146.2
869.268
146.201
146.2
146.2
146.2
146.2
146.201
146.215
679.272
146.24
858.469
146.179
146.208
146.21
455.643
833.328
149.649
146.223
146.2
146.202
146.2
146.2
146.201
146.2
326.519
146.701
146.2
146.486
146.2
146.2
146.205
146.2
144.935
146.2
146.201
146.544
146.21
146.2
146.2
146.2
146.201
146.2
146.201
328.372
146.205
168.317
146.2
146.2
144.064
156.718
178.345
249.413
146.998
5908.64
146.207
146.851
146.216
182.675
146.2
146.2
146.2
146.2
146.283
146.802
301.166
146.278
146.822
146.821
146.2
146.795
2819.97
146.2
146.2
146.2
1231.83
146.35
146.22
146.2
1242.66
146.429
277.341
146.385
146.276
213.868
156.373
146.2
138.913
153.851
157.754
146.2
146.2
1681.9
146.2
146.2
154.837
146.2
146.201
685.127
146.201
152.298
175.881
146.2
146.201
146.266
146.281
146.208
146.277
669.841
146.306
138.896
146.2
146.282
146.207
146.237
146.235
146.201
2413.55
143.273
146.287
146.279
146.2
145.815
146.234
146.2
146.343
146.2
146.2
146.2
146.233
146.12
146.228
146.201
146.2
570.758
146.23
146.235
153.735
146.2
2650.52
146.315
146.76
146.2
146.249
151.794
146.559
146.288
146.2
146.255
146.2
146.2
146.2
146.2
146.2
146.2
146.2
146.293
146.2
146.063
146.2
146.2
146.2
146.2
146.2
474.745
146.223
146.2
146.2
146.754
146.2
146.322
146.202
146.201
146.28
146.2
146.201
146.2
146.32
146.2
146.2
146.205
146.176
146.2
146.2
146.199
146.2
146.2
146.2
146.2
146.2
146.2
146.2
146.207
146.2
146.2
146.2
146.216
146.2
146.2
146.188
1525.54
146.2
146.2
146.2
146.2
2814.59
143.502
146.2
146.2
146.201
146.2
147.047
146.2
146.2
146.2
146.2
146.2
146.223
146.2
146.2
146.2
146.201
146.2
146.2
146.2
146.2
146.2
146.2
146.2
146.201
146.2
146.2
146.2
146.2
146.2
146.2
146.834
146.201
146.2
146.2
146.2
145.716
146.2
146.21
146.316
146.203
977.803
146.2
146.2
146.2
146.201
146.892
146.2
146.2
146.906
146.2
146.201
146.2
146.2
146.2
146.2
3504.45
146.2
146.2
146.2
146.937
147.013
147.02
142.935
146.508
5868.52
146.189
146.2
146.2
147.02
146.2
146.201
146.2
146.198
1683.75
146.2
146.2
146.2
240.344
145.74
144.366
146.208
146.201
146.239
444.942
146.201
146.2
146.201
146.2
146.201
146.2
145.85
146.2
146.201
1867.91
544.131
5238.01
1136.56
146.809
145.815
146.201
146.2
146.2
275.904
146.201
146.201
146.201
146.201
1190.15
146.201
146.205
146.222
146.2
146.304
146.218
146.215
146.152
146.201
146.214
146.2
146.201
146.2
146.302
146.411
146.519
146.2
146.307
146.2
146.2
146.2
146.2
146.2
146.921
146.211
146.2
146.2
146.232
145.199
146.2
147.369
146.201
146.2
147.116
146.2
146.2
146.201
146.213
146.201
146.2
146.201
146.2
145.038
146.201
146.374
146.2
146.2
146.201
146.197
146.261
146.2
146.201
146.2
648.867
143.571
146.232
813.172
146.225
146.2
146.996
146.216
146.201
146.2
146.535
146.267
146.2
146.35
155.065
146.2
146.199
146.2
146.392
146.2
146.2
146.2
146.201
1332.78
146.201
9787.12
146.2
1697.65
146.201
146.2
735.45
146.201
144.26
146.2
146.2
146.179
224.592
146.276
149.493
146.293
146.261
146.296
146.2
146.2
146.201
146.247
4567.91
146.81
146.201
146.2
1526.43
146.303
146.843
146.485
146.201
201.676
146.842
146.273
146.201
146.536
6499.59
6511.35
167.595
146.218
146.207
416.489
146.2
147.148
146.2
6566.37
146.154
147.018
178.774
146.2
146.2
146.225
8094.61
146.144
226.333
146.2
146.2
300.592
146.2
146.2
146.2
146.2
146.177
146.2
22750.7
149.929
146.2
146.2
149.838
145.396
146.686
257.408
792.714
146
146.2
146.2
146.354
146.2
146.201
146.2
146.2
146.187
151.897
146.2
146.2
146.277
195.928
146.2
145.68
318.943
146.2
146.199
189.89
146.2
146.2
146.2
146.306
147.304
146.241
146.2
146.197
146.2
146.246
4785.59
146.204
147.013
146.2
146.2
146.2
146.2
146.2
347.122
146.238
146.2
146.621
146.2
146.2
146.216
146.2
146.006
146.2
146.425
157.62
146.2
146.2
178.244
934.011
146.2
199.549
147.137
146.2
146.2
146.2
146.2
146.2
146.2
146.2
146.2
146.2
146.2
146.192
4481.66
146.2
146.25
10370.4
146.212
4608.68
146.2
146.194
146.2
146.2
3346.19
146.432
146.55
4251.14
146.603
175.873
146.2
663.513
179.298
146.255
749.218
1335.87
146.2
3153.64
146.2
146.2
146.201
146.204
1012.81
146.198
146.837
146.201
146.2
146.2
147.451
165.31
146.2
1936.99
3169.04
146.238
3432.55
1399.75
146.2
146.2
146.596
146.2
146.201
146.2
146.2
146.201
146.2
146.201
670.557
146.227
149.963
828.83
146.2
502.57
146.2
146.201
146.201
153.604
146.2
146.2
146.2
174.041
146.228
146.73
3964.57
193.669
146.281
146.356
146.16
4446.96
146.2
146.2
261.998
7151.11
1118.76
146.197
146.2
144.922
2691.38
146.2
721.76
6694.01
798.168
5718.06
146.2
146.2
146.702
146.211
146.201
6181.02
1988.06
644.503
146.2
7933.17
261.945
149.108
146.2
146.2
146.201
431.857
146.2
146.2
2029.73
146.536
2227.51
146.193
146.2
1228.96
801.686
146.2
146.2
146.2
146.793
147.049
6449.53
1583.17
146.2
146.537
146.535
146.084
146.2
146.15
146.2
146.2
146.2
4994.33
146.2
146.136
142.795
146.595
146.2
146.2
146.2
146.2
146.297
146.262
146.2
146.595
146.167
146.2
146.2
146.2
146.2
146.566
283.931
146.2
146.2
958.33
146.2
146.2
146.201
146.2
146.2
2837.93
146.193
146.167
146.2
146.2
146.2
2618.54
146.2
146.2
146.28
146.2
146.194
146.2
146.2
146.918
146.2
146.208
146.2
752.376
146.2
146.2
146.2
146.2
146.2
146.2
146.2
2594.24
150.562
146.2
146.2
146.2
146.2
146.201
146.2
146.2
146.2
146.201
146.2
146.201
146.2
146.145
146.629
146.251
146.238
172.819
139.906
146.2
8405.97
146.201
2437.21
146.139
146.21
146.2
146.2
146.2
146.2
146.201
146.2
146.213
146.317
146.2
146.2
146.201
146.2
146.2
146.2
146.201
146.2
146.2
146.22
146.224
146.207
146.2
146.2
146.218
146.223
146.085
146.2
146.131
146.2
146.049
146.2
146.198
186.852
146.2
146.233
146.218
152.335
146.229
2184.09
1796.9
146.2
9993.87
146.2
3618.41
146.201
3624.01
697.758
2173.17
146.301
146.2
146.201
146.2
146.25
146.843
146.2
1820.05
146.199
146.612
146.2
146.2
146.2
146.2
2305.31
146.2
146.152
146.2
146.2
146.2
146.2
3682
455.295
589.328
146.2
146.2
453.134
146.2
146.2
146.23
146.723
146.231
146.2
146.2
146.404
146.23
146.2
146.201
146.285
2569.23
146.248
146.201
3597.88
308.885
146.2
146.2
146.2
146.2
146.2
146.194
146.2
146.2
146.2
146.2
146.2
146.2
146.2
146.201
146.2
146.2
146.2
146.2
146.2
146.2
146.2
146.2
146.213
681.359
431.674
146.2
146.201
146.2
146.2
146.21
146.2
146.2
146.2
146.2
146.2
146.2
146.192
146.2
146.2
146.2
146.2
146.2
146.208
146.201
146.207
146.191
146.223
146.2
146.201
142.726
146.201
146.201
146.2
146.2
146.2
146.2
146.2
146.078
146.2
146.2
146.248
146.234
146.201
146.2
146.201
146.2
146.2
146.2
146.2
146.2
146.23
4089.58
146.2
3794.83
146.2
146.2
2359.72
2895.71
146.2
144.466
146.215
146.2
146.2
146.2
146.199
146.2
2786.51
146.201
3072.78
146.2
146.2
146.201
2517.7
2535.3
2388.43
146.2
146.201
146.2
146.2
146.2
146.2
146.2
146.2
146.2
146.201
1731.72
146.201
146.2
146.2
146.2
146.201
146.2
146.2
2126.52
146.305
145.866
146.2
146.2
146.2
146.201
146.191
146.2
146.2
146.2
146.539
146.2
146.2
146.2
173.685
146.201
146.208
146.2
146.2
146.201
146.2
146.201
146.829
146.2
134.115
146.2
146.203
146.2
146.2
146.201
146.201
146.2
146.202
146.2
146.2
146.2
146.29
2699.14
147.172
146.2
145.853
146.289
146.19
146.196
145.728
146.2
146.2
146.2
4472.69
146.753
3538.09
146.217
146.285
146.201
146.2
146.16
146.333
1297.71
146.2
146.902
146.2
146.139
146.2
146.16
146.2
146.2
146.23
146.2
146.197
146.201
145.708
146.199
146.201
146.206
146.249
146.2
146.2
3851.39
146.2
146.2
146.2
146.198
146.2
146.201
146.194
145.805
146.2
146.2
146.2
146.144
146.2
146.186
146.2
146.2
146.2
146.2
146.2
146.2
146.206
5069.02
145.449
8035.39
146.212
146.195
145.744
146.199
146.653
146.197
1056.25
2325.12
146.067
5331.68
146.2
146.2
146.2
146.2
146.2
146.2
141.549
1010.27
146.2
146.2
146.2
143.591
140.111
146.2
140.099
146.201
141.236
147.023
181.111
146.196
146.198
146.182
148.503
142.309
271.447
139.712
687.257
146.2
146.201
146.2
146.199
146.2
144.143
146.217
146.2
146.201
146.2
146.2
9528.98
146.2
146.197
146.982
146.201
146.2
146.198
146.2
146.2
146.199
146.2
1965.16
3082.27
2645.08
5076.59
5421.24
384.645
7640.28
146.2
140.251
146.199
146.199
139.801
146.949
173.326
4612.58
1408.26
138.329
146.2
5193.32
9055.17
146.2
146.201
11238.8
146.811
146.818
146.178
146.199
146.299
146.195
146.2
146.816
146.2
139.745
146.167
146.2
146.2
146.189
139.47
139.644
1414.89
146.165
921.897
2541.32
146.2
145.356
153.357
148.262
143.984
146.174
146.2
148.763
146.303
146.195
7810.2
5622
146.2
7108.08
4951.34
146.2
146.2
146.2
146.2
2800.27
146.03
146.2
145.848
146.199
146.201
146.2
3620.15
146.2
146.2
146.2
6658.99
146.199
146.453
146.2
146.201
146.2
497.17
146.19
144.929
146.2
146.2
272.253
1103.66
143.016
146.218
146.324
145.853
146.2
146.199
176.216
146.2
146.201
145.429
146.18
146.2
146.083
143.075
836.139
146.2
146.201
146.18
146.199
146.2
147.091
139.117
146.283
142.991
871.483
160.998
146.214
139.045
146.2
146.2
146.2
146.277
146.2
5870.26
146.2
146.2
146.233
146.201
146.2
146.253
146.329
146.2
146.2
146.262
146.229
146.2
146.2
1947.57
146.2
146.201
146.2
146.2
146.2
146.2
146.2
146.2
146.2
146.2
146.2
146.2
146.201
146.236
146.2
146.2
146.2
146.202
146.2
146.2
146.235
146.2
146.2
146.258
146.2
146.2
146.245
146.2
146.2
146.2
146.2
146.481
146.2
146.245
146.2
146.201
146.2
146.238
146.2
146.2
146.2
146.2
146.2
146.242
146.2
146.2
146.2
146.201
146.2
146.2
146.565
146.2
146.2
146.2
146.202
146.2
146.2
146.201
146.2
146.2
146.201
146.2
146.201
146.2
146.2
146.201
146.2
146.201
146.2
146.2
146.2
146.2
146.2
4667.76
146.201
146.2
146.2
146.201
146.2
146.2
146.201
146.2
146.205
146.2
4362.94
146.2
146.2
146.2
146.202
146.203
146.2
146.2
146.2
146.269
147.101
146.204
146.2
146.2
146.2
146.2
146.2
146.2
146.2
146.2
146.2
146.2
146.205
4635.88
146.285
146.2
146.2
146.2
146.2
146.2
4715.62
1566.91
146.2
146.2
146.2
146.2
146.2
146.2
146.2
146.2
146.2
146.2
146.2
146.2
146.2
146.2
146.2
146.2
3931.8
146.2
146.2
146.2
146.2
3209.77
146.201
146.2
146.2
2694.62
146.201
146.2
146.2
146.2
146.2
146.2
146.2
2940.6
505.56
146.2
862.061
146.2
146.2
146.203
146.2
146.2
146.2
146.2
146.2
1854.84
146.199
146.2
146.2
146.2
146.201
1983.39
146.2
146.204
146.2
1032.43
146.248
146.2
146.2
146.218
146.2
146.197
146.2
146.2
146.2
2667.31
146.2
146.2
3146.19
146.2
146.2
146.2
146.2
4455.36
146.2
589.182
174.035
146.2
146.2
146.2
146.2
146.2
146.2
146.2
146.2
1351.97
146.2
146.201
146.2
146.2
146.2
146.2
146.389
146.201
146.2
146.2
146.2
146.2
146.201
146.2
146.2
146.2
146.199
146.2
146.2
146.2
146.2
146.2
146.2
146.193
146.194
146.2
146.2
146.196
1200.46
146.2