/*--------------------------------*- C++ -*----------------------------------*\
| =========                 |                                                 |
| \\      /  F ield         | OpenFOAM: The Open Source CFD Toolbox           |
|  \\    /   O peration     | Version:  v2012                                 |
|   \\  /    A nd           | Website:  www.openfoam.com                      |
|    \\/     M anipulation  |                                                 |
\*---------------------------------------------------------------------------*/
FoamFile
{
    version     2.0;
    format      ascii;
    class       volScalarField;
    location    "2.5";
    object      ILambda_10_0;
}
// * * * * * * * * * * * * * * * * * * * * * * * * * * * * * * * * * * * * * //

dimensions      [1 0 -3 0 0 0 0];


internalField   nonuniform List<scalar> 
108993
(
146.2
146.419
146.2
146.2
146.2
146.2
146.208
146.2
146.2
146.207
146.2
146.2
146.2
146.2
146.2
146.209
146.212
146.2
146.2
146.784
146.2
146.2
146.447
146.2
146.2
146.2
146.2
146.708
146.251
146.2
146.2
146.2
146.2
146.2
146.2
146.2
146.2
146.2
147.434
164.285
147.24
146.2
146.2
146.2
146.219
146.272
146.2
146.203
146.201
153.811
146.2
146.248
146.461
146.2
146.2
146.2
146.2
146.2
146.2
146.2
146.2
146.2
146.2
146.2
146.2
146.201
146.2
146.2
146.2
146.223
146.2
146.2
146.2
146.2
146.201
146.2
146.2
146.204
146.2
146.2
146.2
146.2
146.2
146.2
146.2
146.2
146.2
146.2
146.2
146.2
146.2
146.2
146.2
146.2
146.2
146.2
146.2
146.2
146.2
146.2
146.2
146.2
146.2
146.2
146.2
146.2
146.2
146.2
146.2
147.423
146.245
146.2
146.345
146.257
146.2
1792.56
146.2
146.2
146.207
146.2
146.2
146.2
146.224
146.2
146.2
146.215
147.481
146.2
146.2
146.2
146.2
146.2
146.2
145.627
146.2
146.2
146.2
146.2
146.2
146.2
146.2
146.2
146.203
146.2
146.2
146.2
146.2
146.934
146.2
3529.63
3614.84
146.2
146.199
4279.46
146.2
146.473
146.2
146.2
146.2
146.203
4600.4
146.2
146.2
146.2
146.2
146.343
146.2
146.2
146.2
146.2
146.2
146.2
146.206
146.2
146.296
146.203
297.944
146.2
146.2
146.2
146.205
146.2
146.2
146.2
146.2
146.2
146.2
146.2
146.2
146.2
146.2
146.2
146.2
319.334
146.2
146.2
147.503
146.2
146.2
146.2
146.2
183.297
146.2
146.2
146.272
146.459
146.2
148.317
146.2
1070.67
146.227
146.2
316.456
148.933
147.548
146.2
146.2
146.2
146.2
146.2
146.353
2310.41
146.201
207.557
146.201
146.2
146.2
146.2
146.307
146.2
152.966
146.2
146.2
146.275
146.2
146.2
146.2
146.2
146.287
146.2
146.2
146.2
146.2
146.2
146.2
146.208
148.926
146.242
146.2
146.2
146.2
146.2
146.2
146.2
146.2
146.2
146.2
146.2
146.2
146.2
146.2
146.201
146.22
146.216
146.2
146.2
146.2
146.203
146.2
146.2
146.2
146.2
146.354
161.166
146.771
146.2
146.2
146.443
146.2
146.275
146.365
146.478
146.447
146.2
146.2
146.211
146.2
147.613
146.2
146.888
146.2
146.2
149.412
146.2
146.2
146.2
146.2
146.2
146.207
146.2
146.255
195.221
146.2
146.2
146.2
146.206
146.299
146.2
146.208
146.421
146.2
146.2
146.206
146.2
146.215
298.605
146.2
146.207
147.394
146.2
149.849
146.2
146.204
146.202
146.2
6149.58
653.568
151.808
146.2
146.2
146.222
148.259
148.358
146.2
147.136
146.2
146.2
146.2
146.2
146.2
146.2
177.047
170.94
146.2
146.2
146.2
146.2
146.2
146.2
146.2
146.2
146.2
146.412
146.397
146.264
146.2
146.2
152.043
146.2
146.2
146.203
167.234
146.2
146.2
146.201
172.177
146.2
146.2
146.2
984.081
146.2
146.205
146.2
4761.91
178.467
147.945
146.2
146.2
146.596
146.2
146.744
146.661
165.614
146.209
146.2
146.218
146.203
341.872
146.209
147.015
146.656
146.214
146.781
146.2
146.261
161.836
1003.63
146.2
146.216
146.2
161.993
146.279
146.23
146.2
146.316
146.212
146.227
146.2
146.2
156.064
146.2
145.946
860.667
146.2
146.2
146.2
2170.5
146.213
150.056
146.2
181.702
146.968
210.323
146.2
146.2
152.045
146.2
848.467
167.259
146.2
824.304
146.68
208.25
146.2
146.2
146.208
146.783
146.211
146.2
146.2
146.2
146.2
146.2
146.201
146.215
222.812
218.133
146.204
146.2
146.201
146.2
146.2
146.2
146.201
146.2
146.2
146.2
146.201
146.2
146.2
146.207
146.2
146.209
2703.64
146.213
146.2
146.2
146.214
146.2
146.2
146.219
146.2
146.2
146.189
146.25
146.212
146.2
146.232
146.576
146.213
146.2
146.2
146.2
146.2
146.201
146.2
146.2
146.2
146.204
146.2
146.2
146.2
146.214
146.2
146.225
146.2
146.201
146.2
146.2
146.312
146.2
146.2
146.2
146.2
146.235
619.141
146.2
146.2
6923.8
146.2
146.203
163.402
146.2
146.204
146.2
146.2
146.2
146.2
146.202
146.227
152.455
151.709
170.493
146.519
146.211
146.212
146.286
146.2
146.21
146.48
146.202
146.2
146.211
146.2
146.2
146.2
146.445
146.2
146.208
146.409
146.2
146.459
146.2
146.2
146.2
146.2
146.2
146.208
146.2
146.2
146.236
146.202
146.757
146.2
146.2
146.2
146.2
167.861
9480.06
146.235
146.201
146.2
146.2
149.161
146.228
146.359
146.2
146.2
149.441
147.326
146.2
146.267
10398.1
146.221
549.673
148.256
146.2
146.247
192.241
146.314
146.2
146.2
146.2
146.2
146.2
146.219
146.307
146.224
146.201
146.2
148.396
146.2
146.202
146.2
161.261
146.2
146.2
146.2
146.2
146.208
146.2
146.2
207.955
146.229
146.2
146.2
160.989
146.2
146.203
146.2
146.333
146.2
146.204
146.2
151.039
146.2
146.205
146.2
348.698
146.2
146.263
146.2
146.2
148.854
146.226
146.2
146.2
147.735
146.542
146.215
607.451
146.223
191.351
47.2054
146.209
146.2
146.2
990.944
146.219
146.211
146.201
146.216
146.2
145.999
146.2
146.212
146.202
146.222
146.209
146.214
146.214
146.226
155.344
146.544
146.228
146.202
146.22
146.528
146.221
146.598
146.458
146.2
146.202
146.2
146.2
143.329
146.239
146.214
155.491
147.016
146.222
146.374
146.258
146.515
146.684
146.2
147.208
146.212
146.201
147.14
146.232
146.247
146.221
146.215
147.007
146.222
146.223
146.213
146.21
7502.81
146.2
146.2
146.21
146.204
146.207
16230.5
146.204
146.85
146.206
6878.01
146.265
146.2
146.2
146.2
146.214
146.2
146.223
146.677
146.2
146.2
146.287
146.549
423.65
146.2
5119.95
146.2
146.264
146.22
146.2
146.221
146.202
146.207
147.179
146.211
146.2
146.215
153.976
146.248
153.48
146.2
146.207
146.207
146.211
146.213
146.201
146.2
146.294
146.2
146.2
146.209
146.2
146.211
146.377
147.218
146.201
148.923
146.201
146.204
146.201
146.212
146.2
146.2
146.2
146.201
146.2
170.395
146.2
146.204
146.218
146.2
146.201
146.2
146.201
146.2
146.202
147.233
146.206
146.312
146.2
146.2
146.2
146.846
146.2
207.687
148.632
146.2
146.2
325.836
146.274
146.204
146.2
146.219
146.2
146.2
148.205
145.028
186.524
146.2
146.2
146.201
146.2
146.941
146.2
146.2
146.588
146.222
230.934
146.465
147
146.2
189.726
146.213
146.2
146.201
146.216
146.2
146.2
146.2
146.2
146.2
146.2
147.325
146.2
146.203
146.2
146.236
146.204
146.2
4941.13
146.206
11322.7
146.206
146.2
146.208
13276.7
185.937
146.207
146.201
146.245
146.217
146.217
147.704
146.204
146.2
146.206
146.203
146.2
146.204
147.001
146.2
146.2
146.2
146.234
146.2
146.217
146.205
146.2
146.2
188.118
146.2
417.39
146.2
188.028
146.2
179.34
146.229
146.212
146.504
146.2
146.225
146.224
146.216
148.061
146.582
146.217
146.223
146.2
146.215
146.222
146.213
146.2
146.2
146.219
146.563
146.2
146.209
146.211
146.223
146.268
146.336
146.536
146.594
146.298
146.231
146.345
285.48
146.2
148.606
146.673
341.112
146.2
146.2
146.204
146.208
146.287
146.635
146.2
146.217
146.378
146.2
146.227
221.778
146.202
212.518
146.207
146.2
623.647
175.214
146.201
146.22
146.2
146.2
146.221
146.615
871.728
146.2
357.817
146.21
146.22
146.203
146.2
146.21
146.245
146.209
146.2
146.203
146.201
146.481
146.204
146.2
146.242
146.2
146.205
146.222
146.209
146.221
146.2
146.786
146.2
674.097
146.202
146.2
146.2
146.298
146.378
146.2
146.206
1529.51
146.235
552.882
146.2
146.222
151.993
147.883
146.2
146.206
147.115
146.224
146.206
146.22
146.196
146.323
146.812
146.234
146.214
146.213
146.217
146.21
145.279
146.527
146.214
821.979
146.207
146.2
146.201
146.218
146.2
146.2
146.2
146.218
146.2
146.2
146.2
146.201
146.2
146.2
146.202
146.178
146.2
146.2
146.209
146.2
146.644
146.2
146.2
146.201
146.2
146.201
8357.66
146.203
146.727
146.2
146.2
146.255
146.2
146.327
150.278
146.2
565.311
146.2
147.884
146.218
146.251
146.2
146.2
146.2
146.2
146.203
149.34
146.2
146.2
146.2
146.2
508.219
146.2
148.861
146.2
146.2
146.661
146.238
146.381
146.479
146.2
146.2
147.322
146.621
146.2
146.2
146.2
161.228
146.202
157.176
146.2
146.207
146.205
146.2
146.431
146.262
146.206
147.173
331.214
146.234
146.223
159.757
146.384
146.204
146.2
146.2
146.211
146.21
3648.71
146.208
146.324
146.201
147.039
146.218
146.201
146.212
146.368
146.208
146.205
146.227
146.207
146.202
146.2
146.2
146.2
146.2
146.2
146.2
146.201
182.495
146.226
206.073
146.203
146.2
146.2
146.202
146.095
146.2
146.203
146.2
146.21
146.2
146.208
10360.1
146.219
146.2
463.885
146.201
146.2
146.2
146.2
146.2
146.83
13759.6
146.215
146.2
146.2
146.2
146.201
146.201
146.2
146.2
146.2
146.2
146.2
146.2
146.2
146.2
146.2
146.35
146.2
146.2
146.2
146.2
146.211
146.241
146.266
147.285
146.2
146.2
146.208
146.2
146.201
146.2
146.204
146.2
146.2
146.229
146.202
147.186
146.201
146.202
146.2
146.2
218.694
663.284
146.2
146.2
146.2
146.659
146.184
146.2
146.47
146.2
146.201
146.2
146.2
146.2
146.217
146.203
146.202
146.666
165.326
149.694
150.017
146.641
151.62
146.203
146.2
146.202
2939.51
146.2
146.209
146.22
146.214
146.213
6494.43
178.526
146.2
146.22
146.2
146.222
146.219
146.226
146.2
146.2
146.2
146.201
146.201
146.2
1163.92
1531.79
146.212
146.2
146.2
146.209
146.201
146.2
146.201
146.2
146.201
12867.9
146.217
167.089
146.2
146.207
146.2
146.208
336.637
146.606
146.232
146.218
146.204
146.254
146.218
146.229
168.95
146.2
146.2
146.214
146.2
146.2
5112.45
146.2
146.2
146.2
146.596
146.2
146.2
180.436
146.2
163.333
222.604
146.2
146.816
146.2
146.22
146.2
146.201
146.2
146.785
146.2
160.943
146.225
146.2
190.592
146.2
146.388
146.2
146.65
151.861
146.2
146.202
146.245
174.571
146.222
146.411
146.2
146.218
146.2
156.297
155.305
156.757
533.024
155.717
146.2
155.515
157.03
146.223
146.216
146.2
146.24
146.2
146.2
146.2
146.25
146.2
146.218
146.215
146.214
146.2
146.2
150.604
146.2
152.565
150.163
146.2
146.405
220.748
152.746
293.741
145.441
147.103
146.203
146.204
146.215
146.2
148.476
146.379
153.545
146.2
146.2
146.684
146.2
1225.49
146.2
146.214
146.201
146.207
146.222
146.202
146.2
146.202
146.2
146.202
146.2
146.2
146.203
146.202
146.218
145.707
644.761
146.201
825.029
147.037
146.2
146.302
146.2
146.205
146.203
146.201
146.2
146.665
146.482
146.205
146.202
819.909
146.691
146.2
146.2
146.2
146.202
146.203
146.687
1964.3
146.2
146.2
146.178
146.208
146.202
146.201
146.201
146.473
146.396
146.206
146.2
258.93
146.22
147.247
146.214
146.201
146.433
146.2
148.276
146.2
146.208
9394.58
146.211
146.208
146.551
233.76
147.507
146.215
2798.32
146.925
146.2
146.203
146.648
146.212
146.2
146.202
146.214
146.232
146.842
146.201
146.202
147.03
146.202
146.2
147.129
146.202
146.2
146.203
146.2
146.579
146.2
146.2
181.051
146.203
147
146.203
147.409
146.202
146.21
146.523
146.201
146.208
146.436
146.21
146.043
146.231
146.2
146.204
146.2
147.333
146.21
146.2
146.219
146.2
146.212
147.34
920.076
146.204
3100.39
146.2
31932.4
146.2
146.2
146.203
146.2
146.2
146.2
146.2
146.201
191.154
10496.9
146.289
146.233
146.201
146.2
146.2
146.201
146.201
146.2
1611.73
146.216
146.201
146.2
146.2
146.219
146.2
146.2
146.362
146.2
146.2
146.2
146.2
146.344
146.375
147.164
8182.64
146.2
146.201
10904.4
146.2
146.2
146.2
146.325
146.852
146.274
8441.06
146.2
146.2
1078.77
146.2
146.2
146.2
146.2
146.4
146.2
146.2
146.2
146.2
4562.63
146.226
146.2
146.243
146.219
146.2
146.272
146.2
146.2
146.2
146.2
146.2
146.2
146.837
146.2
146.214
146.497
148.763
169.134
146.201
146.2
146.491
9784.75
146.2
146.212
146.2
146.2
146.243
151.024
147.006
146.622
146.2
6338.26
146.457
900.731
146.2
147.579
146.246
146.241
150.475
146.226
146.617
146.227
152.545
146.224
146.229
146.227
146.225
146.292
146.23
146.282
225.251
146.708
146.656
146.2
146.2
158.444
146.2
146.201
4600.98
146.2
3002.46
146.231
146.2
146.2
146.2
146.2
146.231
146.396
176.89
149.867
230.626
146.2
145.615
146.232
146.489
146.2
146.526
146.2
146.2
148.092
146.2
146.304
146.2
146.2
146.219
147.973
146.232
146.203
146.516
146.216
146.201
146.235
146.2
146.2
146.206
146.2
146.2
146.2
147.37
141.026
146.252
395.502
940.898
146.201
146.2
146.292
215.195
159.848
4248.44
146.381
146.204
146.207
437.868
146.551
146.243
146.2
146.201
146.2
146.2
1361.54
146.2
146.283
146.205
4396.77
229.93
146.2
146.617
486.975
190.161
154.548
161.298
146.2
7019.74
4811.77
146.2
146.403
221.595
146.211
146.317
146.2
146.302
8930.76
146.632
146.307
187.894
146.226
146.282
146.2
147.079
11817.5
146.219
4107.05
146.203
146.203
146.235
146.2
2738.13
146.215
146.213
146.273
146.249
146.261
148.287
146.203
146.501
146.189
146.2
146.2
151.867
146.2
147.64
1250.78
146.215
4401.27
146.2
146.2
146.214
758.288
147.061
146.212
146.217
147
12672.5
1234.25
145.715
146.2
147.948
146.203
146.2
146.2
2002.31
146.125
146.216
146.216
146.13
212.678
148.646
146.18
146.286
146.2
146.201
146.2
146.2
146.2
146.2
146.209
266.358
5390.28
146.955
146.209
596.435
146.456
730.351
146.202
146.343
1831.92
15883.8
155.324
146.2
146.2
146.2
146.2
146.298
146.2
146.215
146.496
6366.02
146.303
146.223
150.734
147.178
146.761
182.62
146.2
11976.3
612.32
146.2
146.2
3877.33
665.996
146.2
146.201
146.2
146.463
146.2
7504.85
9130.84
7076.88
4588.01
146.2
8183.01
146.238
146.2
146.232
146.2
146.207
998.762
146.204
146.206
13115.8
146.456
146.2
146.207
146.2
146.2
146.2
146.805
146.201
157.29
312.05
138.625
148.149
146.468
146.829
146.208
146.2
146.2
146.2
1111.08
147.103
146.2
146.2
146.295
146.2
146.2
146.2
146.2
166.483
146.886
146.914
1078.47
3593.29
146.2
147.065
146.2
146.508
146.525
146.2
146.377
146.2
146.2
147.145
146.2
146.339
146.777
146.371
146.823
146.837
146.201
169.655
146.215
164.722
146.499
146.201
146.524
146.725
146.687
2929.06
146.2
146.201
196.272
160.947
146.344
298.533
146.733
146.778
146.201
146.2
16669.5
146.896
147.896
1354.47
182.341
275.42
151.292
146.2
649.872
146.201
146.94
146.2
819.5
1955.98
146.2
146.817
146.2
146.534
146.776
146.2
146.2
146.562
146.2
146.2
146.2
146.2
146.266
146.201
146.852
146.401
146.2
146.2
1284.01
146.511
146.2
146.21
146.2
146.2
146.201
146.2
146.273
146.271
146.826
146.2
146.205
146.43
146.2
146.214
1132.48
146.2
146.2
145.599
146.657
264.847
146.2
146.2
146.2
146.2
146.201
1049.02
5533.39
146.025
147.143
7046.25
145.64
146.213
146.2
146.406
146.203
768.975
161.137
146.201
146.2
146.2
146.221
147.721
146.2
147.071
146.204
146.2
146.206
146.207
146.2
146.847
146.2
147.229
146.2
146.2
146.201
146.201
146.2
146.907
146.217
146.2
146.2
318.09
146.2
146.214
146.201
146.2
146.684
146.706
146.23
146.217
146.2
146.204
146.825
146.2
147.324
146.2
146.944
146.746
146.2
6626.25
146.768
153.363
146.915
268.121
146.315
146.2
146.202
146.218
146.204
146.201
164.133
146.2
146.212
146.2
146.222
146.722
146.698
146.2
146.225
146.309
146.2
147.483
146.2
146.2
146.2
147.039
149.962
147.584
146.2
146.203
146.2
147.597
146.242
146.404
146.2
146.2
146.745
291.008
146.2
146.2
146.289
146.2
146.2
146.201
147.251
146.222
146.418
146.2
146.41
6304.75
146.226
8490.44
146.444
10869.8
146.427
146.231
200.402
6315.26
20341.4
12813.1
9260.94
23663.5
146.2
3422.2
149.125
10028.9
146.2
2885.74
28356.4
146.2
146.549
26220.7
146.2
3742
146.2
146.633
893.843
100.163
148.483
146.962
146.2
146.2
146.231
146.2
147.804
146.2
148.463
146.276
146.202
146.201
146.202
146.2
146.2
146.2
146.225
146.2
147.152
146.2
153.862
146.202
146.98
146.2
146.227
146.314
146.202
146.202
146.2
146.201
146.205
147.47
147.464
521.787
146.605
143.018
145.39
146.2
146.243
146.208
146.946
146.2
146.233
146.216
147.532
146.203
144.343
149.041
146.331
146.202
146.261
146.21
146.205
146.211
147.799
146.272
13076.6
146.993
146.205
146.178
8705.78
146.2
146.34
146.401
146.947
146.433
146.434
146.407
146.226
146.211
150.061
146.2
146.206
348.613
146.2
146.213
148.555
146.229
146.2
146.2
146.223
146.213
146.291
146.336
146.2
146.2
146.497
215.821
146.203
150.238
384.184
146.201
146.225
146.201
146.217
196.908
151.441
146.435
146.219
146.2
430.318
146.217
147.334
146.201
146.201
146.2
147.494
146.2
146.2
148.383
146.223
145.711
147.567
146.249
148.807
146.23
224.697
146.2
147.811
146.332
146.315
146.2
146.23
146.308
146.202
146.254
146.671
146.2
146.232
146.376
146.2
146.2
146.2
146.202
146.2
146.206
146.226
147.526
146.233
147.495
146.208
146.204
146.239
151.645
147.555
146.227
146.202
146.516
146.244
147.509
146.2
146.234
146.17
146.229
147.25
146.215
148.362
146.55
146.215
193.845
146.2
146.222
146.2
146.214
146.215
146.213
162.499
146.214
150.268
146.226
155.307
146.213
146.201
146.2
146.232
146.221
146.205
146.2
146.201
146.214
145.462
146.235
146.204
146.2
146.2
142.999
146.21
146.233
146.2
146.205
146.201
146.2
146.229
146.2
146.322
146.2
146.201
146.2
146.2
146.228
146.2
146.2
146.2
146.208
146.2
146.2
121.287
146.201
146.214
3913.55
146.2
146.233
146.206
146.2
146.2
146.26
146.2
146.2
146.221
146.216
146.214
146.2
146.201
146.2
146.218
146.229
146.2
146.2
146.205
146.2
146.2
146.221
146.2
146.209
146.209
146.2
146.2
146.201
448.233
146.43
146.2
146.2
146.2
146.2
146.466
146.618
146.2
146.2
146.203
146.474
146.2
146.2
146.2
146.564
146.215
146.222
146.545
146.21
146.201
170.054
146.219
162.257
146.469
1218.12
146.458
146.2
146.241
146.532
146.2
146.2
146.52
146.48
146.554
146.2
146.227
146.2
146.477
151.66
146.2
152.101
146.207
146.2
148.357
146.205
146.2
146.435
148.805
146.201
146.218
148.701
146.202
146.211
150.978
146.207
146.203
146.236
146.212
153.021
146.207
2558.96
146.2
146.2
146.257
143.31
146.262
146.201
146.2
146.2
146.207
146.205
146.215
143.239
146.447
146.2
146.205
147.395
146.203
457.926
146.202
146.205
146.208
722.289
146.2
146.358
2098.28
146.2
146.201
146.233
146.302
146.2
146.207
146.2
146.2
146.206
146.2
256.174
146.208
146.21
257.845
146.58
146.2
146.207
146.211
146.2
146.2
146.273
146.211
146.201
146.221
146.2
146.251
184.083
146.213
146.267
783.291
146.291
146.326
146.209
145.945
146.219
146.229
146.204
146.294
146.218
146.269
1156.46
146.212
146.205
146.214
146.214
146.25
146.2
146.453
146.212
146.222
146.522
146.224
166.299
146.558
146.201
146.585
144.234
146.201
147.313
146.201
146.553
146.2
11671.7
2317.9
6731.07
146.2
146.2
146.2
146.66
146.219
9927.05
146.2
146.641
146.592
146.43
146.2
14279.2
146.28
146.22
7178.39
146.229
146.2
146.214
146.2
146.223
146.236
146.201
146.2
146.223
146.202
146.2
146.2
148.474
146.2
146.208
146.2
146.324
146.251
146.328
146.304
146.2
146.2
146.217
146.201
146.2
146.2
146.2
146.2
146.22
146.204
147.284
146.2
150.332
146.245
146.481
146.2
146.42
146.529
146.2
146.2
174.359
146.2
146.206
146.2
146.2
146.2
146.214
146.2
146.2
146.201
146.2
146.219
5923.41
146.2
146.201
146.2
146.264
146.255
146.2
146.2
146.831
146.2
146.217
146.2
146.389
146.219
146.2
146.2
146.292
146.678
146.2
146.22
146.2
146.211
146.216
146.454
146.2
151.33
146.212
146.347
146.2
146.264
146.213
146.903
147.331
146.247
147.273
146.222
146.861
146.2
146.2
146.2
146.2
146.2
146.2
146.2
146.618
146.21
146.2
146.205
419.973
148.597
146.2
146.291
146.21
146.946
146.303
2663.07
146.317
147.647
1384.68
145.897
163.613
150.68
146.391
146.296
146.296
146.293
156.879
146.2
146.263
146.311
146.205
146.245
146.206
146.201
146.551
226
146.267
149.948
146.201
147.585
799.122
146.2
146.202
146.237
146.48
146.253
181.754
146.434
146.436
146.204
146.207
146.2
146.2
146.447
146.2
146.2
146.2
146.2
146.2
146.207
146.2
146.219
146.209
146.377
146.201
146.2
147.086
148.478
146.2
146.279
146.2
146.2
146.2
146.839
146.253
146.271
146.2
146.2
146.2
146.201
146.203
146.201
10955.7
146.2
146.2
146.205
147.547
146.354
146.202
146.2
11667.6
12227.9
146.211
10919.5
932.077
146.206
171.518
581.968
146.2
146.2
146.2
146.201
146.2
146.2
785.366
146.727
1203.84
146.348
549.784
146.2
146.216
146.229
135.285
146.201
1260.62
146.204
4804.47
256.122
146.2
146.223
1143.39
146.201
146.2
146.411
146.201
146.2
1526.22
152.519
146.2
146.2
147.846
146.201
146.201
146.2
146.2
146.219
146.401
146.2
146.201
146.209
1008.5
146.217
146.2
146.2
146.2
571.595
146.2
146.236
147.022
146.2
146.245
146.2
146.2
147.756
146.203
146.2
146.2
146.2
146.2
146.203
146.201
146.2
147.485
146.653
146.2
146.484
146.2
146.2
146.2
146.2
146.2
146.2
146.205
146.2
146.2
146.432
146.2
16341.4
146.206
146.2
146.2
146.2
146.2
146.206
146.222
15790.6
146.907
15685.2
146.258
146.228
146.205
14573.1
15875.5
146.203
165.755
146.2
146.206
146.2
146.2
146.2
146.2
146.46
3531.06
146.2
146.804
147.093
153.858
146.206
146.2
146.454
146.2
146.214
146.452
146.253
146.205
146.2
146.287
146.208
146.2
146.217
1897.38
146.206
395.634
146.2
146.2
146.936
288.909
558.492
1140.35
196.254
3288.94
146.252
146.561
146.506
1473.89
146.2
146.418
146.2
146.2
146.222
147.293
146.211
146.274
147.253
147.143
146.201
147.136
146.654
146.2
146.2
146.2
141.543
148.234
146.229
146.2
135.45
162.975
146.546
146.277
147.024
146.231
146.549
146.2
146.213
146.549
146.213
146.2
146.256
146.461
146.2
146.202
146.496
146.201
146.201
10550.9
146.201
146.521
5591.52
146.222
146.224
146.483
146.658
146.206
146.531
145.899
148.264
146.623
146.2
148.063
146.208
146.861
146.589
146.214
146.421
146.204
146.262
146.368
146.2
146.835
146.326
146.2
146.376
146.2
146.2
146.2
146.274
147.071
146.212
146.245
146.2
146.45
146.374
146.473
146.205
146.2
147.442
146.37
151.073
146.2
146.438
181.485
1065.92
146.318
146.201
146.9
146.2
146.2
146.2
146.2
146.201
164.571
146.201
146.338
146.201
146.321
146.2
146.2
146.2
146.2
146.2
146.217
146.238
146.2
146.2
147.438
146.312
146.371
146.209
146.2
147.345
146.202
146.2
146.2
146.321
145.757
146.2
146.216
146.258
146.202
146.2
146.222
146.2
146.2
146.2
146.2
146.2
146.202
146.205
147.041
146.2
146.229
146.2
578.132
146.2
146.202
144.843
146.234
146.204
146.203
146.202
153.339
146.442
146.646
146.2
146.2
146.2
146.2
147.037
146.2
146.2
146.2
146.203
146.2
146.238
146.2
146.2
146.246
146.223
146.2
146.201
146.2
146.201
146.2
146.2
146.2
146.317
146.2
146.2
146.2
146.2
146.2
146.2
146.751
146.207
146.205
146.2
146.2
146.386
146.2
147.934
146.3
146.219
146.39
146.2
146.2
146.2
146.215
147.003
146.2
146.2
147.018
146.2
146.2
146.2
146.2
146.201
146.203
2931.73
146.2
146.2
146.2
147.098
147.026
147.086
147.575
2150.24
3157.24
142.928
146.2
146.27
147.095
146.2
146.201
146.2
157.01
2073.62
146.2
146.2
146.201
147.295
149.563
146.918
615.922
146.22
2299.25
169.691
146.229
146.219
148.056
146.2
146.221
143.878
146.312
146.2
146.227
807.44
146.261
1050.82
106.481
1055.57
146.724
146.232
146.201
146.52
146.235
146.231
146.353
146.342
146.202
11313.3
149.843
146.204
146.228
146.201
745.528
303.472
319.366
150.354
146.343
146.511
146.203
146.363
146.2
147.03
383.407
1041.4
146.2
838.04
146.2
146.056
146.2
146.212
146.2
148.281
449.187
146.2
146.2
146.22
156.96
146.2
4099.04
146.349
146.2
146.821
146.2
146.211
146.337
346.204
151.292
146.2
150.709
146.2
147.933
149.998
146.579
146.2
146.203
150.399
146.23
146.475
146.2
149.409
146.2
1256.72
146.32
1668.43
3788.66
167.732
146.2
147.066
748.596
149.229
146.207
165.504
146.507
146.2
146.499
1604.79
145.587
146.209
146.2
146.508
146.2
146.2
146.2
146.202
9465.85
146.202
23344.1
147.075
146.246
146.202
146.201
146.218
146.202
146.299
146.2
146.2
146.281
926.017
148.662
183.628
148.951
146.545
148.567
146.614
146.2
146.2
146.609
8301.12
152.973
146.214
189.764
855.126
148.807
146.683
485.485
146.2
147.188
146.742
149.179
146.2
149.481
276.269
752.412
152.56
162.472
226.131
1177.67
145.413
192.088
146.166
241.418
146.298
147.951
988.64
146.234
143.806
172.874
980.389
146.602
146.776
146.2
146.2
1010.01
146.203
146.2
155.205
146.2
146.256
146.2
53520.9
146.584
146.2
146.202
635.495
147.812
146.618
3743.16
1694.42
147.461
146.2
146.2
146.703
146.2
146.2
146.206
146.201
146.531
829.589
146.201
146.2
687.452
146.691
146.2
146.459
289.39
147.014
146.374
146.599
146.2
146.2
146.203
146.55
147.724
149.17
146.2
245.753
146.2
149.872
9692.75
151.441
146.733
146.2
146.203
146.2
146.2
146.2
6160.79
146.358
146.2
147.556
146.2
146.2
229.739
146.2
146.34
146.202
146.542
176.966
146.2
146.2
146.211
11743.1
146.2
146.462
147.477
146.201
148.039
146.204
146.2
146.2
146.2
146.2
146.2
154.776
146.2
146.501
146.338
146.2
146.661
11099.3
535.819
141.631
146.2
146.268
156.057
146.2
144.119
147.934
147.559
146.561
3549.69
9879.32
146.214
146.333
195.99
1763.62
402.485
146.229
151.181
347.815
146.2
146.2
146.2
146.21
145.626
146.275
148.36
146.2
146.21
146.2
147.69
147.132
146.2
326.009
224.329
146.252
991.911
588.546
146.2
147.022
3384.83
165.801
146.201
146.2
146.237
146.2
146.204
146.2
2806.56
146.517
10999.9
146.197
146.268
146.25
146.206
146.2
146.2
10166.5
146.2
146.2
146.2
11468.9
145.863
159.948
146.3
146.226
146.395
147.542
150.624
146.308
146.206
146.288
146.471
5664.09
141.039
168.249
146.335
146.436
1398.74
149.752
787.171
2054.72
146.244
224.89
146.202
146.201
5979.99
146.212
146.204
146.32
155.025
146.215
146.2
148.365
146.528
9968.72
146.204
146.2
146.216
146.274
146.2
146.2
146.509
147.59
146.237
154.221
146.206
146.289
146.203
146.206
146.2
146.2
146.624
8227.49
619.898
145.464
146.203
147.68
148.113
146.397
146.204
155.005
146.204
146.2
146.227
5560.81
146.201
151.625
146.349
147.218
146.2
146.2
146.2
146.203
146.449
151.525
146.202
147.346
147.019
146.213
146.201
146.205
146.2
147.515
146.211
146.2
146.2
146.214
164.88
155.019
146.203
146.203
146.226
146.259
149.785
146.28
146.201
146.201
146.2
146.249
146.2
146.2
269.32
146.201
146.228
146.226
146.2
146.654
146.461
146.28
146.302
263.937
146.2
161.139
146.201
146.2
146.2
222.717
146.282
146.254
3193.31
146.203
146.301
178.083
146.2
146.203
146.201
146.201
146.205
146.203
161.566
146.203
146.2
146.209
146.642
242.001
171.966
485.96
146.502
149.951
3246.58
146.204
5406.02
207.41
646.491
147.783
146.2
146.292
146.2
146.202
146.207
146.222
9396.52
146.201
146.205
147.963
146.301
165.392
143.788
146.299
148.69
146.203
146.22
146.226
146.216
154.92
146.203
146.221
146.229
146.209
151.458
147.154
146.561
146.324
146.203
146.239
146.467
147.532
146.234
244.879
13270.4
146.231
211.916
560.476
146.201
1602.64
146.216
287.983
146.238
961.866
146.237
906.992
170.058
146.201
146.206
148.772
149.698
150.964
146.2
345.674
146.209
147.454
146.2
146.201
146.2
146.933
145.926
146.208
146.329
147.257
146.214
158.84
146.2
146.311
5530.09
146.125
146.226
146.2
41.4242
146.201
146.2
146.217
148.253
146.217
146.201
146.415
1417.15
146.24
146.2
146.2
147.335
146.258
146.587
146.464
146.323
146.221
146.2
161.722
146.2
146.2
146.237
146.255
146.2
146.2
146.201
146.358
146.246
146.2
146.203
146.607
146.2
146.202
146.202
146.243
146.2
146.2
146.2
146.2
656.026
93.3311
113.537
146.2
146.2
146.2
146.2
252.777
146.2
146.201
146.257
146.2
146.201
146.2
146.26
146.201
146.2
146.285
146.2
146.219
146.212
146.339
146.215
146.214
172.04
146.2
146.217
146.209
146.601
146.2
146.202
146.2
146.2
146.215
146.2
147.036
146.208
150.476
209.753
178.248
146.336
150.424
148.086
146.2
146.2
146.2
146.211
146.2
146.388
16582.2
146.2
22195.9
146.2
146.2
26213.5
30214.2
146.2
146.46
183.342
146.2
146.2
146.2
147.481
146.2
23223
147.664
26086.9
146.204
146.2
147.162
146.33
146.311
146.422
146.265
146.248
146.2
146.2
146.201
146.2
146.2
146.201
146.2
146.2
145.852
146.206
147.882
150.287
146.214
146.215
146.2
146.201
146.425
146.378
146.367
146.2
147.554
146.612
146.351
146.85
146.2
146.312
146.2
146.583
166.041
146.2
146.339
146.238
146.201
161.009
151.049
146.249
146.213
146.22
146.213
146.697
146.202
171.647
146.2
146.21
146.201
150.008
146.2
146.231
146.201
146.209
148.52
146.421
146.2
146.336
367.56
147.12
146.2
146.244
146.358
147.865
146.434
146.822
146.2
146.209
146.976
146.635
146.803
146.496
146.215
148.183
146.217
161.837
149.453
146.336
146.235
146.213
146.81
146.2
146.322
154.875
146.233
146.496
146.203
153.312
146.862
147.894
146.26
146.762
144.558
146.526
146.23
146.496
146.21
163.21
2755.15
146.2
146.201
167.764
150.923
146.132
146.466
145.495
146.812
146.2
146.201
152.216
147.498
146.206
145.762
146.222
172.089
147.39
147.638
163.773
146.632
208.053
3810.07
146.405
6754.55
678.634
147.35
146.615
149.363
6420.99
153.281
147.838
5655.37
147.12
429.754
146.2
146.207
146.2
146.272
146.2
146.203
146.439
147.846
146.2
146.2
162.941
146.484
146.397
146.2
146.414
146.208
146.421
146.849
146.279
147.54
145.947
151.035
146.401
146.336
146.252
146.315
146.34
146.2
146.207
146.204
157.592
146.2
146.411
426.52
146.201
146.205
146.528
149.668
964.123
149.597
146.522
146.748
151.45
150.388
148.061
148.023
146.202
146.221
146.201
4190.68
7438.68
6393.68
16356.3
16957.8
146.17
1001.94
146.545
146.387
180.014
151.438
146.282
146.628
146.353
9338.8
146.468
146.317
146.2
17919
1934.31
146.212
146.213
4592
146.791
146.619
146.278
156.409
146.301
149.153
146.204
146.634
146.2
146.324
146.523
146.2
146.351
146.259
146.38
146.355
146.35
146.204
146.476
146.363
146.2
146.443
146.649
146.225
146.351
147.059
146.205
146.269
264.392
148.714
3326.18
1401.28
146.2
1825.5
1618
146.203
146.202
146.2
146.3
1760.21
146.88
153.408
146.25
146.298
146.224
146.2
148.729
146.332
146.2
146.243
2160.89
146.703
147.543
146.2
146.267
146.237
146.484
147.577
149.329
146.2
146.202
146.531
905.684
146.645
146.451
146.912
146.424
146.205
146.268
146.445
146.214
146.234
146.422
146.236
151.452
146.385
146.674
146.464
146.2
146.201
150.116
158.501
146.748
147.734
146.464
146.38
146.414
9283.21
146.206
146.269
146.455
146.2
146.201
148.51
146.339
166.147
2649.02
146.2
146.2
146.259
146.2
146.2
147.875
156.248
146.2
146.2
146.392
146.275
146.203
146.2
146.495
146.201
146.212
146.2
146.2
207.255
146.2
146.202
146.2
146.2
146.2
146.2
198.634
146.201
146.337
146.2
146.2
146.2
146.211
146.201
146.222
146.345
146.201
146.201
150.546
146.201
146.2
146.266
146.201
146.2
146.2
146.2
146.492
146.2
146.285
146.208
146.212
146.2
146.276
146.2
146.2
146.211
146.2
176.371
146.347
146.2
146.2
146.2
146.204
146.202
146.203
146.656
146.2
146.202
146.2
146.222
146.2
146.2
146.204
146.2
146.2
146.203
146.2
146.216
146.2
146.2
146.205
146.2
146.202
146.2
146.2
146.2
146.2
146.2
224.217
146.2
146.2
146.2
146.217
146.2
146.2
146.2
146.2
213.913
146.2
150.449
146.2
146.2
146.209
146.24
146.234
146.2