/*--------------------------------*- C++ -*----------------------------------*\
| =========                 |                                                 |
| \\      /  F ield         | OpenFOAM: The Open Source CFD Toolbox           |
|  \\    /   O peration     | Version:  v2012                                 |
|   \\  /    A nd           | Website:  www.openfoam.com                      |
|    \\/     M anipulation  |                                                 |
\*---------------------------------------------------------------------------*/
FoamFile
{
    version     2.0;
    format      ascii;
    class       volScalarField;
    location    "2.5";
    object      ILambda_14_0;
}
// * * * * * * * * * * * * * * * * * * * * * * * * * * * * * * * * * * * * * //

dimensions      [1 0 -3 0 0 0 0];


internalField   nonuniform List<scalar> 
108993
(
147.205
146.201
146.2
146.199
146.192
146.201
146.209
146.188
146.2
146.224
146.205
146.202
146.197
146.201
146.357
146.255
146.215
146.214
146.199
146.2
146.53
146.2
146.202
147.855
146.197
146.201
146.2
146.2
146.201
146.2
146.2
146.204
146.2
147.637
146.2
146.173
146.2
146.253
5877.79
157.744
146.2
146.2
146.201
146.199
146.235
418.059
146.2
146.213
146.201
146.2
146.2
146.415
146.201
146.2
146.219
147.462
146.2
146.2
146.201
146.2
146.2
146.2
146.2
146.2
146.2
146.201
146.199
146.198
146.207
146.269
147.392
146.198
146.186
146.198
146.2
146.2
146.2
146.288
146.2
146.198
146.2
146.235
146.199
146.201
146.231
146.202
146.201
146.202
146.2
146.199
146.2
146.2
146.2
146.189
146.2
146.21
146.2
146.251
146.2
146.2
146.2
146.201
146.451
146.224
146.226
146.2
146.2
146.2
146.199
271.576
146.259
146.2
146.385
146.486
146.202
146.522
146.19
146.23
146.237
146.2
146.203
146.2
146.868
146.213
146.243
146.255
146.201
146.455
146.2
146.2
146.21
146.2
146.205
146.504
146.2
146.2
146.2
146.208
146.2
146.201
146.213
146.2
146.202
146.2
146.2
146.193
146.237
761.433
146.213
147.451
147.298
146.201
146.2
147.12
146.199
146.292
146.426
146.2
146.2
146.236
147.146
146.2
146.2
147.891
146.206
146.399
146.2
146.2
146.2
146.207
146.197
146.928
146.271
146.2
146.201
146.201
146.286
146.2
146.208
146.2
146.224
146.2
146.2
146.213
146.209
146.41
146.2
146.23
146.271
146.213
146.223
146.2
146.224
146.263
146.205
146.214
146.2
146.273
146.22
146.213
146.2
146.274
147.248
146.2
146.314
148.34
146.2
153.344
146.211
965.149
146.348
146.252
146.288
146.452
1903.83
146.243
146.409
146.2
146.2
146.2
146.201
147.471
146.389
146.268
146.201
146.2
146.2
146.2
146.477
146.2
146.802
147.808
146.2
146.2
146.2
146.2
146.2
146.2
146.248
146.2
146.2
146.201
146.2
146.2
146.2
146.324
146.392
146.945
146.2
146.2
146.2
146.2
146.201
146.206
146.2
146.2
146.2
146.202
146.2
146.201
146.2
146.2
146.211
146.277
146.2
146.201
146.2
146.201
146.201
146.204
146.199
146.2
152.955
5082.52
342.358
146.21
146.2
146.687
146.227
146.201
146.201
147.021
147.951
146.201
146.2
146.206
146.199
146.201
146.234
1304.32
146.201
146.2
146.201
146.2
146.201
146.2
146.2
146.2
146.207
146.2
146.962
147.088
146.205
146.2
146.2
146.201
146.201
146.2
146.201
149.271
146.2
146.2
146.219
146.184
146.201
147.331
146.2
146.224
6109.37
146.2
146.201
146.2
146.2
146.2
146.304
146.821
6522.88
148.198
146.2
146.216
146.201
147.358
147.272
146.2
1497.45
146.766
146.2
146.2
146.205
146.2
146.2
146.364
146.201
146.211
146.264
146.283
146.2
146.2
146.2
146.2
146.2
146.201
146.447
149.48
146.201
146.203
146.222
146.65
146.2
146.2
146.228
146.201
146.2
146.2
146.201
146.2
146.2
146.2
146.235
13587.8
146.208
146.209
146.2
147.629
146.2
307.999
146.236
146.201
168.944
146.213
170.2
179.079
146.201
146.344
146.346
146.205
146.208
2219.08
146.201
246.998
244.445
146.205
224.126
146.201
172.197
146.201
7914.89
146.2
146.273
146.2
146.201
146.603
144.086
146.2
146.201
146.205
146.204
146.28
146.202
1868.3
146.2
146.2
21195.1
147.396
146.202
146.2
146.714
146.214
146.267
146.2
2521.78
146.201
2557.12
146.2
146.2
1698.86
146.456
147.196
4886.37
146.199
6235.9
7181.6
5803.36
146.2
146.2
146.22
146.201
146.201
146.2
146.2
146.26
146.2
146.203
146.201
146.234
146.211
146.204
146.268
146.2
146.201
146.202
146.2
146.2
146.525
146.2
146.447
146.237
146.201
146.221
146.2
146.801
146.203
146.803
147.512
146.206
146.2
146.201
146.815
146.2
146.2
146.22
146.189
146.2
146.201
146.201
146.22
146.2
146.358
146.423
146.227
146.209
146.2
146.2
146.2
146.2
146.2
146.2
146.2
146.223
149.246
146.232
146.224
146.275
146.2
146.243
146.2
146.206
146.2
146.2
146.2
146.2
146.2
146.2
146.2
146.227
146.977
146.2
146.2
6030.4
146.2
146.236
146.205
146.2
146.22
146.2
146.2
146.201
146.2
146.2
146.2
146.201
146.201
146.203
146.204
146.201
146.221
146.206
146.203
146.223
146.204
146.201
146.178
146.216
146.201
146.235
146.201
146.338
146.212
146.357
151.742
146.201
198.894
146.197
146.2
146.206
146.206
146.2
146.215
146.223
146.2
146.956
146.201
174.563
146.209
146.243
146.201
146.2
146.2
157.375
146.2
146.909
146.2
146.2
146.203
146.25
150.7
146.394
146.2
146.2
146.2
146.204
146.203
8169.32
146.254
147.581
146.204
146.266
146.259
6989.89
146.281
146.221
147.14
146.2
146.201
147.888
146.272
549.741
146.266
146.206
146.2
146.201
147.826
146.2
146.2
3993.47
146.2
146.2
147.807
146.203
146.202
146.2
146.215
4810.74
146.216
146.2
147.745
5114.88
147.867
146.215
146.201
146.828
146.202
146.206
146.201
146.201
146.2
146.242
147.837
146.563
146.2
146.472
146.2
146.887
146.784
146.2
146.2
146.2
146.31
147.444
146.261
147.323
146.2
146.601
146.373
146.253
146.201
147.884
1405.87
146.237
146.331
146.203
146.353
146.2
146.21
146.2
146.258
146.206
146.31
146.21
146.26
146.257
146.261
146.307
146.333
146.215
146.2
151.022
146.364
146.292
146.364
146.343
146.201
146.213
146.2
146.201
146.201
146.229
146.222
146.273
146.508
146.217
146.215
146.431
146.337
146.357
146.2
146.258
146.221
146.201
1656.98
146.203
146.265
146.309
146.243
1483.12
146.242
150.898
146.219
146.222
147.568
146.2
146.205
146.251
146.208
146.2
857.52
146.205
741.827
146.209
5459.35
146.407
146.2
146.201
146.201
146.205
146.2
146.214
146.201
146.2
146.201
146.233
229.978
7170.48
146.205
2805.83
146.2
146.308
146.249
146.2
146.316
146.2
146.275
146.302
146.293
146.247
146.271
146.237
146.273
146.361
146.18
146.305
146.278
146.255
146.279
146.204
146.2
146.333
146.2
146.2
146.203
146.2
146.277
3344.14
1243.25
146.217
146.219
146.222
146.218
146.217
149.402
146.392
146.2
146.2
146.224
146.2
146.22
146.2
146.213
146.21
146.201
146.252
146.2
146.226
146.232
147.051
146.2
146.201
173.621
146.198
146.2
146.232
146.357
146.2
147.054
147.072
146.205
146.232
13968.2
142.449
146.28
146.2
146.654
146.232
146.231
146.211
146.201
146.217
146.176
146.201
147.109
146.2
5519.13
146.2
146.227
643.981
146.246
166.569
146.218
822.269
146.2
146.213
146.253
146.2
146.203
146.239
146.2
146.462
146.2
146.211
146.202
146.202
146.2
146.2
147.054
146.22
146.497
146.2
146.221
147.111
146.2
146.854
146.207
146.201
146.219
15878.5
146.228
146.2
152.465
146.469
146.201
146.274
153.927
167.919
146.22
146.232
146.2
146.206
150.012
480.798
146.202
146.626
146.223
146.263
146.229
146.201
158.779
146.218
146.201
296.38
146.234
301.859
146.327
191.884
146.234
146.207
146.216
146.262
146.404
146.215
146.216
146.216
151.489
146.206
146.87
146.201
146.201
146.201
146.24
146.213
146.284
146.199
146.201
146.302
146.64
146.2
146.244
146.272
146.364
146.2
146.388
146.494
147.124
146.248
146.515
146.202
147.11
146.2
146.936
3007.55
713.141
146.2
146.2
146.295
146.206
146.372
146.201
146.178
146.261
146.857
146.2
146.392
146.207
146.2
147.15
146.201
147.195
148.101
1375.7
146.2
146.204
146.171
146.201
146.211
146.382
147.128
146.395
147.09
186.412
146.209
146.2
146.201
146.216
146.211
146.201
146.2
146.216
146.2
146.421
146.201
146.2
146.297
146.2
146.229
146.242
146.216
146.212
146.2
166.194
146.985
150.901
146.201
146.201
146.2
146.367
146.421
146.2
146.213
146.827
146.394
146.46
146.201
146.215
146.376
147.268
146.203
220.803
997.98
146.211
146.208
146.212
146.201
146.431
280.98
146.432
150.086
146.417
146.238
146.205
146.2
146.204
146.775
147.501
146.215
146.2
146.201
146.923
146.2
147.093
146.2
147.078
146.255
146.2
146.264
146.201
146.233
146.295
146.201
146.849
146.285
146.201
146.212
146.201
654.993
146.2
146.2
146.201
146.201
146.201
271.421
146.204
146.2
146.265
146.199
146.478
146.201
146.371
146.201
146.282
146.241
146.201
146.259
146.254
146.413
146.201
146.263
146.278
146.773
146.202
146.217
146.2
146.201
146.219
146.2
146.951
146.222
146.218
146.2
146.221
146.235
146.314
146.217
146.219
146.234
146.201
146.205
146.261
146.247
146.2
146.2
10153.1
146.203
146.229
146.201
215.039
146.276
146.2
146.46
146.366
146.204
146.215
180.36
146.216
146.245
146.218
146.468
146.201
146.447
146.675
146.315
151.027
1032.85
146.207
146.202
146.219
146.2
161.142
146.222
204.247
146.396
187.323
146.845
146.655
146.313
146.234
146.201
146.2
146.2
146.2
146.2
146.196
148.73
146.545
146.201
1106.58
147.969
146.235
146.2
146.215
146.823
146.2
149.952
146.281
146.233
146.2
146.216
147.945
146.276
146.2
146.25
146.201
146.204
146.226
146.2
146.2
146.2
8635.06
146.25
146.199
146.232
146.2
146.214
146.206
146.2
147.3
146.208
146.24
146.2
146.331
146.328
146.666
146.212
146.201
146.2
146.387
147.139
146.259
146.222
146.542
146.474
4160.93
146.247
146.183
146.224
146.201
146.203
146.24
146.2
146.2
146.226
146.429
146.206
146.213
146.2
146.2
146.254
146.207
13401.7
2095.52
146.34
146.204
146.2
146.203
146.2
146.2
146.344
146.2
146.201
146.2
146.2
146.2
146.214
150.671
146.2
146.344
146.201
146.201
146.205
197.838
146.219
152.276
146.201
146.201
147.537
146.193
146.241
146.206
146.206
146.204
154.897
146.249
146.2
202.502
146.202
338.184
206.102
146.204
146.2
146.2
146.239
146.2
146.227
146.196
147.352
6134.83
216.207
146.2
146.2
225.208
146.201
146.2
146.201
146.2
146.201
148.209
193.118
146.43
146.203
146.213
146.219
146.203
146.327
146.201
146.201
341.014
146.243
146.431
350.894
146.285
146.434
146.2
146.265
146.27
146.2
146.346
6279.43
146.201
146.373
146.215
152.1
146.224
146.2
146.207
146.2
146.313
148.417
146.2
146.237
147.184
146.264
147.305
147.056
146.2
146.237
146.2
146.482
146.231
147.766
146.446
147.136
146.201
146.2
146.233
976.71
146.201
146.205
146.29
8106.88
146.481
146.2
146.207
146.283
146.21
146.245
146.232
146.228
146.286
146.229
146.2
146.246
146.247
146.205
146.205
146.201
146.266
146.21
146.2
146.2
146.206
146.201
146.2
146.2
146.284
146.2
146.212
146.201
150.259
146.201
146.201
146.2
146.344
146.804
146.201
146.422
146.204
146.2
146.201
146.201
146.216
146.201
146.2
146.391
146.201
147.372
148.65
146.201
149.144
152.288
148.114
146.214
146.574
146.203
146.379
147.618
146.2
146.201
146.201
147.523
146.2
146.2
146.242
146.201
146.214
146.201
147.452
147.901
146.344
173.917
146.2
146.758
146.2
146.201
146.201
146.202
146.203
177.334
148.791
146.306
153.376
909.542
146.402
146.21
147.246
146.186
148.113
147.466
146.203
147.35
146.2
146.2
146.201
146.576
146.201
146.2
146.206
377.459
961.298
146.423
146.2
146.541
146.201
146.2
146.254
146.205
146.257
146.2
146.2
146.277
146.596
4452.27
146.204
146.292
146.534
146.298
146.2
146.229
146.707
146.2
146.212
146.278
146.333
146.237
146.199
146.313
146.351
146.284
154.829
146.321
146.303
1174.56
146.204
146.201
201.485
146.208
146.2
146.207
146.207
3238.37
146.201
147.683
146.792
146.211
3468.1
146.205
149.753
146.212
146.206
148.581
147.612
146.206
151.474
146.236
146.201
146.51
146.201
146.201
146.753
3628.24
146.319
146.2
146.808
146.2
228.112
2502.09
147.577
149.667
155.78
146.202
868.18
146.203
146.201
146.2
146.2
146.2
146.2
146.2
146.201
146.341
147.762
146.244
146.351
146.201
146.201
146.201
146.201
146.201
146.2
146.813
148.658
146.201
146.2
146.2
146.411
146.204
146.201
146.431
146.2
146.2
146.2
146.242
200.731
146.51
152.636
146.516
146.2
149.694
147.733
146.203
146.2
146.201
146.915
194.422
146.371
6169.58
146.2
146.2
20866.2
146.2
146.241
146.201
146.2
146.205
146.2
146.225
146.21
146.241
1836.92
146.428
146.241
146.514
146.27
146.2
146.431
146.2
146.501
146.2
146.2
146.2
146.205
146.202
146.2
146.21
155.998
146.844
147.38
146.201
146.2
8052.41
147.709
146.2
146.743
146.2
146.21
146.231
146.368
8090.94
144.903
146.2
147.919
7281.45
147.257
146.201
149.073
146.223
146.234
344.734
146.208
4644.75
146.231
146.201
146.22
145.742
146.22
146.25
146.452
146.285
146.204
146.581
6909.38
8617.51
146.2
146.2
6999.12
146.2
146.201
147.191
146.2
217.271
146.244
146.201
147.894
146.2
146.2
146.246
146.956
147.785
146.662
167.841
146.203
146.569
146.281
146.215
146.23
146.201
146.465
146.203
146.201
146.214
146.253
146.2
146.2
146.241
471.545
146.265
146.213
165.822
146.248
146.201
146.38
146.2
146.528
146.2
146.201
146.204
146.523
148.303
146.618
146.437
146.938
168.261
146.2
146.597
146.286
147.385
146.222
1220.14
146.201
146.297
146.201
147.538
146.208
146.407
146.232
146.201
146.173
146.198
146.542
146.2
146.275
146.201
237.05
147.505
146.2
146.201
147.838
148.55
146.601
147.534
146.201
147.221
10222.5
146.2
146.209
146.239
146.259
146.275
146.2
146.264
147.7
146.585
146.284
1127.42
145.47
146.267
146.278
199.004
150.632
146.223
3615.5
146.206
158.075
146.25
146.216
4241.24
146.231
146.205
146.201
146.202
146.368
146.201
146.201
146.202
146.201
146.2
146.23
146.202
146.201
217.246
201.137
146.21
1567.48
148.445
146.2
146.279
149.08
157.517
146.428
146.339
476.33
146.722
12064.4
146.602
146.201
4751.47
146.2
146.207
146.23
968.899
146.203
146.384
146.596
146.74
146.95
146.767
146.201
146.25
146.204
146.201
146.2
146.201
146.2
146.202
146.22
172.34
209.547
495.047
146.22
5500.69
146.228
146.734
146.235
146.459
146.386
147.492
146.2
146.201
146.212
146.2
146.2
146.201
146.201
146.781
146.239
2707.12
146.311
146.317
2991.16
146.85
151.068
1282.05
146.175
146.813
146.254
146.2
146.233
147.9
146.552
146.2
146.201
146.201
146.222
146.185
155.025
152.081
150.742
147.901
146.2
190.738
146.6
146.2
146.267
146.2
146.211
689.528
146.204
146.208
147.068
146.219
146.22
146.213
146.215
146.2
146.201
146.912
146.207
146.2
147.017
146.444
147.484
146.231
146.202
146.201
146.201
148.601
146.451
146.661
2389.42
147.575
146.2
267.84
148.044
146.2
150.487
150.516
146.393
1170.84
148.286
147.439
146.758
146.2
377.057
151.383
147.718
490.763
146.202
232.157
146.2
146.2
2224.3
146.2
146.201
700.704
331.032
1041.89
860.969
146.201
147.191
146.371
146.281
146.207
146.204
249.127
1006.93
149.398
152.276
146.216
146.257
146.557
252.899
168.034
147.646
146.52
852.685
146.201
146.2
17365
574.396
146.975
146.881
146.985
699.699
458.867
146.199
146.337
146.201
727.664
146.2
146.327
146.649
146.2
161.671
146.2
515.338
696.891
146.201
146.202
334.49
146.2
146.2
146.2
146.201
245.453
146.201
699.326
173.379
146.2
146.201
147.007
146.206
146.201
145.681
146.201
146.201
146.201
146.222
146.231
146.232
1618.41
146.208
146.201
153.822
146.201
176.68
771.121
146.2
146.2
146.203
146.2
153.15
146.197
146.201
146.2
146.2
146.201
888.86
615.92
146.216
146.201
15781.7
146.201
146.353
146.198
146.956
146.201
149.731
146.277
146.202
146.672
146.201
146.431
146.444
146.197
146.84
147.959
146.2
146.203
228.488
146.2
146.221
146.2
1055.71
146.2
146.197
146.201
146.201
146.201
373.813
149.134
146.197
146.197
146.544
146.2
146.379
146.903
146.2
147.524
614.691
146.328
146.2
147.151
146.963
518.115
146.2
4855.85
146.2
5677.98
146.405
146.2
1609.08
370.886
239.48
149.523
146.543
146.208
146.2
146.201
220.145
150.304
146.202
146.581
146.201
146.238
146.2
151.747
402.407
176.228
146.2
146.465
146.335
146.2
146.693
146.2
146.2
146.201
1302.22
146.585
152.567
146.201
146.201
146.206
148.781
146.208
2579.99
146.2
146.2
146.547
146.762
146.253
146.2
260.286
146.2
146.201
146.227
4441.78
146.436
146.553
146.236
148.807
10055.7
146.389
147.654
146.218
148.16
146.201
146.241
827.804
2264.92
272.395
147.52
173.555
151.557
146.191
5714.17
147.297
147.58
146.227
146.616
579.456
146.2
216.99
183.855
146.2
2831.38
146.191
1344.51
146.435
146.543
146.447
889.113
146.2
146.191
146.201
146.204
12958.3
146.201
331.203
146.258
146.201
146.201
146.201
146.228
146.203
146.28
146.264
146.2
2677.58
146.207
1600.35
146.201
146.331
146.2
146.213
146.348
146.201
146.201
146.216
146.238
146.207
7236.42
8171.91
409.281
146.309
146.201
146.204
146.201
146.205
146.214
146.21
146.213
146.571
146.346
8464.16
146.205
146.202
146.2
146.428
146.202
146.201
146.249
146.206
146.24
7103.66
146.263
146.797
146.201
146.206
146.706
146.75
146.201
146.216
146.242
146.2
146.278
146.21
146.201
146.257
146.2
146.2
146.239
146.205
146.524
146.212
146.642
146.2
146.233
146.219
146.193
146.265
146.231
146.427
146.204
146.201
146.201
146.375
194.317
146.201
146.383
228.672
146.204
146.223
146.201
146.207
194.168
146.201
146.215
146.299
146.22
246.731
146.232
146.201
146.214
146.223
146.244
146.201
146.2
146.224
146.201
146.379
146.2
146.201
146.259
146.201
146.214
147.216
146.215
146.201
149.814
143.047
146.227
146.214
146.201
146.201
146.381
146.2
146.227
146.438
146.209
146.28
146.237
146.361
146.207
146.205
146.207
146.276
3799.54
146.519
1990.29
146.21
146.221
146.214
146.2
2584.6
146.211
146.231
166.983
146.213
2150.26
146.2
146.211
146.231
146.229
146.826
146.251
146.848
146.2
146.225
147.228
146.211
147.422
146.302
146.233
146.264
146.24
147.155
146.238
146.836
146.228
146.872
146.226
146.829
146.201
146.423
146.32
146.266
146.23
146.202
146.262
146.2
146.22
146.203
146.201
146.2
146.201
146.232
146.357
146.2
146.205
148.537
146.2
146.29
146.2
146.311
146.272
146.22
146.204
146.2
146.222
146.2
146.2
146.2
146.205
146.201
146.2
146.552
146.201
147.215
1342.44
146.201
146.205
146.368
146.2
146.201
146.2
146.2
146.2
146.264
146.249
146.209
146.225
146.273
146.2
146.232
146.4
146.2
146.201
146.277
146.2
146.2
146.307
146.201
146.207
146.214
146.201
146.2
146.202
7265.43
146.366
147.384
146.2
146.2
146.47
146.261
146.202
146.2
146.2
146.255
375.949
146.2
146.2
146.2
146.773
146.239
146.673
146.615
146.233
146.248
146.233
146.227
146.201
146.203
562.59
146.261
146.226
146.332
146.617
146.222
146.224
146.638
146.473
147.253
146.228
146.223
146.258
146.201
146.586
146.229
146.59
146.211
146.219
146.475
146.221
146.203
146.338
146.498
146.207
146.22
146.534
146.204
146.347
146.525
146.632
146.264
146.201
146.669
146.845
146.712
155.447
146.2
146.463
146.3
146.201
146.279
146.386
146.203
146.202
146.201
146.389
146.201
146.2
146.205
146.193
146.325
146.201
146.378
3959.17
146.201
147.084
146.388
5040.52
146.22
146.324
8642.4
146.2
146.377
146.24
146.402
146.397
146.381
146.2
146.2
146.72
146.2
147.026
146.218
146.218
478.978
146.437
146.201
146.237
146.222
146.237
147.259
146.2
146.292
146.22
146.432
146.333
146.598
908.896
146.22
146.204
1017.08
146.259
146.2
146.218
146.465
146.366
146.251
146.211
146.407
146.284
146.354
1425.97
146.235
146.204
146.303
146.224
146.335
146.216
146.235
146.231
146.212
146.227
146.353
1953.52
146.326
146.201
147.596
146.201
146.2
146.4
146.201
151.319
146.2
147.139
880.176
9621.52
146.201
146.425
146.172
146.949
146.225
147.721
147.16
147.869
152.377
146.388
146.2
175.784
146.373
146.256
4591.73
146.389
146.211
146.218
146.217
146.226
146.201
146.201
146.2
146.2
146.203
146.2
146.746
10803.9
146.225
146.223
146.213
146.433
146.415
146.203
146.255
146.2
146.209
146.213
146.202
146.239
146.203
146.226
146.2
146.208
146.512
4155.32
146.2
146.325
146.282
1719.24
146.201
146.392
146.632
146.201
146.201
10963.5
146.201
146.238
146.201
146.213
146.239
146.209
146.201
146.2
146.224
146.212
146.359
1049.56
146.201
146.205
146.201
146.427
146.32
146.214
146.2
768.967
146.215
146.216
146.195
146.35
146.206
146.2
146.2
677.047
691.423
146.201
146.236
146.211
146.201
146.207
146.484
146.211
146.201
409.599
146.201
146.206
146.412
146.207
146.41
146.545
146.2
146.201
146.218
146.304
146.206
146.201
146.201
146.2
146.2
146.2
146.2
146.434
146.211
146.202
146.224
1206.28
1957.14
146.201
146.233
146.288
146.201
146.25
26678.2
146.201
146.429
146.854
146.201
146.2
146.201
146.432
146.242
146.204
146.204
146.2
146.226
146.208
146.296
146.219
146.465
146.273
146.201
146.243
1066.39
146.204
146.202
146.201
1235.82
2012.02
146.2
146.201
146.201
146.204
146.239
307.48
146.201
146.503
146.355
146.22
146.2
146.206
163.283
146.2
146.2
146.201
146.2
147.878
146.859
146.205
146.359
146.213
146.2
146.2
146.201
411.926
146.753
146.201
146.417
146.201
146.201
146.2
1204.5
150.218
352.58
148.017
146.407
146.2
146.201
146.206
155.572
152.863
146.2
146.201
146.202
146.476
686.968
146.203
146.201
156.142
162.756
146.232
149.471
167.935
146.21
146.59
147.062
146.201
146.269
146.201
146.264
146.719
146.384
5878.88
501.908
147.207
144.008
152.662
149.439
146.215
146.214
146.638
146.202
380.396
146.208
147.435
159.36
146.2
148.297
148.542
146.203
146.28
2406.42
146.207
146.201
645.586
146.423
146.164
146.204
146.201
146.201
146.95
146.201
146.536
146.396
183.801
146.214
146.228
146.208
152.01
146.248
146.201
146.2
146.211
158.336
146.267
146.2
146.329
146.2
146.201
146.2
146.208
146.93
146.204
146.2
146.192
146.2
146.252
146.201
146.203
146.2
146.228
146.201
146.202
146.367
146.2
147.014
146.2
146.21
146.203
146.201
146.208
146.2
146.201
280.176
146.202
146.779
146.214
146.2
146.202
146.448
146.656
146.215
146.242
146.716
150.766
146.957
146.252
146.575
146.214
146.67
146.883
146.228
146.368
146.201
146.214
146.2
146.202
146.2
146.253
146.232
151.056
146.2
146.282
146.201
146.202
146.208
146.2
146.214
146.201
146.246
1970.18
146.354
146.201
146.2
146.203
146.379
146.204
146.385
5106.14
146.208
3993.31
146.168
146.197
146.236
2603.25
3764.02
3467.01
2504.78
146.796
146.407
146.678
148.292
3416.18
146.21
146.2
146.2
146.201
146.258
1956.68
146.334
146.248
1985.36
1972.7
146.214
1913.86
146.51
146.264
146.188
146.2
146.768
146.683
146.244
146.2
146.761
155.223
146.423
767.495
147.535
146.436
146.42
146.568
146.265
146.417
146.256
146.447
146.201
146.483
146.201
146.201
146.405
146.201
146.201
146.954
146.201
146.405
147.74
146.201
146.303
147.054
146.941
146.205
146.885
146.525
146.564
146.207
146.171
146.939
394.808
147.108
147.045
146.255
146.432
146.213
146.257
158.591
146.2
146.201
143.188
147.368
146.666
147.723
146.208
146.196
141.348
146.2
146.21
146.201
146.267
146.443
143.042
143.639
146.224
146.2
146.476
147.325
146.398
146.2
160.022
10255.5
147.245
163.73
146.269
146.961
146.201
146.202
147.56
146.2
146.201
146.201
146.201
150.39
146.201
146.226
146.2
146.2
146.201
146.21
146.206
146.343
146.44
146.2
146.2
146.673
146.2
147.291
146.209
146.2
148.672
146.258
146.2
146.2
147.286
146.207
146.2
146.212
146.208
146.2
146.2
146.292
146.203
146.197
146.198
146.2
146.2
146.2
146.24
146.753
146.2
146.211
146.2
146.24
146.2
154.467
146.2
146.468
146.2
146.2
146.2
146.201
146.374
146.201
146.2
146.202
146.2
146.2
2370.52
146.2
146.2
147.875
146.2
146.368
146.438
146.203
146.205
146.201
146.235
146.203
146.202
146.2
146.528
146.2
146.199
146.202
146.365
146.321
146.203
146.199
146.208
146.225
146.202
655.765
146.221
146.214
147.614
146.255
146.368
147.822
146.294
146.238
146.229
146.356
146.322
146.206
146.2
146.201
1338.33
146.239
146.198
1342.36
146.204
146.2
146.201
146.2
146.2
146.201
12916.4
146.203
146.199
146.202
1453.62
1745.95
1753.85
146.256
147.256
146.692
146.201
146.292
146.2
1724.57
146.201
146.201
146.202
146.2
1341.05
146.201
146.201
146.2
146.285
146.226
146.396
146.545
146.201
146.971
167.475
146.201
146.61
146.201
146.201
146.201
146.201
146.2
146.241
146.201
148.294
146.42
146.641
146.673
169.42
146.231
146.201
146.201
146.201
146.217
146.201
146.201
146.201
146.201
158.189
146.254
146.206
146.257
146.201
156.506
146.232
146.571
146.209
146.201
146.129
146.201
146.201
146.201
273.071
343.704
155.976
146.305
155.641
146.2
146.215
146.201
146.335
146.221
148.986
146.336
146.2
146.2
146.473
146.289
146.2
146.751
146.201
146.2
5301.9
146.2
146.222
146.201
146.265
146.201
146.295
146.201
146.2
146.231
146.201
147.659
146.2
169.898
146.201
146.202
199.232
146.2
146.201
146.201
2853.04
146.203
146.906
159.866
146.493
146.201
1766.9
146.272
146.201
146.201
249.69
146.485
146.2
146.344
183.844
146.201
146.204
146.202
146.388
146.247
146.316
146.205
146.201
160.887
146.201
471.586
146.2
146.482
146.201
146.201
146.337
146.201
146.205
146.201
146.201
146.307
1043.92
146.271
317.596
146.293
200.054
146.29
146.201
146.2
146.2
161.289
3534.19
146.466
146.362
146.232
534.32
146.3
718.289
148.057
146.2
488.107
193.332
146.268
146.2
146.839
146.854
146.853
146.461
146.926
146.485
1189.75
146.201
1624.82
146.212
146.87
146.267
147.638
1335.68
146.201
146.201
147.195
146.903
146.215
146.354
146.197
146.201
2068.63
150.046
146.201
146.2
146.201
146.358
146.201
37615.1
149.477
146.2
146.201
1106.07
146.232
151.898
198.637
1193.19
146.231
146.2
146.2
186.449
146.2
146.2
146.238
146.237
146.203
1062.16
146.213
146.205
146.709
146.577
146.542
146.2
2141.87
146.2
146.201
146.558
146.2
146.201
153.737
225.426
448.644
150.037
146.201
146.22
146.2
146.278
5225.38
146.686
6675.99
146.2
150.162
146.2
146.272
146.2
149.702
175.749
146.2
146.396
146.2
146.2
146.222
146.203
146.303
148.089
258.771
9001.12
146.2
146.201
146.308
148.119
146.201
146.241
162.969
146.201
146.234
146.548
146.2
146.2
146.201
146.201
146.2
146.201
146.247
146.201
146.631
146.201
178.991
15829.3
146.778
146.654
146.201
146.361
146.201
146.2
146.622
350.91
146.435
146.627
240.354
147.842
146.2
146.382
919.436
147.313
146.733
146.473
146.2
146.843
146.2
146.2
146.2
146.279
146.491
146.201
146.706
146.201
146.207
146.201
2760.95
146.426
146.201
146.82
147.109
146.267
147.097
146.814
146.2
146.201
147.803
146.205
146.201
146.2
146.201
146.201
146.206
146.199
206.053
149.259
147.39
146.54
146.356
146.437
146.2
146.201
146.2
146.786
146.276
146.201
146.324
146.542
146.223
300.455
146.949
146.454
146.504
328.912
146.204
146.84
146.201
146.2
146.335
3718.31
146.726
146.201
146.201
146.201
158.44
146.201
146.643
146.86
146.53
147.238
146.201
146.201
147.851
146.242
146.2
147.108
146.355
146.415
146.201
146.864
146.221
146.628
146.211
146.201
146.362
146.259
146.58
146.201
146.417
146.535
146.603
146.204
146.215
146.459
146.594
146.21
146.2
146.201
325.891
148.277
4806.21
146.574
146.216
146.563
146.536
146.201
146.216
146.205
146.201
146.203
146.205
151.692
146.2
146.207
146.201
146.56
146.201
146.201
146.2
146.201
146.966
150.026
146.201
146.569
146.214
146.289
146.201
146.288
146.2
146.567
146.692
146.214
146.217
146.391
146.201
146.201
146.2
146.201
146.201
146.572
146.2
146.369
146.201
146.201
146.219
146.584
146.2
146.224
146.635
146.201
146.202
146.201
146.204
1224.8
146.201
146.368
146.204
146.356
146.226
146.201
146.201
146.201
146.223
146.209
146.202
146.578
147.102
146.201
146.201
146.2
146.201
146.201
146.201
146.201
146.2
146.201
146.201
146.201
146.201
146.228
149.246
146.549
146.295
146.408
146.204
146.201
144.464
146.201
676.999
146.221
146.374
146.201
146.2
146.2
146.2
146.201
146.201
146.22
147.476
146.201
146.201
146.201
146.203
146.2
146.208
146.201
146.201
146.201
146.302
146.222
146.248
146.201
146.201
146.219
146.219
146.23
146.201
146.201
146.201
146.275
146.201
146.342
146.246
146.211
146.22
146.234
147.83
146.222
146.809
151.353
146.202
16313.2
146.201
146.986
146.201
147.062
146.423
146.898
174.594
146.201
146.201
146.201
146.271
424.25
146.201
146.853
146.236
146.442
146.201
146.2
146.315
146.201
146.883
146.201
146.2
146.2
146.201
146.201
146.2
146.682
146.695
146.415
146.2
146.2
146.479
146.201
146.2
146.243
146.476
146.251
146.201
146.201
147.695
146.243
146.2
146.2
146.338
146.673
152.233
146.201
146.834
146.214
146.381
146.201
146.191
146.2
146.201
146.201
146.2
146.201
146.2
146.201
146.201
146.201
146.201
146.201
146.2
146.201
146.203
146.201
146.2
146.2
146.199
146.2
146.402
146.614
146.504
146.2
146.2
146.201
146.201
146.282
146.201
146.201
146.2
146.201
146.201
146.201
146.248
146.201
146.195
146.201
146.201
146.201
146.241
146.201
146.241
146.241
146.238
146.2
146.201
146.258
146.201
146.2
146.201
146.201
146.201
146.201
146.198
146.2
146.2
146.2
146.564
146.719
146.201
146.2
146.201
146.195
146.201
146.2
146.201
146.193
148.238
306.145
146.201
311.22
146.202
146.201
255.836
213.513
146.207
146.4
146.662
146.207
146.2
146.2
146.201
146.201
266.488
146.201
215.691
146.201
146.2
146.201
146.502
146.504
146.47
146.2
146.201
146.2
146.2
146.201
146.201
146.201
146.201
146.201
146.2
146.461
146.201
146.2
146.2
146.201
146.201
146.287
146.201
146.403
157.327
146.493
146.21
146.2
146.201
146.201
146.2
146.21
146.201
146.208
157.358
146.201
146.201
146.201
146.252
146.201
146.298
146.2
146.201
146.3
146.201
146.308
207.892
148.516
146.221
146.194
146.347
147.979
146.201
146.2
146.201
146.201
146.331
146.201
146.231
147.225
229.649
149.499
615.084
146.2
146.2
229.625
146.2
146.201
146.2
146.202
146.201
146.2
146.687
523.783
146.61
146.231
146.285
146.201
146.2
146.2
242.927
146.531
146.201
1026.74
146.2
152.76
146.201
146.299
146.202
146.201
146.271
146.201
146.2
146.201
146.201
146.2
146.201
187.882
154.279
146.201
146.201
750.705
146.2
146.201
146.201
146.201
146.201
146.201
146.2
146.202
146.184
146.201
146.205
146.214
146.201
146.2
146.201
146.201
146.201
146.202
146.201
146.237
146.382
372.05
146.202
316.984
146.26
146.2
146.2
146.2
147.133
146.2
146.427
1580.69
146.2
214.194
146.2
146.201
146.2
146.201
146.201
146.201
146.297
146.297
146.2
146.2
146.201
146.261
146.3
146.207
146.291
146.377
146.269
2174.05
146.217
146.2
146.2
146.2
146.328
146.202
146.217
146.202
146.365
146.173
146.201
146.201
146.201
146.201
146.302
146.23
146.201
146.201
146.201
146.201
8496.21
146.201
146.2
2088.63
146.201
146.201
146.2
146.201
146.2
146.2
146.2
2683.05
6279.73
501.96
808.257
980.378
146.691
6226.96
146.201
146.201
146.2
146.201
146.215
2094.27
146.212
2912.98
146.402
146.205
146.201
925.342
4958.84
146.201
146.2
5383.15
1501.73
1541.97
146.202
146.222
146.242
146.2
146.201
1508.56
146.201
146.201
146.205
146.181
146.2
146.201
146.201
146.202
146.495
146.205
146.331
146.392
146.2
146.491
150.034
147.375
146.203
146.201
146.201
146.702
147.175
146.2
3365.87
854.766
146.2
941.76
869.393
146.201
146.201
146.201
146.201
1476.04
146.2
146.2
146.2
146.2
146.2
146.2