/*--------------------------------*- C++ -*----------------------------------*\
| =========                 |                                                 |
| \\      /  F ield         | OpenFOAM: The Open Source CFD Toolbox           |
|  \\    /   O peration     | Version:  v2012                                 |
|   \\  /    A nd           | Website:  www.openfoam.com                      |
|    \\/     M anipulation  |                                                 |
\*---------------------------------------------------------------------------*/
FoamFile
{
    version     2.0;
    format      ascii;
    class       volScalarField;
    location    "2.5";
    object      ILambda_12_0;
}
// * * * * * * * * * * * * * * * * * * * * * * * * * * * * * * * * * * * * * //

dimensions      [1 0 -3 0 0 0 0];


internalField   nonuniform List<scalar> 
108993
(
146.2
146.2
146.213
146.2
146.2
146.2
146.2
146.2
146.201
146.208
146.205
146.205
146.2
146.2
146.2
148.343
146.211
146.2
146.2
146.2
146.2
146.2
146.21
146.2
146.2
146.2
146.201
146.2
146.201
146.2
146.202
146.2
146.201
146.2
146.2
146.2
146.201
146.2
265.799
146.48
146.205
146.204
146.2
146.2
146.227
146.265
146.201
146.2
146.2
146.201
146.202
146.3
146.2
146.202
146.2
146.2
146.201
146.2
146.2
146.2
146.2
146.2
146.2
146.201
146.2
146.2
146.2
146.2
146.204
146.226
146.2
146.2
146.2
146.2
146.2
146.204
146.2
146.203
146.201
146.2
146.2
146.206
146.2
146.205
146.2
146.201
146.208
146.205
146.2
146.2
146.2
146.203
146.2
146.2
146.2
146.201
146.203
146.2
146.202
146.208
146.2
146.2
146.2
146.206
146.2
146.2
146.2
146.2
146.2
146.938
146.239
146.2
146.404
146.389
146.202
150.246
146.2
146.205
146.235
146.202
146.202
146.2
189.537
146.234
146.2
146.312
146.206
146.2
146.2
146.2
146.204
146.2
146.2
147.161
146.203
146.337
146.2
146.2
146.2
146.2
146.24
146.213
146.202
146.2
146.2
146.2
146.2
146.751
146.241
2300.55
2520.58
146.2
146.259
2706.91
146.2
146.386
146.2
146.2
146.201
146.219
2531.25
146.201
146.203
146.2
146.2
146.443
146.2
146.2
146.2
146.201
146.2
146.2
146.227
146.206
146.201
146.201
146.289
146.2
146.202
146.201
146.22
146.2
146.2
146.23
146.202
146.2
146.2
146.2
146.2
146.231
146.201
146.201
146.2
146.233
146.201
146.213
146.204
146.2
146.2
146.235
146.2
146.284
146.2
146.2
146.207
2905.48
146.2
147.283
146.2
6388.75
146.231
146.2
146.279
147.69
148.257
146.2
146.2
146.201
146.2
146.2
146.201
2736.21
146.217
146.294
146.201
146.201
146.2
146.231
147.329
146.201
146.771
146.2
146.2
146.2
146.202
146.2
146.2
146.2
146.273
146.2
146.201
146.201
146.2
146.2
146.2
149.202
146.968
306.343
146.2
146.2
146.203
146.2
146.201
146.201
146.2
146.2
146.2
146.223
146.201
146.2
146.214
146.2
146.212
146.337
146.201
146.201
146.21
146.201
146.2
146.2
146.2
146.212
146.629
15872.9
146.619
146.201
146.203
164.729
146.21
146.201
146.201
146.442
146.425
146.2
146.2
146.232
146.2
146.2
146.212
146.881
146.202
146.204
146.2
146.212
146.201
146.202
146.202
146.216
146.207
146.2
838.795
3239.11
146.2
146.2
146.201
146.201
146.201
146.2
146.201
147.013
146.2
146.2
146.208
146.2
146.201
3297.37
146.2
146.209
147.212
146.202
146.201
146.201
146.2
146.2
146.2
1209.29
13642.9
2749.6
146.201
146.21
146.201
1385.13
162.423
146.2
150.695
146.2
146.207
146.2
146.201
146.2
146.202
463.607
146.2
146.2
146.2
146.2
146.204
146.2
146.203
146.204
146.221
146.2
146.411
146.273
146.201
146.2
146.2
146.694
146.209
146.2
146.227
146.2
146.205
146.27
146.2
146.201
146.236
146.2
146.2
11856.3
146.245
146.229
146.207
3276.49
146.201
4273.81
146.209
146.202
3752.77
146.202
2983.59
3775.57
146.2
152.434
146.2
146.207
146.217
603.789
146.201
146.689
3438.02
146.206
3401.19
146.201
146.36
146.2
18567.9
146.202
146.335
146.201
146.2
153.041
152.813
146.204
146.201
146.206
146.207
146.2
146.206
16095.6
146.2
146.202
7506.06
146.2
146.202
146.202
3383.83
146.22
146.347
146.2
15094.9
146.2
14386.2
146.201
146.2
16411
146.2
314.622
17020.3
146.2
13372.3
146.406
15563.9
146.2
146.204
146.215
146.201
146.201
146.201
146.209
146.2
146.208
146.203
146.201
146.279
146.229
146.213
146.226
146.21
146.201
146.207
146.2
146.216
146.202
146.201
146.2
146.201
146.201
146.203
146.203
162.462
146.263
162.339
542.536
146.209
146.243
146.2
171.141
146.247
146.288
146.221
146.2
146.2
146.313
146.201
146.216
146.217
146.234
146.479
146.462
146.2
146.201
146.202
146.204
146.409
146.416
146.235
146.302
146.21
146.2
146.201
146.2
146.37
146.321
146.46
146.2
146.524
146.227
146.214
146.2
146.2
146.201
146.219
146.229
146.224
1338.71
146.221
146.217
9303.69
146.214
146.295
146.211
146.204
146.211
146.211
146.2
146.2
146.216
146.201
146.2
146.201
146.201
146.206
146.228
146.201
146.885
146.21
146.212
146.875
146.23
146.201
146.2
146.421
146.2
146.2
146.203
146.388
146.201
146.205
146.279
146.2
146.335
146.2
146.2
146.205
146.201
146.2
146.238
146.201
146.204
506.664
146.201
146.766
146.2
146.2
146.2
146.201
146.207
947.074
146.201
146.201
146.208
146.455
146.214
146.251
220.276
146.2
146.215
146.206
146.205
146.289
146.201
19649.3
146.249
1393
146.269
146.2
146.252
15060.5
146.203
146.218
146.2
146.2
146.2
146.2
146.295
146.283
146.274
146.201
146.201
146.212
146.2
146.201
146.213
13407.6
146.2
146.201
146.2
146.2
146.205
146.224
146.208
18391.5
146.233
146.2
146.2
17786
146.2
146.213
146.274
168.699
146.315
146.207
146.321
146.208
146.317
146.336
146.2
147.474
146.204
146.359
146.204
146.2
146.874
146.2
146.2
146.202
383.962
146.528
146.312
3357.08
146.201
336.11
156.229
146.328
146.2
146.2
2363.71
146.413
146.284
146.201
146.285
146.261
146.364
146.209
146.329
146.224
146.251
146.209
146.327
146.286
146.63
146.36
146.335
146.233
146.2
176.221
146.355
146.226
146.349
146.345
146.2
146.218
146.202
146.2
146.209
146.227
146.229
146.329
146.659
146.212
146.22
146.427
146.343
146.336
146.2
146.367
146.226
146.2
146.791
146.2
146.312
146.213
146.247
146.893
146.225
146.279
146.226
146.225
3857.76
146.2
146.225
146.227
146.206
146.2
6632.76
146.204
149.99
146.205
6523.88
146.444
146.204
146.201
146.201
146.205
146.2
146.21
146.204
146.209
146.201
146.381
146.454
158.702
146.2
3018.33
146.2
146.289
146.21
146.2
146.269
146.2
146.679
146.367
147.74
146.201
146.588
146.322
146.252
684.201
146.2
146.237
146.869
148.384
146.942
146.211
146.2
146.227
146.201
146.218
146.2
146.214
147.524
146.361
150.453
146.218
146.323
146.22
146.228
146.216
146.232
146.2
146.201
146.201
146.219
146.201
146.268
146.201
147.513
146.243
146.2
146.278
146.2
146.22
146.23
146.201
146.2
146.2
146.361
146.2
146.207
146.225
146.225
146.202
588.371
2251.27
146.208
146.228
19555.7
187.63
146.214
146.206
156.404
146.23
146.229
146.299
146.201
146.228
146.2
146.201
146.2
146.204
146.615
146.222
146.204
146.622
146.24
1302.99
146.272
9261.73
146.2
146.244
146.257
146.2
146.264
146.244
146.202
146.2
146.2
146.2
146.203
146.384
146.202
146.204
146.201
146.203
169.636
146.2
146.204
187.799
146.2
482.14
146.208
146.201
146.218
14566.1
146.245
146.201
146.203
146.244
146.2
146.216
147.28
146.214
146.266
146.22
146.2
146.242
146.201
146.351
146.229
146.2
146.219
146.2
146.223
146.201
146.211
146.215
146.201
1173.73
146.228
2668.45
146.212
355.938
146.231
146.224
146.216
148.935
146.43
146.201
146.216
146.218
146.234
146.286
146.51
146.201
146.201
146.22
147.516
146.228
149.579
146.2
146.21
146.83
146.51
146.214
147.353
146.213
146.211
146.2
146.338
146.506
146.49
146.418
146.273
146.251
170.052
146.2
148.407
146.716
3203.06
146.2
146.2
147.12
146.205
146.423
146.201
146.2
146.395
2174.79
146.2
148.47
146.221
146.2
163.674
146.201
146.2
153.532
5120.38
146.2
146.2
146.2
146.201
146.211
146.413
184.437
146.201
184.661
146.231
146.209
146.201
146.201
146.224
146.213
146.201
146.2
146.215
146.2
146.414
146.201
146.201
765.172
146.201
146.209
146.242
146.216
146.21
146.2
3192.9
146.2
147.573
146.2
146.2
146.2
146.412
146.396
146.201
146.206
298.796
146.336
162.904
146.2
146.219
1199.74
3564.73
146.201
146.215
162.632
146.214
146.206
146.214
146.221
146.414
146.77
146.384
158.477
147.39
146.21
146.206
146.222
146.29
150.558
3193.07
146.206
146.203
146.201
150.589
146.203
146.2
146.201
154.93
146.207
146.245
146.206
146.201
146.213
146.205
146.201
146.428
146.203
146.236
146.211
146.2
146.823
146.212
146.2
146.201
146.2
146.201
173.496
146.205
146.2
146.207
146.2
146.365
146.201
146.48
146.201
146.207
146.722
146.201
146.205
146.723
146.228
146.2
146.208
146.207
146.2
146.242
146.32
146.201
146.2
146.213
146.201
205.273
146.208
146.321
146.2
146.207
146.385
146.228
146.248
146.242
146.207
146.22
146.271
146.408
146.2
146.201
146.201
1636.27
146.221
146.277
146.203
146.229
147.633
146.2
146.443
146.303
146.204
146.247
146.467
146.222
146.564
146.287
146.374
146.201
146.2
146.2
146.245
146.233
1256.99
146.211
146.205
146.218
146.205
146.24
146.302
146.25
146.392
146.258
146.206
152.026
146.23
146.207
146.203
146.201
146.201
146.203
146.201
146.2
146.201
168.672
146.201
153.755
146.204
146.211
146.307
146.205
146.773
146.2
146.204
146.2
146.215
146.2
146.216
171.56
147.089
146.206
147.241
146.2
146.2
146.201
146.201
146.2
146.205
9802.93
146.222
146.2
146.2
146.2
146.205
146.203
146.201
146.2
146.2
146.2
146.203
146.202
146.203
146.2
146.216
146.201
146.205
146.2
146.2
146.207
146.244
146.393
146.405
146.923
146.209
146.2
146.398
146.2
146.201
146.211
146.2
146.292
146.21
146.303
146.211
146.304
146.2
146.2
146.208
146.203
18763.3
11776.3
146.2
146.2
146.211
146.249
146.315
146.223
146.375
146.215
146.201
146.201
146.2
146.201
146.213
146.212
146.201
146.394
146.209
146.204
146.219
4346.14
146.224
146.21
146.2
146.2
1964.78
146.2
146.223
146.208
146.207
146.205
3826.71
146.261
146.203
146.26
146.2
147.791
146.254
146.206
146.2
146.208
146.25
146.206
146.214
146.2
828.618
696.952
146.232
146.254
146.202
146.23
146.201
146.202
146.201
146.2
146.201
1736.62
146.235
147.511
146.207
146.205
146.2
146.207
151.338
146.209
146.201
146.253
146.279
146.233
147.192
146.233
147.095
146.201
146.2
146.211
146.2
146.2
19046.1
146.212
146.2
146.2
2070.59
146.201
146.201
146.227
146.223
381.167
166.975
146.205
146.373
146.201
146.222
146.2
146.201
146.2
146.393
146.202
2374.3
146.212
146.2
146.501
146.2
146.201
146.201
146.348
14571.2
146.209
146.202
146.258
18384.2
146.232
146.201
146.2
146.597
146.2
146.359
146.272
146.322
146.925
146.259
146.2
146.301
146.36
146.209
146.208
146.2
146.241
146.2
146.201
146.237
146.214
146.2
146.202
146.201
146.28
146.2
146.2
146.201
146.202
146.201
146.201
146.208
146.434
154.193
146.201
146.27
146.413
146.201
146.2
146.201
146.263
146.203
146.201
146.428
146.201
146.201
146.201
146.201
146.201
4182.2
146.201
146.21
146.207
146.203
146.234
146.204
146.205
146.201
146.258
146.205
146.201
146.201
146.26
146.201
146.23
146.279
3315.56
146.204
146.904
147.22
146.2
176.225
146.2
146.201
146.201
146.219
146.201
146.371
152.537
146.236
146.208
630.27
1425.39
146.2
146.2
146.2
146.203
146.208
146.231
3267.3
146.2
146.203
146.262
146.208
146.201
146.281
146.525
146.45
146.345
146.208
146.2
578.694
146.201
146.201
147.724
146.425
146.413
146.223
146.202
146.215
146.207
6634.84
146.204
146.205
2157.26
146.229
146.201
146.295
154.01
146.201
146.257
146.202
146.461
146.219
146.2
146.202
146.267
603.186
146.872
146.201
146.201
147.59
146.202
146.2
146.964
146.202
146.202
146.203
146.229
146.671
146.2
146.2
163.827
146.204
146.955
146.203
147.103
146.203
146.213
146.562
146.201
146.209
146.44
146.207
146.263
146.311
146.2
146.201
146.2
146.877
146.233
146.2
190.957
146.2
146.246
147.259
3328.17
146.219
146.795
146.2
11622.3
146.203
146.2
146.2
146.206
146.2
146.201
146.206
146.201
159.161
154.876
665.329
146.204
146.201
146.2
146.2
146.201
146.201
146.209
147.498
146.24
146.2
146.2
146.201
146.277
146.2
146.2
146.434
146.234
146.2
146.2
146.2
146.361
146.43
147.751
804.966
146.2
146.2
150.565
146.2
146.2
146.2
146.329
146.858
146.237
6414.37
146.2
146.2
2458.75
146.2
146.2
146.265
146.2
146.215
146.2
146.2
146.2
146.2
6802.01
148.87
146.2
741.476
146.357
146.2
146.309
146.202
146.2
146.2
146.293
146.2
146.201
146.238
146.2
146.208
544.362
3168.25
816.096
146.201
146.213
146.374
157.358
146.2
178.784
146.2
146.2
146.224
146.575
146.703
167.903
146.2
477.617
146.368
3382.37
146.201
157.788
146.225
146.218
172.88
146.207
146.435
146.218
146.201
146.219
156.196
146.223
146.228
146.229
146.231
146.209
148.044
146.456
146.45
146.201
146.202
330.909
146.2
146.2
149.202
146.2
3746.17
146.228
146.2
146.2
146.2
146.2
146.232
442.609
146.699
166.499
675.556
146.2
150.59
146.234
146.291
146.205
146.214
146.2
146.2
146.201
146.2
146.393
146.2
146.2
146.274
5743.15
146.232
146.216
146.518
146.373
146.201
146.217
146.2
146.2
146.201
146.2
146.2
146.2
150.233
146.677
146.446
162.996
146.426
146.201
146.2
146.315
3094.61
146.294
3293.91
146.201
146.396
146.201
3267.84
146.252
146.224
146.205
146.201
146.2
146.2
222.114
146.2
146.314
146.201
1588.64
3114.32
146.2
146.201
146.44
3409.02
146.798
2286.09
146.2
150.793
5550.16
146.2
146.22
150.054
146.273
146.329
146.23
146.324
1047.03
146.517
146.315
158.812
150.399
146.319
146.2
147.227
2089.77
146.334
3079.67
146.207
146.208
146.227
146.215
4009.87
146.303
146.212
146.2
146.2
146.235
146.2
146.201
146.23
146.4
146.2
146.205
146.204
146.2
147.539
1011.94
146.216
8562.9
146.2
146.2
146.329
3455.56
147.131
165.977
152.344
169.17
1541.29
2908.84
148.04
146.416
147.857
146.2
146.226
146.223
4163.81
146.448
146.275
161.628
146.5
163.464
146.674
146.399
146.27
146.2
146.201
146.201
146.431
146.2
146.455
146.211
3791.33
2210.3
147.187
146.21
1045.99
146.334
149.214
146.233
150.603
246.301
4218.41
146.201
146.221
146.2
146.2
146.2
146.201
146.201
146.222
146.367
9160.62
146.253
146.235
211.716
146.825
146.641
453.668
146.2
3318.47
147.248
146.203
146.206
462.81
146.976
146.2
146.201
146.201
146.242
146.2
3704.19
3845.83
3940.43
217.328
146.2
3673.04
146.434
146.2
146.242
146.207
146.205
2832.12
146.205
146.205
417.092
146.249
146.264
146.206
146.262
146.2
146.2
266.516
146.202
146.208
3218.75
147.358
146.903
146.337
146.23
146.201
146.24
146.2
146.2
156.563
147.304
146.2
146.201
146.287
146.201
146.2
146.2
146.201
146.301
146.855
146.851
687.124
148.203
146.2
148.621
146.201
147.387
146.717
146.2
148.741
146.2
146.201
146.858
146.2
146.2
146.736
147.568
146.821
146.787
146.2
345.329
189.604
146.342
146.219
146.202
146.43
146.822
146.756
151.57
146.2
146.201
194.397
3829.13
146.401
2984.14
1330.49
146.767
146.2
146.2
32831.2
146.655
327.169
184.523
178.151
8414.11
146.514
146.2
148.962
146.2
146.71
146.2
147.749
151.167
146.2
146.917
146.2
146.616
146.711
146.2
146.2
146.982
146.2
146.202
146.201
146.2
146.427
146.201
146.74
146.432
146.201
146.2
146.664
146.216
146.201
162.139
146.201
146.201
146.2
146.213
146.255
146.255
146.779
146.214
146.201
146.377
146.2
146.25
3283.57
146.201
146.2
146.403
146.207
218.609
146.2
146.2
146.2
146.201
146.201
1213.07
8830.11
146.424
146.2
23313.3
146.248
146.265
146.2
255.046
146.201
1302.61
146.312
146.201
146.2
146.2
146.255
146.64
146.2
159.228
146.214
146.2
146.203
146.225
146.207
146.344
146.207
146.966
146.241
146.2
146.2
146.2
146.2
147.185
146.283
146.2
146.2
146.631
146.201
146.203
146.201
146.201
146.659
146.834
146.202
146.2
146.2
146.207
146.742
146.246
146.938
146.239
146.669
146.503
146.2
4946.95
146.537
154.173
146.843
146.618
146.218
146.256
146.2
146.237
146.203
146.202
146.482
146.201
146.21
146.216
201.961
146.545
146.509
146.256
146.256
146.236
146.201
146.637
146.308
146.2
146.2
146.832
146.776
147.695
146.2
146.201
146.202
146.572
146.2
146.471
146.201
146.201
146.537
148.671
146.2
146.243
146.28
146.264
146.325
146.2
146.987
146.295
2293.56
146.2
146.379
5198.73
146.221
171.897
146.249
7154.44
146.201
146.231
153.445
2829.72
4327.39
6962.04
3560.68
6002.15
146.2
16534.6
146.962
150.506
146.2
474.695
22832.9
146.2
146.639
8884.06
146.2
4862.14
146.2
146.726
149.239
146.615
146.708
147.887
146.2
146.2
146.2
146.2
238.905
146.2
161.862
146.355
146.201
146.201
146.201
146.205
146.2
146.2
146.424
146.2
147.06
146.206
234.632
146.201
146.41
146.2
146.223
146.213
146.201
146.201
146.203
146.26
146.204
269.524
213.894
1376.2
146.426
146.324
146.341
146.2
146.21
146.209
146.326
146.216
146.303
146.229
212.877
146.335
146.292
146.207
146.453
146.201
146.201
146.203
146.208
146.243
233.059
146.241
1299.59
146.2
146.204
148.462
223.954
146.2
146.322
146.257
146.206
146.3
146.217
146.2
338.105
146.201
146.205
146.202
146.216
210.193
146.2
146.213
146.203
335.287
146.2
146.2
443.851
146.234
146.291
146.209
146.2
146.2
146.363
601.765
146.201
146.251
1111.57
146.201
146.216
146.202
146.214
381.357
146.201
146.251
146.223
146.201
1127.52
146.219
146.201
146.202
146.229
146.2
146.201
146.264
146.2
146.201
146.209
146.213
146.201
146.25
146.201
146.223
958.516
146.2
146.201
225.809
277.427
146.2
146.217
146.201
146.2
146.243
146.202
146.212
148.291
146.22
146.2
146.2
146.2
146.227
146.202
146.212
146.716
147.414
146.428
153.903
146.216
146.219
146.217
146.205
147.218
146.215
146.207
2593.22
146.216
147.428
146.2
146.216
146.419
146.221
202.228
146.212
202.498
146.225
146.212
368.151
146.201
215.946
146.201
146.227
146.215
146.241
343.583
146.215
169.25
146.328
200.984
146.212
146.2
146.2
149.722
146.211
146.624
146.233
146.201
146.215
146.264
146.227
146.203
146.2
146.2
146.234
146.288
146.22
146.2
146.206
146.2
146.314
146.227
146.2
146.398
146.209
146.222
146.205
146.2
146.224
146.2
146.2
146.2
146.21
146.201
146.216
146.648
146.2
146.376
4174.88
146.2
146.204
146.229
146.2
146.2
146.201
146.2
146.2
146.366
147.508
146.212
146.211
146.219
146.2
146.23
146.273
146.2
146.2
146.22
146.2
146.2
146.468
146.2
146.213
146.225
146.2
146.2
146.203
207.736
146.366
146.201
146.2
146.2
146.2
146.285
146.215
146.2
146.201
146.211
146.552
146.2
146.201
146.202
146.491
146.256
146.217
146.491
146.218
146.204
146.258
146.23
146.201
146.21
6656.64
146.272
146.207
146.209
146.508
146.217
146.212
146.471
146.482
146.479
146.219
146.219
146.204
146.209
146.572
146.212
146.542
146.216
146.203
146.49
146.207
146.201
146.221
146.49
146.21
146.368
146.543
146.204
153.938
146.491
164.747
146.54
146.201
177.735
159.92
163.679
153.115
146.201
146.2
146.286
146.249
146.273
146.2
146.202
146.2
146.201
146.201
146.2
146.251
146.301
146.2
146.219
146.201
146.2
154.964
146.201
146.201
146.202
308.186
146.2
146.337
1715.6
146.202
146.2
146.235
146.355
146.2
146.202
146.201
146.201
146.204
146.201
157.593
146.214
146.214
146.656
146.247
146.2
146.208
146.218
146.209
146.2
146.212
146.214
146.209
146.235
146.21
146.428
146.768
146.218
146.21
3127.37
146.363
146.2
146.215
147.783
146.237
146.225
146.204
146.222
147.416
146.208
777.823
146.222
146.206
148.966
146.222
146.278
146.203
146.327
146.222
146.219
146.361
146.438
146.435
146.454
146.2
146.59
146.237
146.2
146.279
146.2
146.562
146.2
1112.04
2843.06
11464.3
146.2
146.2
146.2
146.651
146.216
684.503
146.2
146.62
146.551
146.43
146.209
3311.58
146.23
146.255
5648.26
146.335
146.248
146.252
146.208
146.224
146.201
146.202
146.21
146.201
146.203
146.206
146.201
190.979
146.318
146.209
146.202
146.459
146.329
146.204
146.277
146.204
146.202
146.216
146.201
146.242
146.201
146.217
146.208
146.209
146.202
148.64
146.209
146.409
146.247
146.626
146.2
146.371
181.782
146.2
146.21
1390.08
146.201
146.233
146.2
146.203
146.241
146.222
146.2
146.204
146.328
146.2
146.242
3139.21
146.2
146.206
146.2
146.424
146.293
146.2
146.2
146.821
146.203
146.209
146.2
146.319
146.206
146.2
146.2
146.281
146.751
146.2
146.246
146.2
146.201
146.208
146.46
146.2
146.203
146.24
146.2
146.2
146.214
146.207
146.284
146.59
146.2
146.201
146.209
146.302
146.2
146.2
146.2
146.2
146.2
146.2
146.2
146.409
146.207
146.2
146.201
444.054
197.963
146.2
146.276
146.262
146.201
146.295
5152.85
146.201
146.275
182.825
146.225
146.2
146.201
146.297
146.295
146.209
146.209
146.201
146.204
146.212
146.205
146.239
146.238
146.946
146.2
146.209
321.975
146.209
146.254
146.2
158.662
934.186
146.2
146.2
146.201
146.207
146.233
146.554
146.204
146.416
146.213
146.252
146.2
146.201
146.45
146.2
146.2
146.2
146.2
146.2
146.222
146.2
146.209
146.211
146.201
146.2
146.2
146.991
151.126
146.2
146.283
146.2
146.2
146.2
146.786
147.044
146.264
146.201
146.2
146.2
146.201
146.21
146.203
11447.3
146.2
146.2
146.201
146.41
146.394
146.207
146.2
11549.3
12139
146.268
6863.29
2732.58
146.2
146.641
285.516
146.2
146.2
146.2
146.202
146.2
146.202
4267.89
146.893
3350.2
172.349
2550.97
146.2
146.216
146.228
146.671
146.204
1248.13
146.212
169.94
560.486
146.201
146.262
3345.06
146.204
146.2
146.321
146.202
146.201
2060
146.335
146.2
146.2
146.201
146.201
146.201
146.201
146.2
146.22
146.399
146.2
146.215
146.206
3019.82
146.293
146.359
146.201
146.2
3608.6
146.2
146.2
146.43
146.201
146.2
146.201
146.204
147.026
146.208
146.204
146.2
146.205
146.204
146.2
146.204
146.201
146.228
146.208
146.202
146.439
146.2
146.2
146.201
146.201
146.202
146.232
146.205
146.206
146.216
146.415
146.212
2447.23
146.206
146.2
146.2
146.2
146.2
146.206
146.311
2379.5
146.788
1974.6
146.244
146.257
146.231
2180.99
2496.04
146.238
148.236
146.205
146.206
146.2
146.212
146.2
146.2
146.344
1416.68
146.2
146.267
146.201
146.201
146.206
146.2
146.249
146.2
146.206
146.286
146.214
146.201
146.2
146.2
146.202
146.2
146.21
862.398
146.206
382.357
146.2
146.2
146.228
335.857
563.7
1318.93
205.381
149.235
146.235
146.484
146.668
1211.14
146.201
146.2
146.2
146.2
146.237
147.062
146.232
146.23
147.529
147.43
146.218
146.909
152.53
146.2
146.2
146.2
146.934
1566.54
669.701
146.2
147.177
146.833
146.28
146.283
1819.61
147.286
146.425
146.2
147.127
146.418
146.236
146.2
146.2
146.474
146.2
146.201
146.412
146.2
146.201
2393.24
146.201
146.402
173.354
146.201
146.204
1113.65
1101.26
146.208
1119.09
146.535
1320.34
146.25
146.2
1303.18
146.225
1010.05
1032.01
146.213
146.446
146.206
146.339
146.347
146.2
146.218
176.007
146.2
146.366
146.2
146.2
146.2
186.535
146.2
146.211
146.201
146.2
146.453
180.151
180.316
146.215
146.2
147.01
146.369
146.329
146.2
146.283
1407.75
3812.07
146.32
146.204
146.742
146.212
146.2
146.2
146.2
146.2
146.201
146.2
146.323
146.201
146.218
146.2
146.2
146.2
146.2
146.2
146.238
146.246
146.201
146.2
146.738
146.2
146.358
146.207
146.2
146.969
146.205
146.2
146.201
146.318
146.3
146.2
146.221
146.208
146.2
146.2
146.213
146.202
146.2
146.2
146.204
146.216
146.2
146.206
161.078
146.2
146.201
146.2
146.841
146.2
146.207
146.231
146.545
146.2
146.2
146.2
146.201
146.43
146.223
146.2
146.202
146.201
146.2
146.903
146.2
146.2
146.2
146.2
146.202
146.247
146.202
146.202
146.201
146.226
146.2
146.207
146.203
146.203
146.205
146.2
146.238
146.214
146.2
146.201
146.201
146.209
146.201
146.211
146.767
146.22
146.208
146.201
146.2
146.218
146.2
146.212
146.272
146.212
146.45
146.2
146.204
146.2
146.201
146.918
146.245
146.2
146.903
146.208
146.2
146.2
146.2
146.2
146.2
9220.9
146.202
146.2
146.2
146.969
147.019
147.08
146.233
174.007
147.677
146.321
146.2
146.2
147.016
146.2
146.201
146.2
146.208
6967.79
146.2
146.2
146.2
146.298
146.207
146.234
173.084
146.201
170.838
497.888
146.201
146.212
146.201
146.2
146.201
146.204
146.213
146.2
146.201
394.687
146.253
156.487
229.087
578.247
146.211
146.201
146.2
146.201
146.218
146.201
146.201
146.201
146.201
2989.54
146.207
146.208
146.302
146.2
400.123
146.673
156.812
146.207
146.201
154.996
146.201
146.201
146.2
147.114
256.645
547.866
146.2
464.153
146.201
146.436
146.201
149.908
146.2
147
149.511
146.202
146.201
189.355
146.216
146.201
152.936
146.201
146.2
146.596
146.2
146.2
146.201
147.715
146.201
146.2
146.201
146.2
146.21
146.201
146.575
146.2
146.208
146.201
146.201
146.43
146.209
146.201
146.2
1040.71
146.212
179.698
4883.97
147.293
146.201
146.965
147.274
146.201
146.201
146.908
2283.87
146.2
146.354
6556.16
146.313
146.201
146.207
146.395
146.2
146.2
146.2
146.201
4256.28
146.201
18048.6
146.201
146.399
146.201
146.2
146.238
146.201
146.205
146.2
146.2
146.207
1069.9
146.304
147.31
146.374
148.573
146.325
146.201
146.218
146.2
146.327
6019.39
146.406
146.202
146.233
764.313
146.38
146.799
146.616
146.2
147.012
146.689
146.333
146.201
1690.03
146.831
146.827
146.352
153.854
160.691
1028.6
146.305
216.196
146.299
146.881
146.252
146.994
936.556
146.202
146.297
2414.39
146.838
146.205
146.578
146.2
146.201
1188.32
146.213
146.2
146.201
146.201
146.253
146.2
68406
146.855
146.2
146.2
462.535
146.209
146.658
156.982
3610.64
146.208
146.2
146.2
146.402
146.2
146.2
146.293
146.436
146.204
627.327
146.2
146.2
147.16
146.575
146.2
146.201
1433.79
146.203
146.201
146.559
146.2
146.201
146.212
149.351
148.321
147.249
146.2
146.221
146.2
146.472
11066.3
179.855
147.551
146.2
146.22
146.2
146.2
146.201
3736.7
146.438
146.2
146.413
146.2
146.2
146.589
146.2
146.209
146.221
146.403
19005.5
146.2
146.2
146.232
3895.01
146.2
146.256
147.676
146.201
146.211
146.234
146.2
146.2
146.2
146.2
146.2
146.201
146.2
146.201
283.713
146.2
146.684
20927.8
270.362
275.23
146.2
146.28
146.201
146.2
274.46
147.607
146.473
253.075
1957.95
169.801
146.201
146.439
6135.39
624.952
212.139
146.33
146.2
216.15
146.2
146.2
146.201
146.212
146.86
146.201
146.77
146.201
146.201
146.2
153.38
146.363
146.2
237.327
161.606
146.272
190.982
337.611
146.2
146.201
1526.19
146.202
146.201
146.201
146.201
146.201
146.201
146.2
9075.92
146.371
977.973
146.456
146.203
146.406
146.201
146.201
146.2
2010.88
146.2
146.2
146.2
1545.62
146.399
146.668
156.329
146.242
2097.5
160.227
146.207
155.874
146.201
146.201
146.428
6394.17
146.811
146.22
146.201
146.207
200.266
146.201
507.157
147.708
154.795
162.474
146.201
146.2
1573.93
146.288
146.201
163.101
146.33
146.453
146.2
161.017
146.32
698.597
146.962
146.2
146.203
146.249
146.2
146.2
146.421
146.58
146.833
146.255
146.878
146.565
148.067
146.764
146.2
146.2
146.736
850.96
748.44
154.484
147.218
146.636
146.587
146.204
147.227
146.208
146.2
146.2
146.201
210.905
146.2
146.206
146.206
146.587
146.2
146.2
146.201
146.201
146.449
148.735
146.201
146.618
146.203
147.748
146.2
147.539
146.2
146.632
152.63
146.2
146.2
146.276
146.201
146.201
146.201
146.201
146.219
148.149
146.202
146.209
146.2
146.201
146.2
147.984
146.2
146.2
146.767
146.2
146.201
146.201
146.2
146.771
146.201
146.242
146.202
146.266
146.2
146.201
146.2
146.2
146.2
146.205
146.2
146.966
149.776
146.201
146.201
146.201
146.2
146.201
146.2
146.201
146.201
146.201
146.201
146.201
146.2
146.214
146.369
146.679
146.402
148.355
146.222
146.201
155.749
146.201
4551.36
146.231
148.189
146.201
146.201
146.201
146.202
146.201
146.201
146.233
151.913
146.2
146.201
146.201
146.201
146.202
146.349
146.201
146.201
146.201
146.384
146.233
146.456
146.201
146.201
146.234
146.236
146.245
146.201
146.206
146.201
146.294
146.201
146.245
146.274
146.201
146.238
146.709
158.614
146.234
237.913
668.053
146.231
8154.92
146.201
198.211
146.201
183.404
146.453
194.279
182.084
146.2
146.201
146.201
146.432
146.687
146.201
183.566
146.203
146.492
146.2
146.2
146.2
146.201
153.216
146.201
146.202
146.201
146.201
146.201
146.202
192.123
528.589
146.465
146.201
146.201
154.458
146.201
146.201
146.244
146.502
146.249
146.201
146.201
621.451
146.242
146.2
146.2
146.595
153.838
146.43
146.201
167.555
146.215
146.2
146.201
146.2
146.2
146.201
146.201
146.2
146.201
146.2
146.201
146.201
146.2
146.201
146.201
146.2
146.201
146.203
146.201
146.2
146.2
146.2
146.2
147.384
161.696
146.561
146.2
146.201
146.2
146.2
152.078
146.2
146.201
146.2
146.2
146.2
146.2
146.206
146.201
146.2
146.201
146.2
146.201
146.292
146.201
146.432
146.473
146.343
146.2
146.201
146.318
146.201
146.202
146.201
146.2
146.2
146.201
146.2
146.202
146.201
146.2
146.835
150.335
146.201
146.2
146.201
146.2
146.2
146.2
146.201
146.2
146.279
5347.76
146.2
5238.64
146.2
146.2
5014.76
5067.64
146.2
146.416
152.974
146.2
146.2
146.2
146.2
146.2
4889.65
146.201
4849.81
146.201
146.2
146.201
146.827
147.177
146.616
146.201
146.201
146.268
146.201
146.2
146.2
146.2
146.2
146.2
146.202
147.544
146.201
146.2
146.2
146.201
146.201
146.2
146.2
146.404
240.405
146.4
146.2
146.2
146.201
146.201
146.2
146.2
146.201
146.2
314.672
146.201
146.2
146.2
146.247
146.201
202.062
146.2
146.2
153.148
146.201
161.157
146.75
146.2
146.267
146.2
168.315
146.2
146.201
146.2
146.201
146.2
167.731
146.201
146.203
146.2
146.329
962.969
12150.2
146.203
146.214
146.342
146.2
146.201
146.201
146.201
146.201
146.2
457.123
146.763
262.663
146.233
146.41
146.201
146.2
146.204
146.345
146.446
146.201
146.771
146.266
272.618
146.201
146.223
146.201
146.201
146.414
146.201
146.202
146.201
146.214
146.207
146.201
242.699
273.213
146.201
146.201
3345.93
146.296
146.2
146.201
146.201
146.201
146.201
146.202
146.226
146.2
146.201
146.204
146.204
146.201
146.203
146.201
146.2
146.201
146.201
146.201
146.201
165.148
3091.63
146.206
2272.19
147.141
146.2
146.201
146.2
191.761
146.201
146.259
5473.14
146.201
564.612
146.243
146.201
146.252
146.201
146.2
146.201
146.351
146.313
146.228
146.251
146.201
146.349
146.373
146.231
146.387
146.201
146.35
146.759
146.215
146.201
146.201
146.201
146.424
146.211
146.216
146.205
146.359
146.2
146.201
146.201
146.201
146.2
146.341
146.539
146.201
146.201
146.201
146.201
1858.84
146.201
146.2
146.754
146.201
146.2
146.2
146.201
146.2
146.2
146.2
4833.38
6153.38
4832.97
5977.68
6184.71
150.91
1882.9
146.201
146.202
146.202
146.2
146.231
146.64
146.213
6467.56
146.386
146.206
146.2
6284.18
3753.31
146.201
146.201
4751.18
146.741
146.599
146.204
146.279
146.282
146.201
146.201
146.594
146.2
146.204
146.207
146.2
146.2
146.201
146.205
146.206
146.461
146.21
146.327
146.452
146.2
146.493
157.127
150.464
146.213
146.202
146.201
153.047
147.612
146.202
7513.35
1279.04
146.2
1697.84
1736.99
146.201
146.201
146.2
146.201
1666.44
146.201
146.2
146.213
146.2
146.2
146.2
146.307
146.2
146.2
146.201
150.144
146.2
284.393
146.2
146.201
146.2
146.327
146.2
146.21
146.2
146.2
146.271
149.765
146.303
146.251
279.225
146.255
146.201
146.2
146.455
146.201
146.201
146.32
146.246
146.201
146.208
146.249
146.37
146.2
146.202
146.201
146.201
146.271
226.679
146.209
151.174
146.202
3616.2
146.208
151.571
146.218
146.249
146.202
146.207
150.954
146.201
455.129
146.2