/*--------------------------------*- C++ -*----------------------------------*\
| =========                 |                                                 |
| \\      /  F ield         | OpenFOAM: The Open Source CFD Toolbox           |
|  \\    /   O peration     | Version:  v2012                                 |
|   \\  /    A nd           | Website:  www.openfoam.com                      |
|    \\/     M anipulation  |                                                 |
\*---------------------------------------------------------------------------*/
FoamFile
{
    version     2.0;
    format      ascii;
    class       volScalarField;
    location    "2.5";
    object      ILambda_8_0;
}
// * * * * * * * * * * * * * * * * * * * * * * * * * * * * * * * * * * * * * //

dimensions      [1 0 -3 0 0 0 0];


internalField   nonuniform List<scalar> 
108993
(
146.201
146.536
146.2
146.2
146.2
146.2
146.716
146.2
146.2
146.211
146.2
146.2
146.2
146.2
146.2
146.202
146.217
146.2
146.2
146.254
146.2
146.2
146.202
146.2
146.2
146.201
146.2
146.266
146.301
146.2
146.2
146.2
146.2
146.204
146.2
146.2
146.2
146.2
1694.18
7625.4
146.287
146.2
146.2
146.2
146.231
145.376
146.2
146.423
146.374
146.201
146.2
146.239
146.476
146.2
146.2
146.2
146.2
146.2
146.2
146.2
146.2
146.2
146.2
146.2
146.2
146.203
146.2
146.2
146.2
146.205
146.2
146.2
146.2
146.2
146.383
146.2
146.2
146.21
146.2
146.2
146.2
146.2
146.2
146.2
146.2
146.201
146.2
146.2
146.2
146.2
146.2
146.2
146.2
146.2
146.2
146.202
146.2
146.2
146.2
146.2
146.2
146.2
146.2
146.201
146.2
146.2
146.2
146.2
146.2
6860
146.263
146.2
146.377
146.491
146.2
146.918
146.2
146.2
146.215
146.2
146.2
146.2
146.253
146.2
146.2
146.209
146.295
146.2
146.2
146.2
146.201
146.2
146.2
146.839
146.2
146.2
146.2
146.2
146.2
146.2
146.2
146.2
146.203
146.2
146.2
146.2
146.2
342.811
146.2
148.718
149.242
146.2
146.2
162.541
146.2
146.499
146.2
146.2
146.2
146.202
151.781
146.2
146.2
146.2
146.2
146.309
146.2
146.2
146.2
146.2
146.2
146.2
146.213
146.2
146.208
146.201
146.433
146.2
146.2
146.2
146.203
146.2
146.2
146.2
146.201
146.2
146.2
146.2
146.2
146.2
146.2
146.2
146.2
146.433
146.2
146.2
146.282
146.2
146.2
146.2
146.2
146.443
146.2
146.2
146.36
146.503
146.2
996.882
146.2
194.384
146.217
146.2
146.434
149.881
146.082
146.2
146.2
146.2
146.2
146.2
146.201
148.806
146.205
146.423
146.201
146.2
146.2
146.2
146.319
146.2
170.288
146.2
146.2
146.303
146.2
146.2
146.2
146.2
146.24
146.2
146.2
146.2
146.2
146.2
146.2
146.205
155.146
146.33
146.2
146.2
146.2
146.2
146.2
146.2
146.2
146.2
146.2
146.2
146.2
146.2
146.2
146.372
146.217
146.219
146.2
146.2
146.2
146.298
146.2
146.2
146.2
146.2
151.214
123.707
803.061
146.2
146.2
146.411
146.2
146.214
146.204
146.584
146.539
146.2
146.2
146.203
146.2
146.202
146.2
156.754
146.2
146.2
146.202
146.2
146.2
146.2
146.2
146.2
146.21
146.2
146.304
146.787
146.2
146.2
146.2
146.259
146.201
146.245
146.259
149.576
146.2
146.2
146.226
146.2
146.274
146.679
146.2
146.224
335.112
146.2
146.42
146.2
146.335
146.334
146.2
147.224
266.109
147
146.2
146.2
146.201
146.671
147.266
146.2
249.425
146.2
146.2
146.2
146.2
146.2
146.2
146.276
146.201
146.2
146.2
146.2
146.2
146.2
146.2
146.2
146.2
146.2
146.456
289.995
146.201
146.2
146.2
4087.35
146.2
146.2
146.201
146.201
146.2
146.2
146.384
146.201
146.2
146.2
146.2
728.26
146.217
146.203
146.2
1099.21
146.201
147.605
146.202
146.2
146.824
146.2
146.848
146.93
146.202
146.221
146.2
146.216
146.204
4083.15
146.202
1197.82
146.822
146.21
146.928
146.2
147.71
146.201
1958.01
146.2
146.236
146.2
146.201
146.494
146.397
146.2
146.201
146.21
146.22
146.2
146.2
187.181
146.2
146.2
4272.54
146.2
146.2
146.2
1153.62
146.205
192.192
146.2
196.6
146.464
191.989
146.2
146.2
151.042
146.2
147.15
152.156
146.2
2412.62
473.843
741.813
146.2
146.2
146.209
146.201
146.201
146.2
146.2
146.2
146.2
146.2
146.205
146.218
146.536
146.485
146.214
146.2
146.205
146.2
146.2
146.2
146.206
146.2
146.2
146.2
146.203
146.2
146.2
146.216
146.2
146.234
147.414
146.205
146.2
146.218
146.229
146.2
146.2
146.217
146.2
146.2
146.2
146.201
146.216
146.2
146.235
732.71
146.219
146.2
146.2
146.2
146.2
146.2
146.2
146.2
146.2
146.206
146.205
146.2
146.201
146.25
146.2
146.296
146.2
146.2
146.2
146.2
146.455
146.2
146.2
146.2
146.2
146.238
146.63
146.2
146.2
9879.36
146.2
146.205
146.445
146.2
146.207
146.2
146.2
146.2
146.2
146.453
146.344
146.201
146.201
146.461
146.387
146.278
146.226
146.232
146.2
146.223
146.376
146.258
146.2
146.225
146.2
146.2
146.2
146.424
146.2
146.209
185.586
146.2
252.665
146.2
146.2
146.2
146.2
146.2
146.222
146.2
146.2
146.29
146.252
146.726
146.2
146.2
146.2
146.2
146.207
381.434
146.407
146.205
146.2
146.2
146.402
146.227
146.71
146.2
146.2
146.231
146.249
146.2
146.301
5339.39
146.226
147.285
146.244
146.2
146.236
166.884
147.701
146.208
146.2
146.2
146.2
146.2
146.324
145.769
146.229
146.201
146.2
146.276
146.2
146.447
146.2
123.196
146.2
146.2
146.2
148.691
146.205
146.2
146.2
109.087
146.214
146.2
146.2
117.18
146.2
146.229
146.2
146.592
146.2
146.206
146.2
146.426
146.2
146.202
146.2
156.328
146.2
146.396
146.2
146.2
2342.42
146.424
146.2
146.2
146.237
146.641
146.202
146.883
146.299
146.305
146.501
146.201
146.2
146.2
4621.38
146.277
146.232
146.201
146.233
146.2
146.246
146.2
146.201
146.201
146.227
146.218
146.202
146.202
146.31
258.383
179.084
146.213
146.515
146.247
156.451
146.386
182.29
157.288
146.201
146.225
146.2
146.2
146.201
146.243
146.204
157.201
390.652
146.207
146.399
146.287
194.659
189.248
146.2
146.433
146.212
146.201
651.149
147.132
146.249
146.208
146.202
169.107
146.204
157.769
146.213
146.21
8600.58
146.2
146.2
146.223
146.205
146.334
7978.66
146.206
185.518
146.217
18045.9
146.391
146.2
146.2
146.2
146.211
146.2
146.221
146.31
146.2
146.2
146.462
186.87
5155.77
146.2
9560.07
146.201
146.267
146.215
146.2
146.244
146.507
146.201
146.311
146.205
146.2
146.205
146.405
146.286
146.267
146.2
146.22
146.201
146.203
146.203
146.2
146.2
146.238
146.2
146.2
146.394
146.2
146.205
5479.14
276.078
146.205
146.43
146.206
146.205
146.208
146.222
146.2
146.2
146.2
146.204
146.2
146.455
146.2
146.2
146.221
146.231
146.202
146.2
146.204
146.2
146.219
146.214
146.383
149.209
146.2
146.2
146.201
146.714
146.2
146.411
146.569
146.201
146.201
271.097
146.509
146.204
146.2
146.257
146.201
146.201
146.463
146.201
146.442
146.2
146.2
146.221
146.2
276.622
146.2
146.2
10737.2
146.205
164.178
146.392
147.08
146.2
146.473
146.214
146.2
146.2
146.205
146.2
146.2
146.2
146.2
146.2
146.2
146.245
146.2
146.219
146.2
146.335
146.27
146.2
1589.13
146.27
1290.49
146.204
146.2
146.211
7233.66
146.575
146.261
146.218
146.359
146.389
146.443
536.98
146.22
146.2
146.218
146.263
146.2
146.274
7774.71
146.2
146.201
146.203
149.287
146.202
146.259
146.257
146.201
146.2
186.105
146.2
193.749
146.202
185.648
146.201
146.462
146.229
146.23
146.486
146.201
146.223
146.223
146.262
146.42
149.606
146.201
146.201
146.2
146.235
146.205
146.226
146.2
146.2
146.243
148.792
146.2
146.218
146.231
392.04
146.348
146.401
146.766
155.989
146.393
146.519
146.202
146.967
146.2
147.066
274.463
1016.97
146.2
146.2
146.209
146.218
146.354
146.201
146.2
146.31
146.459
146.2
146.291
146.534
146.446
146.903
146.201
146.2
144.199
2264.85
146.454
146.504
146.2
146.2
146.212
146.381
145.868
146.2
147.731
146.217
146.212
146.547
146.2
146.207
146.227
146.316
146.2
146.208
146.209
146.378
146.207
146.2
146.251
146.2
146.215
146.278
146.208
146.225
146.2
147.05
146.2
539.952
146.381
146.202
146.2
146.4
146.279
146.2
146.215
147.757
146.268
146.335
146.201
146.222
146.273
146.784
146.2
146.222
181.902
146.227
146.212
146.221
146.2
146.381
2631.84
146.253
146.232
146.224
146.219
146.209
146.201
146.226
146.225
146.888
146.215
146.2
146.219
146.23
146.2
146.2
146.2
146.236
146.201
146.2
146.2
146.219
146.2
146.2
146.417
147.031
146.2
146.2
146.209
146.2
7767.58
146.2
146.203
146.224
146.202
146.222
3321.83
146.201
146.2
146.2
146.2
146.495
146.201
146.361
146.201
146.2
146.536
146.2
149.014
146.284
147.958
146.2
146.201
146.201
146.2
146.2
146.449
146.2
146.2
146.2
146.2
147.796
146.2
146.47
146.2
146.2
146.457
146.21
146.266
146.403
146.2
146.2
146.267
146.357
146.2
146.2
146.2
2273.07
146.201
146.406
146.2
146.218
146.2
146.2
146.489
146.353
146.205
146.36
5415.38
146.224
146.252
146.484
146.423
146.226
146.2
146.2
146.218
146.217
1100.9
146.212
146.207
146.206
146.298
146.219
146.2
146.218
146.368
146.213
146.211
146.298
146.225
146.206
146.2
146.2
146.2
146.2
146.2
146.2
146.209
146.461
146.235
5567.29
146.216
146.2
146.2
146.207
147.023
146.2
146.216
146.201
146.222
146.2
146.211
147.769
146.233
146.2
146.317
146.202
146.2
146.2
146.2
146.2
146.31
9983.45
146.231
146.2
146.2
146.2
146.202
146.201
146.2
146.207
146.201
146.2
146.2
146.2
146.2
146.2
146.2
146.201
146.2
146.2
146.207
146.2
146.204
146.602
146.378
197.526
146.2
146.2
146.2
146.2
146.201
146.2
146.336
146.2
146.2
146.303
146.201
146.445
146.333
146.335
146.2
146.201
190.044
260.481
146.2
146.2
146.2
146.42
146.2
146.2
894.955
146.2
146.201
146.2
146.2
146.2
146.218
146.219
146.442
889.865
146.28
146.267
146.331
146.719
146.35
146.218
146.201
146.332
147.797
146.2
146.212
146.22
146.212
146.212
8102.4
146.397
146.2
146.236
146.2
146.737
146.228
146.22
146.202
146.2
146.2
146.2
146.21
146.2
146.831
4749.21
146.22
146.2
146.2
146.221
146.207
146.2
146.207
146.2
146.205
186.469
146.227
152.988
146.2
146.21
146.2
146.203
146.271
146.217
146.201
146.235
146.202
146.679
146.279
146.367
146.437
146.2
146.201
146.209
146.2
146.207
2670.74
146.2
146.206
146.2
146.733
146.2
146.2
146.493
146.2
146.252
1012.35
146.2
146.496
146.205
146.279
146.2
146.204
146.2
146.502
146.2
146.362
146.21
146.2
330.65
146.2
146.201
146.2
146.467
150.08
146.2
146.204
146.29
183.597
146.21
146.2
146.2
146.243
146.201
148.458
149.029
148.408
146.308
148.482
146.2
149.464
149.475
146.211
146.209
146.202
146.271
146.201
146.2
146.2
146.215
146.2
146.2
146.2
146.252
146.2
146.2
146.201
146.207
146.201
146.201
146.2
146.513
146.491
146.201
147.979
146.203
146.205
146.372
146.321
146.244
146.2
146.205
146.41
146.201
146.205
146.207
146.201
146.206
362.286
146.206
146.212
146.206
146.211
146.393
146.213
146.2
146.245
146.2
146.214
146.2
146.2
146.201
146.246
146.211
146.201
146.761
146.21
146.41
330.214
146.2
146.295
146.2
146.253
146.253
146.201
146.2
615.557
147.508
146.217
146.217
4050.62
146.309
146.2
146.201
146.2
146.214
146.215
146.417
151.795
146.2
146.2
146.2
146.213
146.252
146.2
146.2
822.143
9608.84
146.214
146.2
146.349
146.21
146.202
146.205
146.2
146.419
146.2
146.202
146.205
146.213
5664.25
146.206
146.21
146.425
147.121
146.203
146.268
146.557
146.201
146.2
146.216
146.331
146.226
146.2
146.21
146.282
146.245
281.729
146.211
146.213
273.112
146.204
146.201
521.178
146.204
146.2
146.205
146.2
1113.33
146.201
146.2
146.495
146.205
203.352
146.203
3262.01
146.205
146.206
1298.56
146.216
146.206
146.521
146.222
146.201
146.528
146.2
146.201
146.2
337.606
146.275
146.203
146.261
146.2
147.642
480.846
150.632
146.218
3799.38
146.2
4586.43
146.2
146.201
146.313
146.2
146.2
146.2
146.2
146.203
146.303
147.658
146.224
171.175
146.204
146.2
146.203
146.204
146.203
146.2
444.561
146.253
146.2
146.2
146.2
146.301
146.234
146.201
146.382
146.2
146.201
146.201
155.465
1192.13
146.475
231.083
147.625
146.201
146.213
147.663
146.2
146.2
146.252
551.846
3661.9
146.867
15486.4
146.2
146.2
8142.78
146.2
152.022
146.2
146.2
146.241
146.2
148.834
146.2
148.292
11220.8
146.3
149.078
146.28
146.298
146.2
146.292
146.2
146.2
146.2
146.2
146.2
146.2
146.424
146.2
146.219
146.441
146.603
146.524
146.206
146.2
280.385
147.745
146.2
146.233
146.2
146.2
146.229
433.318
184.44
146.992
146.2
493.754
629.228
200.856
146.2
148.92
146.229
146.23
352.631
146.223
173.742
146.23
146.201
146.226
146.366
146.223
146.287
146.395
146.309
146.218
187.658
768.098
197.461
146.2
146.2
576.23
146.2
147.03
147.137
146.2
6365.39
146.264
146.203
146.203
146.206
146.205
146.289
146.392
2036.27
146.412
160.054
146.2
146.902
146.329
146.399
146.2
146.32
146.205
146.204
146.201
146.206
146.265
146.206
146.205
146.203
147.753
146.325
146.203
145.944
146.266
146.219
421.306
146.204
146.202
146.385
146.202
146.2
146.201
151.143
146.722
146.531
147.022
7500.72
146.201
146.202
146.27
146.602
146.469
1325.99
146.201
146.207
146.201
146.739
146.423
155.272
146.2
146.2
146.2
146.2
146.816
146.2
146.263
146.201
219.477
146.689
146.201
146.201
4518.48
147.292
588.189
146.815
146.2
147.537
5678.34
146.2
146.334
146.225
146.238
146.277
146.2
146.268
156.064
464.615
146.283
4282.78
146.368
146.266
146.207
142.718
3819.28
146.238
3161.02
146.202
146.219
146.214
146.201
6577.17
146.265
146.207
146.288
146.989
570.46
146.428
146.238
146.339
146.2
146.2
146.2
146.42
146.212
203.618
211.384
146.209
12009.4
146.217
146.2
146.228
164.644
4416.35
146.248
146.272
158.122
152.551
4488.29
146.958
146.2
5590.87
146.401
146.2
146.201
171.303
146.2
146.22
146.265
147.024
147.279
377.828
146.2
146.236
148.639
146.21
146.2
146.2
146.202
146.2
146.213
194.406
166.551
137.057
146.213
6526.84
146.43
289.579
146.201
146.302
146.695
2690.18
146.206
146.2
146.2
146.2
146.2
146.201
146.201
146.236
146.416
3218
146.246
146.328
5381.16
172.318
146.476
467.353
146.2
5158.89
146.338
146.2
146.2
151.536
153.11
146.2
146.201
146.2
146.397
146.2
6889.57
7453.21
8899.85
149.861
146.2
255.553
146.76
146.2
146.264
146.2
146.214
284.175
146.205
146.212
599.864
146.4
146.2
146.215
146.2
146.2
146.214
146.348
146.226
146.201
146.651
146.583
757.51
146.43
146.422
146.382
146.2
146.209
146.203
147.131
209.072
146.202
146.2
154.023
146.207
146.2
146.206
146.207
146.303
157.318
147.986
147.308
146.992
146.2
360.69
146.208
147.866
152.972
146.2
147.839
146.2
146.2
344.423
146.2
146.407
159.064
148.469
173.08
158.897
146.2
146.441
146.233
154.084
146.316
146.204
163.308
159.851
197.168
1145.31
147.377
146.204
146.314
148.544
154.345
147.661
146.311
152.899
146.201
146.2
16688.1
248.892
146.532
146.802
146.637
154.503
10361.8
146.2
146.676
146.208
265.984
146.202
146.554
146.899
146.2
4399.68
146.202
148.951
167.808
146.205
146.202
153.315
146.202
146.2
146.2
146.2
146.885
146.205
169.675
146.198
146.2
146.2
2716.33
146.275
146.2
146.226
146.2
146.2
146.201
146.2
146.244
146.241
7399.32
146.2
146.2
1228.69
146.2
153.462
4997.25
146.2
146.2
146.203
146.201
749.064
146.2
146.208
146.2
146.2
146.201
810.401
4674.62
146.211
146.201
15707.9
146.201
146.28
146.2
146.419
146.2
225.651
162.978
146.201
146.2
146.763
146.454
1516.73
146.2
146.643
146.216
146.2
146.21
146.219
146.2
146.429
146.2
1260.38
146.2
146.2
146.205
146.259
146.2
273.183
146.275
146.2
146.2
231.416
146.2
166.449
146.205
146.2
146.783
3593.78
149.546
146.378
146.201
146.214
1167.37
146.2
196.966
146.2
1483.46
1170
146.205
1375.51
266.371
916.713
165.385
314.658
146.247
146.2
146.201
146.261
146.266
146.201
6128.91
146.201
146.204
146.2
146.259
525.243
1057.45
146.2
146.492
146.329
146.2
156.742
146.2
146.2
146.201
180.964
493.678
236.288
146.2
146.201
146.2
8168.79
147.153
922.199
146.2
146.2
173.817
146.388
146.2
146.2
159.531
146.2
146.2
159.196
156.901
146.393
146.402
146.2
146.55
9273.84
544.648
147.717
146.232
7016.5
146.204
146.223
1535.12
3361.8
363.268
4480.78
4552.61
466.257
146.2
7592.98
2324.52
147.68
146.2
151.263
14948.4
146.2
178.778
1223.46
146.2
3461.76
146.2
409.781
147.049
146.728
276.273
229.323
146.2
146.2
146.323
146.234
177.826
146.2
341.994
146.244
146.202
146.201
146.201
146.2
146.433
146.2
146.559
146.236
172.606
146.2
292.652
146.202
146.714
146.2
146.213
149.881
146.201
146.201
146.2
146.2
146.212
1889.99
772.579
275.406
146.728
146.201
146.202
146.202
146.213
146.209
146.302
146.2
146.599
146.343
487.725
146.208
146.204
146.2
146.37
146.203
146.201
146.42
146.204
146.248
559.206
146.323
150.374
146.21
146.209
146.421
147.119
146.2
146.229
146.404
146.211
146.456
146.251
146.394
146.225
146.399
146.2
146.2
146.204
147.114
146.2
183.415
146.201
146.221
146.2
146.2
146.228
146.208
146.25
146.268
146.204
146.2
146.832
211.916
146.211
807.47
212.157
146.202
146.228
146.201
146.207
194.07
146.201
146.287
146.394
146.2
201.271
146.216
146.201
146.203
146.2
146.201
146.201
146.2
146.2
146.201
266.062
146.2
146.201
146.253
146.201
146.217
146.484
146.2
146.201
146.627
146.485
146.203
146.222
146.201
146.384
146.376
146.203
146.2
146.332
146.262
146.203
146.204
146.204
146.201
146.2
146.216
146.318
1698.57
146.485
350.694
146.224
146.216
146.225
146.2
489.904
146.222
146.202
146.6
146.228
965.742
146.2
146.226
146.243
146.225
146.338
146.237
146.378
146.201
146.23
146.435
146.2
146.26
146.2
146.211
146.253
146.27
146.446
146.242
146.618
146.228
146.628
146.223
146.207
146.2
146.317
146.212
146.201
146.2
146.201
146.26
146.2
146.224
146.206
146.2
146.2
146.201
146.204
147.848
146.2
146.207
146.21
146.2
146.432
146.2
146.428
146.205
146.201
146.2
146.2
146.222
146.2
146.2
146.2
146.204
146.2
146.2
146.729
146.201
146.219
3831.37
146.2
146.383
146.212
146.2
146.202
146.446
146.2
146.2
146.312
146.24
146.207
146.2
146.211
146.2
146.218
146.244
146.2
146.2
146.205
146.2
146.2
146.343
146.2
146.206
146.206
146.232
146.2
146.201
11575.9
146.487
146.203
146.2
146.2
146.2
146.279
146.344
146.2
146.2
146.202
151.744
146.202
146.2
146.2
152.149
146.215
146.215
148.561
146.21
146.201
146.576
146.218
146.201
146.215
1152.47
146.392
146.2
146.281
147.165
146.2
146.2
150.238
146.5
155.769
146.2
146.21
146.2
146.37
5880.21
146.2
5955.24
146.205
146.2
6499.24
146.206
146.2
146.347
6503.1
146.201
146.227
6509.37
146.202
146.243
6147.29
146.217
146.204
146.249
146.23
147.047
146.212
1631.96
146.2
146.2
146.294
146.201
146.285
155.353
146.2
146.226
146.248
153.646
146.719
146.201
146.227
146.2
146.215
146.201
166.919
4979.83
146.271
148.237
159.299
5077.19
146.2
146.348
8133.88
146.2
156.038
146.238
146.327
146.2
165.263
146.2
146.2
146.212
146.2
166.87
146.209
146.209
3811.08
146.236
146.2
146.214
146.209
146.202
146.2
146.2
146.202
146.209
146.209
146.201
146.939
6478.96
146.21
146.25
2584.49
146.279
146.325
146.209
146.712
146.403
146.217
146.209
146.381
146.221
146.604
1506.01
146.213
146.201
146.219
146.214
146.312
146.2
146.367
146.213
146.21
146.418
146.284
9719.05
146.474
146.221
146.693
146.201
146.738
146.235
146.258
146.612
146.2
149.927
1037.23
10422
146.204
146.2
146.2
146.694
146.229
148.974
146.206
146.804
146.584
146.301
146.2
469.699
146.692
146.227
6704.74
149.136
146.2
146.217
146.201
146.206
146.201
146.2
146.2
146.428
146.202
146.2
146.202
225.25
146.2
146.221
146.2
146.594
146.357
146.219
146.264
146.2
146.204
146.212
146.201
146.2
146.2
146.206
146.2
146.208
146.211
138.922
146.2
146.466
146.25
258.138
146.2
146.423
146.282
146.2
146.2
862.869
146.2
146.202
146.2
146.2
146.2
146.209
146.2
146.2
146.2
146.2
146.388
460.502
146.2
146.201
146.2
146.285
146.272
146.2
146.2
3002.39
146.2
146.23
146.2
146.483
146.24
146.2
146.2
146.129
1847.4
146.222
146.215
146.2
146.201
146.229
146.483
146.2
146.414
146.236
146.384
146.2
146.275
146.23
146.321
1480.91
146.359
146.201
146.24
483.095
146.2
146.421
146.2
146.201
146.201
146.2
146.2
146.256
146.227
146.616
146.458
933.748
1016.59
146.2
146.251
146.206
146.201
146.266
3603.1
146.201
146.247
146.685
146.2
146.227
146.201
146.234
146.261
146.21
146.205
146.204
146.2
146.213
146.735
146.204
146.328
146.201
146.234
146.427
587.331
146.206
146.23
146.243
749.879
2151.23
146.2
146.389
146.201
146.383
146.229
4871.12
146.252
146.495
146.215
146.203
146.2
146.2
162.926
146.2
146.2
146.2
146.2
146.217
146.222
146.458
146.212
146.208
146.274
146.311
146.2
4553.98
147.121
146.2
146.449
146.2
146.2
146.2
1645.15
146.875
146.071
146.204
146.2
146.2
146.338
146.201
146.218
12305.3
146.287
146.2
146.245
6625.52
3711.54
146.201
146.2
12575.1
12771.7
146.206
10661.9
805.837
147.014
969.861
146.632
146.202
146.2
146.202
146.2
146.2
146.201
20053.5
7138.01
820.739
146.635
343.819
146.209
146.215
146.215
146.764
146.201
662.195
146.202
157.803
156.405
146.2
259.932
860.095
146.201
146.2
160.227
146.202
146.2
910.9
1993.67
146.2
146.2
146.201
146.232
146.209
146.2
146.2
153.482
184.353
146.2
146.209
146.214
1519.24
146.257
146.2
146.2
146.2
726.548
146.2
146.377
146.599
146.2
146.412
146.2
146.2
3359.74
146.201
146.2
146.2
146.2
146.201
146.382
146.201
146.2
146.32
146.364
146.2
146.445
146.2
146.2
146.2
146.202
146.2
146.2
146.21
146.2
146.2
150.419
146.2
427.141
146.212
146.2
146.2
146.2
146.2
146.214
146.256
1010.03
1032.79
1273.52
146.296
287.727
146.202
972.905
1263.57
146.202
147.685
146.2
146.214
146.2
146.2
146.2
146.2
146.434
147.499
146.2
1271.4
146.201
146.492
146.209
146.2
146.305
146.227
146.46
149.273
146.702
146.301
146.2
146.635
192.616
146.288
146.213
4722.83
146.211
4620.13
146.2
146.2
146.331
4595.01
6389.54
5251.42
4713.89
744.609
151.62
169.459
155.46
3369.39
146.2
146.265
146.201
146.24
146.21
551.45
146.209
146.232
534.148
289.064
146.203
444.314
146.424
146.2
146.2
146.2
146.775
146.797
146.231
146.2
146.758
2822.46
146.25
156.11
146.661
146.305
148.631
146.2
146.261
148.325
146.218
146.2
146.38
146.485
146.2
146.2
148.351
146.202
146.2
168.491
146.324
147.984
150.277
146.241
167.812
146.482
146.591
146.205
146.581
146.758
146.746
146.249
146.2
146.661
146.231
146.524
146.49
146.219
146.433
146.209
146.242
146.301
146.2
146.401
146.55
146.2
146.415
146.2
146.2
146.2
146.552
146.207
146.211
146.201
146.2
146.457
146.675
146.903
146.204
146.2
146.463
146.465
6021.06
146.2
218.122
1034.67
201.099
146.251
146.201
577.625
146.2
146.256
146.2
146.2
146.222
146.201
146.2
146.236
146.201
146.393
146.2
146.2
146.2
146.2
146.201
146.208
146.358
146.2
146.2
2389.92
146.276
146.339
146.222
146.2
2082.68
146.202
146.2
146.2
146.315
146.258
146.2
146.21
146.36
146.287
146.2
146.441
146.2
146.2
146.2
146.2
146.2
146.287
146.207
146.522
146.2
146.38
146.2
146.482
146.2
146.217
146.2
146.38
146.272
146.274
146.276
146.201
146.302
146.22
146.2
146.2
146.2
146.201
151.981
146.2
146.2
146.2
146.289
146.201
146.406
146.2
146.2
146.256
146.231
146.2
146.201
146.2
146.206
146.2
146.2
146.2
149.394
146.2
146.2
146.2
146.2
146.2
146.2
1896.27
146.215
146.207
146.205
146.2
146.498
146.2
154.494
146.245
146.206
146.492
146.2
146.2
146.2
146.324
158.202
146.2
146.2
162.2
146.2
146.2
146.2
146.2
146.459
146.352
5770.05
146.2
146.2
146.2
162.725
154.342
157.485
146.297
153.009
675.261
146.201
146.201
146.445
163.688
146.2
146.249
146.2
146.201
770.251
146.2
146.2
146.279
146.316
146.39
146.43
146.522
146.201
146.835
157.459
146.201
146.239
146.201
146.2
146.201
146.201
146.2
160.037
146.201
147.942
146.22
151.061
146.648
699.497
146.317
146.201
146.231
146.201
146.228
146.201
146.201
146.201
146.282
216.701
148.693
146.203
146.257
146.201
477.793
146.245
147.369
146.357
146.201
147.191
146.201
146.201
146.2
375.12
590.797
745.888
146.2
573.598
146.2
146.209
146.2
146.217
146.2
3967.09
146.275
146.2
146.2
146.306
146.753
146.2
147.166
146.201
146.2
5280.8
146.2
153.509
146.201
146.255
146.201
146.2
146.201
146.2
146.331
146.201
148.234
146.205
146.22
146.201
146.38
165.438
146.2
146.201
146.2
6114
146.244
147.18
1893.43
180.844
146.2
196.385
146.659
146.201
146.224
4266.52
146.382
146.2
774.961
958.837
146.2
146.401
146.2
1073.37
146.2
146.2
146.2
146.226
4234.14
146.226
13234.1
146.252
146.486
146.223
146.205
146.213
146.224
146.242
146.204
146.206
146.38
908.323
331.989
1114.72
374.445
154.054
389.353
146.256
146.2
146.2
350.962
5431.77
6440.36
215.873
146.458
596.881
403.103
3609.12
2241.43
146.2
579.275
10174.5
332.806
146.2
147.959
200.483
554.265
1811.36
172.832
146.519
1958.72
146.2
1652.41
146.264
179.889
146.439
5663.38
4377.34
146.201
146.201
146.514
622.945
146.33
146.283
146.2
146.2
3977.21
146.216
146.774
146.412
146.2
146.482
146.2
51643.8
146.681
146.2
146.737
3347.9
146.31
152.203
4342.72
4957.03
146.337
146.2
146.221
628.918
146.2
146.2
146.202
146.275
146.382
4276.11
154.418
146.228
207.507
149.604
146.2
146.2
5544.59
146.202
146.391
146.978
146.2
146.2
146.214
154.113
147.235
926.884
146.442
146.456
146.2
200.101
20583.2
146.34
174.096
146.2
146.212
146.2
155.381
146.2
3661.75
150.335
146.2
6354.07
146.2
146.2
146.558
146.253
146.454
146.21
249.608
798.159
146.2
146.201
146.276
4364.86
146.2
146.281
147.627
146.2
146.312
146.21
146.2
146.203
146.2
146.203
146.203
146.201
146.2
146.395
146.436
146.201
215.135
10938.7
146.42
146.44
146.2
146.3
146.201
146.203
146.409
2272.75
6283.92
146.406
136.484
147.302
146.244
146.577
1419.95
146.862
147.048
146.462
146.203
146.773
146.202
146.203
146.2
146.202
147.032
146.371
2897.11
146.2
146.222
146.272
560.44
766.548
146.2
146.829
147.287
146.228
147.085
148.954
146.2
146.201
147.623
146.489
146.2
146.2
146.201
146.2
146.44
146.2
3837.97
376.473
149.604
146.766
146.337
146.277
146.376
146.2
146.2
210.028
146.2
146.2
146.2
267.975
146.341
5702.58
146.359
146.433
146.395
192.595
146.374
146.343
146.208
146.374
146.737
3490.03
146.782
146.222
146.215
146.272
156.783
146.201
149.835
703.254
146.328
147.282
146.223
146.285
150.516
146.235
146.367
146.429
146.384
146.7
146.2
146.791
146.453
148.207
146.2
146.2
256.901
146.267
146.2
146.215
146.465
1338.13
146.608
146.288
146.2
146.795
146.358
146.2
146.2
146.2
9176.23
148.732
34465.8
146.756
146.2
1377.14
1365.58
146.282
146.2
146.399
146.311
147.252
146.223
753.033
146.204
146.389
146.254
1526.23
146.203
146.204
146.2
146.2
988.558
1573.72
146.317
1533
146.363
146.207
146.201
146.2
146.201
1580.13
146.345
146.2
146.2
146.282
146.201
146.201
146.392
146.2
146.203
146.415
146.208
146.34
146.235
146.2
146.2
146.573
146.201
146.2
303.217
146.221
146.368
146.2
146.223
2042.74
146.2
147.064
146.379
146.454
146.2
146.201
146.241
146.201
146.2
146.496
146.377
146.56
612.763
146.207
146.205
146.23
146.2
146.291
146.203
146.207
146.465
146.291
146.201
146.301
146.2
146.221
2223.59
291.941
146.453
146.331
146.225
146.201
1184.92
146.296
871.511
146.459
146.405
146.201
146.2
146.2
146.2
146.301
146.202
146.215
147.7
146.264
146.2
146.201
146.37
146.21
146.233
146.201
146.201
146.208
146.285
146.217
146.259
146.201
146.2
146.215
146.216
146.235
146.201
146.401
146.201
146.302
146.201
146.373
146.311
146.596
146.218
146.232
147.23
146.22
146.631
155.167
146.201
18061.8
146.2
146.799
146.201
147.25
146.693
147.158
1450.58
146.203
146.201
146.201
208.589
9655.9
146.2
147.228
146.453
6855.9
146.2
146.486
146.2
146.223
147.034
146.2
146.2
146.206
146.202
146.201
146.2
146.403
319.937
146.747
146.223
146.2
146.887
146.2
146.2
146.227
6653.74
146.221
146.2
146.2
155.899
146.237
146.2
146.2
397.82
146.52
741.083
146.201
146.524
146.219
146.2
146.201
146.2
146.2
146.208
146.355
146.2
146.2
146.203
146.201
146.215
146.205
146.2
146.201
146.2
146.2
146.204
146.2
146.2
146.2
146.2
146.204
146.324
146.988
146.623
146.2
146.2
146.201
146.201
146.349
146.201
146.208
146.318
146.2
146.237
146.2
146.393
146.2
146.2
146.216
146.201
146.201
146.257
146.201
146.266
146.262
147.707
146.2
146.201
146.239
146.201
146.2
146.201
146.2
146.202
146.2
146.2
146.226
146.395
146.253
319.366
355.362
146.201
146.286
146.201
146.2
146.201
146.2
146.201
146.2
306.647
301.029
146.202
200.372
147.435
146.2
294.448
314.798
146.455
146.424
149.807
146.649
146.201
146.2
146.484
146.2
219.528
146.201
213.715
146.202
146.2
146.201
146.469
146.494
146.539
146.3
146.201
146.2
146.2
146.201
146.2
146.201
146.2
146.201
146.2
146.677
146.201
146.268
146.296
146.201
146.201
146.2
146.205
146.419
146.586
146.476
146.358
146.426
146.201
146.201
146.23
146.505
146.201
146.869
146.621
146.201
146.201
146.473
146.25
146.201
146.236
146.241
146.532
146.244
146.2
146.245
9760.83
146.227
146.47
146.2
146.24
146.218
146.201
146.2
146.201
146.371
146.241
146.201
146.726
146.221
147.486
149.985
147.252
146.2
146.2
148.551
146.201
146.394
146.216
146.202
146.201
146.459
146.551
1596.39
146.473
146.213
325.514
146.201
146.207
146.219
147.284
146.736
146.201
1663.13
146.2
146.331
146.201
146.466
146.357
146.201
156.002
146.201
146.2
146.201
146.381
146.201
146.201
146.272
146.53
146.201
146.201
347.468
146.2
147.435
146.201
146.2
146.201
146.201
146.201
146.421
146.2
146.2
146.455
146.358
146.2
146.2
146.201
146.201
146.201
146.453
146.201
147.802
146.295
213.24
146.242
189.789
146.452
146.218
146.203
146.253
147.699
146.214
146.231
284.362
146.215
169.484
146.2
146.201
146.2
146.201
146.201
146.229
146.382
146.312
146.2
146.2
146.201
146.399
146.397
146.209
146.418
196.942
146.424
161.906
146.248
146.32
146.201
146.202
146.418
146.248
146.243
146.202
146.342
146.2
146.335
146.202
146.39
146.201
146.438
146.323
146.2
146.363
146.201
146.201
11664.2
146.201
146.257
159.124
146.201
146.201
146.316
146.201
146.37
146.289
146.311
1525.38
4869.16
11874.6
2216.24
3156.83
146.349
8327.46
146.201
146.213
146.272
146.2
146.245
158.933
146.278
13614.1
146.453
146.22
146.2
2033.59
12856.9
146.201
146.356
19850.5
150.643
155.459
146.319
146.626
146.253
146.247
146.205
152.094
146.204
146.207
146.375
146.2
146.301
146.254
146.208
146.203
146.494
146.209
146.446
146.41
146.2
146.476
146.66
146.238
146.242
146.409
146.223
146.295
871.952
146.358
2788.44
752.075
146.2
1498.81
1175.33
146.203
146.202
146.22
146.201
1674.11
146.201
146.21
146.2
146.38
146.376
146.2
146.265
146.26
146.2
146.201
906.075
146.257
147.532
146.2
146.201
146.318
146.458
146.203
146.353
146.2
146.209
146.455
146.926
146.353
614.81
146.474
146.34
146.202
146.375
146.447
146.236
146.201
146.363
146.344
146.201
146.268
146.341
146.44
146.2
146.202
146.202
146.201
146.351
147.956
146.215
155.708
146.202
1055.53
146.207
149.975
146.207
146.207
146.202
146.201
152.247
146.201
1243.46
146.2
146.2
146.312
146.2
146.2
146.538
146.666
146.2
146.2
156.304
150.196
146.213
146.201
146.407
146.215
146.211
146.2
146.2
146.56
146.2
146.204
146.2
146.2
146.2
146.2
146.587
146.202
447.059
146.2
146.2
146.2
146.221
146.204
146.211
589.319
146.203
146.202
411.71
146.2
146.201
448.223
146.201
146.2
146.2
146.2
170.368
146.2
548.699
146.218
146.208
146.201
413.837
146.2
146.2
146.215
146.2
146.506
568.17
146.2
146.2
146.2
146.343
146.211
146.201
146.53
146.2
146.208