/*--------------------------------*- C++ -*----------------------------------*\
| =========                 |                                                 |
| \\      /  F ield         | OpenFOAM: The Open Source CFD Toolbox           |
|  \\    /   O peration     | Version:  v2012                                 |
|   \\  /    A nd           | Website:  www.openfoam.com                      |
|    \\/     M anipulation  |                                                 |
\*---------------------------------------------------------------------------*/
FoamFile
{
    version     2.0;
    format      ascii;
    class       volScalarField;
    location    "2.5";
    object      ILambda_1_0;
}
// * * * * * * * * * * * * * * * * * * * * * * * * * * * * * * * * * * * * * //

dimensions      [1 0 -3 0 0 0 0];


internalField   nonuniform List<scalar> 
108993
(
146.2
146.2
146.2
146.2
146.2
146.2
146.167
146.2
146.2
146.2
146.2
146.2
146.2
146.2
146.2
146.2
146.201
146.2
146.2
146.198
146.2
146.201
146.209
146.2
146.2
146.2
146.201
146.199
146.2
146.2
146.2
146.2
146.201
146.2
146.201
146.2
146.2
146.2
148.893
147.505
146.201
146.2
146.2
146.2
146.263
146.335
146.201
145.446
146.2
146.201
146.2
1068.48
146.2
146.2
146.2
146.2
146.201
146.2
146.2
146.2
146.201
146.201
146.2
146.2
146.201
146.2
146.2
146.2
146.2
146.204
146.2
146.2
146.2
146.2
146.2
146.2
146.2
146.2
146.2
146.2
146.2
146.2
146.2
146.2
146.2
146.2
146.2
146.2
146.2
146.2
146.2
146.2
146.2
146.2
146.2
146.2
146.2
146.2
146.2
146.2
146.2
146.201
146.2
146.2
146.2
146.2
146.2
146.201
146.201
146.609
146.551
146.2
622.265
532.796
146.2
146.236
146.2
146.2
146.201
146.2
146.2
146.201
146.209
146.2
146.2
146.201
146.203
146.2
146.201
146.201
146.2
146.201
146.2
1845.48
146.2
146.2
146.201
146.2
146.2
146.2
146.2
146.2
146.204
146.201
146.201
146.2
146.2
146.804
146.2
146.436
146.493
146.2
146.2
146.49
146.2
161.044
146.2
146.201
146.201
169.828
146.5
146.201
146.2
146.2
146.2
1606.76
146.2
146.2
146.2
146.2
146.2
146.2
210.589
146.2
146.2
146.2
146.239
146.2
146.2
146.2
146.2
146.2
146.201
146.2
146.2
146.2
146.201
146.2
146.2
146.2
146.2
146.201
146.2
146.206
146.2
146.2
146.201
146.2
146.2
146.2
146.2
165.545
146.2
146.201
220.145
146.428
146.2
146.228
146.2
147.089
1254.24
146.2
146.24
146.221
147.551
146.2
146.2
146.2
146.201
146.201
146.2
146.462
146.2
146.202
146.201
146.2
146.201
146.2
1864.39
146.2
7165.37
146.2
146.2
146.109
146.2
146.2
146.201
146.201
172.717
146.201
146.2
146.2
146.2
146.201
146.201
146.2
146.226
146.212
146.201
146.201
146.2
146.201
146.2
146.2
146.201
146.201
146.201
146.2
146.201
146.2
146.2
146.2
146.203
146.203
146.201
146.2
146.2
146.2
146.2
146.2
146.2
146.2
146.217
149.374
146.492
146.2
146.2
146.206
146.2
146.2
146.2
146.395
146.387
146.2
146.201
146.2
146.2
146.2
146.2
146.813
146.2
146.2
146.2
146.2
146.2
146.2
146.2
146.2
146.202
146.2
146.236
146.585
146.2
146.2
146.2
144.542
146.201
146.2
144.486
146.213
146.2
146.201
146.201
146.2
144.624
146.39
146.2
146.201
147.604
146.2
146.2
146.2
146.193
146.191
146.2
154.715
311.664
146.378
146.2
146.2
146.201
146.248
628.383
146.201
147.024
146.2
146.2
146.201
146.2
146.201
146.2
146.251
146.2
146.2
146.2
146.2
146.2
146.2
146.2
146.2
146.2
146.2
146.376
146.226
146.201
146.2
146.2
146.41
146.2
146.2
146.2
146.2
146.2
146.2
146.2
146.2
146.2
146.201
146.2
714.263
146.2
146.2
146.2
146.763
146.2
146.692
146.2
146.2
146.507
146.2
146.513
146.503
146.2
146.2
146.2
149.833
146.2
8611.62
146.2
146.317
146.624
152.179
146.625
146.2
146.231
146.2
151.712
146.2
146.204
146.2
146.2
146.207
146.212
146.2
146.2
152.072
149.533
146.2
146.2
161.412
146.2
146.201
835.52
146.2
146.2
146.2
146.489
146.203
146.243
146.2
159.372
146.197
147.71
146.2
146.2
147.863
146.2
146.212
150.12
146.2
152.767
147.541
153.334
146.201
146.2
146.2
146.201
146.2
146.2
146.2
146.2
146.2
146.2
146.2
146.182
146.202
146.201
216.793
146.2
146.2
146.2
146.2
146.2
146.2
146.2
146.2
146.2
146.2
146.2
146.2
146.206
146.2
146.206
146.314
146.203
146.2
146.2
146.207
146.2
146.2
146.201
146.2
146.201
146.2
146.201
146.209
146.2
1074.06
146.332
146.203
146.2
146.2
146.2
146.2
146.2
146.2
146.2
146.2
165.485
146.2
146.2
146.2
146.224
146.2
146.204
146.2
146.2
146.2
146.2
146.2
146.201
146.2
146.2
146.2
146.281
146.389
146.2
146.2
9473.68
146.2
146.2
146.168
146.2
146.2
146.2
146.201
146.2
146.2
146.2
145.954
146.201
146.201
146.198
145.467
146.2
146.206
144.508
146.2
146.206
145.113
146.2
146.2
146.205
146.2
146.2
146.2
629.283
146.2
146.2
146.222
146.2
146.314
146.2
146.2
146.2
146.2
146.2
146.205
146.2
146.2
146.224
146.2
146.732
146.2
146.2
146.2
146.2
146.2
145.285
146.2
146.2
146.2
146.2
146.052
146.198
146.276
146.2
146.2
146.201
146.202
146.2
146.2
6199.81
146.198
146.221
146.211
146.2
146.186
150.753
146.431
146.2
146.2
146.2
146.201
146.2
146.284
146.309
146.186
146.2
146.2
146.206
146.2
146.2
146.2
144.556
146.201
146.2
146.2
146.2
146.202
146.2
146.2
140.598
146.201
146.2
146.2
154.235
146.2
146.201
146.2
4314.66
146.2
146.009
146.2
146.192
146.2
146.2
146.2
146.222
146.2
2006.72
146.2
146.2
146.28
146.198
146.201
146.2
146.219
148.489
146.2
146.313
146.2
146.221
160.86
146.2
146.2
146.2
1027.3
146.205
496.406
146.2
787.048
146.2
146.2
146.2
146.2
146.2
261.395
146.206
146.2
146.2
146.205
146.237
502.435
146.203
146.2
146.211
688.195
146.201
594.082
536.824
146.2
146.2
146.2
146.2
146.201
277.863
146.201
146.228
146.26
146.201
141.102
1608.84
454.19
533.193
146.201
146.2
146.201
146.2
146.765
146.199
149.103
146.204
146.2
146.783
146.2
146.217
146.201
146.201
172.594
146.201
146.2
175.368
146.2
146.19
7255.05
146.201
146.526
146.201
7809.43
148.773
146.2
146.2
146.2
146.204
146.2
146.265
146.196
146.2
146.2
146.561
146.262
1225.77
146.2
2159.49
146.2
343.417
146.203
146.2
321.511
146.2
146.2
371.325
146.2
146.2
146.2
177.279
147.239
146.232
146.2
272.517
146.2
146.2
146.2
146.2
146.2
213.203
146.2
146.2
146.16
146.2
146.2
148.084
146.744
146.2
156.934
146.2
146.2
146.2
146.201
146.2
146.2
146.2
146.2
146.2
146.674
146.2
146.2
146.203
146.2
146.2
146.2
146.2
146.2
146.2
146.2
146.16
146.231
146.2
146.2
146.2
962.738
146.2
146.218
146.283
146.2
146.2
162.807
146.228
146.2
146.2
146.217
146.2
146.2
147.638
146.201
146.104
146.2
146.2
146.2
146.2
147.419
146.2
146.2
147.406
146.2
146.561
188.795
146.933
146.2
146.231
146.202
146.2
146.2
146.201
146.2
146.2
146.2
146.2
146.2
146.2
146.201
146.2
146.2
146.2
146.486
145.462
146.2
4924.01
145.474
1368.84
146.2
146.2
146.2
12446.4
146.2
144.973
146.2
1655.28
146.188
191.036
146.221
146.2
146.2
146.229
145.323
146.2
146.201
160.792
146.2
146.2
146.2
146.05
146.2
144.462
146.201
146.2
146.2
226.496
146.2
254.61
146.2
223.986
146.2
146.202
146.297
146.201
963.39
146.2
146.306
146.293
146.204
146.264
207.294
146.201
146.201
146.2
146.204
146.2
146.201
146.2
146.2
146.203
206.696
146.2
146.201
146.294
146.203
146.138
1495.07
1289.52
266.096
146.494
150.211
146.204
2069.92
146.2
1582.79
147.276
580.758
146.201
146.201
146.201
146.203
147.03
146.201
146.2
146.219
146.325
146.2
147.382
146.201
146.2
1915
146.201
146.2
4335.43
396.46
146.2
146.177
146.2
146.2
146.203
1447.7
3983.14
146.2
4244.81
146.201
146.203
146.2
146.2
146.201
146.262
146.2
146.201
146.2
146.2
1896.75
146.2
146.2
146.225
146.2
149.655
146.269
146.201
146.203
146.201
146.473
146.2
6423.57
145.692
146.2
146.201
146.579
1205.65
146.2
146.2
2508.72
801.864
146.276
146.2
146.202
146.243
146.512
146.2
146.202
146.851
146.203
146.2
146.202
146.2
150.517
146.619
1292.22
146.204
146.202
146.201
146.204
146.2
146.202
146.202
146.323
146.2
146.2
146.2
146.203
146.2
146.2
146.2
146.205
146.2
146.2
146.2
146.2
146.2
146.2
146.2
200.714
146.2
146.2
146.2
146.2
146.828
146.2
146.2
146.2
146.2
146.2
2439.09
146.238
146.201
146.2
146.2
148.205
146.151
1235.78
146.201
146.2
146.214
146.2
146.203
146.209
171.26
146.2
146.2
146.2
146.2
146.2
146.362
146.2
146.2
146.2
146.2
146.208
146.2
146.406
146.201
146.2
146.999
351.666
177.315
151.038
146.2
146.2
146.226
349.59
146.2
146.2
146.2
159.853
146.2
146.758
146.2
146.201
146.2
146.201
146.387
146.71
146.204
149
159.128
146.203
146.202
146.364
146.376
146.2
146.2
146.2
342.682
146.2
5979.48
146.205
146.221
146.2
146.204
146.201
146.2
146.201
540.394
146.201
146.2
146.207
245.816
153.947
146.2
146.2
146.2
146.2
146.2
146.2
146.2
1071.99
146.2
1016.82
146.2
146.2
146.2
147.056
485.084
146.2
146.2
146.2
146.201
146.2
146.201
146.485
146.213
146.2
146.214
146.2
146.2
146.2
146.201
146.201
146.2
11997.8
146.268
146.2
146.2
146.2
146.2
146.2
146.2
146.2
146.2
146.2
146.2
146.2
146.2
146.2
146.2
146.201
146.2
146.2
146.2
146.2
146.347
175.593
191.378
147.261
146.2
146.2
146.2
146.2
146.2
146.2
146.194
146.2
146.2
1257.68
146.2
146.792
146.19
146.193
146.2
146.2
172.818
256.895
146.2
146.2
146.2
146.719
146.2
146.2
146.338
146.2
146.2
146.2
146.201
146.2
190.481
146.2
146.2
146.351
146.2
146.2
146.2
146.591
145.881
146.2
146.2
146.2
146.529
146.2
184.338
147.875
148.118
148.4
199.751
146.086
146.2
146.204
146.2
146.204
146.203
148.306
146.2
146.2
146.2
146.2
146.2
146.2
146.303
858.518
146.202
146.2
146.2
146.202
146.2
146.2
146.2
146.2
146.2
358.468
146.203
146.217
146.2
146.24
146.2
146.204
146.224
146.22
146.201
146.206
146.2
176.229
146.205
423.533
556.834
146.2
146.2
146.201
146.201
146.2
3062.22
146.2
146.2
146.2
146.575
146.2
146.2
146.202
146.2
146.235
146.236
146.2
148.733
146.2
297.403
146.2
146.2
146.2
147.682
146.2
146.325
146.203
146.2
146.233
146.2
146.201
146.2
169.252
147.269
146.2
146.194
148.414
150.772
146.203
146.201
146.2
146.216
146.2
146.222
146.225
146.222
146.223
146.223
146.201
146.225
146.223
154.678
157.787
146.2
147.529
146.2
146.201
146.2
167.192
146.201
146.2
146.2
146.236
146.201
146.2
146.201
146.2
146.201
146.201
146.2
239.397
349.076
146.201
3587.67
146.2
146.203
145.575
146.2
146.204
146.2
146.2
994.945
146.201
146.2
146.2
146.201
146.2
146.585
146.2
146.261
146.2
146.204
146.413
146.2
146.2
146.2
146.2
146.2
146.2
146.2
146.2
146.2
146.201
146.2
146.314
146.2
146.25
146.229
146.2
146.206
146.201
146.2
146.2
146.2
146.2
146.267
146.219
263.792
146.2
199.102
146.25
146.2
146.2
146.2
146.2
146.2
146.39
146.468
146.201
146.2
146.2
146.2
146.2
146.2
146.2
219.496
149.532
146.2
146.2
146.267
146.2
146.2
146.2
146.2
474.263
146.2
146.2
146.2
146.2
7010.88
146.204
146.2
146.302
621.037
146.2
146.208
147.254
146.2
146.2
146.2
720.877
146.206
146.2
146.2
355.737
146.224
146.218
146.2
146.2
146.58
146.2
146.2
146.238
146.2
146.2
146.2
146.2
147.27
146.2
146.2
496.567
146.2
147.223
146.2
146.275
146.2
146.202
146.232
146.2
146.203
146.404
146.201
146.201
237.406
146.2
146.2
146.2
147.066
202.613
146.2
146.207
146.2
146.215
147.08
146.455
146.2
2448.6
146.2
6241.71
146.2
146.2
146.161
146.2
146.201
146.2
146.2
146.2
146.206
147.074
146.219
146.173
146.2
146.2
146.2
146.2
146.2
146.2
3453.86
146.206
146.2
146.2
146.2
659.739
146.2
146.2
856.614
146.2
146.2
146.2
146.2
158.295
1887.33
146.215
147.82
146.2
146.2
146.809
146.2
146.2
146.2
146.267
146.368
146.44
6852.37
146.2
146.2
4841.38
146.2
146.2
146.2
146.2
146.2
146.2
146.2
146.2
146.2
2782.23
146.202
146.2
146.232
146.224
146.2
1665.92
146.2
146.2
146.2
146.2
146.201
146.2
146.419
146.2
146.202
148.578
146.447
146.216
146.2
146.2
147.299
147.069
146.201
146.208
146.201
146.2
191.942
146.239
147.113
146.214
146.2
1826.79
147.571
146.284
146.2
146.216
168.736
221.625
146.352
146.63
146.91
217.397
146.201
202.007
146.209
168.159
329.146
1923.12
386.034
148.799
146.223
147.626
147.096
146.201
146.2
190.111
146.2
146.2
146.683
146.201
321.001
326.272
146.2
146.2
146.2
146.2
349.504
146.233
146.343
146.204
146.599
146.2
2078.33
413.54
194.713
146.2
146.336
146.2
146.2
146.2
146.2
146.33
146.2
146.2
146.2
146.977
359.561
145.522
146.511
146.21
146.2
146.248
146.2
146.2
146.2
146.2
146.2
146.2
146.209
506.468
149.508
727.032
622.232
146.202
146.2
145.915
146.301
147.236
2574.82
146.201
146.2
146.201
146.4
163.633
147.311
146.2
146.2
146.2
146.2
530.538
146.201
145.95
146.201
599.693
146.365
146.2
146.201
200.882
146.466
146.225
146.293
146.2
146.417
6768.86
146.2
147.789
146.22
146.21
145.561
146.2
145.477
146.445
146.273
145.772
149.327
146.212
145.68
146.2
147.309
6676.14
146.203
9758.81
146.2
146.2
146.204
146.2
9595.02
146.208
146.201
146.198
146.2
146.714
146.196
146.2
147.976
146.2
146.2
146.2
146.186
146.2
3387.25
844.83
146.201
2798.63
146.2
146.2
146.207
146.448
146.329
146.202
146.201
146.434
146.689
993.057
1716.07
146.2
147.767
146.2
146.2
146.2
118.98
146.2
506.006
146.202
354.893
901.337
6333.58
146.2
171.867
146.2
146.2
146.2
146.2
146.2
146.2
146.205
146.929
746.078
147.11
146.204
9165.84
274.626
146.28
146.2
884.555
153.001
308.465
146.2
146.2
146.2
146.201
146.2
146.201
146.17
146.201
258.132
7327.07
178.899
146.434
172.473
7785.89
146.681
3009.41
146.2
152.69
146.214
146.2
146.2
146.3
146.222
146.2
146.2
146.2
157.316
146.2
312.336
273.279
273.535
146.314
146.201
5269.98
158.835
146.2
146.275
146.2
146.2
1786.3
146.201
146.2
1468.96
161.744
146.2
146.2
146.2
146.201
146.2
146.208
146.2
146.2
146.427
242.122
146.226
298.94
146.265
146.2
146.2
146.2
146.2
146.218
147.066
146.2
146.2
146.491
146.2
146.201
146.2
146.2
1262.94
146.813
292.601
146.231
146.405
146.201
146.318
146.2
146.21
146.412
146.2
146.292
146.201
146.2
146.716
146.201
146.2
146.655
146.34
146.653
146.75
146.2
146.209
146.214
146.225
146.388
146.181
146.316
146.652
146.217
3319.8
146.2
146.2
146.208
147.632
146.223
146.381
146.238
146.742
146.2
146.2
18054.3
146.465
146.212
146.256
146.204
146.908
147.434
146.2
146.211
146.2
146.566
146.2
146.215
146.259
146.2
146.33
146.2
146.523
146.62
146.2
146.2
146.334
146.2
146.2
146.2
146.2
146.259
146.2
146.628
146.38
146.2
146.201
158.681
146.335
146.2
146.209
146.2
146.2
146.2
146.2
152.264
153.524
147.046
146.2
146.2
146.248
146.2
146.216
603.978
146.2
146.2
146.2
146.2
146.238
146.2
146.2
146.2
146.201
146.2
438.981
1108.16
146.204
146.2
4358.93
146.201
430.676
146.2
146.218
146.2
146.401
146.228
146.2
146.2
146.2
173.343
146.287
146.2
146.206
146.2
146.2
146.203
146.202
146.2
161.396
146.2
146.535
146.2
146.2
146.2
146.2
146.2
146.324
146.599
146.2
146.2
146.237
146.2
146.196
146.2
146.2
153.362
146.963
146.013
146.164
146.2
146.2
146.742
146.2
147.272
146.2
147.368
146.341
146.2
2393.29
146.429
9598.28
341.926
146.247
146.2
146.2
146.2
146.205
146.201
146.043
146.941
146.2
146.205
146.2
146.217
146.463
146.295
146.2
187.516
151.603
146.2
7021.03
146.2
146.2
146.2
146.834
146.228
146.216
146.2
146.2
146.2
147.222
146.2
147.327
146.2
146.2
2028.42
147.477
146.2
146.2
146.616
146.2
146.2
146.2
147.248
423.265
146.331
146.2
146.441
10024.5
146.212
146.731
146.257
724.633
146.2
350.106
9995.75
4631.47
730.081
701.277
327.813
2041.31
146.2
10099.7
146.253
146.855
146.2
1337.69
12321.4
146.2
146.249
2007.81
146.2
2031.74
146.2
147.206
146.213
226.398
146.24
146.554
146.2
146.2
146.2
146.2
148.812
146.2
146.328
145.847
146.2
146.2
146.201
146.2
146.2
146.2
146.201
146.2
147.128
146.2
4782.14
146.2
160.215
146.2
146.201
157.77
146.201
146.2
146.2
146.2
146.201
151.52
148.84
2050.7
163.693
146.2
146.203
146.2
156.38
146.202
146.205
146.2
156.769
147.011
148.14
146.215
146.2
146.201
743.432
146.204
146.2
142.694
146.201
146.216
148.168
392.965
149.779
146.2
146.201
605.553
146.936
146.2
146.249
163.518
146.209
180.265
146.274
146.19
146.212
146.2
146.201
146.2
146.201
775.28
146.2
146.202
146.201
146.212
146.2
146.2
146.212
146.482
1112.33
142.544
146.2
146.2
670.838
229.276
146.2
171.709
280.017
146.2
146.202
146.215
146.203
237.868
146.2
188.389
292.636
146.2
279.666
146.201
146.201
146.2
146.2
146.2
146.201
146.2
146.2
146.201
146.203
146.201
146.201
146.278
146.201
146.202
146.219
146.2
146.201
146.271
146.25
146.2
146.249
146.201
146.2
1252.15
146.205
146.2
146.212
148.993
146.2
146.2
146.2
146.2
146.2
146.204
146.206
147.295
704.979
147.384
146.205
145.138
146.244
146.201
147.34
146.269
146.2
146.503
146.291
146.84
146.2
146.282
146.2
203.447
146.206
237.577
146.206
146.2
225.202
146.21
146.2
146.214
146.2
146.201
301.053
146.215
146.209
256.998
146.206
146.201
146.207
224.229
146.2
146.201
149.95
146.201
146.2
146.2
146.2
270.127
146.201
146.203
146.204
146.2
146.201
146.201
146.2
146.155
146.2
146.201
146.2
146.2
258.156
146.2
148.265
146.2
146.2
146.2
146.2
195.841
146.2
146.2
146.2
146.203
146.2
146.2
271.387
146.2
146.201
869.776
146.2
144.048
146.2
146.2
146.2
146.2
146.201
146.2
146.298
146.202
146.201
146.2
146.2
146.201
146.202
802.003
146.2
146.2
211.918
146.2
146.2
146.297
146.2
146.203
146.212
146.2
146.201
145.846
237.787
560.6
146.2
146.201
146.201
146.2
146.309
146.306
146.2
146.2
146.2
146.347
146.2
146.2
146.2
285.222
146.198
146.203
295.967
237.517
146.2
146.2
146.201
146.201
146.253
146.922
146.795
146.2
152.502
245.611
146.2
146.2
246.176
146.907
281.471
146.2
146.202
146.2
146.019
146.599
146.2
146.773
146.2
146.2
147.117
146.2
146.2
640.372
147.042
146.2
146.202
146.961
146.2
146.2
146.933
146.207
146.2
146.2
146.207
1913.71
146.206
6840.37
146.201
146.2
146.724
146.2
146.513
146.2
146.2
146.2
146.2
146.201
146.2
146.2
146.205
146.2
146.2
146.201
146.201
188.833
146.2
146.201
146.201
387.304
146.2
780.804
10792.5
146.201
146.2
146.223
632.457
146.2
146.201
146.2
146.2
146.2
146.2
3217.36
146.201
146.201
149.442
3295.49
146.2
146.2
146.201
146.2
146.2
146.201
146.21
146.2
146.203
146.2
304.107
147.481
146.201
149.495
2071.07
145.891
146.197
146.201
1743.56
146.494
146.205
146.22
160.916
146.2
224.174
1209.9
146.204
146.199
146.2
146.202
236.344
146.2
326.188
146.204
146.201
248.925
146.321
204.098
395.81
146.2
146.516
146.2
146.2
1013.27
146.2
146.483
146.2
146.445
935.029
8776.48
146.2
146.2
146.2
146.569
146.201
146.443
146.2
146.583
146.538
1079.32
146.2
270.796
147.63
146.2
2318.64
171.215
146.2
146.203
146.2
146.201
146.201
146.2
146.2
146.2
146.2
146.2
146.2
148.622
146.2
146.201
146.2
428.424
147.82
146.231
154.511
146.2
146.2
146.201
146.2
146.2
146.2
146.2
146.2
146.203
146.2
147.351
146.2
146.23
428.621
147.118
146.2
1280.93
146.205
146.2
146.2
171.582
146.2
146.2
146.2
146.2
146.2
146.201
146.2
146.2
146.2
146.2
149.715
1158.78
146.2
145.38
146.2
1576.28
179
146.2
146.201
146.721
146.2
164.237
146.2
1055.33
145.281
146.2
146.2
146.409
147.156
146.2
146.157
146.2
146.201
145.612
1803.18
146.2
146.18
146.207
146.025
146.2
420.556
148.113
1940.42
146.298
146.199
146.2
161.68
441.143
146.2
146.2
146.2
146.2
146.2
146.2
146.2
1037.71
155.467
146.2
143.497
155.938
149.04
146.2
152.489
320.382
146.2
145.459
12802.7
146.201
1121.3
146.294
146.2
146.2
146.201
1238.22
145.508
146.212
146.21
146.201
146.2
146.215
172.564
146.393
1631.27
146.2
146.2
146.2
147.684
146.208
146.201
146.2
146.709
1407.83
146.2
145.306
146.201
144.543
208.455
147.581
146.33
1994.52
146.2
146.853
146.2
146.2
158.324
146.2
146.2
146.2
146.2
146.2
146.2
146.2
146.201
146.2
146.105
146.03
146.2
146.484
146.21
146.2
1496.18
146.2
146.2
146.2
146.907
146.215
146.272
146.2
146.2
146.201
146.199
146.261
146.2
1129.85
146.2
146.2
142.682
148.865
147.278
146.252
146.2
967.223
915.62
149.267
581.301
162.328
146.195
146.289
146.21
146.2
146.2
146.2
146.2
146.2
146.2
1724.3
146.727
146.357
146.215
146.773
146.2
146.203
146.204
512.239
146.111
170.582
146.111
145.86
698.583
146.2
146.455
146.517
146.2
146.2
146.817
146.2
146.2
351.919
1627.73
146.2
146.2
146.2
146.2
146.2
146.2
146.2
146.202
152.827
146.2
146.2
146.201
148.559
146.385
146.2
146.2
146.2
147.417
146.2
146.192
250.85
146.2
146.191
146.2
146.2
146.313
146.24
146.2
146.2
146.2
146.2
145.68
146.238
146.2
151.854
146.139
146.2
594.495
146.2
146.2
146.2
146.2
146.2
146.2
146.2
146.2
146.2
146.308
146.2
176.307
146.2
146.2
146.2
146.2
146.2
146.2
145.904
151.011
146.226
168.394
401.007
146.495
146.503
149.418
176.449
154.052
146.216
146.2
146.2
146.2
146.2
146.201
146.2
299.847
146.928
146.201
190.652
146.2
146.2
146.2
146.201
157.479
146.2
152.221
146.653
146.31
146.2
146.201
146.2
146.201
146.2
146.201
786.477
146.2
283.213
146.2
146.2
196.221
205.067
647.867
670.97
160.335
4108.75
181.224
370.809
146.216
353.298
146.2
146.199
146.2
146.2
217.775
146.783
757.015
193.701
146.788
146.831
146.2
146.768
1691.85
146.2
146.2
146.2
237.916
146.322
146.224
146.2
231.933
146.376
2127.65
146.551
146.277
294.263
1658.85
146.2
146.211
991.676
315.026
146.2
146.184
165.126
146.2
146.2
1563.13
146.2
146.201
147.107
146.2
1028.62
145.608
146.2
146.201
146.269
146.27
146.207
146.27
168.262
146.277
146.241
146.2
146.272
146.206
146.236
146.236
146.202
863.104
146.229
145.817
146.337
146.2
146.16
146.231
146.2
146.344
146.2
146.2
146.2
146.232
146.201
146.205
146.201
146.2
1173.4
146.227
146.227
161.098
146.201
1617.79
146.34
158.274
146.201
146.239
154.535
146.313
146.311
146.2
146.244
146.2
146.2
146.2
146.201
146.2
146.201
146.2
146.308
146.2
154.041
146.201
146.201
146.2
146.2
146.2
523.576
434.913
146.2
146.201
146.303
146.197
146.33
146.202
146.201
146.239
146.2
146.201
146.2
146.323
146.2
146.201
146.202
142.663
146.061
146.201
207.822
146.2
146.2
146.2
146.2
146.2
146.042
146.2
146.205
146.2
145.855
146.201
146.215
146.201
146.2
146.2
1714.78
145.91
145.876
146.012
146.201
940.238
146.212
146.2
146.2
146.2
146.2
147.051
146.201
146.201
146.2
145.904
146.2
339.291
146.2
146.2
146.2
146.201
146.2
146.2
146.2
146.2
146.2
146.2
146.2
209.186
146.2
146.2
146.2
146.2
146.2
146.2
146.99
146.201
146.2
146.2
146.2
898.146
146.2
146.21
153.644
146.203
286.271
146.2
146.2
146.2
146.2
146.871
146.2
146.2
146.878
146.2
146.201
146.2
146.2
146.2
145.896
3504.45
146.2
146.2
146.2
146.916
147.009
147.035
277.494
146.184
3651.52
146.2
146.2
146.199
147.005
146.2
146.2
146.2
146.2
1895.8
146.2
146.2
146.2
362.031
146.063
2156.88
146.211
146.201
146.456
258.895
146.201
146.201
146.201
146.2
146.201
146.201
146.201
146.2
146.201
456.427
2132.25
1617.2
2750.77
146.718
147.83
146.201
146.2
146.2
146.456
146.201
146.201
146.201
146.2
271.333
146.202
146.204
146.184
146.2
146.247
146.218
146.206
145.848
146.201
146.21
146.201
146.201
146.2
146.258
146.307
146.521
146.2
146.249
146.2
146.2
146.2
146.2
146.2
146.43
146.231
146.2
146.2
146.229
412.507
146.2
147.677
146.201
146.2
148.018
146.201
146.2
146.201
146.222
146.201
146.2
146.201
146.201
155.32
146.201
159.452
146.2
146.2
146.201
144.743
146.244
146.2
146.201
146.2
1293.69
150.773
146.234
237.846
146.218
146.2
146.979
146.212
146.201
146.2
146.596
146.349
146.201
146.338
150.303
146.2
144.82
146.2
146.355
146.2
146.2
146.2
146.2
399.625
146.2
9817.07
146.2
212.474
146.2
146.2
340.752
146.2
146.303
146.2
146.2
171.843
275.944
146.264
917.952
146.27
146.247
146.281
146.2
146.2
146.2
146.242
4438.72
148.944
146.2
146.2
2468.14
146.282
147.042
147.314
146.2
3054.52
147.09
146.263
146.201
146.426
5697.68
5692.25
1736.1
146.21
146.206
523.973
146.2
148.044
146.2
5721.01
398.46
146.467
338.797
146.2
146.2
146.257
5521.9
144.381
227.258
146.2
146.2
532.699
146.2
146.2
146.2
146.2
838.568
146.2
27760.3
150.748
146.2
146.2
200.486
161.098
278.587
521.948
1020.77
151.636
146.2
146.2
146.318
146.2
146.201
146.2
146.2
145.776
238.75
146.2
146.2
146.251
5564.14
146.2
146.201
1366.77
146.2
145.887
5376.14
146.2
146.2
146.2
146.272
147.56
146.224
146.2
146.2
146.2
146.24
5859.63
146.205
147.406
146.2
146.2
146.2
146.2
146.2
154.971
146.231
146.201
148.952
146.2
146.2
146.215
146.2
254.555
146.2
146.379
153.618
146.2
146.2
162.004
238.899
146.2
146.382
147.252
146.2
146.2
146.2
146.2
146.2
146.2
146.2
146.2
146.201
146.2
145.89
3163
146.2
146.228
10795.6
146.255
3184.57
146.2
1173.07
146.201
146.2
3038.49
146.367
147.694
3683.04
142.058
146.31
146.2
162.256
303.873
146.511
1876.24
215.541
146.2
6106.54
146.2
146.2
146.201
146.205
395.001
145.78
146.335
146.201
146.2
146.2
147.493
1838.56
146.2
4555.32
825.017
161.743
1875.29
3430.52
146.201
146.201
147.28
146.2
146.201
146.2
146.2
146.201
144.585
146.201
537.422
146.224
147.529
164.704
145.78
837.093
146.2
146.201
146.201
146.596
146.2
146.2
146.2
146.549
146.34
146.913
698.981
146.895
146.299
146.308
146.034
702.117
146.2
146.2
243.123
4457.23
315.944
146.2
146.2
146.408
695.87
146.2
968.93
3213.49
1297.99
1463.48
146.2
146.2
147.127
147.955
146.2
1736.1
592.497
171.75
146.2
1152.66
207.5
147.543
146.2
146.2
146.201
146.398
146.2
146.2
1535.83
146.295
1695.23
146.2
146.2
952.513
685.218
146.2
146.2
146.2
147.183
147.901
11249.2
2495.55
146.2
146.281
146.296
145.906
146.2
146.135
146.2
146.2
146.2
2792.37
146.2
146.112
146.551
146.294
146.2
146.2
146.2
146.2
146.255
146.235
146.2
146.285
145.158
146.2
146.2
146.2
146.2
146.284
342.033
146.2
146.2
552.788
146.201
146.201
146.2
146.2
146.2
3163.46
146.201
277.007
146.2
146.2
146.2
3050.74
146.2
146.2
146.254
146.2
144.512
146.2
146.2
147.008
146.2
146.45
145.16
686.364
146.2
146.201
146.2
146.2
146.2
146.2
146.009
2780.61
150.401
146.2
146.2
146.2
146.2
146.2
146.2
146.2
146.2
146.2
146.201
146.2
146.2
146.223
218.403
146.233
146.254
147.876
146.237
146.2
5631.76
146.2
957.334
146.232
146.225
146.201
146.2
146.2
146.2
146.2
146.2
146.202
146.517
146.2
146.2
146.201
145.833
146.2
146.2
146.201
146.201
146.2
146.22
146.202
146.213
146.2
146.2
146.202
146.202
146.213
146.2
146.176
146.2
349.862
146.2
745.677
146.354
146.2
146.203
146.217
146.479
146.202
4726.85
399.499
146.2
14025.7
146.2
4279.81
146.201
1413.81
171.926
1051.15
146.264
146.2
146.201
146.2
146.247
147.104
146.2
945.683
144.214
147.338
146.2
146.2
146.2
146.2
1775.77
146.2
146.201
146.2
146.2
146.201
146.2
5590.83
1290.45
155.703
146.2
146.2
202.011
146.2
146.2
146.194
147.285
146.198
146.2
146.2
146.243
146.186
146.2
146.201
146.283
4202.37
146.229
146.201
6192.59
148.07
146.2
146.201
146.2
146.2
146.2
145.214
146.2
146.2
146.2
146.2
146.2
146.2
146.2
146.201
146.2
146.2
146.2
146.2
146.2
146.2
146.2
146.2
146.289
363.797
219.788
146.2
146.201
146.2
146.2
146.209
146.2
146.2
146.193
146.2
146.2
146.2
158.999
146.2
146.2
146.2
146.2
146.2
146.215
146.201
146.211
146.21
146.218
146.201
146.201
146.222
146.201
146.2
146.2
146.2
146.2
146.201
146.2
146.203
146.2
146.2
146.232
146.222
146.201
146.2
146.201
146.2
146.2
146.2
146.2
146.2
146.229
2335.18
146.2
2365.02
146.2
146.2
1292.95
1295.98
146.2
663.917
146.208
146.2
146.2
146.201
146.197
146.2
1253.34
146.201
1236.85
146.2
146.2
146.201
2698.64
2715.7
2335.24
146.2
146.201
146.2
146.2
146.2
146.2
146.2
146.2
146.2
146.2
1736.04
146.201
146.2
146.2
146.2
146.201
146.2
146.2
743.71
146.291
2010.95
146.2
146.199
146.2
146.201
146.199
146.2
146.2
146.2
146.5
146.201
146.2
146.2
149.371
146.201
146.213
146.2
146.2
146.201
146.2
146.201
147.01
146.2
146.928
146.2
146.202
146.2
146.2
146.201
146.201
146.2
146.201
146.201
146.2
146.2
146.293
833.55
147.18
146.2
146.201
146.283
146.201
145.955
146.206
146.2
146.2
146.2
2668.53
146.742
2763.2
146.216
146.271
146.201
146.2
146.202
146.328
228.463
146.2
146.967
146.2
146.15
146.201
427.325
145.932
146.201
146.227
146.2
146.201
146.201
146.219
146.201
146.201
146.188
146.22
146.2
146.201
1380.43
146.2
146.2
146.201
146.201
146.201
146.201
146.201
146.186
146.2
146.2
146.2
144.37
146.2
146.201
146.2
146.2
146.2
146.2
146.201
146.198
146.207
2250.15
146.456
4049.04
146.214
146.2
146.205
146.2
147.809
146.201
2396.01
1478.22
146.203
1470.58
146.2
146.201
146.2
146.2
146.2
146.2
458.456
354.271
146.2
146.2
146.201
269.022
489.081
146.2
511.134
146.201
332.946
147.083
146.404
146.199
146.201
146.201
575.151
148.258
146.778
146.203
146.794
146.2
146.2
146.2
146.2
146.2
516.973
146.217
146.2
146.2
146.2
146.201
9080.91
146.201
146.196
147.068
146.201
146.2
146.2
146.2
146.188
145.929
146.178
1860.56
3488.91
2757.45
4404.76
3748.11
373.832
8830.42
146.201
146.233
146.2
146.201
203.404
147.059
146.402
3345.42
153.145
146.228
146.2
3896.35
8744.89
146.2
146.2
7405.89
146.866
146.907
144.749
146.2
150.098
146.2
146.2
146.825
146.2
146.22
144.84
146.2
146.2
145.054
146.217
146.206
147.799
146.151
147.46
1205.33
146.2
1123.53
150.498
147.876
148.175
146.163
146.2
146.292
146.268
146.199
7117.16
2098.15
146.2
5786.8
5577.63
146.2
146.2
146.2
146.2
6174.04
146.202
146.2
146.201
146.113
146.193
146.2
1174.71
146.195
146.2
146.201
3480.84
146.199
146.397
146.2
146.201
146.149
240.309
146.201
144.953
146.2
146.2
164.555
148.687
244.003
147.705
146.304
149.838
146.2
145.946
627.526
146.2
146.201
362.09
1039.76
146.2
144.484
157.235
423.235
146.2
146.2
146.201
146.2
146.2
146.813
146.239
145.751
146.211
220.51
148.42
145.726
146.217
146.2
146.2
146.2
145.758
146.201
2460.64
146.2
146.2
146.241
146.201
146.2
146.293
146.553
146.2
146.2
146.047
146.019
146.2
146.2
735.102
146.2
146.202
146.2
146.2
146.2
146.2
146.2
146.2
146.2
146.2
146.2
146.2
146.2
146.227
146.2
146.2
146.2
146.202
146.2
146.2
146.228
146.2
146.2
146.239
146.2
146.2
146.235
146.2
146.2
146.2
146.2
301.504
146.2
146.237
146.2
146.2
146.2
146.228
146.2
146.2
146.201
146.2
146.2
146.231
146.2
146.2
146.2
146.197
146.2
146.2
146.648
146.2
146.2
146.2
146.202
146.2
146.2
146.195
146.2
146.2
146.194
146.2
146.201
146.2
146.2
146.193
146.2
146.196
146.2
146.201
146.2
146.2
146.2
1497.17
146.2
146.2
146.2
146.201
146.2
146.2
146.201
146.2
146.207
146.2
1044.25
146.2
146.2
146.2
146.963
147.207
146.2
146.2
146.2
146.273
147.191
148.742
146.2
146.2
146.2
146.2
146.2
146.2
146.2
146.2
146.2
146.2
149.808
2402.73
146.27
146.2
146.2
146.2
146.2
146.2
2278.09
1282.89
146.2
146.2
146.2
146.2
146.2
146.2
146.2
146.2
146.2
146.2
146.2
146.2
146.2
146.2
146.2
146.2
1217.92
146.2
146.2
146.2
146.2
994.764
146.2
146.2
146.2
2636.57
146.201
146.2
146.2
146.2
146.2
146.2
146.2
5732.39
285.317
146.2
214.539
146.2
146.2
146.203
146.2
146.2
146.2
146.2
146.2
1989.17
144.353
146.2
146.2
146.2
146.2
474.794
146.2
146.206
146.2
3519.5
147.066
144.594
146.2
176.388
146.2
142.273
146.2
146.2
146.2
1693.74
146.2
146.2
2041.57
146.2
146.2
146.2
146.2
2073.14
146.2
293.004
352.468
146.2
146.2
146.2
146.2
146.2
146.2
146.2
146.2
1992.25
146.2
146.201
144.592
146.2
146.2
146.2
477.096
146.201
146.2
146.2
146.2
146.2
146.201
146.2
146.2
146.2
146.199
146.2
146.2
146.2
146.2
146.2
146.2