/*--------------------------------*- C++ -*----------------------------------*\
| =========                 |                                                 |
| \\      /  F ield         | OpenFOAM: The Open Source CFD Toolbox           |
|  \\    /   O peration     | Version:  v2012                                 |
|   \\  /    A nd           | Website:  www.openfoam.com                      |
|    \\/     M anipulation  |                                                 |
\*---------------------------------------------------------------------------*/
FoamFile
{
    version     2.0;
    format      ascii;
    class       volScalarField;
    location    "2.5";
    object      k;
}
// * * * * * * * * * * * * * * * * * * * * * * * * * * * * * * * * * * * * * //

dimensions      [0 2 -2 0 0 0 0];


internalField   nonuniform List<scalar> 
108993
(
8.35378e-05
7.94683e-05
9.38893e-05
7.93038e-05
8.03017e-05
7.00676e-05
7.75105e-05
7.72366e-05
8.19517e-05
7.91696e-05
8.10391e-05
8.06109e-05
8.00573e-05
7.76136e-05
7.88003e-05
7.63998e-05
8.26992e-05
7.90475e-05
7.87429e-05
7.94363e-05
0.000110838
8.47617e-05
7.65931e-05
8.18345e-05
8.47903e-05
7.88029e-05
0.000102048
8.04092e-05
8.21109e-05
7.28e-05
8.66519e-05
8.08933e-05
0.000152116
8.12539e-05
8.49001e-05
8.0406e-05
8.13299e-05
9.08044e-05
0.000185167
0.000102024
8.24586e-05
8.17977e-05
7.90549e-05
0.000165392
8.00712e-05
3.73144e-05
0.000149411
0.000118976
8.47592e-05
8.05603e-05
8.30748e-05
9.52972e-05
7.95276e-05
8.1921e-05
8.08274e-05
8.12757e-05
9.22975e-05
7.95949e-05
7.69429e-05
8.23004e-05
8.06225e-05
8.13116e-05
7.95915e-05
7.81517e-05
8.21973e-05
8.18413e-05
0.000115554
8.1317e-05
8.2232e-05
8.05315e-05
7.92769e-05
8.06353e-05
7.9954e-05
8.05994e-05
8.04593e-05
8.21637e-05
8.67645e-05
8.21501e-05
9.523e-05
8.47452e-05
7.84473e-05
7.82157e-05
7.81123e-05
0.000103859
8.13545e-05
7.87422e-05
8.15732e-05
7.88944e-05
7.94831e-05
8.48479e-05
8.08977e-05
7.87109e-05
8.2799e-05
9.60555e-05
8.21778e-05
8.01721e-05
7.78639e-05
7.46655e-05
7.80692e-05
8.04955e-05
8.12911e-05
8.4445e-05
8.19205e-05
8.13078e-05
7.62694e-05
9.06885e-05
8.12156e-05
9.19607e-05
8.38686e-05
0.000101196
8.32719e-05
8.22404e-05
0.000175325
8.07412e-05
8.03499e-05
0.000488761
7.8286e-05
7.72309e-05
8.45217e-05
8.03434e-05
7.935e-05
8.0599e-05
0.000149031
7.445e-05
9.61959e-05
7.95582e-05
8.08075e-05
7.81611e-05
8.35859e-05
8.83779e-05
7.85267e-05
8.30338e-05
8.15388e-05
0.00103595
8.02775e-05
7.69329e-05
7.98513e-05
7.71943e-05
7.86123e-05
7.88939e-05
7.5956e-05
8.09201e-05
0.000101663
7.97934e-05
8.09116e-05
8.12507e-05
7.67139e-05
0.00696318
7.89914e-05
0.000214134
0.000320839
7.65219e-05
7.83216e-05
0.000464248
7.90935e-05
7.96991e-05
8.19687e-05
8.50816e-05
0.000174702
9.25022e-05
0.000484957
0.000579744
8.19873e-05
8.03326e-05
7.92032e-05
8.41714e-05
7.96305e-05
8.2587e-05
8.37746e-05
8.15672e-05
8.10079e-05
8.05561e-05
8.76922e-05
7.98282e-05
8.86313e-05
7.89031e-05
0.00215906
7.76636e-05
8.02853e-05
8.35677e-05
7.79871e-05
7.72524e-05
9.17222e-05
5.6362e-05
8.19421e-05
7.98148e-05
9.399e-05
8.02072e-05
7.97985e-05
6.09666e-05
7.9901e-05
9.79228e-05
7.79969e-05
0.000951579
8.02795e-05
7.98724e-05
8.18161e-05
7.99063e-05
8.02342e-05
6.07439e-05
8.08828e-05
0.000108386
0.000132301
8.28677e-05
8.11587e-05
0.00213924
7.97145e-05
0.000132977
7.99047e-05
0.0408489
7.80263e-05
9.77893e-05
0.00560871
0.00722615
0.0497944
7.404e-05
7.83902e-05
7.98352e-05
8.48272e-05
8.40825e-05
8.10076e-05
0.000193009
0.000136481
0.000873638
7.87614e-05
7.58674e-05
8.42598e-05
8.11625e-05
0.000339917
7.66788e-05
0.0364971
8.00915e-05
7.8643e-05
7.85792e-05
7.92965e-05
8.35663e-05
8.0966e-05
7.98782e-05
7.94567e-05
8.60381e-05
8.38728e-05
8.01628e-05
7.29096e-05
8.55055e-05
8.79883e-05
7.95924e-05
0.0136936
0.000120432
9.30848e-05
8.13145e-05
9.46337e-05
8.6432e-05
7.93915e-05
8.05882e-05
8.45137e-05
9.1159e-05
8.41082e-05
7.93988e-05
8.62641e-05
7.27344e-05
7.9861e-05
9.71314e-05
8.16734e-05
7.86289e-05
4.72968e-05
8.00726e-05
8.07471e-05
8.26534e-05
7.25081e-05
7.87458e-05
7.45828e-05
8.4658e-05
0.00221397
0.0843591
0.000494118
7.90078e-05
8.14495e-05
0.000461111
8.11981e-05
7.99356e-05
7.96122e-05
0.000203787
0.00010885
7.84681e-05
8.13562e-05
8.02523e-05
7.83344e-05
8.13673e-05
8.16837e-05
0.0127289
7.90104e-05
7.71547e-05
8.22682e-05
8.02989e-05
8.25346e-05
7.68132e-05
8.40983e-05
7.92962e-05
0.000123741
7.08928e-05
0.000624892
0.000177138
8.10662e-05
7.57492e-05
8.05945e-05
7.71781e-05
8.49182e-05
7.81902e-05
7.56373e-05
0.00303197
8.10658e-05
8.15483e-05
7.75825e-05
7.93092e-05
8.12811e-05
0.000134614
8.90903e-05
7.81318e-05
0.00109786
8.2367e-05
7.76561e-05
7.57268e-05
7.50907e-05
8.84759e-05
7.58752e-05
0.00656282
0.154274
0.00028716
8.01362e-05
8.20468e-05
8.36311e-05
0.000180595
0.0592781
8.05247e-05
0.0304504
9.57103e-05
7.96143e-05
8.17409e-05
7.98899e-05
7.93787e-05
8.02176e-05
0.000179175
7.95577e-05
8.02082e-05
7.8751e-05
7.95931e-05
7.7778e-05
7.87767e-05
7.89907e-05
7.85947e-05
7.9968e-05
7.36747e-05
0.00013408
0.000118245
8.2802e-05
7.95091e-05
7.81271e-05
0.000769346
8.85256e-05
7.10189e-05
8.26719e-05
7.91544e-05
8.43465e-05
7.87774e-05
8.31482e-05
8.17999e-05
8.07578e-05
7.81783e-05
8.73656e-05
0.194078
8.23393e-05
8.13589e-05
7.85069e-05
0.0010728
8.33609e-05
0.00616738
8.16461e-05
8.39417e-05
0.00728938
8.13829e-05
0.00382167
0.00404432
8.15929e-05
8.04845e-05
7.91489e-05
7.33513e-05
7.83247e-05
0.452417
7.83387e-05
0.000103802
0.00781015
7.40701e-05
0.00677502
7.82282e-05
0.000802597
8.45526e-05
0.0112136
8.11156e-05
7.91457e-05
8.08752e-05
8.39564e-05
0.00921239
0.00357129
7.97884e-05
8.1451e-05
7.49444e-05
7.79457e-05
7.22132e-05
7.94628e-05
0.0870395
7.85206e-05
7.91784e-05
0.659354
7.86939e-05
8.00723e-05
8.11094e-05
0.00606809
8.02246e-05
3.45442e-05
8.17147e-05
0.0351715
7.91845e-05
0.00393435
7.65388e-05
8.10803e-05
0.00994825
8.03188e-05
0.000134582
0.0630339
7.31081e-05
0.00729186
0.000135027
0.00925528
8.73506e-05
7.87935e-05
7.92947e-05
8.73263e-05
8.04238e-05
8.33428e-05
7.82305e-05
7.896e-05
7.87453e-05
8.16204e-05
7.38261e-05
8.35331e-05
8.27244e-05
7.85169e-05
8.57018e-05
7.88838e-05
7.53467e-05
7.95266e-05
7.98069e-05
8.06435e-05
8.42295e-05
8.24771e-05
7.92254e-05
7.9409e-05
7.87187e-05
8.20362e-05
7.76733e-05
0.00153916
8.04222e-05
0.000531906
0.000138569
8.02417e-05
7.48855e-05
8.98463e-05
0.00025711
7.49691e-05
7.80261e-05
0.000192158
8.04715e-05
8.2794e-05
8.04998e-05
8.76453e-05
0.000128029
7.65017e-05
8.12271e-05
0.000205696
8.4532e-05
7.85173e-05
8.18713e-05
8.11429e-05
8.04302e-05
0.000291807
7.93922e-05
7.75972e-05
8.73399e-05
8.17887e-05
8.35933e-05
7.97254e-05
8.07952e-05
0.000134929
8.88647e-05
8.13685e-05
7.31905e-05
0.000202873
8.07103e-05
7.50909e-05
8.01327e-05
8.96364e-05
7.97247e-05
7.66762e-05
7.93702e-05
8.30047e-05
5.83331e-05
7.72906e-05
7.66888e-05
0.711282
7.89318e-05
8.16991e-05
8.14403e-05
8.01728e-05
8.16074e-05
7.90599e-05
8.5694e-05
7.71577e-05
7.97957e-05
8.15978e-05
8.21074e-05
0.000129111
0.000599955
8.06877e-05
8.0678e-05
8.25681e-05
0.00014085
7.99704e-05
7.99575e-05
0.000146557
8.1231e-05
8.52189e-05
7.89613e-05
0.000114824
7.85415e-05
0.000101515
8.17577e-05
7.8615e-05
8.02223e-05
8.11482e-05
0.000438418
0.000101257
0.00107859
8.03683e-05
8.15384e-05
8.13614e-05
7.97663e-05
7.60495e-05
0.000112241
8.13817e-05
7.58404e-05
0.000353675
7.74455e-05
0.0027432
8.21257e-05
8.10473e-05
0.000103139
8.35443e-05
8.21385e-05
0.0299962
7.87134e-05
8.17237e-05
7.98399e-05
0.000103682
8.01808e-05
7.48743e-05
0.00576725
8.01878e-05
7.68219e-05
8.34169e-05
8.16921e-05
7.99879e-05
7.59481e-05
0.124946
7.54395e-05
0.000243797
7.99195e-05
8.16571e-05
8.78e-05
0.145086
9.03951e-05
8.20354e-05
7.80283e-05
8.14582e-05
8.37098e-05
8.00845e-05
8.43585e-05
0.00285859
7.58438e-05
8.13204e-05
7.64183e-05
8.18941e-05
7.50502e-05
8.16791e-05
7.82713e-05
0.0937867
8.04891e-05
8.2231e-05
8.20001e-05
8.2158e-05
7.95651e-05
7.94904e-05
8.12211e-05
0.15303
7.75341e-05
7.74649e-05
8.28107e-05
0.0755574
0.00011778
7.99154e-05
8.0369e-05
0.000680877
8.04619e-05
0.000112218
7.90407e-05
8.2512e-05
8.16237e-05
8.14802e-05
0.00012799
0.00151913
7.74054e-05
9.70207e-05
7.90386e-05
8.06171e-05
0.000104817
8.22685e-05
8.16644e-05
8.2335e-05
9.44824e-05
0.000322808
8.09476e-05
0.000394896
7.9397e-05
9.08731e-05
0.000280035
7.96628e-05
7.70915e-05
7.53199e-05
0.229406
8.42179e-05
8.25e-05
7.86288e-05
8.30928e-05
8.30962e-05
8.02772e-05
7.74549e-05
7.94563e-05
7.97696e-05
7.94242e-05
7.89407e-05
8.02551e-05
8.07208e-05
7.93273e-05
0.00533237
9.57934e-05
8.21382e-05
0.000113646
0.00869307
0.000100343
8.35831e-05
0.000108004
0.000245255
8.00041e-05
7.65849e-05
7.92891e-05
7.94807e-05
0.000227559
7.76125e-05
8.28906e-05
0.00907835
0.000431756
8.25822e-05
8.24046e-05
8.34652e-05
9.09584e-05
9.71223e-05
8.32535e-05
0.000236147
7.38731e-05
7.96281e-05
9.8933e-05
7.93616e-05
8.17054e-05
8.13191e-05
8.10449e-05
0.00122687
8.48386e-05
0.000129872
0.00012135
7.25432e-05
0.0267999
8.70609e-05
8.02792e-05
9.08532e-05
7.68091e-05
9.84357e-05
0.21135
0.000193673
0.00346292
7.73186e-05
0.406967
0.000151147
0.000107438
7.12907e-05
7.60673e-05
8.2833e-05
7.96398e-05
8.16366e-05
7.75184e-05
8.0129e-05
7.78659e-05
8.08129e-05
0.000121895
0.398125
8.11268e-05
0.3475
7.65556e-05
0.000200108
8.23181e-05
7.50783e-05
8.19186e-05
8.47269e-05
8.16294e-05
8.63642e-05
7.97577e-05
7.85145e-05
8.09665e-05
8.54159e-05
7.82142e-05
0.000116854
8.07074e-05
8.16045e-05
8.08907e-05
7.9248e-05
7.83185e-05
8.10217e-05
7.58474e-05
8.17142e-05
7.67613e-05
8.00496e-05
8.24407e-05
7.99245e-05
7.5606e-05
0.000312012
0.000394117
8.23744e-05
8.31704e-05
8.41248e-05
8.41148e-05
8.15126e-05
8.59771e-05
8.08347e-05
7.5267e-05
7.76441e-05
8.51652e-05
7.57294e-05
7.97555e-05
7.64639e-05
0.000309401
8.35691e-05
7.97222e-05
8.55198e-05
7.94862e-05
8.60423e-05
7.91947e-05
7.41934e-05
8.15934e-05
8.44561e-05
0.000300043
8.6562e-05
8.06429e-05
7.88837e-05
0.000110594
7.993e-05
0.000137327
0.000145366
8.2544e-05
8.01347e-05
0.0577403
0.00232799
7.82301e-05
9.87369e-05
0.00567532
8.21115e-05
8.01291e-05
8.04621e-05
0.000245283
8.16928e-05
7.63044e-05
8.09247e-05
9.99398e-05
7.93755e-05
8.95797e-05
8.06934e-05
7.90365e-05
0.000141898
8.33356e-05
0.000655988
8.1619e-05
0.0127009
8.06329e-05
7.89025e-05
7.90315e-05
8.29794e-05
8.27136e-05
8.03096e-05
8.10178e-05
8.04519e-05
7.88798e-05
7.67635e-05
7.81245e-05
0.000120766
8.06909e-05
8.01699e-05
7.57638e-05
7.66516e-05
0.00382571
7.7349e-05
7.9513e-05
0.004328
7.60661e-05
0.00299185
9.30314e-05
7.93993e-05
8.12401e-05
0.649927
8.51139e-05
9.08729e-05
8.11391e-05
7.61739e-05
8.2558e-05
8.34252e-05
0.000118273
8.39143e-05
8.32642e-05
8.20529e-05
9.30567e-05
9.63287e-05
0.000115806
0.000264918
0.000173449
7.64324e-05
8.2184e-05
8.10836e-05
8.73509e-05
8.02138e-05
8.41451e-05
7.99281e-05
8.08193e-05
0.0181918
8.05804e-05
0.0241793
8.30682e-05
0.0212965
8.18998e-05
8.08446e-05
7.10043e-05
9.32695e-05
8.00597e-05
8.31454e-05
7.1289e-05
7.3474e-05
8.76535e-05
8.06763e-05
0.000163024
7.90807e-05
8.1752e-05
7.98511e-05
0.000105288
8.16067e-05
0.000122473
7.83368e-05
7.90207e-05
7.95399e-05
0.000360567
7.89196e-05
9.36668e-05
8.18754e-05
0.000393047
7.89339e-05
0.000105558
0.000113026
0.000142341
7.72158e-05
8.38991e-05
0.000109523
0.0221783
7.96315e-05
0.115117
8.13794e-05
0.11252
8.0041e-05
8.25177e-05
0.000203917
7.89797e-05
0.000143216
8.48193e-05
8.09733e-05
8.12417e-05
0.000116953
8.36459e-05
0.000183269
8.09099e-05
7.87518e-05
0.0108151
8.3264e-05
7.98197e-05
0.0561175
0.0961662
8.02979e-05
8.10393e-05
7.97854e-05
8.09964e-05
8.36921e-05
9.97031e-05
0.0170725
7.68417e-05
0.0148978
7.75468e-05
8.27692e-05
0.00010777
7.59985e-05
8.11098e-05
7.81295e-05
8.102e-05
0.000109894
8.28279e-05
7.59558e-05
9.09538e-05
8.03382e-05
9.67883e-05
8.08671e-05
7.7258e-05
7.88626e-05
8.23474e-05
8.295e-05
7.78943e-05
7.86249e-05
0.000834939
8.07425e-05
0.066449
9.09475e-05
7.96163e-05
8.57967e-05
0.000131767
9.0213e-05
7.76663e-05
7.48393e-05
0.00162789
8.07056e-05
9.28952e-05
7.97508e-05
8.07583e-05
0.000104284
0.000163683
7.86741e-05
0.000207885
0.0207485
7.86534e-05
9.12611e-05
8.10122e-05
8.05649e-05
7.91561e-05
0.00453296
8.26404e-05
2.97237e-06
0.000161525
8.09513e-05
8.24389e-05
8.33005e-05
7.89618e-05
9.54255e-05
0.000167002
7.46099e-05
8.01096e-05
7.89253e-05
0.000862515
7.93594e-05
7.99617e-05
8.57982e-05
0.00108672
7.8571e-05
7.80001e-05
7.79085e-05
7.55123e-05
7.81407e-05
7.96569e-05
7.99261e-05
0.000115874
8.15048e-05
9.09657e-05
8.94044e-05
8.21111e-05
8.97117e-05
7.99252e-05
7.79189e-05
0.000109773
8.43139e-05
7.53937e-05
0.0180774
7.71648e-05
0.00013383
7.71294e-05
7.86773e-05
0.000118485
8.94464e-05
8.38851e-05
8.09429e-05
7.84359e-05
0.00101212
7.81792e-05
0.000150334
9.75189e-05
8.63964e-05
6.92732e-05
8.00942e-05
8.00335e-05
7.81716e-05
0.000107521
8.04203e-05
7.55002e-05
7.46428e-05
7.81266e-05
7.94626e-05
0.000172789
8.07467e-05
8.16848e-05
0.000139304
7.84953e-05
8.24234e-05
9.28714e-05
8.17639e-05
8.11238e-05
8.03212e-05
8.11061e-05
8.19462e-05
8.46127e-05
8.02496e-05
0.000124041
8.13949e-05
0.100846
7.68015e-05
8.26188e-05
8.0445e-05
0.000108455
0.000104689
0.000109567
0.000165868
0.000120523
0.000148271
7.85413e-05
0.000245392
7.92773e-05
8.57311e-05
8.09172e-05
0.000120934
8.03035e-05
8.10477e-05
7.7795e-05
7.49357e-05
8.44307e-05
0.112199
9.55243e-05
7.95325e-05
8.42474e-05
8.34445e-05
9.57997e-05
8.05187e-05
5.97346e-05
0.00016228
0.000629089
8.27534e-05
0.000588289
9.74513e-05
9.02265e-05
8.21258e-05
7.52553e-05
7.26575e-05
7.93398e-05
7.61361e-05
7.76847e-05
8.76301e-05
0.0868202
7.73695e-05
0.251001
8.34569e-05
8.10945e-05
8.14459e-05
8.55252e-05
0.00010437
7.64483e-05
8.18651e-05
8.11995e-05
8.07192e-05
7.565e-05
8.34098e-05
0.000222231
0.000169481
9.72406e-05
0.000106714
7.97808e-05
8.46625e-05
8.31267e-05
0.000458874
0.000109244
8.14731e-05
0.11199
7.7293e-05
7.83088e-05
8.09681e-05
7.63319e-05
8.18688e-05
7.86847e-05
7.21381e-05
0.000587806
8.14786e-05
8.38652e-05
7.57352e-05
8.04327e-05
8.17584e-05
7.87469e-05
7.82614e-05
8.0471e-05
7.3329e-05
7.82552e-05
0.00217603
8.09103e-05
8.55707e-05
7.88236e-05
8.07077e-05
0.00266298
7.94295e-05
8.90263e-05
7.7789e-05
8.04794e-05
8.2254e-05
8.1707e-05
7.47366e-05
8.04377e-05
8.15738e-05
9.4151e-05
8.05471e-05
8.1516e-05
0.000146061
9.1562e-05
8.06162e-05
8.28048e-05
0.107657
0.139863
8.05093e-05
8.01705e-05
8.08859e-05
8.21112e-05
9.4157e-05
7.95447e-05
0.000108836
7.99813e-05
7.95955e-05
7.90727e-05
8.19212e-05
7.47929e-05
7.75854e-05
8.30206e-05
0.000118851
0.000109058
8.04717e-05
7.87705e-05
8.00411e-05
0.00253792
8.26835e-05
8.02963e-05
7.33571e-05
7.66289e-05
0.000146746
8.09449e-05
9.47058e-05
7.47706e-05
7.39838e-05
7.47777e-05
0.0457966
9.12022e-05
7.98352e-05
0.0016767
8.22653e-05
0.00614994
0.000357939
7.74087e-05
7.99375e-05
0.000122306
7.86322e-05
7.45901e-05
8.21116e-05
7.76172e-05
0.000115563
0.203962
9.58616e-05
7.84809e-05
8.03406e-05
0.000103056
7.60211e-05
8.08031e-05
7.36775e-05
7.77817e-05
7.93589e-05
0.0204969
9.78439e-05
0.000134292
8.11188e-05
7.83116e-05
7.96793e-05
7.79804e-05
8.30199e-05
7.96419e-05
7.94036e-05
0.00128137
8.17585e-05
8.28115e-05
0.000652658
7.71389e-05
0.0220574
8.02847e-05
7.93954e-05
8.02433e-05
8.19684e-05
0.000120547
0.210389
8.17004e-05
8.36397e-05
8.03677e-05
0.0387426
8.30113e-05
0.000105116
7.94477e-05
0.000326324
0.00014033
0.000117573
8.32011e-05
8.23368e-05
8.05213e-05
8.26903e-05
7.91016e-05
8.38733e-05
8.16606e-05
8.3046e-05
8.30041e-05
0.000699717
8.06745e-05
7.88564e-05
0.00326291
7.76018e-05
8.28995e-05
8.06171e-05
8.08425e-05
0.0215153
8.08977e-05
8.17611e-05
7.49056e-05
0.0369494
8.01546e-05
0.000102869
7.94919e-05
0.000119106
8.16377e-05
0.00199943
0.0242148
0.0193351
9.88639e-05
0.0314323
8.31454e-05
0.00327291
0.00518879
7.38333e-05
7.51172e-05
7.93427e-05
7.80021e-05
8.17522e-05
8.12929e-05
7.97887e-05
7.65557e-05
8.46578e-05
7.98329e-05
8.02145e-05
8.71321e-05
8.19153e-05
8.29945e-05
0.000931869
8.96683e-05
0.000437566
0.00383279
8.03098e-05
7.99885e-05
0.0950914
0.00147485
0.0419325
8.63049e-05
8.0805e-05
7.91182e-05
7.9925e-05
8.25678e-05
7.94672e-05
7.59093e-05
8.01671e-05
0.000305144
8.211e-05
8.66319e-05
0.000297425
8.68293e-05
0.00312478
8.2815e-05
8.64953e-05
8.67589e-05
8.21457e-05
0.000101906
8.43866e-05
7.97473e-05
8.42493e-05
7.9368e-05
8.31451e-05
7.91615e-05
8.195e-05
8.57941e-05
7.58236e-05
7.92103e-05
7.9035e-05
0.000172168
8.64843e-05
0.000167063
0.0001125
8.02032e-05
0.000798635
8.04517e-05
8.31745e-05
0.00014388
7.7497e-05
8.06296e-05
0.000103019
0.000110141
0.000118748
7.74956e-05
0.0146408
8.84811e-05
7.97043e-05
8.1322e-05
8.12248e-05
8.45754e-05
8.53601e-05
8.28446e-05
0.000259657
8.25286e-05
7.96975e-05
7.9422e-05
8.10665e-05
0.000141874
0.000363213
0.000169339
0.00025268
0.000205681
8.26538e-05
8.03632e-05
0.000126509
7.99548e-05
7.928e-05
0.000124661
9.03388e-05
7.99428e-05
9.38913e-05
7.87269e-05
8.50768e-05
8.1018e-05
0.21512
7.8732e-05
7.93352e-05
6.47279e-05
0.000593118
7.80853e-05
8.23807e-05
0.000379709
8.10971e-05
8.04673e-05
8.52806e-05
8.10692e-05
7.72848e-05
7.74838e-05
8.17257e-05
7.96721e-05
8.64234e-05
0.000119933
0.000110971
0.0001013
0.000160108
7.67029e-05
8.00809e-05
0.000116622
7.54565e-05
8.0588e-05
0.000104829
8.37897e-05
9.53711e-05
8.14898e-05
8.03481e-05
0.0555858
7.78156e-05
9.32223e-05
0.000102635
0.000101538
7.66511e-05
7.23561e-05
0.000111409
8.08604e-05
9.146e-05
9.78424e-05
8.04713e-05
8.0561e-05
8.64816e-05
7.26579e-05
0.000105504
8.16464e-05
9.82221e-05
8.30069e-05
7.85915e-05
0.000147757
8.08934e-05
0.000180178
9.56423e-05
0.00055455
8.06899e-05
0.0661743
7.77603e-05
0.211903
8.17308e-05
7.77601e-05
8.33309e-05
9.29533e-05
9.38813e-05
8.70975e-05
7.97484e-05
7.70711e-05
0.000623182
0.000694342
9.40395e-05
9.20947e-05
8.08814e-05
7.83651e-05
7.96251e-05
7.88997e-05
7.76389e-05
8.17018e-05
0.981111
8.74601e-05
8.15799e-05
9.648e-05
8.2848e-05
8.3963e-05
0.000105506
7.8184e-05
7.92817e-05
7.8683e-05
7.93169e-05
9.97845e-05
7.51057e-05
0.000170992
7.82636e-05
0.000126011
0.00104345
8.02139e-05
7.17069e-05
0.00153244
7.77752e-05
7.82762e-05
7.76207e-05
0.000121277
9.3473e-05
8.77058e-05
0.305618
7.88001e-05
8.12929e-05
1.28317
8.12925e-05
0.000303975
8.12129e-05
7.68491e-05
7.91697e-05
7.93246e-05
0.000216076
7.99113e-05
0.000496983
0.360173
0.000112199
0.000401328
9.36052e-05
8.15253e-05
8.20306e-05
0.000107923
8.15327e-05
8.05032e-05
8.16309e-05
8.00463e-05
8.03696e-05
8.03044e-05
8.28302e-05
8.22273e-05
8.10606e-05
0.0563388
3.32902e-05
0.000176351
8.14182e-05
8.15646e-05
0.000228614
0.000207767
8.04508e-05
0.00115535
7.85693e-05
8.1576e-05
7.69364e-05
0.000121912
0.00879551
0.000100774
7.77087e-05
0.0196114
0.000189364
0.000699214
7.95709e-05
0.00011326
9.14397e-05
7.55281e-05
0.000160763
7.62476e-05
0.00123769
7.78047e-05
0.000118969
0.000223544
0.000513199
0.000173795
8.39668e-05
8.20098e-05
7.25407e-05
8.02386e-05
0.000174124
0.000140885
0.00064037
8.28972e-05
8.0589e-05
0.125098
7.57836e-05
7.93216e-05
0.000247291
8.6591e-05
0.20757
0.000129597
8.47635e-05
8.00956e-05
7.60681e-05
7.24353e-05
0.000143611
0.00013927
0.000104977
0.000691636
0.00643604
7.90869e-05
0.00039275
7.2789e-05
8.02103e-05
7.45646e-05
7.94438e-05
0.000116873
8.80802e-05
8.32133e-05
7.96735e-05
8.98843e-05
0.000104009
7.52273e-05
8.2058e-05
0.0207157
7.58688e-05
0.00010676
0.000194789
8.26246e-05
7.57576e-05
0.00032235
7.2784e-05
7.86745e-05
7.76571e-05
9.90779e-05
8.22887e-05
8.00955e-05
0.000117959
0.00531538
0.000227038
0.164232
0.00787394
0.000163482
7.95125e-05
8.48459e-05
0.000147831
8.06647e-05
0.340819
8.35709e-05
0.000134536
0.000101869
0.000320571
8.11685e-05
8.08098e-05
7.42726e-05
8.3366e-05
7.99397e-05
7.92553e-05
0.00058097
8.15593e-05
7.40416e-05
7.91033e-05
0.0505188
0.000168717
7.53995e-05
0.000391388
0.00694153
0.00032179
0.000106235
0.000334243
7.02447e-05
0.00108402
0.90659
8.04933e-05
8.28219e-05
8.16187e-05
8.03591e-05
0.000194335
0.00010696
7.63707e-05
0.000283563
0.000606995
0.00014374
0.00033587
0.00106608
7.42622e-05
9.05989e-05
0.0015778
0.0210245
8.55885e-05
1.55079
7.73438e-05
8.41554e-05
8.04057e-05
7.98854e-05
1.67788
8.01643e-05
7.92574e-05
8.40598e-05
7.96881e-05
0.000472222
7.67373e-05
8.16027e-05
7.98892e-05
7.3258e-05
9.72878e-05
7.64506e-05
7.8657e-05
8.02148e-05
0.00654151
0.0823986
9.19551e-05
0.501889
0.000123758
8.03407e-05
8.86819e-05
0.000692338
9.297e-05
0.000277656
0.000124718
0.00417278
0.00365085
1.07058
0.00040493
0.000123804
0.000148747
8.11642e-05
8.00355e-05
7.74191e-05
0.0536354
7.71653e-05
0.000249551
0.00106787
0.000129354
0.000738627
0.00109718
7.59167e-05
7.83525e-05
8.08612e-05
7.50867e-05
9.2544e-05
0.000301544
9.24921e-05
0.000209415
9.16826e-05
0.0193038
0.0961403
0.00760262
7.60224e-05
0.24637
7.82276e-05
0.017377
8.73731e-05
0.000838023
0.000293925
0.0046474
7.78259e-05
0.000283681
8.01438e-05
8.6184e-05
8.31112e-05
8.29469e-05
0.000119575
7.97899e-05
7.90587e-05
2.07895
7.93314e-05
8.2082e-05
0.00182366
0.00307179
0.000361206
0.369433
8.07661e-05
0.00720223
0.000164036
0.000105918
7.63307e-05
0.000179198
0.0139402
7.73849e-05
7.89423e-05
7.61921e-05
8.20384e-05
7.80655e-05
0.0346907
0.0181469
0.0397138
0.0002146
0.000105206
0.321304
0.00010508
8.35181e-05
9.29454e-05
7.2691e-05
7.38877e-05
0.127112
0.000288828
9.99794e-05
0.00817472
8.11141e-05
8.15038e-05
7.3504e-05
8.26718e-05
0.000114516
8.11867e-05
0.000206405
8.01741e-05
8.12088e-05
8.96963e-05
0.000194194
0.000149486
7.9029e-05
8.3068e-05
7.97962e-05
8.69445e-05
8.75418e-05
8.12695e-05
0.000113748
0.0245343
8.09585e-05
7.87194e-05
0.000512373
8.18529e-05
8.27359e-05
8.04514e-05
8.50856e-05
0.00689477
0.0085143
0.00384451
0.000177991
0.000681524
8.50094e-05
0.00010923
9.56042e-05
0.0536114
0.00127971
8.02606e-05
0.00690278
7.95233e-05
8.07786e-05
8.65421e-05
8.83965e-05
7.91438e-05
0.00616508
0.0111416
0.00188926
0.0134232
7.94657e-05
0.000266899
0.00468811
0.0160432
8.13205e-05
9.37628e-05
0.000122015
0.00240052
0.000874774
0.230656
0.0001307
8.04901e-05
0.000108493
0.0639158
0.000172173
0.000266707
8.36535e-05
0.015297
8.02213e-05
8.23862e-05
0.252038
0.000103254
0.000142376
9.8389e-05
0.000400029
0.00664928
0.000139592
8.24944e-05
0.00018762
7.96335e-05
0.000101971
0.00010511
0.000201158
0.000220593
7.86282e-05
0.000200306
7.94917e-05
0.00885984
0.000168772
7.81173e-05
8.02582e-05
0.000828599
7.94852e-05
7.90977e-05
8.04915e-05
6.959e-05
0.000936575
7.99265e-05
0.000386363
0.00011715
8.25893e-05
7.71896e-05
0.0159432
8.24507e-05
7.25482e-05
0.00406493
7.20835e-05
7.67878e-05
8.11246e-05
8.13208e-05
9.15473e-05
7.5041e-05
0.000101395
8.25869e-05
8.12717e-05
0.000748272
8.14252e-05
9.86091e-05
0.299239
8.34364e-05
7.27372e-05
0.000127402
0.000214544
0.000138539
7.57015e-05
7.81943e-05
7.42709e-05
0.00077034
8.12544e-05
0.0930464
0.407581
0.000103062
7.80271e-05
0.593849
8.07292e-05
8.07615e-05
7.48397e-05
0.000111041
7.81231e-05
0.00919114
0.0253096
7.9325e-05
9.25298e-05
0.0001214
7.76767e-05
0.000113091
7.56621e-05
0.000723971
8.22512e-05
8.23901e-05
7.93574e-05
0.000158393
7.87419e-05
8.3361e-05
7.88776e-05
0.00011249
7.86385e-05
7.48156e-05
7.84237e-05
8.01255e-05
8.39543e-05
0.00010028
0.00477863
7.70325e-05
7.80234e-05
0.0151946
7.4751e-05
8.85608e-05
8.52183e-05
7.44699e-05
0.00191062
0.00169775
9.09687e-05
8.12198e-05
8.05195e-05
8.11705e-05
0.00930449
7.83979e-05
0.0107344
7.74308e-05
0.000107429
0.000102237
9.13605e-05
0.175628
7.55754e-05
0.0276689
0.00237106
0.0282379
7.94755e-05
8.01763e-05
7.56829e-05
0.000209074
7.59111e-05
8.70879e-05
0.000377896
0.000125307
8.82177e-05
7.74242e-05
0.00795915
0.00578843
0.000160032
8.03654e-05
8.33567e-05
8.00576e-05
7.95135e-05
0.000242467
8.16829e-05
8.94525e-05
7.90899e-05
0.000440573
0.000127664
0.000122904
7.97488e-05
8.14398e-05
8.24025e-05
0.00574886
7.93981e-05
0.000106059
7.87079e-05
7.84885e-05
0.000181378
0.0151589
7.98559e-05
7.98991e-05
0.00278374
7.92369e-05
8.06999e-05
8.68143e-05
0.0468465
8.40263e-05
0.000109852
0.000107136
0.000181435
0.540798
0.000311597
0.000118271
7.79013e-05
0.0271433
0.00010694
7.60698e-05
0.102291
0.730237
0.0739894
0.0345286
0.0418359
0.0637601
7.85636e-05
0.494125
9.6711e-05
0.00192794
0.000111631
0.00125608
0.0650788
7.57839e-05
0.000120339
0.128015
7.95842e-05
0.0768067
7.49537e-05
0.00062242
0.000989374
0.00786323
5.88002e-05
7.96597e-05
9.81254e-05
7.5838e-05
8.15216e-05
9.5727e-05
0.00999386
7.86749e-05
0.000159931
8.32725e-05
7.76512e-05
8.21418e-05
8.33148e-05
7.88675e-05
7.2724e-05
8.17496e-05
0.000341203
7.97682e-05
0.00257403
7.90001e-05
0.390669
7.7071e-05
0.000286564
7.85378e-05
7.95313e-05
9.31673e-05
7.59092e-05
7.6601e-05
8.2312e-05
7.86389e-05
7.47068e-05
0.000624599
0.000489997
0.0488455
0.000104715
7.98746e-05
7.9609e-05
7.91262e-05
7.7293e-05
0.000101173
7.95713e-05
8.15454e-05
8.13124e-05
8.1293e-05
0.00322786
7.74522e-05
7.95639e-05
7.94877e-05
8.1806e-05
9.89871e-05
9.70953e-05
7.88797e-05
7.9833e-05
8.45854e-05
0.000909434
7.78896e-05
0.00459807
9.1664e-05
9.6963e-05
0.000197895
0.000328621
8.27583e-05
0.000108618
8.12775e-05
8.14313e-05
8.12105e-05
7.87397e-05
8.03499e-05
7.60617e-05
8.26147e-05
8.15351e-05
7.98934e-05
7.805e-05
0.000614562
8.20175e-05
8.74972e-05
8.09e-05
7.94499e-05
8.05409e-05
8.13594e-05
7.95925e-05
0.000500397
0.000131981
8.27401e-05
7.80819e-05
7.74072e-05
0.000104811
0.0203154
8.03532e-05
0.00128321
0.0258499
7.70551e-05
8.67707e-05
8.34552e-05
7.9229e-05
0.0174922
7.95963e-05
8.22184e-05
8.22314e-05
8.06497e-05
0.0202711
7.86269e-05
9.63687e-05
8.07566e-05
7.73566e-05
8.37677e-05
8.33846e-05
8.14383e-05
8.12647e-05
7.66104e-05
9.95252e-05
7.5208e-05
7.81625e-05
9.85512e-05
7.56657e-05
8.31707e-05
0.000142721
8.2757e-05
0.000245324
0.00623258
0.00445582
8.05929e-05
7.23416e-05
8.08852e-05
7.86895e-05
8.16087e-05
8.06891e-05
8.1603e-05
0.000163242
8.35063e-05
7.98675e-05
8.06471e-05
8.08855e-05
7.87199e-05
7.9048e-05
8.21645e-05
8.06823e-05
0.000117901
0.00010119
0.0145952
8.10226e-05
0.000147755
7.38294e-05
8.00147e-05
8.85213e-05
7.39229e-05
7.84982e-05
0.0106418
7.34282e-05
0.000110982
7.77157e-05
7.35928e-05
0.000106605
8.11697e-05
0.00041702
7.47238e-05
0.000460214
8.02005e-05
9.9949e-05
0.000227474
7.9968e-05
0.00595479
8.08351e-05
0.000112384
7.45589e-05
8.24764e-05
0.000181456
0.000234027
0.000158539
8.23596e-05
0.000156898
0.000183027
8.50828e-05
8.04659e-05
0.000190851
8.04508e-05
7.99944e-05
7.95286e-05
8.12665e-05
7.81744e-05
8.6657e-05
8.77142e-05
7.96401e-05
8.16065e-05
8.266e-05
9.80583e-05
8.11264e-05
0.000129456
8.11003e-05
0.000162709
9.90536e-05
7.94452e-05
7.86599e-05
7.99022e-05
7.9552e-05
8.13314e-05
8.03489e-05
8.09828e-05
8.03389e-05
7.49698e-05
8.06678e-05
0.00011334
8.36665e-05
8.41052e-05
7.77655e-05
8.10913e-05
0.00517329
7.82626e-05
9.86026e-05
0.0688831
7.3851e-05
7.96708e-05
8.30455e-05
7.76376e-05
7.95364e-05
8.1285e-05
7.42584e-05
7.81351e-05
8.67166e-05
9.25689e-05
8.3542e-05
8.24451e-05
8.50691e-05
8.2533e-05
8.33476e-05
0.000152964
7.98537e-05
7.78395e-05
0.000102012
0.000107877
7.90708e-05
0.000144316
8.10141e-05
8.3148e-05
8.16507e-05
7.87197e-05
0.00011929
8.73856e-05
0.142998
0.000108162
8.19028e-05
8.03504e-05
7.64854e-05
8.01028e-05
8.99817e-05
8.3253e-05
7.93566e-05
7.96469e-05
8.00075e-05
0.000799302
7.33311e-05
7.99962e-05
7.94593e-05
0.000155344
8.09565e-05
9.541e-05
0.000356234
8.13774e-05
7.85695e-05
8.64372e-05
7.97463e-05
0.000126969
7.91185e-05
0.000978472
7.80068e-05
8.11406e-05
0.000117792
0.000703946
8.1946e-05
7.96382e-05
0.000633151
8.22974e-05
0.000204082
8.22792e-05
7.82763e-05
8.21656e-05
7.97468e-05
0.00207183
8.15707e-05
0.00382682
8.0866e-05
7.84753e-05
0.0395526
8.02725e-05
7.9879e-05
8.26585e-05
0.00292164
8.07624e-05
8.32816e-05
0.0626848
7.73279e-05
9.06585e-05
0.00104591
0.00217298
7.55044e-05
8.2911e-05
0.000267798
0.000302617
0.00206519
0.0523033
8.47234e-05
8.1449e-05
7.59819e-05
0.000122406
9.38603e-05
7.65927e-05
8.16137e-05
8.01899e-05
8.08852e-05
7.34689e-05
7.96377e-05
8.04921e-05
7.95162e-05
8.19039e-05
7.87354e-05
0.000128793
8.22216e-05
0.0406532
8.2722e-05
0.000109033
7.36886e-05
0.0639775
7.83623e-05
0.000100126
1.16715
8.57552e-05
9.77402e-05
0.000120586
8.45836e-05
7.90976e-05
7.41921e-05
7.02567e-05
8.02134e-05
7.94717e-05
0.000114225
0.0832351
7.22842e-05
0.000120842
0.00202624
9.49766e-05
7.99185e-05
7.98356e-05
7.8013e-05
8.14443e-05
8.00841e-05
8.15051e-05
7.97765e-05
7.84307e-05
8.34353e-05
8.36144e-05
9.82917e-05
0.000155419
0.000267907
8.1901e-05
0.177475
8.38075e-05
8.14784e-05
7.30647e-05
0.00465476
9.95781e-05
7.9025e-05
8.10989e-05
8.06319e-05
8.19752e-05
7.95601e-05
0.14518
7.45135e-05
8.50427e-05
8.31279e-05
7.37104e-05
8.22276e-05
7.82071e-05
7.9533e-05
7.52902e-05
7.64331e-05
7.96457e-05
8.29751e-05
0.00577066
8.07051e-05
7.87989e-05
0.000404416
8.07998e-05
8.54649e-05
0.00356706
8.22225e-05
8.73794e-05
7.84499e-05
0.000380771
0.155814
0.901744
7.95935e-05
7.84918e-05
7.8219e-05
0.00120264
7.96449e-05
0.00037021
8.67107e-05
0.000682336
0.00014923
8.17682e-05
0.000100638
0.0267141
8.20648e-05
8.40367e-05
0.161114
0.00311998
7.9708e-05
8.20254e-05
8.02695e-05
8.32745e-05
8.49796e-05
7.70709e-05
0.000159681
8.08339e-05
7.99424e-05
9.98275e-05
8.0728e-05
0.026599
8.28918e-05
7.72753e-05
7.97025e-05
8.31999e-05
7.81946e-05
7.89899e-05
8.17904e-05
0.000197253
8.07172e-05
0.000129654
7.5322e-05
8.22994e-05
8.05245e-05
8.55533e-05
7.29817e-05
7.96154e-05
8.45022e-05
0.00221464
7.26372e-05
0.00204752
0.000158191
0.00191291
7.26119e-05
9.5565e-05
0.00378004
7.37662e-05
8.05095e-05
0.106326
7.70533e-05
8.33156e-05
7.32864e-05
7.82276e-05
8.07267e-05
8.07408e-05
7.40247e-05
8.03442e-05
8.28344e-05
7.90663e-05
7.71026e-05
0.18471
7.169e-05
8.89104e-05
7.21928e-05
8.3355e-05
9.06608e-05
8.11082e-05
8.1516e-05
0.000151774
8.10747e-05
7.49201e-05
7.60811e-05
7.72824e-05
7.62404e-05
8.04696e-05
7.75478e-05
0.000689562
0.0140086
8.43954e-05
7.77244e-05
9.32294e-05
8.16816e-05
7.66568e-05
0.000121327
9.80568e-05
8.00392e-05
0.000264318
7.95653e-05
7.7237e-05
8.35755e-05
7.33911e-05
0.004559
0.0024025
8.31317e-05