/*--------------------------------*- C++ -*----------------------------------*\
| =========                 |                                                 |
| \\      /  F ield         | OpenFOAM: The Open Source CFD Toolbox           |
|  \\    /   O peration     | Version:  v2012                                 |
|   \\  /    A nd           | Website:  www.openfoam.com                      |
|    \\/     M anipulation  |                                                 |
\*---------------------------------------------------------------------------*/
FoamFile
{
    version     2.0;
    format      ascii;
    class       volScalarField;
    location    "2.5";
    object      nut;
}
// * * * * * * * * * * * * * * * * * * * * * * * * * * * * * * * * * * * * * //

dimensions      [0 2 -1 0 0 0 0];


internalField   nonuniform List<scalar> 
108993
(
9.36136e-05
8.69286e-05
7.49635e-05
9.44615e-05
9.52516e-05
5.1663e-05
8.22833e-05
7.57672e-05
9.51186e-05
8.76169e-05
0.000100109
9.90871e-05
7.95293e-05
7.91382e-05
8.43113e-05
7.05666e-05
7.68269e-05
8.52107e-05
8.02534e-05
8.56046e-05
8.3127e-05
9.26226e-05
7.57062e-05
9.53371e-05
9.47534e-05
8.52745e-05
9.24384e-05
9.1544e-05
0.00010228
6.0478e-05
0.000105256
9.82564e-05
0.000114181
9.69815e-05
8.34291e-05
9.53296e-05
8.35227e-05
0.00010028
0.000118714
9.57902e-05
0.000107527
0.000101852
8.68197e-05
0.000134583
8.55632e-05
4.41464e-05
0.000113154
0.000102297
0.000111733
9.34148e-05
9.67005e-05
0.00011402
8.87422e-05
9.26277e-05
9.7686e-05
0.000100858
9.2423e-05
8.8954e-05
7.48404e-05
0.000103054
9.12652e-05
9.32029e-05
9.00229e-05
8.02676e-05
8.85967e-05
0.000102527
9.03486e-05
9.87088e-05
0.000106647
9.3868e-05
8.82706e-05
8.57863e-05
9.4025e-05
9.16186e-05
8.30683e-05
0.000101107
8.04808e-05
0.000109013
9.83232e-05
9.24937e-05
8.60433e-05
8.16875e-05
7.93552e-05
8.9812e-05
0.000101959
8.50187e-05
0.000102319
8.26856e-05
8.71641e-05
0.000101239
8.91009e-05
7.67284e-05
9.97873e-05
7.7944e-05
9.62032e-05
9.36521e-05
7.59309e-05
6.61215e-05
7.44685e-05
7.94463e-05
9.73695e-05
0.00011046
0.000106378
0.000101871
7.13789e-05
0.000103102
0.000101818
0.000110075
0.000101413
0.000114291
8.1749e-05
8.90872e-05
0.000128436
9.261e-05
9.39844e-05
0.000199435
8.11615e-05
7.57452e-05
0.000107907
9.12598e-05
8.92197e-05
8.53908e-05
0.000117122
6.16588e-05
9.22646e-05
9.05642e-05
9.43897e-05
8.20697e-05
7.93238e-05
0.000101785
8.30291e-05
0.000100029
0.000103826
0.000277001
9.06327e-05
7.64259e-05
8.63517e-05
8.06389e-05
8.02389e-05
8.62927e-05
7.85547e-05
7.44859e-05
9.79552e-05
8.7805e-05
9.6727e-05
9.3648e-05
7.5452e-05
0.000708878
8.67581e-05
0.000145009
0.000178636
7.43463e-05
7.48192e-05
0.000232633
9.20777e-05
8.83864e-05
0.000108302
9.78384e-05
0.000136862
9.76457e-05
0.000241251
0.000227303
0.000103686
8.5846e-05
8.70378e-05
9.88138e-05
8.77371e-05
7.82204e-05
7.7777e-05
0.000104939
9.69793e-05
9.64668e-05
0.000100778
8.14463e-05
9.29459e-05
8.56257e-05
0.000426366
8.08453e-05
9.8051e-05
8.17808e-05
8.1591e-05
7.62802e-05
9.08698e-05
2.79834e-05
0.000106713
9.30891e-05
9.32839e-05
9.29434e-05
9.28948e-05
3.2096e-05
9.28171e-05
0.000101719
8.09238e-05
0.000316202
9.85141e-05
8.81245e-05
0.000103823
9.40738e-05
0.000100423
3.50862e-05
9.82862e-05
0.000113266
9.04701e-05
8.06377e-05
9.61417e-05
0.000359786
8.35405e-05
0.00012065
8.83224e-05
0.00168745
7.84134e-05
9.46332e-05
0.000648329
0.000804004
0.00185717
6.42614e-05
8.16504e-05
9.16735e-05
8.95984e-05
0.000112178
9.14775e-05
0.000125093
0.000126333
0.000289012
8.19114e-05
7.09062e-05
8.45113e-05
0.000102028
0.000198682
7.51755e-05
0.00105955
9.29551e-05
7.71507e-05
7.64322e-05
8.53513e-05
7.37917e-05
9.65937e-05
8.45803e-05
8.59873e-05
8.78322e-05
6.55731e-05
9.75359e-05
6.00566e-05
9.3751e-05
0.000105046
8.61143e-05
0.00116318
0.000108576
9.94384e-05
0.000101237
8.66056e-05
9.44841e-05
8.7901e-05
9.73028e-05
9.57285e-05
9.60656e-05
9.38376e-05
8.87634e-05
0.000107101
5.96045e-05
9.10817e-05
8.67094e-05
0.000102243
7.60804e-05
5.33656e-05
9.07972e-05
0.000101006
0.000106616
5.92496e-05
8.91372e-05
6.53143e-05
7.51212e-05
0.00048962
0.0026737
0.000213356
8.55673e-05
9.79404e-05
0.000250109
0.000100629
9.03691e-05
9.71161e-05
0.000116904
7.48639e-05
8.26948e-05
9.66469e-05
9.21721e-05
7.19322e-05
9.75256e-05
0.000104287
0.000709219
8.83458e-05
7.65408e-05
0.000101003
9.59579e-05
9.29599e-05
7.57782e-05
0.0001056
8.92732e-05
9.62886e-05
5.3163e-05
0.000221806
0.000112482
9.84011e-05
7.16993e-05
9.42412e-05
7.4686e-05
7.082e-05
7.93065e-05
6.96032e-05
0.000613655
9.89972e-05
9.8923e-05
7.86647e-05
8.64182e-05
0.000100391
0.000105018
7.04914e-05
8.15236e-05
0.000318556
0.000107253
8.56198e-05
6.64041e-05
6.60627e-05
6.85416e-05
7.32982e-05
0.000774744
0.00374713
0.00019371
8.51067e-05
0.000103625
0.000110477
0.000158839
0.00165584
8.72008e-05
0.00170049
9.32827e-05
9.19025e-05
9.58466e-05
9.38636e-05
8.32721e-05
8.83949e-05
0.000129508
8.34118e-05
9.68632e-05
8.34607e-05
8.67582e-05
8.16592e-05
8.16623e-05
8.04696e-05
7.72775e-05
9.46791e-05
6.34165e-05
8.54207e-05
0.000104793
8.65318e-05
9.00177e-05
8.18444e-05
0.000191388
8.93824e-05
5.27786e-05
0.000110205
8.25468e-05
7.41272e-05
8.62249e-05
9.42065e-05
9.91928e-05
9.73958e-05
8.20339e-05
9.1703e-05
0.00470136
7.75607e-05
9.75967e-05
7.89221e-05
0.000329485
0.000112479
0.000828079
0.000101025
0.000122374
0.000714989
9.72006e-05
0.000484778
0.000519967
0.000101716
7.77613e-05
8.68262e-05
6.0889e-05
8.31146e-05
0.00569627
8.60319e-05
0.000114436
0.000719405
6.42149e-05
0.000661417
7.89666e-05
0.000243341
0.000125826
0.000976284
9.22435e-05
8.58322e-05
8.98116e-05
0.000123282
0.000904783
0.000506284
9.20657e-05
9.53767e-05
6.53713e-05
8.20298e-05
5.73198e-05
8.46127e-05
0.00249557
8.40129e-05
8.15347e-05
0.00681576
8.05963e-05
9.29862e-05
0.000102137
0.000804302
8.37621e-05
3.7019e-05
8.61877e-05
0.00187354
8.81923e-05
0.000480712
7.01244e-05
9.82092e-05
0.000672547
9.60648e-05
8.72664e-05
0.0021464
6.03751e-05
0.000716359
0.000115532
0.000902409
8.84695e-05
8.45068e-05
9.16708e-05
8.63999e-05
9.51755e-05
0.000101663
8.17403e-05
8.62542e-05
8.46722e-05
0.000104714
6.13426e-05
9.71694e-05
0.000101587
8.05608e-05
0.000102797
8.61474e-05
6.66081e-05
8.8768e-05
9.09522e-05
9.91743e-05
0.000117622
0.000109537
8.94076e-05
8.95853e-05
8.599e-05
0.00010821
7.97796e-05
0.000252194
8.91204e-05
0.000155826
0.000121403
8.95695e-05
6.87393e-05
8.086e-05
0.00013018
6.49726e-05
7.97145e-05
9.45306e-05
9.61204e-05
9.57099e-05
8.6823e-05
0.000106268
0.000102005
7.65267e-05
9.93248e-05
0.000130029
9.92292e-05
8.15945e-05
0.000106359
0.000101851
9.67558e-05
0.000122102
8.01322e-05
7.91189e-05
7.6516e-05
8.53545e-05
0.00010248
9.04322e-05
9.94067e-05
9.80771e-05
8.08898e-05
8.82496e-05
6.22432e-05
0.000121646
9.74014e-05
6.94306e-05
8.78984e-05
7.84637e-05
9.08586e-05
7.15083e-05
9.10638e-05
9.80724e-05
8.19398e-05
8.61848e-05
7.88876e-05
0.00760704
8.88577e-05
9.65002e-05
8.47591e-05
9.75327e-05
0.000103274
8.99562e-05
8.79921e-05
7.69994e-05
8.9638e-05
0.000104509
0.000108772
8.57399e-05
0.000181399
9.2551e-05
9.56885e-05
0.000104701
0.000113183
8.62339e-05
9.50947e-05
0.00011776
0.000102564
7.59967e-05
8.41155e-05
9.52957e-05
8.27761e-05
9.61606e-05
0.000103201
8.33772e-05
9.53059e-05
9.96958e-05
0.00019577
8.27666e-05
0.000333064
8.86379e-05
0.000103263
0.000102687
8.71289e-05
7.22277e-05
9.58117e-05
0.000101143
7.16819e-05
0.000168359
7.56781e-05
0.000446836
0.000109048
0.000100552
8.38407e-05
9.90751e-05
0.000104884
0.00162545
7.70343e-05
9.41171e-05
9.15172e-05
8.60164e-05
9.67593e-05
6.27935e-05
0.000699729
9.55674e-05
7.5918e-05
0.000120066
0.000100401
9.54109e-05
6.92494e-05
0.00272315
6.61902e-05
0.000157844
9.08588e-05
0.000106224
6.9215e-05
0.00312182
9.70433e-05
0.00010339
8.32149e-05
0.000104206
0.000112477
9.58371e-05
8.07082e-05
0.000479687
6.65627e-05
0.000101721
6.63526e-05
0.000108005
6.82388e-05
8.67817e-05
8.87103e-05
0.0026697
8.28011e-05
0.000111634
7.28786e-05
0.000103929
8.60401e-05
9.42718e-05
0.00010271
0.00428008
8.00664e-05
7.7859e-05
6.70243e-05
0.00290386
8.47194e-05
8.92161e-05
9.50529e-05
0.000244898
9.47012e-05
0.000124017
8.73547e-05
0.000111677
8.59408e-05
9.6627e-05
8.83136e-05
0.000343026
7.9762e-05
0.000116236
8.957e-05
9.60755e-05
0.000110778
0.000102422
0.000101614
0.000108737
0.000101894
0.000161847
9.41092e-05
0.000214359
8.92996e-05
0.000101264
0.000145101
8.67267e-05
7.70614e-05
6.9087e-05
0.0055037
8.71786e-05
9.87777e-05
8.5552e-05
9.73205e-05
8.61688e-05
8.1268e-05
7.66022e-05
8.19419e-05
9.0425e-05
7.63878e-05
8.22416e-05
8.72854e-05
9.31118e-05
7.75416e-05
0.000700572
6.47989e-05
0.000102015
9.848e-05
0.000720063
5.8737e-05
8.92284e-05
6.53336e-05
8.0464e-05
9.16623e-05
6.95884e-05
8.80654e-05
7.95175e-05
0.000154584
7.26981e-05
9.9748e-05
0.000797277
0.000190841
0.000107563
0.000109323
0.000104639
7.09398e-05
6.77452e-05
0.000107832
0.000139331
5.91391e-05
9.17892e-05
0.000111628
8.44537e-05
9.9327e-05
8.88793e-05
9.42401e-05
0.000234817
0.000124498
0.000134603
7.33011e-05
5.8693e-05
0.00160862
8.50722e-05
8.97804e-05
0.000102016
7.36481e-05
0.000101274
0.00386668
0.000113097
0.000513414
7.24727e-05
0.00630784
0.000126813
9.5094e-05
5.32363e-05
5.84327e-05
0.000113389
6.22218e-05
9.54367e-05
7.8962e-05
9.50354e-05
8.02757e-05
9.3544e-05
0.000117912
0.00647703
0.000100317
0.00565717
7.11774e-05
0.000125109
9.23057e-05
6.8085e-05
9.94394e-05
0.000102286
9.56947e-05
0.000117607
7.95241e-05
8.03459e-05
9.5351e-05
0.000101619
7.31394e-05
9.49052e-05
9.63382e-05
8.85707e-05
9.18091e-05
7.38035e-05
8.12033e-05
9.71943e-05
7.30956e-05
0.000106277
7.48562e-05
9.49138e-05
0.000109697
8.09714e-05
6.82198e-05
0.000186171
0.000187953
9.99275e-05
0.000102876
0.000107021
0.000117917
9.6831e-05
0.00012753
9.84432e-05
6.68526e-05
7.71407e-05
0.000113097
6.90404e-05
8.05777e-05
7.2213e-05
0.000102463
0.000111089
8.24573e-05
9.05399e-05
8.7358e-05
0.000115163
8.80349e-05
6.07254e-05
9.90933e-05
9.97459e-05
0.00014937
9.84314e-05
9.52022e-05
8.32891e-05
0.000106156
9.42737e-05
0.00012864
0.000115256
0.000110173
8.90083e-05
0.00223575
0.000361293
8.30873e-05
6.61863e-05
0.00059923
9.6289e-05
8.78374e-05
8.92427e-05
0.000140198
9.16891e-05
7.1965e-05
9.49517e-05
7.02574e-05
9.07276e-05
8.30574e-05
8.86226e-05
8.80157e-05
0.00013507
0.000114162
0.000234233
0.000100921
0.000849661
9.94168e-05
8.057e-05
8.35275e-05
0.00010085
8.73604e-05
9.53242e-05
9.93171e-05
9.52956e-05
8.67867e-05
7.71285e-05
8.07396e-05
9.72407e-05
9.26246e-05
9.27872e-05
6.87129e-05
7.42798e-05
0.000585279
7.12574e-05
9.01453e-05
0.000633683
7.21382e-05
0.00048711
7.85859e-05
8.92244e-05
9.60825e-05
0.00795252
8.31479e-05
7.57643e-05
7.78091e-05
7.39067e-05
0.000110448
9.10288e-05
0.000115941
9.39334e-05
0.000114329
8.22465e-05
7.69111e-05
9.39944e-05
8.374e-05
0.000194931
0.000116799
7.32236e-05
0.00010395
8.51324e-05
0.00011226
9.16534e-05
9.40829e-05
8.93796e-05
9.90657e-05
0.000770715
9.253e-05
0.00096943
9.36662e-05
0.000861086
9.72829e-05
9.27823e-05
5.42797e-05
9.23688e-05
9.15273e-05
0.000115462
5.53923e-05
6.23806e-05
8.85915e-05
8.99415e-05
8.87128e-05
8.48806e-05
9.90382e-05
8.9504e-05
7.74475e-05
0.000100432
9.95672e-05
7.72631e-05
8.42109e-05
7.85674e-05
0.000128738
8.60003e-05
8.76459e-05
9.91221e-05
0.000148144
8.42082e-05
8.07425e-05
6.22818e-05
8.45209e-05
7.65304e-05
9.35229e-05
9.62653e-05
0.00100784
8.66288e-05
0.00236578
8.46305e-05
0.00319642
8.89882e-05
8.52818e-05
0.000113263
8.24251e-05
0.000113948
7.88419e-05
8.62278e-05
9.41167e-05
9.42753e-05
0.000114373
0.00013422
8.55872e-05
8.32364e-05
0.000717845
0.000102022
9.13973e-05
0.00187401
0.00275546
7.20034e-05
0.00010082
9.00824e-05
9.36182e-05
0.000119701
0.000114793
0.00112486
7.48059e-05
0.00102716
9.22999e-05
0.000106979
9.53194e-05
7.19978e-05
9.98603e-05
8.37938e-05
0.000102504
0.000111346
0.000103259
7.17524e-05
0.000118164
8.97324e-05
6.70739e-05
7.77813e-05
7.23447e-05
7.64133e-05
9.90668e-05
0.000117311
7.89102e-05
8.40326e-05
0.000253636
9.70245e-05
0.00171195
7.96891e-05
8.317e-05
7.90058e-05
0.000107957
9.69924e-05
7.43188e-05
6.59861e-05
0.000346631
0.000102304
9.42962e-05
9.24983e-05
9.62406e-05
8.7609e-05
0.000133345
8.40307e-05
0.000142432
0.00133617
8.53439e-05
7.02789e-05
9.54836e-05
8.10103e-05
8.09929e-05
0.000597994
0.000103744
1.25695e-05
0.000115449
9.8837e-05
9.42737e-05
8.90801e-05
8.52383e-05
7.41547e-05
0.000129584
6.71283e-05
8.88997e-05
6.80226e-05
0.000239042
8.48496e-05
9.57722e-05
9.64516e-05
0.000265368
8.10962e-05
7.96014e-05
8.21957e-05
7.0134e-05
8.42282e-05
9.33759e-05
9.31152e-05
0.000100838
0.000101855
9.30164e-05
7.96773e-05
0.00010019
9.66356e-05
7.47316e-05
8.02723e-05
8.33372e-05
8.56343e-05
6.76611e-05
0.00142178
7.08172e-05
0.000108934
7.50409e-05
8.52041e-05
9.66516e-05
9.66026e-05
0.000120637
8.78095e-05
7.96501e-05
0.000261167
8.07058e-05
0.000122441
9.85874e-05
0.000102866
4.94337e-05
9.24295e-05
9.27511e-05
8.11608e-05
9.33485e-05
9.16517e-05
6.55355e-05
6.84131e-05
8.34709e-05
8.85636e-05
0.000130135
9.96717e-05
0.000102239
0.000117869
8.6676e-05
0.000108129
9.09916e-05
0.000103781
9.96969e-05
9.72313e-05
9.88337e-05
0.000106655
0.000130276
9.62572e-05
0.000112183
0.00010195
0.00302908
7.51667e-05
9.33262e-05
9.29507e-05
0.000117727
0.000103801
9.06236e-05
0.000108606
0.000101001
0.000114899
8.24721e-05
0.000155311
8.45867e-05
9.95444e-05
9.01183e-05
7.86649e-05
9.19501e-05
8.9049e-05
8.06833e-05
6.46537e-05
0.000104498
0.00269777
9.26866e-05
8.86862e-05
0.000108347
0.000113449
9.19581e-05
8.36659e-05
6.54158e-05
0.000111663
0.000221041
0.000108435
0.000206771
0.00013289
0.000108368
0.000109415
6.91438e-05
5.8254e-05
8.58651e-05
7.23851e-05
8.28819e-05
9.40711e-05
0.00257154
7.47642e-05
0.00525138
9.77217e-05
9.89101e-05
7.40452e-05
9.91589e-05
9.91074e-05
7.51316e-05
8.89829e-05
0.00010038
9.74929e-05
6.14809e-05
0.000114269
0.000159969
0.000107833
9.25929e-05
0.000103123
9.14228e-05
0.000130457
0.00011714
0.000201144
9.74496e-05
0.000106025
0.00284585
7.03523e-05
7.7428e-05
9.95037e-05
7.36209e-05
0.000103023
8.56866e-05
5.75297e-05
0.00019324
0.000104957
0.000122544
6.80797e-05
9.36371e-05
0.000104621
8.49313e-05
8.32763e-05
8.91365e-05
6.08206e-05
8.20488e-05
0.000303587
9.78833e-05
9.8502e-05
8.10232e-05
9.64108e-05
0.000410902
8.90333e-05
8.81461e-05
8.5387e-05
9.58706e-05
8.33788e-05
9.81736e-05
6.24829e-05
9.23071e-05
0.000105641
0.000106997
9.69866e-05
9.8593e-05
9.8097e-05
6.43682e-05
9.49385e-05
0.00011016
0.00288131
0.00358091
9.6785e-05
9.30149e-05
9.82874e-05
0.000108236
7.65453e-05
8.96128e-05
7.39873e-05
8.73148e-05
7.8527e-05
5.79684e-05
9.96373e-05
6.71766e-05
7.91072e-05
0.000108012
9.90392e-05
8.01019e-05
8.16742e-05
8.44008e-05
8.54759e-05
0.000438349
0.000104864
8.54026e-05
6.26087e-05
7.4145e-05
0.000124696
9.91335e-05
9.87083e-05
6.66462e-05
6.4053e-05
6.51317e-05
0.00206314
9.37808e-05
8.68023e-05
0.000366806
0.00010954
0.000655121
0.000175685
7.93016e-05
9.48248e-05
6.81044e-05
8.04798e-05
6.66819e-05
0.000107541
8.39215e-05
0.000122625
0.00426392
0.000105017
8.91041e-05
8.49757e-05
9.94018e-05
6.78423e-05
9.65569e-05
6.17659e-05
7.7868e-05
8.6425e-05
0.00129623
0.000103766
0.000104309
9.6981e-05
7.70083e-05
9.25384e-05
7.71225e-05
8.79816e-05
8.85722e-05
8.37663e-05
0.000325546
9.70823e-05
9.08327e-05
0.000223639
8.2792e-05
0.00110287
9.5144e-05
8.77153e-05
8.91685e-05
0.000104731
9.79094e-05
0.00388398
9.83308e-05
7.8058e-05
9.60953e-05
0.00160981
0.000115898
8.91113e-05
8.42513e-05
0.000118857
0.000112752
0.000146938
0.000113955
0.000106435
9.17922e-05
7.63306e-05
8.97581e-05
0.000115511
0.000106797
0.000107194
9.77361e-05
0.000261404
9.48298e-05
8.54466e-05
0.000518593
7.77668e-05
9.58393e-05
0.000100228
9.8649e-05
0.00119745
9.68885e-05
8.53562e-05
6.40109e-05
0.0018158
9.26333e-05
9.67345e-05
8.81916e-05
9.74057e-05
0.000100062
0.000289611
0.000895244
0.000841711
8.79773e-05
0.00114361
0.0001026
0.000339856
0.000513537
6.17361e-05
6.81275e-05
8.60451e-05
8.11821e-05
0.00010587
9.71529e-05
8.0044e-05
7.48368e-05
8.1555e-05
8.85463e-05
8.4538e-05
0.000107753
0.000105159
0.000109612
0.000268791
0.00010797
0.000176174
0.000490236
9.22497e-05
9.39478e-05
0.00145068
0.000330588
0.00187945
8.95744e-05
9.47379e-05
8.07465e-05
9.1411e-05
9.19485e-05
9.08315e-05
7.33679e-05
8.89235e-05
0.000157871
9.18019e-05
9.80689e-05
0.000142183
0.000113771
0.000580195
0.000102105
9.24367e-05
0.000113429
8.63691e-05
8.95721e-05
0.000102509
9.07193e-05
7.05697e-05
9.11275e-05
0.000100879
8.47955e-05
8.89582e-05
0.000109155
6.99928e-05
8.72477e-05
8.99795e-05
0.000135469
0.000119513
0.000115439
0.000116022
9.5162e-05
0.000280268
8.72279e-05
9.92132e-05
9.59245e-05
7.60699e-05
9.84901e-05
0.000101793
0.000104263
0.000135339
7.56506e-05
0.00112461
8.58128e-05
8.95686e-05
9.94634e-05
9.37504e-05
0.000105377
0.000105537
0.000114447
0.000145907
0.000103007
8.92771e-05
8.05846e-05
9.8246e-05
9.49507e-05
0.000137039
0.000114608
0.000155933
0.000151683
0.000107465
9.53256e-05
0.000114416
8.52365e-05
7.14483e-05
9.65324e-05
0.000103272
9.01976e-05
9.37245e-05
7.87428e-05
0.000111842
9.7641e-05
0.0041827
8.55824e-05
8.43449e-05
7.37962e-05
0.000252635
7.92114e-05
0.000101891
0.000172046
8.13407e-05
8.98867e-05
9.94785e-05
8.47488e-05
7.45921e-05
7.99106e-05
9.89969e-05
8.41669e-05
7.69875e-05
0.000134087
0.000119696
0.000108733
0.000115741
6.64986e-05
9.28861e-05
0.000110361
7.081e-05
8.84196e-05
7.64417e-05
0.000118439
0.000100761
0.000102199
9.40688e-05
0.00122197
8.13005e-05
7.94031e-05
7.53975e-05
0.000115301
6.92161e-05
5.67402e-05
0.000106916
7.97651e-05
6.23202e-05
8.21448e-05
9.3992e-05
9.55294e-05
9.1182e-05
6.03516e-05
9.94138e-05
0.000104853
8.91332e-05
9.09626e-05
8.24699e-05
0.000125542
8.22309e-05
0.000105047
8.74708e-05
0.0002666
9.61742e-05
0.00191269
7.97395e-05
0.00410534
0.000106703
8.08605e-05
8.07155e-05
7.78427e-05
8.66559e-05
9.93961e-05
9.20518e-05
7.4764e-05
0.000229762
0.000248677
8.8189e-05
8.45658e-05
6.97223e-05
8.30844e-05
8.92342e-05
6.89513e-05
7.84347e-05
0.000103285
0.0042932
8.89126e-05
0.00010493
8.40032e-05
0.000111824
9.68277e-05
9.71376e-05
8.23894e-05
8.02421e-05
8.63359e-05
8.6723e-05
9.09695e-05
6.48317e-05
0.000136765
8.3847e-05
0.000133365
0.000352856
9.76072e-05
8.85701e-05
0.000374958
8.13364e-05
8.42134e-05
7.99235e-05
8.65203e-05
9.48027e-05
8.8624e-05
0.00526606
8.59581e-05
9.90348e-05
0.0126027
8.85892e-05
0.000118386
9.35823e-05
7.70046e-05
8.89182e-05
8.74813e-05
9.65379e-05
9.12807e-05
0.000151014
0.00557373
9.73852e-05
0.000131873
9.20971e-05
8.56536e-05
8.14454e-05
0.000103523
0.000101361
9.71765e-05
0.000106076
7.98814e-05
8.6883e-05
9.18414e-05
0.00011473
0.000107306
9.40134e-05
0.00208034
5.2638e-05
0.000142318
0.000101702
0.000104278
0.000164628
0.000124517
9.95782e-05
0.000327506
8.43087e-05
0.00010536
7.07976e-05
0.000110848
0.000733389
9.8552e-05
7.74944e-05
0.00108439
0.00014129
0.000241286
8.96199e-05
0.000111544
8.22176e-05
6.86286e-05
0.000121283
7.43845e-05
0.000292525
6.82472e-05
0.000120221
0.000118327
0.000210204
0.000104399
6.58391e-05
7.95301e-05
5.58788e-05
8.51071e-05
0.000132535
0.000111405
0.000219224
0.00011396
9.29788e-05
0.00389121
7.06964e-05
8.87575e-05
0.000132353
0.000102726
0.0056524
8.39893e-05
8.01688e-05
9.08618e-05
5.9046e-05
5.76536e-05
8.85146e-05
0.000122745
0.000100747
0.000266572
0.000719181
8.93544e-05
0.000181072
6.2624e-05
9.31078e-05
6.45108e-05
8.8525e-05
9.88927e-05
8.34463e-05
0.000107525
8.63889e-05
8.83841e-05
8.45486e-05
5.95017e-05
0.00010449
0.00139897
6.5529e-05
0.000114319
0.000135371
6.88202e-05
6.60552e-05
0.000130971
5.806e-05
8.4564e-05
7.65936e-05
8.81758e-05
0.000108458
9.19974e-05
0.000122814
0.000401837
0.000138829
0.00343402
0.000997425
0.000116279
8.88774e-05
6.68501e-05
0.000123099
8.70888e-05
0.00518281
0.000114346
0.000117314
9.69616e-05
0.000172189
9.68873e-05
7.47634e-05
6.51733e-05
0.000106211
9.06527e-05
8.61676e-05
0.000246766
9.55656e-05
6.40747e-05
8.22934e-05
0.00202164
0.000133992
5.92885e-05
0.000186556
0.000841006
0.000191784
0.000112279
0.000181863
5.26122e-05
0.000267411
0.0102103
9.72461e-05
0.000108617
6.45722e-05
9.71403e-05
0.000101676
8.88319e-05
7.03866e-05
0.000164897
0.000227682
8.74975e-05
0.000191955
0.000296772
6.44965e-05
8.37033e-05
0.000377673
0.00131051
0.000106669
0.0106435
7.20356e-05
7.93716e-05
9.02179e-05
8.82436e-05
0.0117538
8.4173e-05
8.57452e-05
9.19165e-05
8.15948e-05
0.000173099
8.01257e-05
9.85223e-05
9.14952e-05
5.94283e-05
7.2219e-05
7.16383e-05
8.56872e-05
8.29348e-05
0.000675147
0.00310167
8.15743e-05
0.00773294
7.41589e-05
9.47055e-05
7.62487e-05
0.00027006
0.000101109
0.000137769
9.96791e-05
0.000790126
0.000530332
0.0129721
0.000194546
7.50692e-05
0.000128828
0.000101224
8.93359e-05
7.5419e-05
0.00205582
6.39528e-05
0.000171362
0.000243334
8.41408e-05
0.000260459
0.000280357
6.02599e-05
8.14657e-05
8.47688e-05
6.50786e-05
8.04192e-05
0.000106261
6.46849e-05
9.78163e-05
7.67321e-05
0.00129975
0.00309381
0.000869364
6.87804e-05
0.00484161
8.00173e-05
0.00127248
0.000115047
0.000333933
0.000178177
0.000680816
7.75835e-05
0.000133229
9.12339e-05
8.79679e-05
0.000107783
0.000103219
0.000103086
7.93317e-05
8.72241e-05
0.0105058
8.49535e-05
8.69685e-05
0.000432502
0.000366197
0.000175298
0.00524906
8.96395e-05
0.000875114
0.000117814
9.20448e-05
7.10894e-05
0.000118249
0.00113283
7.22765e-05
8.57936e-05
7.25537e-05
0.000105361
7.47592e-05
0.00175061
0.00143185
0.00213765
0.000143637
9.75408e-05
0.00482052
0.000100572
8.15494e-05
8.51761e-05
6.20309e-05
6.31952e-05
0.00346981
0.000114945
7.17101e-05
0.000900983
0.000100458
0.000100531
6.4488e-05
0.000110269
0.000104651
9.85124e-05
0.000134223
7.81024e-05
9.31997e-05
8.13622e-05
0.000123076
0.000134474
8.509e-05
0.000110711
8.73074e-05
9.37582e-05
8.59678e-05
9.85932e-05
0.00010116
0.00142921
9.65009e-05
8.60065e-05
0.000215321
8.72684e-05
8.61413e-05
8.6745e-05
8.86221e-05
0.000735721
0.000589883
0.000489763
0.000150731
0.000225038
9.4085e-05
0.000116605
8.96911e-05
0.00217557
0.000306848
9.44467e-05
0.000738542
8.90559e-05
9.44803e-05
9.24619e-05
9.15459e-05
8.47156e-05
0.000548596
0.000896384
0.000427999
0.000813925
8.932e-05
0.000156995
0.000535853
0.00108287
9.83327e-05
0.000103851
0.000144154
0.000461623
0.000363198
0.0025329
8.07316e-05
9.21145e-05
0.000101004
0.00226014
0.000129195
0.000178092
8.46059e-05
0.000849341
9.50874e-05
0.000111652
0.0053546
0.000121745
0.000113362
0.000101093
0.000197076
0.000877543
0.000123131
9.27302e-05
0.00014663
9.20763e-05
0.000105471
9.63888e-05
0.000145149
0.000134032
8.87854e-05
0.0001483
8.53421e-05
0.000609841
9.82773e-05
8.04269e-05
9.22944e-05
0.000263683
8.87879e-05
8.47917e-05
9.46431e-05
5.09089e-05
0.000269072
9.22162e-05
0.000152179
9.78526e-05
0.000110861
7.3915e-05
0.00121218
0.000111263
5.90871e-05
0.000526818
5.75876e-05
7.59002e-05
0.000102175
9.91189e-05
8.23814e-05
6.77661e-05
9.51149e-05
0.000114
9.7884e-05
0.000276922
0.000102178
8.03155e-05
0.00551391
0.000117191
5.87024e-05
0.000114395
0.000134869
0.000146622
7.02096e-05
8.33775e-05
6.48862e-05
0.000290293
9.69853e-05
0.00308173
0.00791802
9.31274e-05
8.20364e-05
0.0077504
9.79342e-05
8.69422e-05
6.66408e-05
0.000108756
8.09638e-05
0.000885555
0.00138281
8.87022e-05
9.27115e-05
9.50039e-05
6.93992e-05
0.000108715
6.91803e-05
0.000289851
0.000108507
0.000106713
8.7291e-05
0.000125439
8.51747e-05
0.0001071
8.65905e-05
0.000104513
8.63085e-05
6.68926e-05
8.20597e-05
9.03174e-05
8.23271e-05
8.93343e-05
0.000686875
7.5891e-05
7.97095e-05
0.00105603
6.6658e-05
8.63589e-05
0.000118192
6.49681e-05
0.000398248
0.000354538
9.08149e-05
9.89609e-05
9.88133e-05
9.35964e-05
0.000850044
8.50201e-05
0.000933911
7.67737e-05
9.57514e-05
8.99578e-05
8.15995e-05
0.00409977
9.06389e-05
0.00149085
0.000413096
0.00144224
8.32553e-05
9.5123e-05
7.27811e-05
0.000127544
7.38758e-05
8.41526e-05
0.000181302
9.1729e-05
8.65134e-05
8.71958e-05
0.00069554
0.000680919
0.000138112
9.74362e-05
8.2239e-05
8.89693e-05
7.37043e-05
9.41938e-05
0.000106384
8.04023e-05
8.48456e-05
0.000181929
0.000108206
0.000134555
8.93433e-05
0.000102855
0.000110775
0.00073741
8.21552e-05
0.000102576
7.27648e-05
8.19666e-05
0.000112545
0.000944212
6.70215e-05
9.48659e-05
0.000490691
8.53913e-05
9.82626e-05
9.99993e-05
0.00169736
8.10786e-05
8.87648e-05
7.99115e-05
0.000124164
0.00765482
0.000155436
9.76905e-05
8.21727e-05
0.00160038
0.000102627
6.92159e-05
0.00293044
0.00912349
0.00244838
0.0017944
0.00201749
0.00250882
6.67819e-05
0.00657253
0.000118776
0.000381441
8.1407e-05
0.000307962
0.00241807
7.07512e-05
0.000108576
0.00326502
9.0947e-05
0.00250221
6.76649e-05
0.00022877
0.000309594
0.000511739
6.68381e-05
8.05308e-05
8.93983e-05
7.07821e-05
0.000100977
9.24597e-05
0.000988944
8.57754e-05
0.000111888
0.00010757
7.76001e-05
8.02162e-05
7.55048e-05
8.84386e-05
6.13672e-05
0.000107403
0.000161393
9.07855e-05
0.000391944
8.90959e-05
0.00470909
7.37864e-05
0.000184849
8.50256e-05
8.66045e-05
9.69741e-05
6.82045e-05
7.34473e-05
0.00011013
7.38975e-05
6.57265e-05
0.000224064
0.000225251
0.00218276
9.91059e-05
8.96268e-05
8.86054e-05
8.65569e-05
7.9976e-05
0.000103384
8.70244e-05
0.000104446
8.45314e-05
8.85191e-05
0.000568507
7.83606e-05
9.13818e-05
8.83545e-05
9.37731e-05
9.18359e-05
0.000103481
8.56734e-05
8.79753e-05
9.98818e-05
0.000273344
8.15118e-05
0.000668902
0.000130554
7.90055e-05
0.00014562
0.000206067
0.00011219
0.000103811
0.000101653
9.86304e-05
9.55409e-05
8.31852e-05
9.45201e-05
5.82726e-05
0.000111874
0.000102295
9.42815e-05
8.13266e-05
0.000246937
0.000104277
7.44787e-05
9.65929e-05
5.64365e-05
9.37017e-05
9.86881e-05
6.79253e-05
0.000210121
9.90823e-05
0.000113386
7.92495e-05
7.99118e-05
5.47768e-05
0.000738424
9.49075e-05
0.000265168
0.000931949
7.60925e-05
7.61699e-05
7.06822e-05
8.58427e-05
0.000693255
8.49989e-05
0.000105812
0.000105143
9.61468e-05
0.000869649
8.3412e-05
7.86568e-05
9.71722e-05
7.48759e-05
0.000121779
7.2787e-05
8.37373e-05
9.78815e-05
6.44743e-05
8.69902e-05
7.06638e-05
6.98329e-05
8.89487e-05
6.74467e-05
9.07117e-05
0.00014259
0.000110083
0.000115895
0.000661546
0.000541569
9.33179e-05
5.83123e-05
6.88274e-05
8.39714e-05
8.87384e-05
9.52011e-05
0.00010235
0.000118893
0.00011841
8.61882e-05
9.37843e-05
9.62783e-05
8.31534e-05
8.47865e-05
9.78454e-05
7.89379e-05
0.000101399
8.61814e-05
0.00112879
8.85846e-05
0.000144853
6.35681e-05
9.54269e-05
8.25313e-05
6.33491e-05
8.2044e-05
0.000769715
6.15678e-05
0.000101161
7.91578e-05
6.38893e-05
9.54434e-05
8.08441e-05
0.000201321
6.32493e-05
0.000224376
8.98793e-05
7.67172e-05
0.000165163
9.18651e-05
0.000665104
9.9772e-05
0.00010807
6.69763e-05
9.92517e-05
0.000122024
0.000113844
0.000117816
9.71576e-05
0.00011373
0.000100708
0.000101383
9.15347e-05
0.000138519
9.49416e-05
8.92693e-05
8.91743e-05
0.000101077
7.36589e-05
0.000110191
9.65205e-05
7.58619e-05
0.000103606
0.00011026
0.000102626
9.58147e-05
0.000107078
9.71533e-05
0.000114343
0.000106286
7.14715e-05
8.41182e-05
9.0539e-05
9.06613e-05
9.12994e-05
9.15999e-05
9.8847e-05
9.26659e-05
6.36935e-05
9.74981e-05
0.000111863
0.00012357
8.96143e-05
8.02324e-05
9.83435e-05
0.000407902
7.99711e-05
8.8181e-05
0.00267075
6.31542e-05
9.10972e-05
0.000107205
8.0749e-05
8.9014e-05
9.94972e-05
5.4978e-05
8.35444e-05
9.28142e-05
9.74086e-05
8.68266e-05
0.000114077
0.000108361
5.683e-05
0.000119575
0.000140789
5.46905e-05
8.18627e-05
0.000110193
6.0801e-05
8.91471e-05
0.000109041
0.000101754
9.29536e-05
7.58428e-05
8.25608e-05
6.63248e-05
9.88325e-05
0.00383836
6.34805e-05
0.000108003
9.31173e-05
5.75503e-05
9.59522e-05
9.68959e-05
0.000113061
8.74767e-05
8.88507e-05
9.04577e-05
0.000266023
6.1725e-05
9.54866e-05
8.92497e-05
9.04788e-05
9.42994e-05
0.000101133
0.000130002
8.04966e-05
8.27223e-05
8.34585e-05
8.80377e-05
0.000109328
8.50627e-05
0.000375412
8.1356e-05
9.53954e-05
0.000108898
0.000170677
0.000108043
8.97647e-05
0.000162976
7.77314e-05
9.80033e-05
0.000108457
8.13953e-05
0.000107799
8.85851e-05
0.000275165
0.000101659
0.000397818
9.73605e-05
8.39732e-05
0.00130498
9.46452e-05
8.97278e-05
9.53222e-05
0.000377461
9.85271e-05
9.08847e-05
0.00157832
7.67412e-05
9.01499e-05
0.000223539
0.000303427
8.18545e-05
0.00010939
0.000126313
0.000165562
0.000284221
0.00207041
0.000113962
0.000101203
6.41183e-05
0.000116593
7.83046e-05
5.7887e-05
0.000102421
8.74289e-05
9.87069e-05
5.54583e-05
9.45214e-05
9.46071e-05
9.19831e-05
0.000102223
8.86196e-05
0.000124199
5.64293e-05
0.00189073
0.000109772
7.25043e-05
5.78956e-05
0.00248337
8.30656e-05
9.1837e-05
0.011809
0.000136177
5.80109e-05
9.8527e-05
7.59415e-05
8.84172e-05
5.79609e-05
5.0092e-05
5.45155e-05
8.72219e-05
6.75873e-05
0.00279718
5.61239e-05
7.48065e-05
0.00043332
0.000101286
9.29436e-05
9.04471e-05
6.27979e-05
0.000101037
9.2999e-05
9.87606e-05
8.39036e-05
8.40373e-05
0.000113725
0.000112068
0.000107233
0.000129044
0.000118778
0.00010662
0.00458882
0.00010313
9.82947e-05
5.35994e-05
0.00042146
8.85777e-05
8.61367e-05
8.10757e-05
8.89463e-05
7.59102e-05
8.55354e-05
0.0033688
6.39872e-05
6.95472e-05
8.00575e-05
6.03321e-05
8.91801e-05
8.17704e-05
8.83738e-05
6.4806e-05
8.26115e-05
9.07633e-05
8.28834e-05
0.000774719
9.33875e-05
8.51319e-05
0.000138373
9.76079e-05
9.26589e-05
0.000534676
0.000109051
6.13233e-05
8.58565e-05
0.000203151
0.00398531
0.00817821
9.04797e-05
8.29233e-05
8.152e-05
0.000256512
8.29214e-05
0.000215591
9.92491e-05
0.000208926
8.67299e-05
8.53011e-05
6.63982e-05
0.00133154
9.96179e-05
0.000107733
0.0034648
0.000680835
8.94464e-05
9.09805e-05
9.26714e-05
0.000114092
0.000108419
7.37742e-05
8.40733e-05
9.66368e-05
7.62027e-05
6.66199e-05
9.83521e-05
0.00181241
0.00011218
7.82189e-05
9.10173e-05
0.000102689
8.26191e-05
8.52161e-05
8.92964e-05
9.62755e-05
9.57848e-05
9.81864e-05
6.79282e-05
0.000105602
9.70336e-05
0.000110901
5.96659e-05
8.83208e-05
0.000120921
0.000451338
6.18201e-05
0.000370849
0.000104902
0.00041831
5.9728e-05
7.95833e-05
0.000548175
5.69994e-05
9.14592e-05
0.00355197
8.03925e-05
0.000114174
6.19234e-05
8.30537e-05
9.44143e-05
9.31334e-05
5.8145e-05
9.81079e-05
8.3111e-05
8.38827e-05
6.76759e-05