/*--------------------------------*- C++ -*----------------------------------*\
| =========                 |                                                 |
| \\      /  F ield         | OpenFOAM: The Open Source CFD Toolbox           |
|  \\    /   O peration     | Version:  v2012                                 |
|   \\  /    A nd           | Website:  www.openfoam.com                      |
|    \\/     M anipulation  |                                                 |
\*---------------------------------------------------------------------------*/
FoamFile
{
    version     2.0;
    format      ascii;
    class       volScalarField;
    location    "2.5";
    object      p_rgh;
}
// * * * * * * * * * * * * * * * * * * * * * * * * * * * * * * * * * * * * * //

dimensions      [1 -1 -2 0 0 0 0];


internalField   nonuniform List<scalar> 
108993
(
-0.224546
-0.213864
-0.187316
-0.0104505
-0.0190967
-0.0247371
-0.26669
-0.0183882
-0.025271
-0.282648
-0.159132
-0.150884
-0.0136415
-0.196489
-0.14619
-0.596139
-0.335216
-0.181135
-0.0123556
-0.101922
-0.0401843
-0.0104164
-0.233834
-0.0981363
-0.0124182
-0.0275719
-0.00942989
-0.11651
-0.0789286
-0.0554216
-0.0144975
-0.188439
-0.00890515
-0.300988
-0.0044065
-0.0338146
-0.0112505
-0.0481454
2.1705
4.85073
-0.187138
-0.0507962
-0.189875
-0.0085744
-0.726199
4.78898
-0.00979719
-0.25306
-0.06621
-0.113292
-0.0118005
-0.670522
-0.214484
-0.012032
-0.197335
-0.129779
-0.00857066
-0.021818
-0.028849
-0.0216046
-0.0245074
-0.0180327
-0.0503065
-0.00338964
-0.0101786
-0.0461169
-0.0122869
-0.0210467
-0.205917
-0.621029
-0.0929697
-0.0181308
-0.0312939
-0.0196206
-0.0840469
-0.0218257
-0.00312594
-0.350495
-0.00838277
-0.0124452
-0.0808761
-0.215781
-0.0217071
-0.114831
-0.177431
-0.191791
-0.108226
-0.161806
-0.0190476
-0.0139235
-0.0158623
-0.0188166
-0.0163513
-0.0146572
-0.016771
-0.211594
-0.0177996
-0.0671678
-0.0157556
-0.0218113
-0.0176676
-0.0163492
-0.119028
-0.194517
-0.0541696
-0.016096
-0.0568523
-0.00144165
-0.0105623
3.26955
-0.642744
-0.0153111
-0.449581
-0.572792
-0.0517195
0.354378
-0.0222561
-0.120699
-0.730337
-0.0180668
-0.202707
-0.0150062
0.706903
-0.170485
-0.0422964
-0.562072
-0.199464
-0.1182
-0.0137055
-0.0101178
-0.225626
-0.0125189
-0.0401576
-0.717532
-0.0436642
-0.135072
-0.0160311
-0.0463195
-0.0536504
-0.198496
-0.158811
-0.0313515
-0.772111
-0.0143406
-0.0117325
-0.0363129
-0.0605449
2.69102
-0.168242
-0.0967269
-0.139736
-0.0214142
-0.313394
-0.209046
-0.0311059
-0.387144
-0.154099
-0.00159967
-0.000240203
-0.637899
-0.177941
0.00126788
-0.0188067
-0.0754046
-0.179844
-0.539054
-0.0206147
-0.00251734
-0.00286242
-0.0636057
-0.0157353
-0.11495
-0.678751
-0.0905319
-0.0466586
-0.0293221
-0.811973
-0.00240928
-0.0731633
-0.0266401
-0.311027
-0.0265622
-0.00440445
-0.161784
-0.200361
-0.0716776
-0.00484289
-0.170759
-0.171726
-0.164768
-0.105102
-0.00418594
-0.110107
-0.658285
-0.0518826
-0.208011
-0.190361
-0.0740022
-0.0477245
-0.157833
-0.0213421
-0.610954
-0.0548586
-0.000469152
-0.337973
0.146798
-0.0631055
1.87185
-0.0578536
-0.338431
-0.480094
-0.0596353
-0.933836
0.511832
2.49876
-0.0532808
-0.152509
-0.0624899
-0.00357987
-0.0146916
-0.0220722
-0.066867
-0.357779
-0.652704
-0.00881494
-0.00206838
-0.000533375
-0.0948739
-1.04223
-0.030196
5.6126
-0.0915625
-0.00225217
-0.160676
-0.026727
-0.0154761
-0.0132403
-0.0146152
-0.458701
-0.00122303
-0.0216583
-0.0652031
-0.0223869
-0.000958543
-0.00611733
-0.608895
0.763989
0.561446
-0.00225215
-0.0163492
-0.0265849
-0.0107759
-0.0369792
-0.0577019
-0.0035954
-0.000914274
-0.0035576
-0.17434
-0.016122
-0.0236499
-0.0780889
-0.0849978
-0.538929
-0.589173
-0.00553866
-0.0530276
-0.0805586
-0.0572519
-0.0236828
-0.0491703
-0.019294
-0.157065
1.83304
-0.297996
2.51854
-0.0659168
-0.0170748
0.795547
-0.16253
-0.0870374
-0.084845
5.17117
5.18608
-0.0229917
-0.019697
-0.382157
-0.0141066
-0.0796881
-0.212243
2.40978
-0.207186
-0.0612206
-0.0849185
-0.0638994
-0.0153983
-0.0850648
-0.0183994
-0.0704287
-0.507187
-0.0228921
0.426536
-0.0235643
-0.0569834
-0.022657
-0.0391228
-0.194467
-0.000106734
-0.109532
-0.19544
1.60446
-0.0228545
-0.0202071
-0.424364
-0.0403357
-0.192893
0.123931
-0.00312721
-0.389225
2.97791
-0.0470227
-0.190848
-0.0033661
-0.12412
-0.123133
-0.0760944
-1.84367
-1.23011
0.0317591
-0.0197428
-0.214741
-0.0263561
0.275117
-0.494609
-0.042576
1.63676
-0.0665275
-0.0386936
-0.0214932
-0.0560916
-0.017395
-0.0309731
0.408074
-0.0704238
-0.0664217
-0.147941
-0.167482
-0.113045
-0.036117
-0.0141595
-0.118045
-0.0588064
-0.0239298
5.22395
2.1957
-0.000432455
-0.0517515
-0.0700329
3.60349
-0.139195
-0.00172877
-0.350559
-0.0642834
-0.111914
-0.112535
-0.0784104
-0.116926
-0.102562
-0.022071
-0.153232
3.25571
-0.32916
-0.332772
-0.121682
-0.266223
-0.118569
-0.436753
-0.228086
-0.0596388
-0.0771161
-0.106274
-0.0805181
-0.125189
-0.0997274
-0.708855
-0.168073
-0.229137
-0.333826
-5.27232
-0.0757979
2.34194
-0.145435
-0.228832
-0.196553
-0.221236
2.02255
-0.084601
-0.564881
-0.0153344
-0.609161
-0.025387
-0.0978569
0.936525
1.10554
-0.0376861
-0.0137923
-0.229654
-0.229927
-0.0642404
-0.220893
0.377958
-0.186317
-0.165062
-2.15893
-0.0765077
-0.172369
-0.0304583
-0.4451
-0.609842
1.91012
-0.0245275
1.16474
-0.204406
-0.448333
-0.00186621
-0.0201834
-0.49104
-0.0501149
0.481577
-0.575683
-0.0194605
-0.839158
3.7739
-0.137126
-0.011001
-0.0521513
-0.282429
0.000431799
-0.0274081
-0.00407344
-0.037402
-0.16527
-0.0893232
-0.100359
-0.0135934
-0.560718
-0.380826
-0.301583
-0.68065
-0.0940427
-0.0134735
-0.213376
-0.0182286
-0.0972755
-0.293813
-0.00486396
-0.131101
-0.17114
-0.0114739
-0.115737
-0.0220615
0.798227
-0.205501
0.799169
0.0940748
-0.628025
-0.155123
-0.0584229
0.768611
-0.162908
-0.18485
-0.5534
-0.0247825
-0.024978
-0.332023
-0.000859702
-0.567805
-0.0390063
-0.441128
2.22651
-0.780767
-0.0509875
-0.0301041
-0.0346406
-0.0992326
-0.313148
-0.165938
-0.172812
-0.160849
-0.696456
-0.268748
-0.172122
-0.126386
-0.607308
-0.18384
-0.686579
-0.0525039
-0.322756
-0.0800613
-0.118981
-0.148342
-0.0124088
-0.0364735
-0.0497747
-0.13343
-0.708497
0.189176
-0.113836
-0.0426913
-7.67546
-0.114925
-0.627791
-0.316243
-0.0300776
-0.295816
-0.110406
-0.000804741
-0.0282419
-0.104079
-0.125092
-0.171797
-0.0104545
-0.0038254
-0.288471
-0.232105
-0.0667755
-1.05103
-0.206912
-0.105398
-1.0799
-0.227403
-0.0578192
-0.0375736
-0.980808
-0.214502
-0.0528844
-0.0556052
-0.340334
-0.174202
-0.391064
2.14411
-0.062302
2.2549
-0.0204205
-0.0518201
-0.123008
-0.0626101
-0.0411983
-1.003
-0.0772648
-0.020152
0.4812
-0.0530596
3.90961
-0.0597638
-0.166792
-0.0595376
-0.0178813
-0.198822
-1.29571
-0.119523
-0.288199
-0.0320143
-0.162315
-0.277271
-0.55276
0.708464
-0.15376
-0.0413705
-0.18676
-0.181625
-0.17145
-0.241676
7.402
-0.551411
0.336604
-0.289227
-0.138432
-0.545972
-0.86794
-0.405361
-0.322999
-0.143038
-0.105742
-0.0168142
-0.114307
-0.674073
4.85478
-0.543156
-0.201257
-0.00211161
-0.215676
-0.0714401
-0.129519
-0.113009
-0.270785
-0.0261304
-0.0303878
-0.0703989
-0.218177
-0.636082
-0.133262
-0.168695
-1.12518
-0.433196
-0.195385
-0.0796984
-0.746796
-0.0768533
-0.438441
-0.182796
-0.515343
-0.214609
-0.931263
-0.186859
-0.237445
-0.118782
-0.515892
-0.0730177
1.05294
-0.0189414
-0.674869
-0.0191561
-0.137536
2.57079
-0.165854
-0.026058
-0.0360288
0.471425
5.79568
-0.517113
-0.0281201
-0.105658
0.441972
-0.576442
-0.494343
-0.0255647
-0.0746172
-4.94444
-0.773014
-0.607886
-0.197861
-0.60436
-0.0827129
-0.385083
-0.0423312
-0.510003
-0.295092
-0.548726
-0.745631
-0.512876
-0.494612
-0.693054
1.91478
7.1559
-0.597345
-0.134295
-1.41866
7.17366
-0.605805
7.16806
7.16772
-0.0221529
-0.424419
-0.0596244
-0.0227615
-0.176417
-0.213811
-0.500556
1.6026
2.0854
-0.548462
-0.261701
-0.545774
7.16241
7.1495
-0.0172035
-0.484623
-0.549103
-0.015899
2.67718
-0.231382
-0.492778
-0.643793
-0.489449
2.43679
-0.509753
-0.698622
-0.544976
-0.541995
-1.12648
-0.00447825
-0.136609
-0.642826
-0.245002
-0.130508
-4.60115
-0.449791
1.52922
-0.452575
-8.05321
-0.489238
-0.0486821
-0.0051661
-0.00527799
-0.661089
-0.0273474
-0.724607
-0.200296
-0.039876
-0.00541034
-0.409956
2.13725
-3.19546
-0.0946593
-6.37155
-0.143743
-0.548886
-0.775354
-0.0224703
-0.580739
-0.129342
-0.531837
-0.481859
-0.601045
-0.207561
-0.570826
-0.434811
-0.599479
0.426447
-0.0239077
-0.635104
-0.541695
-0.604424
-0.575082
-0.245761
-0.0225173
-0.421671
-0.0025567
-0.151717
-0.226219
-0.175732
-0.619168
5.46663
1.74239
-0.405456
-0.365078
-0.478815
-0.495967
-0.434705
-0.643669
-0.154311
-0.0026065
-0.0031365
-0.389121
-0.00250722
-0.40975
-0.00337306
-0.523507
-0.726765
-0.0694537
-0.493444
-0.00294528
-0.39849
-0.264896
-0.643251
-0.143375
-0.195037
2.03335
-0.0108683
-0.0989102
-0.27558
-0.542322
-0.0364908
0.464248
0.263084
-0.250405
-0.292713
0.652273
0.753604
-0.328472
-0.120651
-0.605655
-0.298142
-0.290612
-0.325744
-0.099535
-0.394883
-0.020738
-0.0465291
-0.6431
-0.0197502
3.28624
-0.0452375
-0.122003
4.60357
-0.522121
-0.277373
-0.268767
-0.462225
-0.0555063
-0.388895
-0.56991
-0.0157878
-0.275952
-0.526697
-0.039847
-0.13689
-0.188815
-0.0838479
-0.082458
-0.252081
-0.174648
-0.0214985
-0.645426
-0.0951595
-0.775978
-0.187546
-0.177916
0.0504477
-0.188127
-0.0799162
-0.290471
-0.215964
-0.355236
2.21393
-0.463959
-0.192218
-0.63801
-0.368841
-0.199142
-0.278567
1.81794
-0.671425
-0.24981
-0.819664
-0.18959
-0.273625
-0.655717
6.16965
-0.278745
-0.137949
-0.330679
-0.356232
-0.348909
-0.194047
-0.71981
-0.26605
-0.17553
0.167059
-0.267259
1.50496
-0.292062
0.0247583
-0.286893
-0.347037
-0.236615
-0.812491
-0.295859
-0.193596
-0.236423
-0.236645
-0.732799
-0.300047
7.23352
-0.00701265
-0.00720571
-0.228784
-0.975511
-0.421557
-0.899543
-0.0166347
-0.100452
-0.632221
7.25062
-0.066603
-0.893216
-0.718859
-0.544522
-0.147721
-0.353231
7.1797
7.27489
-0.417629
-0.667355
-0.291527
-0.502336
-0.0206701
-0.58902
3.47118
-2.26496
-0.018587
-0.0189942
-0.795362
-0.607838
-0.436265
-0.00194731
-0.0234408
-0.655226
0.260868
-0.0175632
-0.870921
-0.35302
-0.0977587
-0.461952
-0.00878455
-0.102736
-0.447867
-0.72838
-0.10801
-0.243787
-0.0194697
-0.182153
-0.618631
-0.599593
-0.260241
-0.157837
-0.450368
-0.784565
-0.617223
-0.14696
-0.190951
-0.551195
-0.236197
-0.0858681
-0.000227333
-0.475812
-0.100261
-0.609384
-0.0198583
-0.0140668
0.447992
-0.0134376
-0.730816
-0.678467
-0.515256
-0.536812
-0.0328433
-0.087678
-0.107931
4.15226
-0.191258
-0.129972
-0.00161188
-0.407546
-0.57763
-0.0153442
-0.338689
-0.249399
-0.522911
0.397687
-0.0192203
-0.475906
0.40663
-0.016503
-0.188445
-0.760153
1.1381
-0.517375
-0.33484
-0.501218
-0.295278
-0.467565
2.90058
-0.554139
-1.20228
-1.0224
-0.400447
-0.748512
-0.235112
-0.322233
-1.0729
0.102246
-0.331719
-0.0169522
-0.0304077
-1.1826
-0.0175727
-0.0757947
-0.0108667
-1.21517
-0.222103
-0.172736
-0.201515
-0.0305164
-0.19124
-0.19351
-0.0877185
-0.618579
-0.189222
-0.235145
-0.267464
-0.0188249
3.52399
-0.0907011
-0.0699168
-0.0333066
-0.0520966
-0.0339229
2.76814
-0.643195
-0.153335
-0.213357
-0.0257311
-0.529568
-0.826502
-0.433756
-0.0945561
-0.213123
0.789766
-0.17317
-0.473554
-0.856989
-0.464993
-0.0246491
-0.230333
-0.223393
-0.085693
-0.340209
-0.362866
-0.18959
-0.0241441
-0.181493
-0.0398933
0.680528
-0.168917
-0.362924
-0.00117278
-0.168549
-0.385885
-0.727648
-0.224883
-0.266157
-0.166368
-0.0865226
-0.28717
-0.395956
-0.097405
-0.00926556
-0.0328794
1.96934
-0.265227
-0.418654
-0.0539336
-0.742419
-0.565005
-0.0183532
5.22578
-0.557163
-0.708563
-0.318736
4.36132
-0.509098
-0.734257
-0.398851
5.23011
-0.0376581
-0.0913045
-0.0927484
-0.603523
-0.686301
4.03526
-0.917096
-0.231257
-0.410269
-0.194822
-0.89924
-0.283121
-0.913794
-0.475091
-0.861933
-0.447718
-0.614983
-0.771765
-0.761785
-0.0708995
-0.0018021
-0.00248666
-0.091187
-0.00170992
-0.0192064
-0.35325
-1.86819
-0.0578
1.13726
-0.463872
-0.161335
-0.102446
-0.770853
-0.624328
-0.001713
-0.462357
-0.161042
-0.344195
-0.00225391
-0.456387
-0.169871
-0.638192
-0.0980251
0.576858
-0.00854343
-0.123774
-0.149913
-0.000450616
-0.00851691
-0.194767
6.95163
-0.711776
-0.0143437
-0.140238
-0.00261696
-0.239179
-0.208688
-0.00211013
-0.303967
-0.165416
-0.140711
-0.0192196
-0.176813
-0.17888
-0.0863049
-0.175299
-0.00529801
-0.0960062
-0.0787529
-0.316793
-0.208191
-0.584446
-0.55635
-0.48224
2.56615
-0.209448
-0.0220681
-0.485819
-0.07434
-0.207566
-0.19592
-0.122554
-0.210235
-0.169064
-0.74391
-0.249094
-0.309724
-0.126996
-0.121717
-0.183218
-0.232624
0.0958508
-1.57565
-0.0954222
-0.0592757
-0.0621775
-0.245692
-0.330387
-0.0560357
2.25947
-0.0343848
-0.0185849
-0.00578228
-0.0271966
-0.00166565
-0.205638
-0.535551
-0.134686
2.25557
-0.254713
-0.247865
-0.309554
-0.0899821
-0.366017
-0.50974
-0.0461254
-0.156391
-0.0507974
-0.0201541
-0.622852
-0.23142
-0.23124
-0.23018
-1.77423
-0.537287
-0.0147442
-1.1425
-0.0315563
-1.32067
-1.00133
-0.230037
-0.133443
-0.176908
-0.314083
-0.179963
-0.354315
-0.0233578
0.198163
-7.02621
-0.857147
-0.0716995
-0.013728
-0.840488
-0.0179277
-0.0180173
-0.0181782
-0.0350085
-0.0156006
-1.52516
-0.889581
1.1647
-0.122851
-0.751224
-0.0706911
-0.624379
0.461769
-0.220291
-0.00402427
-1.03686
-0.524149
-0.464025
-1.21337
-0.273328
-1.48348
-0.120129
-0.11863
-0.399679
-0.0289844
-0.270928
7.1995
-0.0772667
-0.25713
-0.0624089
-0.0857302
-0.104068
-0.0573025
-0.338251
-0.24245
0.438167
1.14983
-0.0520847
-0.36385
-0.267508
-0.298686
-0.0794931
-0.297892
-0.0303727
-0.405586
-0.0172335
0.296962
-0.563306
-0.0808154
1.70819
-0.0834615
-0.0021711
-0.0304444
-0.332092
-0.452858
-0.213196
-0.799232
-0.600623
0.0544155
-0.6397
-0.204974
-0.0522706
-0.62729
-0.125892
1.37482
1.44994
1.39238
0.465446
1.4307
-0.007448
1.44719
1.40129
-0.226543
-0.226106
-0.0240107
-0.618241
-0.135044
-0.0321353
-0.0637868
-0.226429
-0.0115942
-0.151431
-0.133293
-0.754999
-0.0270471
-0.12551
-0.0250236
-0.298803
-0.0248102
-0.00385423
-0.0882304
-0.420822
-1.89163
-0.00407073
-1.54656
-0.414552
-0.176463
-0.193599
-0.0622818
-0.761255
-0.153619
-0.161468
-0.363584
-0.0128187
-0.264772
-0.286515
0.000772567
-0.28352
-0.61159
-0.26999
-0.725985
-0.319976
-0.736338
-0.693531
-0.378395
-0.0605812
-0.047824
-0.10966
-0.389704
-0.0417732
-0.0138903
-0.404885
-0.0479656
-0.374569
-0.293131
0.108638
-0.350877
0.419734
1.83656
-0.039695
0.705656
-0.0138065
-0.0534384
-0.055302
-0.257944
-0.191057
2.26508
1.17011
-0.859261
-0.484215
0.730155
0.393609
-0.0655947
-0.218934
-0.0178594
-0.401159
-0.411093
-0.243295
-0.139011
-0.0145392
-0.0203078
-0.308524
-0.479214
-0.0516687
-0.317257
-0.334293
7.0057
5.82697
-0.476873
-0.0237177
0.354833
-0.0368551
-0.16924
-0.619468
-0.293686
-0.350103
-0.117187
-0.171582
-0.352226
-0.460156
-8.25182
-0.709872
-0.361446
0.301332
-0.688313
-0.165395
-0.719206
-0.477941
-0.142791
-0.251845
-0.376317
-0.480254
-0.600892
-0.0260994
-0.34616
-0.632134
0.455184
1.88143
-0.359316
-0.364677
1.8867
-0.233489
-0.0191736
1.99554
-0.234527
-0.0144059
-0.246946
-0.262577
3.50541
-0.0271692
-0.0994178
-1.75796
-0.247397
3.14657
-0.239429
2.57104
-0.243238
-0.354238
2.28474
-0.554166
-0.35218
5.06196
-0.380598
-0.275142
-0.660169
-0.0233593
-0.0107457
-0.110603
2.51498
-0.655108
-0.0814865
0.651323
-0.0617195
-0.945306
2.20412
-0.175876
-0.619406
4.94657
-0.0906691
-3.95049
-0.10811
-0.110196
-0.148317
-0.0231815
-0.0153067
-0.0101423
-0.0352837
-0.0102834
0.643599
-0.154251
0.46538
-0.454818
-0.0121731
-0.037526
-0.0231677
-0.0111283
-0.0126029
-0.0515561
-1.5993
-0.697023
-0.0262511
-0.0755601
-0.0693557
-0.669851
-0.236289
-0.115434
-0.450082
-0.0992831
-0.108455
-0.100046
-0.310053
6.64601
-0.35321
1.53563
-0.7662
-0.113662
-0.440219
-0.127631
-0.094069
-0.0736792
-0.0408564
2.23576
2.70718
-0.455527
-8.5359
-0.0569857
-0.0228503
1.45274
-0.0686372
-0.314208
-0.190654
-0.0722057
-0.295389
-0.057786
-0.282284
-0.0565803
-0.292547
-7.87749
-0.671543
-0.303392
0.442476
-0.720996
-0.0239665
-0.745897
-0.101031
-0.0818976
-0.0575263
-0.0876158
-0.0165575
-0.0725759
-0.241227
-0.0283593
-0.647731
-2.5182
0.104539
0.482323
-0.0126042
-0.0720111
4.08238
-0.12596
-0.0385255
0.728225
-0.0610216
-0.0748307
-0.405481
1.91373
3.59675
0.902204
-0.0713052
-1.13272
4.06563
-0.141064
-0.0364752
1.05625
-0.407229
-0.394584
1.13228
-0.233317
3.88847
-0.386262
-0.0221883
-0.38768
0.960109
-0.397573
-0.279903
-0.469622
-0.27866
-0.216898
1.22778
3.57081
3.88103
-0.0302727
-0.0195965
-1.71185
-0.0218218
-0.182751
0.141271
-0.00944638
-3.57585
-0.274491
-0.161297
-0.204104
-0.200422
-0.17573
-0.266936
0.529316
2.69362
0.502192
-0.110949
-0.0680636
-0.704204
-0.272488
-0.272149
-0.158652
-0.215893
-0.240103
-0.183198
-0.0552437
-0.213579
-0.400354
-0.203348
-0.168999
-0.512125
-0.555405
-0.266209
-0.832431
4.66459
-0.769568
-0.0249958
-0.60242
-0.161645
-0.174089
-0.106273
-0.135825
-0.0390852
-0.212659
1.06711
-0.68501
-0.518968
-2.41975
5.29315
-0.773793
-0.171883
-0.510758
0.130336
-0.417442
-9.60794
-0.00737842
-0.763079
-0.00661532
-0.0371036
-0.25933
-0.483045
-0.15655
-0.00861478
-0.033604
-0.0263409
-0.358408
-0.0171758
-0.509955
-0.00982289
-5.7724
0.0587987
-0.0543595
0.000471222
4.69272
-0.124423
1.62946
0.113519
-0.023202
0.0806984
-12.2409
-0.0476121
-0.242117
0.483313
-0.611441
-0.493881
-0.116097
-0.493137
-0.416023
2.17478
-0.502553
2.39334
1.2412
-0.50164
-0.224935
2.75709
0.30308
-0.753416
-9.35157
-0.252806
-0.648648
-0.599858
-0.267262
-7.87094
-0.753232
-0.545213
-0.104458
-0.230899
-0.648127
-0.193565
-0.0342074
-0.230591
-0.368683
-0.00460007
-0.164388
-0.259332
-0.101404
6.15264
-6.89448
-0.450946
-6.0173
-0.58673
-0.0222662
-0.595613
-0.229388
2.79668
-0.721627
-0.758045
0.929738
-1.34793
-8.97776
-0.650051
-0.367887
3.15757
-0.115441
-0.228924
-0.269797
-3.18345
-0.40134
-0.989606
-0.646027
-0.613477
-0.376556
7.00945
-0.379831
-0.451591
-0.214353
-0.0191455
-0.0228278
-0.377098
-0.118604
-0.399118
-0.556053
-0.464299
-4.11601
2.51131
-0.555861
-2.97633
-0.297023
1.44485
-0.417663
-1.20835
-0.386378
-0.605549
-0.165256
-0.271074
-0.0833282
-0.0217441
-0.0192642
-0.00126541
-0.799467
-0.655543
-0.316447
-11.4162
-0.440854
-0.67201
3.02286
6.5692
4.54561
-6.32532
-0.0352006
-0.340865
0.591504
-0.0483854
-0.166227
-0.122655
0.942863
-0.00418215
-0.1931
-0.185339
-0.267947
-0.0176239
-2.21334
-1.38267
-1.69614
-0.143862
-0.0241901
-3.18445
-0.561294
-0.00378319
-0.690388
-0.105551
-0.369531
-7.55627
-0.479674
-0.367344
-0.123351
-0.267343
-0.263315
-0.361584
-0.217624
-0.000429586
-0.0548137
0.605729
-0.297505
-0.206483
0.123252
-0.565249
2.02773
-0.300367
-0.240097
-0.0856339
-0.236894
-0.288945
-0.200178
0.47099
2.06328
-0.205961
-0.0220921
5.33859
-0.278583
-0.0123872
-0.268962
-0.285932
-0.8524
2.41476
6.73483
0.306384
0.224109
-0.013197
1.77331
-0.296996
0.409858
2.13152
-0.0401277
1.46024
-0.0422591
-0.0640229
2.36656
-0.0050215
-0.21862
2.32629
1.67172
2.32972
2.40106
-0.0990966
0.595277
0.739483
1.43365
-0.246529
-0.85645
2.18108
2.3031
1.87311
-3.82577
-0.253303
-0.26364
0.579511
-0.461308
1.99281
-0.0900789
0.403245
2.35375
-0.0238015
-0.0294061
2.02783
2.29066
0.605749
0.32088
0.71941
-0.708604
5.01857
-0.0132522
0.759953
-0.0138082
2.35689
-0.148907
0.501271
0.314421
-0.0977902
2.7263
-0.14
2.24739
2.32707
-0.0382199
-0.152233
1.885
-0.137051
-0.105762
-0.0216057
-0.0235444
2.0454
-0.0132121
2.3506
5.007
-0.0221534
-0.0233363
3.52811
-0.239628
-0.188993
0.87085
-0.189814
-0.188753
-0.0142454
-0.131608
-0.435419
-0.436124
3.5986
-0.135411
-0.0139354
2.32623
-0.0582142
-0.836769
-4.93607
-0.0233016
-0.00172142
-0.408831
-0.193972
0.823695
-0.0190425
-0.0596745
-0.0222017
-0.00277578
-0.013492
-2.95023
-2.88561
-0.428081
-0.103886
-0.759516
-0.263131
-0.643928
-0.0193814
0.589025
-0.0237218
-0.609787
1.5983
-0.1938
-0.0606516
-0.158726
-0.659493
2.29624
-0.0194696
0.757178
-0.561229
-0.0232953
-0.685469
-0.799833
-0.0660486
-0.334314
-0.0848875
2.27512
-0.0823023
-0.019149
-0.0240856
-0.187115
-0.0437061
1.93897
-0.612598
-0.0190567
-0.0191979
1.45243
-0.00203466
-0.534783
-0.353618
-0.00219145
5.90302
3.57492
-0.415396
-0.168532
-0.183906
-0.624495
2.85053
-0.143783
2.74872
-0.130228
3.10517
2.25752
-0.0738523
-8.31495
2.28617
6.07738
6.853
1.74821
-0.312423
-0.108148
-0.0178866
-0.977165
-0.671268
-0.829477
4.51044
-0.149951
-0.779047
-0.115069
-1.51063
2.43382
2.36152
-0.110979
-0.681539
-0.43256
-0.00247401
6.86002
-0.180956
-0.0450978
-0.0214794
2.51655
1.80802
1.63767
-0.043977
-0.0195129
-0.121545
5.05938
-0.303373
4.02483
-0.00221188
-0.00273208
7.1806
-0.594408
-0.0379922
-0.156237
5.44207
-0.180284
-0.186509
-0.293581
2.94182
-0.691454
0.276158
-0.0364615
5.76374
-8.06905
-0.613031
-0.0549053
-0.284822
-1.23322
-0.0357842
-0.467391
3.16815
-9.50103
-4.26959
-1.4018
-2.25227
-1.91402
-0.0323784
4.39556
2.35712
-0.0786237
-0.0342036
-0.283932
-0.913528
-0.0255742
1.95581
-3.08829
-0.0451817
-6.20217
-0.0322611
3.72279
0.659791
-0.749726
1.89993
1.77986
-0.0873696
-0.0339848
-0.159567
-0.21471
3.45041
-0.0256865
1.20959
-0.510275
-0.00661249
-0.00653108
-0.00609084
-0.165733
-0.190683
-0.0666718
-0.49072
-0.0749431
2.75854
-0.160219
-4.42751
-0.00689638
-0.560677
-0.18924
-0.473182
-0.483796
-0.00579746
-0.00606543
-0.126835
-0.317845
-0.436987
1.99851
2.19897
-7.10978
-0.524062
-0.33677
-0.354322
-0.0291615
-0.225765
-0.546002
-0.354639
-0.212143
-0.62357
-0.693073
2.18411
-0.350593
-0.319592
-0.182458
-0.457763
-0.820638
0.000952757
-0.282762
-0.254684
-0.760886
2.04513
-0.229518
-1.71005
-0.0853067
-0.436573
-0.64025
-0.452811
-0.0255433
-0.352859
-0.279334
-0.19742
-0.304587
-0.248531
-0.185819
0.477561
-0.137101
-0.169684
-0.177622
-0.306624
-0.431032
-0.110029
-0.626643
-0.14676
0.475401
-0.110425
-0.0174532
0.476569
-1.02237
-0.759344
-0.205338
-0.0235354
-0.0292472
7.18218
0.530125
-0.0281668
-0.951999
0.662492
-0.216401
-0.458688
-0.715134
-0.604671
0.322786
-0.100669
-0.23613
-0.295504
-0.165282
0.844404
-0.334013
0.000486348
-0.228135
-0.286393
-0.144785
-0.000887632
-0.0962718
-0.117966
-0.00195778
-0.535945
-0.19571
-0.00205229
-0.678669
-0.00130496
-0.517207
0.424058
-0.117295
-0.000660632
0.681636
0.573385
-0.193366
-0.237109
-9.0752e-05
-0.151129
-0.344687
-0.199746
-0.136776
-0.693817
-0.213315
-0.187419
-0.205975
-0.212719
-0.308205
-0.158324
-0.782995
-0.720762
2.47874
-0.707644
1.84629
-0.746713
-1.08029
-0.237108
-0.175766
2.23267
-0.23681
-0.244884
0.0106472
-0.23712
2.13447
-0.187977
-0.236596
-0.407791
-0.402141
0.65418
-0.353082
0.668921
-0.229104
-0.35402
0.574808
-0.172548
-1.31468
-0.160931
-0.551778
-0.343487
-0.652191
0.583501
-0.335816
0.749263
-0.64745
0.731605
-0.345356
-0.387382
-0.0483335
-0.78174
-0.477071
-0.523894
-0.279506
-0.195878
-0.334899
-0.278323
-0.499675
-0.784155
-0.0538822
-0.0490092
-0.240534
-0.573972
-0.509991
-0.0678897
-0.480245
-0.373781
-0.104629
-0.264601
-0.0740363
-0.410906
-0.304334
-0.297805
-0.189124
-0.0674673
-0.214901
-0.0754061
-0.0874031
-0.0941436
-0.41412
-0.189504
-0.06709
-0.718482
-0.190692
-0.949247
-5.97797
-0.0236592
-0.213662
-0.649365
-0.083386
-0.0530097
-0.129411
-0.0118961
-0.0792371
-0.693475
-0.815735
-0.51235
-0.133993
-0.433267
-0.0116172
-0.60158
-0.887436
-0.0129228
-0.0792423
-0.685526
-0.0125598
-0.0825486
-0.678295
-0.0595247
-0.606361
-0.578702
-0.129235
-0.0119829
-0.746523
-0.321809
7.18594
-0.240985
-0.0521347
-0.0124119
-0.0899963
-0.281637
-0.222473
-0.0496145
-0.0395463
-0.287508
2.14186
-0.124555
-0.0410633
-0.0430365
7.31685
-0.555463
-0.90537
7.3253
-0.540622
-0.240272
-0.474628
-0.347689
-0.00223076
-0.233367
-0.286146
-0.282257
-0.127948
-0.38987
7.31173
-0.152942
-0.137071
7.28867
-0.364304
7.29802
-0.152883
-0.478444
-0.160972
-0.206457
4.22288
-0.155739
4.34692
-0.278727
-0.175543
4.67869
-0.264053
-0.191963
-0.433271
4.67718
-0.248553
-0.764346
4.56628
-0.218824
-0.735123
4.52225
0.797576
-0.668965
-0.0605358
0.763671
-0.478434
0.776824
2.35554
-0.0148356
-0.193239
-0.563734
-0.258091
-0.567043
-0.598342
-0.194475
-0.170665
-0.0474647
-0.598204
-0.184203
-0.267868
-0.321571
-0.0343169
-0.542619
0.000224342
-0.57066
0.686142
-0.0419555
-0.636992
-0.589333
-1.15784
-0.186499
-0.292954
-7.77378
-0.0211519
-0.588716
-0.661762
-0.453619
-0.157651
-0.570091
-0.0343188
-0.0347846
-0.40041
-0.0333352
-2.62474
-0.52468
-0.526322
3.92741
-0.532452
-0.187804
-0.307453
-0.533745
-0.238209
-0.0863364
-0.208339
-0.641895
-0.30673
-0.631159
-0.252339
-0.59537
3.74617
-0.535306
-0.230951
-4.70849
-0.51836
-0.112494
-0.529056
-0.860903
-0.676162
-0.59041
-0.794512
-0.424726
-0.630135
-0.400185
-3.11777
-0.568848
-0.750244
-0.660903
-0.570654
-0.473703
-0.184048
-0.279943
-0.573908
-0.473729
-0.323191
-0.705821
6.20397
-0.445916
-0.122399
4.93022
-0.251492
-0.155929
-0.73889
-0.0762339
4.93152
-0.0934088
-0.509117
-3.42892
-7.60784
-0.0263083
-0.157208
-0.0334361
4.80053
-0.403489
-0.321806
-0.357079
4.68945
4.80334
-0.540567
-0.120539
-3.00717
-0.446976
-0.561362
-7.24526
-0.472708
-0.253148
-0.7528
-0.223421
-0.517824
-0.00205444
-0.207282
-0.115423
-0.148769
-0.21521
-0.104734
-0.231128
0.97538
-0.218225
-0.395388
-0.177427
-0.531797
-0.55052
-0.230611
-0.448329
-0.109365
-0.251984
-0.459152
-0.202549
-0.249273
-0.187287
-0.381298
-0.11031
-0.586199
-0.424147
2.14595
-0.105331
-0.660854
-0.463509
4.01013
-0.0232134
-0.265342
0.636785
-0.0231997
-0.207855
-2.97536
-0.118587
-0.414018
-0.0234679
-0.181497
-0.227938
-0.361536
-0.0232755
-0.18397
-0.296902
-0.0863258
-0.668255
-7.68962
-0.0232957
-0.738487
-0.0233528
-0.536032
-0.547997
-0.100881
-0.0124091
2.98904
-0.205621
-0.207458
-0.0256199
-0.274697
-0.203598
-0.026253
-0.0210324
4.60349
3.75821
-0.0189205
-0.551465
-0.0973648
-0.00161843
-0.204249
-0.351308
-0.0924736
-0.23965
-0.986097
-0.182273
-0.0890111
-0.380903
-0.204441
-0.50324
2.36712
-0.109883
-0.0291593
-0.207176
7.02961
-0.0850172
-0.146415
-0.108116
-0.106421
-0.108617
-0.0918793
-0.096362
-0.841348
-0.205437
-0.175353
-0.248929
-1.38923
1.34329
-0.055573
-0.452373
-0.495471
-0.0114442
-0.462729
-0.861352
-0.000889861
-0.744644
0.301966
-0.274125
-0.134562
-0.0363515
-0.569138
-0.462631
-0.234102
-0.233927
-0.145897
-0.17498
-0.235963
-0.409823
-0.754731
-0.375483
-0.573366
-0.0718767
-0.500849
0.471761
-0.235172
-0.275805
-0.0451421
1.61672
-4.76147
-0.0657619
-0.196383
0.00132933
-0.241783
-0.429319
4.14079
-0.210304
-0.335844
-0.546125
-0.56395
-0.017832
-0.180756
6.6963
-0.0622676
-0.0691373
-0.0218611
-0.0612206
-0.614582
-0.514872
-0.202426
-0.463603
-0.272002
-0.188287
-0.17261
-0.021855
2.82992
0.496595
-0.025229
-0.335879
-0.0221626
-0.02247
-0.0583842
3.04399
1.56937
4.88831
-0.238008
-0.0947564
-0.00295027
-0.0977822
-0.659426
-0.542758
-1.38612
-0.102662
-0.0223131
-0.200474
5.6497
4.84942
-0.655554
-0.0225618
-0.864201
-0.650031
-0.532716
-0.89449
-1.98494
-0.270828
2.4468
0.565402
-0.011929
-0.189476
-0.0124239
-0.226338
-0.065073
-0.246765
1.23928
3.45608
-0.542058
0.841849
-0.825392
-0.356846
-0.595881
-0.595562
-0.674072
-0.734439
-2.72077
-0.768916
-0.153261
-4.25508
-0.0042272
-0.703
-0.802451
-0.279303
-0.12698
4.28402
-0.221363
-0.00549767
-3.94746
7.00563
-0.02809
-0.181618
-0.0149124
-0.0350696
-0.312825
-0.00560074
-0.0623679
-0.586045
6.47555
-0.0681796
-0.384681
-0.407765
-1.2888
-0.551251
-0.212234
-0.00450569
-0.0424911
-0.75087
-0.0985004
-0.143237
-0.535779
-0.00458647
-0.20398
-0.0167056
-0.0932054
2.85656
-0.676704
-0.0895394
-0.0178347
-0.0848595
-0.197407
-0.196315
-0.654124
-0.0138912
-0.360335
-0.205191
-0.0800454
-0.31193
-0.0114827
-0.0967503
-0.0154262
-0.217445
-0.196497
-0.106791
-0.303914
-0.0789001
-0.101774
2.16152
-0.0999014
-1.24226
-0.304293
-0.01874
-0.0635146
-0.113608
-0.1265
-0.313559
-0.529454
-0.917383
2.20665
-0.672277
-0.222527
-0.659576
-0.592685
-0.662168
-1.0337
-0.616091
0.797389
-0.137496
-0.324568
-0.0405078
-0.145724
-0.014471
-0.0967772
-0.309586
-0.0574949
-0.0311561
6.7956
-0.0571825
-0.262845
-0.313734
-0.0328071
-0.22964
-0.0548555
-0.261957
4.31533
-0.427845
-0.0559624
-0.035655
-0.273434
-0.564255
-0.199843
-0.466948
-5.34143
-0.325969
-2.64125
-0.0281075
-0.0365685
-0.350622
-0.818662
-1.11587
-4.29361
1.91353
-0.153908
-0.502441
7.31077
1.74364
-3.30592
-0.176234
-0.0947639
-0.0598705
-0.0669325
-0.504431
2.16291
-0.562803
-0.416287
2.1023
2.09913
-0.283448
2.17905
-1.18949
-0.0637938
-0.0212572
-0.0361442
-1.26917
0.11933
0.461053
-0.0441872
-1.29674
2.73731
-0.499928
4.79813
0.224046
-0.779676
7.17161
-0.0509793
-0.994731
7.17603
-0.520581
-0.0576215
-0.204141
-0.392861
-0.0242827
-0.0204146
7.1776
-0.0111906
-0.0429084
-1.92428
-0.0881601
7.17937
-0.667067
-0.0647597
-0.440111
0.339988
0.325276
-0.613183
0.298124
-0.591346
0.219618
-0.272249
-0.0301622
0.263921
-0.887537
0.376707
0.380515
-0.509131
-0.398433
-0.791891
-0.511209
5.30361
-0.0290591
-0.222816
0.823522
-0.0669149
5.24471
-0.0723879
-0.0996921
-0.0407391
0.771157
-0.164596
-0.590462
-0.00667273
-0.114964
-0.367022
0.813429
0.795606
-0.596898
-0.0356691
-1.04645
5.21764
5.6167
-0.00958561
2.20152
-2.14918
-0.156055
5.16025
-0.247137
2.12222
-0.126434
-0.177088
-0.0837782
-0.0418135
-0.0336076
-0.0699128
-0.0228054
5.20935
-0.00686362
-0.279743
-0.042882
-0.0417862
-0.0366352
-0.0397198
-0.125712
-0.580801
-0.461545
-0.00572987
-0.0276187
2.75807
-0.102615
5.21523
-0.581468
-0.0252502
2.28036
-0.262934
-0.0278401
-0.150698
5.19527
-0.368479
-0.0329573
-0.583653
-0.214533
-0.170161
-0.0367501
-0.293417
-0.0710805
-0.0147915
-0.055007
-0.0172187
-0.0423766
-0.169504
-0.287567
0.680496
-0.0185515
-0.248313
-0.0489147
0.761508
-0.0516567
-0.490685
-0.235672
-0.790912
-0.1773
-0.17672
-0.172877
-0.0056086
-0.502527
-0.236823
-0.0402919
-0.0655511
-0.0144696
-0.0938407
3.36576
-0.0390084
-0.0263852
-0.0988834
-0.174417
-0.210582
-0.464457
-0.0675235
-0.0679382
-0.0709626
-0.390914
-0.107758
-0.22619
-0.0682076
-0.308922
-0.0511024
-0.0205548
-0.206726
-0.481537
-0.155409
-0.176753
-0.0192121
-0.193279
-0.134276
-0.194411
3.41221
-0.649467
-0.252187
-0.269377
-0.141255
-0.451459
-0.114267
-0.565076
-0.452285
-0.621566
-0.437977
-0.153052
-0.154915
-0.0316955
-0.0822436