/*--------------------------------*- C++ -*----------------------------------*\
| =========                 |                                                 |
| \\      /  F ield         | OpenFOAM: The Open Source CFD Toolbox           |
|  \\    /   O peration     | Version:  v2012                                 |
|   \\  /    A nd           | Website:  www.openfoam.com                      |
|    \\/     M anipulation  |                                                 |
\*---------------------------------------------------------------------------*/
FoamFile
{
    version     2.0;
    format      ascii;
    class       surfaceScalarField;
    location    "2.5";
    object      phi;
}
// * * * * * * * * * * * * * * * * * * * * * * * * * * * * * * * * * * * * * //

dimensions      [1 0 -1 0 0 0 0];
oriented        oriented;


internalField   nonuniform List<scalar> 
210647
(
0.000514544
-0.000459024
-0.000474424
0.000419061
0.000270223
-0.000101363
0.000626834
-0.000795403
0.000141454
-0.000206507
2.8238e-05
3.68621e-05
-0.000466585
0.000182198
0.000136604
0.000147748
-0.000100193
0.000267643
-7.97412e-05
-8.77616e-05
1.11247e-06
1.71662e-05
-9.69231e-07
-1.72766e-05
-0.000915745
3.25713e-05
0.000420737
0.00046273
5.50983e-07
-1.8129e-05
1.75448e-05
0.00021309
0.000353328
0.000258449
-0.000824887
-4.91443e-05
0.00039354
-0.000269919
-7.42383e-05
0.0001131
7.10266e-05
0.000122798
-0.000306765
8.06097e-05
0.000248603
-0.000114487
-0.000214581
-0.000225955
0.000234819
-0.000122781
0.000113892
-4.6388e-05
6.50782e-05
-5.34328e-05
3.48575e-05
-0.000201828
6.4426e-05
-0.000100839
0.000238321
0.000118673
-0.000266142
6.84512e-05
7.9126e-05
-0.000329552
0.000390702
3.10956e-05
-9.20401e-05
8.97272e-05
-0.000108059
0.000133347
-0.000114895
0.000441904
8.12374e-05
-0.000275352
-0.000247813
-0.000249071
-0.000378032
-0.000138543
0.000765856
8.18622e-06
9.56566e-05
-0.000103859
0.000221184
0.000720598
-0.000500773
-0.000441025
-0.000204445
4.44436e-05
0.000240273
-8.00035e-05
0.000265851
-0.000279366
-0.000254887
0.000268441
-0.000225965
0.000230584
-0.000136934
0.000132276
2.93188e-05
-0.000166262
0.000210816
-7.37471e-05
0.000305631
0.000416656
-0.000190849
-0.000531452
0.000824717
5.79358e-05
-0.000125914
-0.000756458
-0.000927744
0.000437482
-0.000125349
0.000615922
0.000123722
-2.19462e-06
-0.000118659
-2.87461e-06
-0.000522123
0.000360126
-0.000187315
0.000349281
-0.000108635
3.73642e-05
7.059e-05
8.77792e-07
-0.000152348
0.000457964
-0.000102008
-0.000732393
0.000805459
2.918e-05
-0.000475744
-0.00011924
0.0002919
0.00030307
-6.51924e-05
2.89774e-05
0.000278914
-0.000242744
0.000369006
-8.90481e-05
-1.46982e-05
-0.000265276
-6.0701e-05
0.000350225
-0.000289545
-0.0039379
0.0158982
-0.00786933
-0.00409147
0.00675174
-0.0131128
-0.0163831
0.0227455
0.000387235
0.000736815
-0.000873014
-0.000250449
-0.000124021
-0.000130709
-0.000140606
0.000395331
-4.77957e-05
2.23014e-05
2.564e-05
-0.00011209
-0.000311372
0.000423428
0.000625172
0.000179766
-0.000446863
-0.000357534
-0.00116765
0.000117865
-0.00458145
0.00563119
0.000216643
0.000147212
-0.000618423
0.000471532
0.000483681
-0.000500103
-0.000268446
0.000285207
-0.000305837
3.56524e-05
-0.000976615
0.00124706
-0.000341231
0.00044221
-0.00026195
0.000160943
0.00145679
0.000554949
0.00176723
-0.0037767
-0.000274127
-0.000232261
-0.000235906
0.000742584
-0.000167473
0.000267119
-0.000130004
3.03312e-05
7.2102e-05
9.23834e-05
8.15548e-05
-0.000245849
0.000253374
0.000131734
-5.92183e-06
-0.000379091
-0.000175657
0.000575468
-0.000134396
-0.000265432
-0.000118266
6.75724e-05
-5.27482e-05
0.000103402
0.000196221
6.59748e-05
-0.000269663
7.45183e-06
0.000189599
-0.000296392
-2.70424e-06
0.000109438
0.000227575
-0.000301692
-4.36911e-05
0.000117769
-1.48766e-05
5.45552e-05
-0.000411537
0.000371824
-3.49393e-05
0.000165338
-0.000311815
0.000181395
-0.000141834
-2.30919e-05
-3.42775e-05
0.000199273
6.85996e-05
0.000393746
-0.000177552
-0.000284823
-0.000464922
0.000627782
7.6755e-05
-0.000239381
-0.000214795
1.48692e-05
0.000199905
-0.000368192
0.000279422
7.548e-05
1.32447e-05
0.000215348
-0.000154851
-0.000213011
0.000152771
-0.00165409
0.000871912
0.00121941
-0.000436368
-1.00967e-05
-0.000317124
3.20892e-05
0.000295158
-0.000227748
4.61055e-05
0.00027573
-9.41195e-05
0.000238917
-0.000112667
9.88953e-05
-0.000225182
5.109e-05
-0.000221956
-5.69217e-05
-0.000192299
0.000595151
0.000298192
-0.000700881
0.000411851
-0.000273343
-0.000158998
2.0462e-05
-0.000145209
3.43438e-06
-0.000829121
0.000769747
-0.000108336
0.000168133
0.000493827
-0.000591774
0.000204679
-0.000106754
8.53836e-06
-0.000411828
8.8432e-06
0.000394409
-4.21727e-05
-0.000255571
6.12203e-06
0.000291632
0.00016661
-0.00019134
6.22729e-05
-3.74165e-05
0.000152381
0.000361774
-0.00028431
-0.000229862
1.29884e-05
-0.000159965
0.000147022
-0.000132886
7.78623e-05
-8.52372e-05
0.000140451
-1.09899e-05
3.98151e-05
-4.08974e-05
1.22113e-05
-0.000223064
-0.000145252
0.000397757
-2.93571e-05
4.24086e-06
-0.000154169
-7.31246e-06
0.000157336
-2.96315e-05
-1.82178e-05
0.000166027
-0.00011822
0.000276326
0.00023033
-0.000229573
-0.000277136
-0.000269929
9.502e-05
0.000192683
-1.78114e-05
0.000124185
0.000177487
6.1139e-05
-0.000362825
8.18604e-05
-3.23128e-05
-0.00031953
-6.16669e-05
8.10147e-05
-1.93699e-05
0.000286351
-0.000280581
-0.000147798
0.000141979
-9.57719e-05
-1.4817e-05
0.000147637
-3.68548e-05
0.000187595
8.99325e-05
-0.000153357
0.000127821
2.17194e-06
5.46543e-05
-0.000184645
-0.000187464
0.000178261
-6.17363e-05
7.09269e-05
4.44973e-05
0.000115568
-0.000165662
5.58069e-06
0.000159258
-0.000289841
-5.26295e-05
0.000183164
-2.03583e-05
-0.000244125
0.000930865
-0.000666422
0.000338858
-0.000235868
-0.000134466
3.15744e-05
5.91714e-07
0.000197209
-9.679e-06
-0.000187914
0.000123427
-0.000210542
9.53582e-05
-8.24858e-06
0.000368162
0.000263901
5.37341e-05
6.03509e-05
-0.000378006
-0.00118506
-0.00157333
0.000449488
0.00230889
0.000117289
0.000262081
-0.000287261
-9.21396e-05
-0.00416113
-0.00713978
-0.0111195
0.0224249
-0.000148785
0.000334615
-0.000403002
0.000217799
0.000186871
0.000276274
0.000376527
-0.000891616
0.00051562
0.000246831
0.000451652
-0.000354774
-0.000342185
0.000229116
-5.08767e-05
0.000118577
-0.00029682
0.00226643
-0.00168283
-0.00300628
0.00242356
0.000178489
-8.98504e-05
1.83527e-05
-0.000107024
0.000123118
0.000131853
-0.000203414
-5.1516e-05
0.000196431
0.00160027
-0.000744479
-0.00105132
0.000122144
0.000373668
-0.000318347
-0.000108972
2.68012e-05
-2.2478e-05
0.000104806
0.000266132
-0.000476153
7.08902e-05
0.000139112
-0.00225335
0.000287501
-0.00299138
0.0049574
0.0001092
2.73185e-05
7.67109e-07
-0.000137247
-3.21388e-05
-0.000196014
0.000228132
-0.000221926
-5.58548e-05
-2.19129e-05
0.00029996
0.000491077
0.00049737
-0.000683267
-0.000304764
0.000361465
4.05798e-06
-0.000308436
-5.70474e-05
-0.000353147
0.000326749
0.000292517
-0.00100398
-0.000350182
0.000544184
0.00080996
-7.29727e-05
-4.17647e-06
-7.1089e-05
0.000148377
-3.08015e-05
-0.00053952
-0.000433689
-0.000380312
-0.000127048
0.000468111
3.92249e-05
0.00186716
-0.00102473
-0.000892208
5.11116e-05
0.000428578
-0.000141393
4.43563e-05
-0.000331552
2.90348e-05
-0.000196592
-3.40493e-05
0.000201652
-3.32931e-05
-0.000589228
0.000269356
-0.000128012
-0.000210235
-4.72196e-05
0.000385459
-0.000232411
2.89843e-05
0.000222622
-1.92081e-05
-4.42216e-05
-1.53111e-05
9.15732e-05
-3.18952e-05
-0.000170197
-0.000140949
5.96779e-05
0.000251537
0.000137615
3.83979e-06
-0.000199945
5.84789e-05
0.000164169
8.71485e-05
0.00129347
-0.00154448
0.00105591
-0.000169664
-0.000508363
-0.000377903
0.000528504
0.000177201
0.000299439
-6.46735e-05
5.85449e-05
-0.00029334
0.00016123
-5.89651e-05
-0.000157129
5.48616e-05
-0.00810566
0.000331873
0.00777503
-0.000163707
0.000102804
0.0119058
-0.00298769
-0.00252127
-0.00639543
0.00552009
0.0042049
0.00218263
9.20196e-05
6.92594e-05
-0.000150031
-1.11652e-05
-3.84041e-05
-2.07682e-05
2.22831e-05
3.70907e-05
-0.0112802
-0.00531925
0.00375212
0.0128506
-0.000367684
0.000102656
-0.000117054
0.000382061
-0.000445579
0.000101562
-0.000132863
0.000477352
0.00011772
-0.000125949
0.000517501
-0.000509107
0.00122167
-0.00161857
-0.000476506
0.000873401
-0.000711054
-0.000651591
0.00103348
0.000329154
0.00208125
-0.000939138
0.000831967
-0.00197362
-0.0175344
0.011776
0.00114949
0.000593766
-0.00117921
-1.73736e-05
-4.26071e-05
-0.000201425
0.000261372
-1.50887e-05
0.000272661
-0.000249014
-8.55297e-06
7.70998e-05
-4.19063e-05
6.11452e-05
-9.62046e-05
-0.00020122
0.00153116
-0.000985816
-0.000342055
-5.72918e-05
7.19854e-05
-5.00718e-06
-9.73037e-06
0.000105447
-0.000117566
1.21797e-05
-3.97044e-05
0.000302946
4.79182e-05
-0.00037795
2.70985e-05
-0.000171945
0.000186958
-0.000367657
0.000352609
-0.00036123
0.000270843
0.000127621
-3.71671e-05
0.00219676
-0.000825416
-0.000931028
-0.000439598
-0.000199353
-0.000212816
0.000244805
0.000167394
4.53029e-05
9.44882e-05
0.000579574
-0.000719217
0.000547721
2.56388e-05
-0.000352475
-0.000220764
7.98407e-05
0.00048496
-0.00139897
0.000834897
-0.000132265
-1.37871e-05
2.85582e-05
0.000104163
0.00034389
-0.000213615
-0.000234417
0.000268359
-5.87757e-05
-0.000189811
-1.97875e-05
-4.42246e-06
6.56905e-05
-0.00030629
0.000245212
7.42108e-05
-0.000382477
9.48196e-05
0.000213433
0.00129562
-0.000497847
-0.000566983
-0.000230797
-2.92902e-05
3.98877e-05
-2.42766e-05
1.36841e-05
-0.000149946
0.000186246
-4.3926e-05
7.88207e-06
-5.43713e-05
-0.000203657
-0.000110504
0.00036854
5.89186e-05
-0.000648925
0.000850995
-0.000261001
-4.36676e-05
0.000210406
-2.6653e-05
-0.000139946
-0.00015037
-9.40873e-05
-1.96194e-05
0.000264214
-1.89418e-05
-1.50218e-05
4.68052e-06
-0.000155011
0.000263656
2.87149e-05
-0.000137301
0.000196079
0.000775372
-0.000887227
-8.42381e-05
0.000253805
-0.000185353
-9.40742e-05
2.56663e-05
-0.00251543
0.00174688
0.00130428
-0.000534835
-0.000223736
0.000281887
0.0001545
-0.000212657
0.000141992
0.000238616
-0.000320776
-5.97199e-05
4.84558e-05
0.000830388
0.000144102
-0.000310482
2.85452e-05
0.000137849
-9.80697e-06
-0.000384748
3.18991e-05
0.000362636
-9.49842e-06
1.16842e-05
3.77107e-05
-6.65396e-05
-5.0048e-05
0.000119942
-3.41425e-06
-0.00237203
-0.00159719
0.000957142
0.00301285
-4.74753e-07
-0.000105626
0.000106093
-0.000537303
-0.00108625
-3.74055e-05
0.000640916
0.000412844
0.000331795
-0.00138502
-0.00106278
-0.00328314
0.00434606
-4.65345e-05
4.94788e-05
-0.000324408
0.000321469
0.00812593
0.00690649
-0.0231128
0.00808277
0.000190911
0.000184843
-0.000397922
2.21677e-05
0.00216099
-0.00237961
0.00748349
-0.00727748
0.00101603
-0.00152072
0.000546729
-4.15153e-05
-0.00023242
-3.88903e-05
0.000271307
0.00254276
-0.00186201
-0.000600831
0.014515
-0.0353401
0.012147
0.00867854
-0.00040383
-0.00776102
0.00816814
0.000115709
-0.00011594
-5.40964e-05
5.43228e-05
-3.50306e-05
-5.89189e-06
0.000190216
-0.000149216
0.000341175
-4.8456e-05
-0.00033323
4.05169e-05
0.00143895
-0.000687233
-0.000273242
-0.000478485
4.99848e-05
0.000194846
-0.000492291
0.000247427
-0.000682145
0.00115233
-0.00065664
0.000186565
-0.00357675
0.0016575
-0.00720815
0.00912831
0.000983219
-0.000388392
-0.000571659
-2.29233e-05
0.00145087
-0.0006744
-0.000798654
2.25632e-05
0.00030886
5.39884e-05
-4.15768e-05
-0.000321207
7.7833e-05
-6.40962e-05
1.8779e-05
-3.24644e-05
0.000708316
0.000774683
-4.4049e-05
-9.13573e-05
0.000110721
-0.000354865
0.000335552
-0.00157032
0.00280937
-0.00359089
0.00235574
-0.000189972
6.98994e-05
8.24635e-05
3.76962e-05
-0.000232367
-0.00617638
0.00640927
-0.000352591
0.000142011
2.8409e-05
0.0001822
-5.43691e-05
-5.20414e-05
0.000103871
-0.000314699
0.000263091
0.000241905
-3.0282e-05
-0.00028785
7.62093e-05
4.55315e-05
-8.79152e-05
4.23722e-05
7.50872e-05
-0.000145748
-0.000722099
0.00079274
-6.44662e-05
0.000357963
-0.000255181
-3.83375e-05
0.000770032
0.000102102
-0.000341732
-0.000529857
0.000849274
0.000620817
-0.00158199
0.000111899
-6.43607e-05
4.79142e-05
1.6438e-05
0.000105114
-0.000135586
-0.000382314
0.000412796
-4.64447e-07
2.89098e-06
-2.44294e-06
0.00105228
0.00101866
0.00193294
-0.000202946
-0.000498827
-0.00123118
-0.000128197
7.62551e-05
0.000372552
-0.00032042
-0.000594161
0.0182185
-0.0251507
0.00752671
0.00339626
0.00135038
-0.00373976
-0.00100666
0.00146347
-0.000633747
0.00124106
-0.00207079
0.000191317
-0.000468719
0.000615866
-0.000338492
0.000139477
2.59496e-06
-0.000142086
0.000134673
-0.000191986
-0.000526482
0.000583765
-0.00038417
-0.000281865
0.000410474
0.000255549
-0.000301942
0.000450922
4.06225e-05
-0.000189599
-0.000200267
7.03913e-05
-0.00154757
0.00167743
0.00146578
0.00061851
0.00150898
-8.69882e-05
-0.00162227
-0.000201006
-7.0141e-06
-9.8677e-06
0.000218004
-0.000281938
0.000297406
0.000512938
-0.000528434
3.61245e-06
1.05657e-05
-1.05945e-05
-3.53619e-06
-0.000341346
0.000289975
0.000124194
-7.28022e-05
0.000234094
-0.000426252
0.000291821
-0.00056945
-5.23505e-05
0.00033095
-0.000231351
0.000225954
-3.70525e-05
4.26532e-05
0.000139606
7.82862e-05
-3.2441e-05
-0.000185459
0.000366809
-0.000148644
-0.000226154
8.15879e-06
-0.00028714
0.00021529
-0.000205628
0.000277509
0.000414143
-0.000178824
0.000501385
-0.000736416
4.05745e-06
-1.83371e-05
1.7939e-05
-0.000280344
2.81539e-05
0.000403308
-0.000151126
-7.60231e-06
-3.04651e-05
1.1852e-05
2.6194e-05
-0.000183168
-0.000293244
0.000232292
0.000244165
0.00649687
-0.00789045
-0.00532901
0.00672321
0.0126073
-0.00330782
-0.00693112
-0.00220115
-0.000362099
0.000184257
0.011563
-0.0113837
-0.000338362
-2.01484e-05
0.000112369
0.000246149
0.000221921
0.000126532
9.41675e-06
-0.000357901
0.0132295
-0.0145081
0.00278898
-0.00151023
-0.00035318
-6.42119e-05
0.000118314
0.000299222
-0.000235449
-0.000686897
0.000625062
0.000297487
-0.000263012
0.000766601
0.000317419
-0.00082076
-0.000907662
-0.000690531
0.00132059
0.000278008
-0.0015463
0.00249726
-0.0018582
-0.000118693
7.69885e-05
-4.43521e-05
8.61651e-05
-0.000241407
4.31602e-05
-0.000363603
0.000561826
-8.38545e-05
0.000204418
9.77631e-06
-0.000130078
-5.81346e-05
0.000139338
0.000131711
-0.000212932
-0.000462726
0.000420046
-0.000477731
0.000520644
0.000116577
0.000222659
-0.000412885
7.38648e-05
-0.000201439
0.00328909
-0.00312703
3.99052e-05
0.000117325
1.72105e-05
-0.000135556
1.17811e-06
-0.000177866
0.000120623
-8.74258e-05
0.000144672
0.000619582
0.000321839
-0.00140388
-0.000281419
-4.37906e-05
-6.15625e-06
0.000331376
5.54219e-05
-0.000156682
0.0004214
-0.000320015
-0.00023116
0.000192084
4.13783e-05
-2.28664e-06
0.000247061
-0.000126016
0.000426678
-0.000547753
6.80535e-05
5.82869e-05
-0.00039064
0.000264313
-0.000678625
0.000615873
6.3002e-05
1.30862e-05
-1.65091e-06
3.72452e-06
-1.51716e-05
-0.00105534
0.00346899
-0.003037
0.00062358
0.00752848
0.00025232
-0.000595681
-0.00718461
0.000456366
-0.000364861
-0.0001806
8.90805e-05
4.39834e-06
8.66141e-06
9.35614e-05
-0.000318745
0.000375607
-0.000150438
-5.02846e-06
0.000124058
-0.000111421
-7.35986e-06
6.91532e-05
5.1645e-06
-7.42984e-05
-0.000231609
-0.000245189
6.75016e-05
0.000409459
0.000113491
-2.9521e-05
-8.87904e-05
0.0135385
-0.0126316
-0.0102208
0.00931455
-3.51219e-05
7.71658e-05
7.07275e-05
-0.000112832
-0.000447548
9.90378e-06
0.000105798
0.000331803
-6.01339e-05
0.000162035
0.000156043
-0.000257682
0.000242828
-0.000185651
-4.38505e-05
-1.33547e-05
-0.000293566
-1.07641e-05
0.000331946
-2.70619e-05
0.00356402
0.00525079
-0.00346563
-0.00534854
0.0001006
-9.71266e-05
-0.000290078
-0.000238507
0.000350496
0.000178438
0.016614
-0.0032108
0.00412374
-0.0175249
9.5742e-05
-0.000206822
-0.000321903
0.000432972
5.88446e-05
0.000662127
-0.000317008
-0.000403682
0.000104986
-2.7437e-05
-2.17198e-05
3.84616e-05
0.000306409
-0.000323021
-0.000252421
3.58167e-05
0.000194997
0.000157922
3.77515e-05
-5.06816e-06
-0.000190597
0.010129
-0.0240272
0.00516949
0.00876623
8.35087e-05
-0.0019989
0.0189392
-0.0176564
-0.000340954
-0.00158953
-0.0102673
0.0121981
-0.000363154
0.000326633
-9.2545e-05
0.000129049
0.000200279
-0.000659074
0.000127895
0.00033108
0.00111329
-0.000369373
-0.000535537
-0.000208203
0.00163798
0.00793315
0.00241422
-0.0119847
-0.00122413
-0.00380864
0.000164
0.00486929
5.89009e-05
-5.01917e-05
0.000311869
-0.000320586
-0.00395594
-0.0110608
0.0150198
-1.41859e-05
0.00023577
-0.000221588
2.04258e-05
-1.83861e-05
-0.000289722
0.000287666
2.42303e-05
-0.000306682
9.01783e-05
0.000192231
-4.67809e-06
0.00045483
-8.93638e-05
-0.000360788
-5.02923e-05
-0.000347736
0.000249491
0.000148522
6.75387e-06
0.000355147
2.57874e-05
-0.000387706
-0.000181547
0.00131023
-0.00112823
0.000813997
0.000114313
-0.000564567
-0.0003636
-0.000159725
0.000440652
-0.000160092
-0.000120836
-2.40984e-05
-0.000109751
-5.09999e-05
0.000184931
-0.000138576
0.000107743
0.000205727
-0.000174785
-0.000272104
0.00017098
-2.91314e-05
0.000130294
-2.17698e-05
0.00020567
0.000104603
-0.000288529
1.28607e-06
3.92213e-05
-4.05294e-05
-0.000267003
-2.08491e-05
1.57829e-05
0.000317939
-0.000174105
0.000102659
-0.000246488
1.21816e-05
-6.49848e-06
-5.62701e-06
-0.000923434
0.000217924
0.000705778
-0.00106417
0.00159661
-0.00226725
0.00173549
0.000507103
-9.85751e-05
-0.00039705
-1.14356e-05
6.11578e-05
0.000314501
-2.46163e-05
-0.000351056
-0.000302812
-5.01167e-05
0.000137978
0.000214956
0.000334307
-0.00780081
-0.000669451
0.00813643
0.000198864
-2.82678e-05
-0.000170516
1.23637e-05
2.8902e-06
-1.52303e-05
-9.68431e-05
-0.000369553
0.000405784
6.09803e-05
0.00109613
-0.000142748
-0.000139253
0.000246575
-0.000202605
0.000127035
0.000150594
-5.60501e-05
-0.000382528
0.00028803
7.67335e-05
0.000483058
-0.000704875
0.000145305
0.000954098
-0.000705926
-0.000519419
0.000271571
-0.000285178
-0.000116787
0.000361058
4.09594e-05
-0.000142788
-8.78595e-05
0.000560442
-0.000329809
-5.81605e-05
0.000187924
-0.000129663
0.0215453
-0.00564033
-0.0166108
0.000317686
0.000251458
8.90932e-05
-7.10377e-05
-0.000269315
-0.000178998
0.000156227
-0.000125847
0.000148903
1.65733e-06
0.000279216
-1.45315e-05
-0.000266302
0.00196512
-0.00750628
0.0158112
-0.0102695
0.00017969
-0.00066658
-0.00119271
0.00168005
0.0140784
-0.000903771
-0.0132756
9.956e-05
-7.9029e-05
0.000331606
-0.000107243
-0.000145114
4.5831e-05
-0.00041179
0.000643241
-0.000277272
-0.0035366
0.00821742
0.00292354
-0.00760411
-0.000434306
0.000219536
0.000220982
-6.14339e-06
-0.00136819
0.00471072
0.00139221
-0.00473465
-0.0111436
0.0072671
0.000339995
0.00021149
-8.5392e-05
-0.00138898
0.0012632
-0.000369363
-0.000400317
0.00131204
-0.000542211
-0.000111908
-0.000191205
0.000186202
0.00011702
-1.41698e-05
-4.16236e-05
-1.27349e-05
6.86861e-05
0.000311302
-0.000186907
0.000113195
-0.000237405
-0.0121952
0.0132468
-0.0104121
0.0102614
-0.000276349
-3.90728e-05
-0.000180442
0.000496033
0.0032877
0.0027635
0.0104454
-0.0164944
-0.00521651
0.00874291
-0.00352608
5.01394e-05
-1.94657e-05
-4.46598e-05
-0.00696523
-0.00552314
0.0072721
2.65838e-06
-0.000139009
8.36618e-05
5.28101e-05
-0.00489543
-0.000481416
0.00537727
-0.00175373
0.000728868
0.000667746
0.000357607
-0.0197967
0.0177127
-0.0162269
0.0182018
3.39688e-05
-3.51074e-05
-0.000296919
0.00029803
2.0008e-05
0.000249835
6.51978e-05
-0.000334619
0.000366105
-0.000608024
0.000454992
-0.0012573
-0.000516594
2.06665e-05
-0.00512181
0.0190659
-0.00495004
-0.00899388
0.00429795
-0.00179232
-0.0136199
0.0111145
2.6908e-05
-8.18422e-05
-0.000189369
0.000244287
-0.000905454
0.000949168
0.000703179
-0.000746799
6.03105e-05
-9.97911e-06
0.000109017
-4.43192e-05
4.59469e-05
-0.000110292
-7.97721e-05
-6.87466e-05
-4.74848e-05
0.000196004
-0.000451903
0.00011111
6.05624e-05
0.000280336
-0.00389858
-0.00983703
0.0137783
4.61537e-05
-1.28656e-05
-3.31622e-05
-0.000449429
-0.00018823
7.30123e-06
0.000630599
0.0102666
-0.0031315
-0.00124076
-0.00416072
-3.15241e-05
0.000219482
1.92981e-05
-0.000207251
0.000129557
1.49933e-05
-2.41603e-05
-0.000120241
-0.00046705
0.000323549
0.000363327
-0.00021985
0.0122588
-0.0297328
0.0253758
-0.00789372
6.64466e-05
0.00129167
-0.000958867
-0.000398856
-0.000611436
0.00024395
-0.00313431
0.00350198
-5.21771e-05
-4.31353e-05
9.52731e-05
-0.00570692
-0.0200934
0.022013
0.000214295
0.000406482
3.73782e-05
-0.00065785
-0.00813336
0.0108218
0.00611016
-0.00880467
5.26862e-05
-9.25915e-06
-4.3378e-05
-5.03865e-05
9.31802e-05
-0.000101552
5.87005e-05
0.00482048
-0.00521783
-0.00633443
0.00673243
-2.46102e-05
-0.000281536
0.000247135
5.89867e-05
-0.00248244
0.00239097
-0.00238198
0.00247372
0.0178437
-0.000383019
-0.0114869
-0.00601979
-1.11092e-05
6.05406e-06
-2.56472e-06
-0.00359486
-0.00618037
-0.0102339
0.0131264
0.00764795
-0.0173643
-0.00341034
0.0231292
-0.0245384
-0.00222693
-0.000407842
2.23838e-05
0.00046436
-7.89179e-05
6.44943e-05
7.12424e-05
0.000174697
-0.000310435
-0.000340178
-2.48961e-05
0.000366402
-1.04587e-06
-0.000681308
3.99272e-05
0.000327052
0.000314353
0.000110145
0.000165058
-0.000612445
0.000337393
-0.000321157
-2.28365e-05
0.00034413
0.000152619
-4.30608e-05
-0.000261318
0.000151749
-0.000111535
8.04221e-05
-0.000108735
0.000139956
-0.000283343
4.55768e-06
0.000402506
-0.000123696
-0.000401003
-3.86588e-05
0.000506212
-6.64918e-05
-2.59741e-05
0.000111449
-3.39324e-05
-5.15021e-05
0.000126139
0.000893253
0.00053565
-0.00155428
0.0009263
-0.00066313
0.000784741
-0.0010474
0.000333568
-0.000706038
-0.000333659
0.000706396
0.00104147
0.00185498
-0.000699036
-0.000237934
-0.000238275
0.000192897
8.1565e-05
-1.11264e-05
-9.6362e-05
-0.000121409
3.98045e-05
5.2107e-05
2.96617e-05
-0.000117608
0.00015995
5.50835e-07
-4.29394e-05
0.000122707
1.43482e-05
-0.000374941
-0.000815155
8.82718e-05
0.000176832
0.000550449
-0.000340188
0.000292147
-0.000272941
0.00023929
-1.94079e-05
1.67098e-05
-0.000236516
8.67261e-05
-0.000200265
9.40024e-05
1.96625e-05
-0.000159596
6.94352e-05
0.000171494
-8.12344e-05
-4.08646e-06
-0.000131411
0.000351983
-0.000216378
-0.000185565
-5.38139e-06
0.000162354
2.85729e-05
0.000388522
-0.000535712
0.00125426
-0.00110702
-0.000283213
4.925e-05
-0.000204908
0.000438985
0.00271412
-0.0008317
-0.00149385
0.00828129
0.00299408
-0.0070307
-0.0042435
0.000132086
-0.000473857
0.0011254
-0.000783154
-0.000155352
0.000280548
1.19907e-05
-0.000137145
-0.000186859
-9.1685e-05
0.000278653
-0.00158078
0.00189439
0.00240061
-1.32493e-05
2.15073e-05
-0.000163573
2.30668e-05
-4.76942e-05
0.000239525
-0.000214822
-0.000357625
-3.57597e-06
0.000361324
-0.000251752
1.33587e-06
3.91386e-05
0.000211227
0.000161363
-0.000190948
-0.00038971
0.000419274
0.000126541
1.67252e-05
-7.67693e-05
-6.61934e-05
0.000116517
0.000254537
-0.000370993
0.000119313
-0.00014129
2.22544e-05
0.000240202
-5.7033e-05
-1.09947e-05
-0.000172182
-0.00135811
0.00107589
-0.000881201
0.00116431
-0.0010424
-0.00134581
0.00238897
-0.000956084
0.00101972
-0.000663733
0.000601112
0.000245755
0.000183991
-0.000322231
-0.000107526
0.000276975
-0.00049808
8.65973e-05
0.000134484
-2.41364e-05
0.000359381
-0.00052347
0.000188206
-7.7003e-05
-0.000449494
0.000314358
0.000212186
-8.91161e-05
0.000210532
-0.000121354
7.88604e-06
0.00027256
-0.000268001
-1.23774e-05
-1.82198e-05
-0.000310349
0.000295312
3.33244e-05
-0.000168416
0.000178474
4.77051e-06
-1.47814e-05
-0.0013901
0.00119638
0.000734742
-0.00054069
0.000550905
-0.000663463
-0.000416788
0.000529581
0.000171589
-0.000135604
-7.95208e-05
9.73964e-05
0.000303344
0.000112422
-0.000513091
-8.86521e-06
0.000268592
-0.000259418
4.53739e-05
-0.000157792
-4.42851e-05
0.000156768
-0.000110093
-1.42533e-05
0.000732001
-0.000606591
-3.86421e-06
0.000110521
1.70581e-05
-6.74429e-05
0.000289561
-0.000311127
-3.98946e-05
-1.02325e-06
-0.000293593
0.000334542
-0.000166594
-0.000149979
0.000342191
-2.55894e-05
0.000517514
-0.000492953
0.000535362
-0.000559676
7.93421e-05
-0.000181971
0.000102615
-0.0003835
4.03341e-05
0.000314214
2.89391e-05
0.000176589
7.13097e-05
-2.41642e-05
-0.000223737
-0.000271379
-8.87629e-05
0.000289156
7.10562e-05
2.33008e-05
0.000696413
-0.000222899
-0.000495954
0.00167299
0.00517576
-0.00490274
-0.00194453
-2.23253e-05
0.000329485
4.5765e-05
-0.000352878
-4.23719e-05
-5.47259e-05
0.000281634
-0.000184543
-0.00800571
-0.00805081
0.00927587
0.00637891
-0.000351862
0.000116803
0.000205979
0.000279088
2.55619e-05
-0.000623375
0.000319067
-0.000875008
0.000309856
-8.93705e-05
0.000654816
9.44183e-06
-1.6265e-06
-0.000301265
0.000293429
-2.24221e-05
-0.000125838
0.000288885
-0.000140287
0.00033994
3.41997e-05
-0.000225425
-0.000148666
5.99496e-05
0.00041138
-0.00177307
0.00130174
7.73287e-05
-8.04145e-05
-7.22465e-05
7.54296e-05
1.55736e-05
0.00035291
-0.000250134
-0.000118308
-0.00045415
-0.000484068
3.24998e-05
0.000906114
-0.00032288
-0.000360786
-5.3018e-05
0.000737308
0.000884427
-0.000721818
-0.000524654
0.000362061
0.000432901
0.00132132
-0.000869787
-0.000706791
0.000171336
-0.000282854
0.000818686
5.19645e-05
0.000152424
0.000273069
-0.000476974
0.000397301
-0.000788582
-0.000365363
0.000756927
-0.00416155
-0.000198578
0.000785486
0.00357521
-0.000134632
9.6284e-05
3.87249e-05
0.000405947
-0.000220401
-8.26023e-05
-0.000102888
-0.000348527
-0.00210761
-0.00170473
-0.000438341
0.000338582
0.000152317
0.000238186
-0.000419141
-7.3849e-05
0.000254911
-6.3293e-05
0.000143618
0.000162475
-0.00266138
0.000480255
0.00198302
0.000143326
-0.000118717
9.06373e-05
-0.000115111
0.000268578
-4.86642e-05
-0.000219922
0.000145215
0.000185324
-0.000430298
9.97616e-05
-0.000150361
-0.000301959
0.000422668
3.06456e-05
7.80642e-05
2.46525e-05
5.59608e-05
-0.000158515
-1.44488e-05
0.000222636
0.00065833
-0.000866111
0.0016545
0.0018548
-0.00350873
0.000163748
-0.000179038
1.5285e-05
-0.00466029
-0.0010381
0.00569945
2.63177e-05
3.21269e-05
-5.84926e-05
-8.49826e-05
-0.000220615
-2.97274e-05
0.000335298
0.000275778
8.83397e-05
-4.83048e-05
-0.000315703
-0.000286891
0.000236223
0.000112932
-6.22591e-05
1.32449e-05
-0.000167477
7.47244e-05
7.94921e-05
-0.00144633
-0.00156309
-0.00031005
0.000177294
0.000178346
-4.55603e-05
8.33665e-05
-0.000152023
3.24312e-06
6.5399e-05
0.00325937
0.000797918
-0.00349812
-0.000558959
0.000249014
7.11959e-05
-8.71901e-05
-0.000232903
0.00117558
-0.00493072
0.00375616
-0.000285662
0.000413574
-0.000209447
8.15167e-05
0.000119929
-8.70098e-06
-0.000222596
-1.71109e-05
0.000180851
8.05072e-05
-7.069e-05
-9.84908e-06
-0.000680174
-0.000643297
0.00112131
0.000202653
-0.00748873
0.00843612
-0.00542518
0.00426454
0.00035725
0.000544112
-0.000333484
-0.00056772
-0.000276437
0.000504821
-0.000207283
-2.08914e-05
0.000255488
-5.60559e-05
-0.000152742
-4.67077e-05
-0.000187338
0.000195279
-0.000216931
-0.000771829
-4.61145e-05
0.00103534
-6.36274e-05
-0.000106352
-1.48032e-05
0.000184964
0.00847511
0.00149454
-0.00323247
-0.0067365
0.000149779
-0.000288677
0.000190084
-5.10657e-05
0.000189709
6.54003e-05
1.18238e-05
-0.00026694
0.000804653
-0.00133535
-0.000220872
0.000752319
0.000673697
6.77648e-05
-4.16939e-06
-0.000265982
-4.15319e-05
0.000368661
-6.10209e-05
-0.000313617
-0.000166565
0.000616232
-0.000135905
-0.00440353
0.00123728
0.00532549
-0.00218057
-0.000185367
9.31962e-05
2.87582e-05
-0.00691015
-0.00292753
0.00107979
0.00875862
-0.000305622
0.000596798
0.00011678
-0.000407572
-0.000310933
-6.21923e-05
0.000379831
-6.56345e-06
-0.000117635
1.14761e-05
-0.00130907
-0.00989605
-0.00704489
0.0179325
0.00108769
-0.0019298
0.00205659
-0.00121408
0.00037243
7.53849e-05
8.05996e-05
-0.000528112
7.48518e-05
-0.000268678
0.000259504
-6.56124e-05
0.000218017
-5.07615e-05
-0.000374594
0.000207399
0.000826725
-7.36622e-05
-0.000208762
-0.000544349
0.000237862
0.000199858
-4.27141e-05
-0.00039495
0.000302478
-0.000284321
0.000425464
-0.000442823
3.18439e-05
0.00693049
-0.00696225
-2.5468e-05
-0.000115061
-4.46138e-05
1.83585e-05
-7.43287e-05
0.000108931
-5.27275e-05
4.4154e-05
1.29741e-05
-5.70861e-05
-0.000804865
-0.000278246
0.000650608
0.000433104
2.76085e-05
-0.000157082
1.63455e-05
0.000113129
-0.00020282
-0.000415137
0.000164038
0.000113389
7.16632e-05
0.000225115
-0.000410117
0.0036927
0.0089778
0.000287121
8.51542e-05
-0.000573518
0.000201227
-0.000236495
4.84441e-05
-0.00059003
0.000778051
-0.000103918
9.05088e-06
0.000122476
0.000996175
-0.000447449
-0.000440834
-0.000107434
0.00045062
0.000330385
0.000565589
-0.00134628
0.000123017
-0.000371311
3.7311e-06
0.00024464
-0.000201823
-0.000237631
0.000336243
0.000103387
-0.0229874
0.00149742
0.021799
-0.000100983
-1.06461e-05
-0.000143847
0.000255786
-6.81881e-05
6.12604e-05
5.99679e-05
-5.29327e-05
0.000111747
-4.00312e-06
-9.59263e-05
-1.18132e-05
-0.0132254
-0.0127296
0.000105496
6.25563e-06
6.73921e-05
-0.000242747
0.000372904
-0.000197176
-0.000270861
0.000231336
5.52766e-05
-1.56131e-05
0.000887885
-0.00499769
0.00541275
-0.00130152
-2.38627e-05
-0.000268706
-3.08034e-05
0.000323531
-0.00563809
0.00129567
0.0028509
0.0014922
-0.000189767
-2.70397e-05
-2.12464e-05
0.000238164
0.000981364
-3.21824e-05
1.33959e-06
-0.000949866
-0.00026523
-5.81712e-05
7.81933e-05
0.000245257
-9.13868e-05
-0.000134661
0.000277025
-5.06977e-05
1.579e-06
-0.00157951
-0.00765615
0.00972089
-0.000484449
4.95565e-05
0.000189082
-8.6209e-05
-0.000152449
-0.00109417
0.00123415
-0.00110754
0.000971416
-0.000148552
-8.51799e-05
0.000283262
2.95155e-05
-0.000339773
-0.000135718
0.000446057
-0.0117153
0.0107879
-0.00550964
0.00643882
0.000300958
0.000362792
-0.00112248
0.000459176
0.000315863
-0.000342309
0.000126605
-0.000100204
0.000161284
-0.000104415
-0.000491716
0.000434826
-0.000256676
-0.000144272
-1.63471e-06
0.000403008
0.00389936
-0.00551392
-0.00150978
0.0031263
5.28119e-05
-0.000225697
0.000294865
-0.000121711
-0.0188232
0.0117865
0.00868736
-0.00164986
-0.000355786
-0.000275229
-6.94051e-05
0.000700642
-0.00146492
0.000269256
0.000205401
0.000990792
-0.000340514
-0.00180216
-0.00368957
0.00583313
-0.000242955
0.000257396
-0.000123201
0.000108967
-4.33499e-06
-2.13038e-05
-6.658e-05
9.23145e-05
-0.000153696
-1.8472e-05
-0.0369021
0.0467452
-0.00674504
-0.0025795
-0.00138352
-0.000602239
0.000899527
0.00108727
-0.00129409
0.000294654
-0.000212513
0.001213
-0.000150362
3.76222e-05
-1.70541e-06