/*--------------------------------*- C++ -*----------------------------------*\
| =========                 |                                                 |
| \\      /  F ield         | OpenFOAM: The Open Source CFD Toolbox           |
|  \\    /   O peration     | Version:  v2012                                 |
|   \\  /    A nd           | Website:  www.openfoam.com                      |
|    \\/     M anipulation  |                                                 |
\*---------------------------------------------------------------------------*/
FoamFile
{
    version     2.0;
    format      ascii;
    class       volScalarField;
    location    "2.5";
    object      Qdot;
}
// * * * * * * * * * * * * * * * * * * * * * * * * * * * * * * * * * * * * * //

dimensions      [1 -1 -3 0 0 0 0];


internalField   nonuniform List<scalar> 
108993
(
4.94805e-65
1.05401e-41
1.67297e-48
0
1.70647e-149
0
0
0
3.70755e-114
8.17735e-74
0
5.8363e-96
0
0
0
3.90576e-17
4.79777e-69
1.55583e-114
1.04856e-148
6.31003e-71
6.3031e-154
1.62869e-131
1.4095e-80
0
6.7022e-158
3.02777e-107
0
0
3.75389e-84
0
4.94018e-124
0
0
1.14747e-49
0
0
7.96798e-133
0
0.0856936
4.53298e-05
0
6.47472e-110
0
1.13901e-158
2.08698e-25
0
0
0
0
3.4773e-74
0
5.57214e-13
0
0
5.91966e-103
5.07923e-91
6.29765e-137
9.14172e-136
1.84675e-127
0
6.61751e-126
0
9.30156e-110
9.74871e-145
8.89727e-148
2.41315e-86
0
6.03004e-138
0
8.54784e-24
2.31663e-118
4.99378e-144
1.47814e-139
5.09616e-142
1.39528e-79
0
0
1.09785e-52
7.21836e-143
9.68656e-155
0
0
0
1.05559e-109
0
0
0
0
1.53737e-142
3.44091e-151
1.61085e-140
1.03533e-124
0
0
0
0
0
5.19038e-107
0
1.10074e-132
2.13085e-135
6.42711e-130
2.07482e-110
0
0
0
7.84491e-105
0
0
1.40195e-10
0
4.6761e-139
0
1.05846e-23
0
4.23321e-23
7.93528e-145
4.31718e-77
3.87327e-15
0
4.41239e-95
1.79335e-119
2.89707e-18
8.84047e-62
1.6437e-142
2.09814e-30
1.06283e-59
1.97334e-76
1.32029e-120
9.92553e-125
1.05187e-74
1.18436e-123
0
3.06942e-08
5.89271e-121
0
1.18912e-118
6.64514e-116
7.30758e-110
2.43987e-95
3.5805e-62
2.84276e-120
2.14353e-23
6.35872e-121
8.57181e-123
5.19845e-138
1.15651e-112
0
2.45972e-60
6.61029e-07
0
0
6.2822e-50
0.010637
0
6.05843e-36
0
2.09413e-137
8.08644e-133
7.13681e-11
0.00603738
5.20246e-136
1.33123e-124
0
0
2.26326e-19
4.30688e-148
0
1.90279e-143
3.4245e-111
0
2.0989e-98
1.29756e-17
5.23568e-109
0
4.17076e-96
5.03824e-05
5.75649e-146
1.14964e-93
0
0
2.55471e-125
1.73736e-136
2.16565e-67
3.97285e-89
0
6.06385e-140
0
0
1.05104e-64
0
9.89116e-136
0
1.38151e-06
0
1.6287e-47
6.28875e-62
0
6.0587e-118
1.11843e-65
1.28962e-145
1.08427e-10
5.17089e-145
1.18132e-135
0
5.56011e-13
0
2.19081e-13
5.93398e-99
0
1.09683e-20
0
0.000105887
8.24778e-19
0
0
6.25062e-98
0
1.01115e-135
2.09811e-120
3.70742e-93
1.87677e-05
5.45466e-31
8.97241e-10
0
4.53956e-146
1.99071e-137
1.47832e-72
0
4.63342e-104
0.0121777
2.69676e-109
1.913e-144
0
0
0
2.90496e-126
1.96398e-124
0
0
5.32623e-129
6.77058e-90
0
6.17033e-139
4.09692e-130
5.16171e-17
9.48725e-21
4.60387e-18
2.41993e-133
0
0
0
0
2.05281e-115
1.31705e-135
7.49132e-135
3.5519e-135
2.72977e-72
3.71174e-117
7.75987e-141
6.18122e-78
0
9.4472e-33
2.14405e-28
0
2.72348e-79
1.5857e-78
7.07786e-95
5.52411e-138
7.87698e-103
1.67311e-159
1.38531e-54
4.52005e-30
8145.43
1.45437e-24
2.45974e-99
1.38805e-131
1.64952e-14
0
2.91484e-65
3.6558e-65
1.76059e-17
9.9058e-16
0
7.68363e-115
0
1.73837e-149
2.19649e-69
3.38075e-61
1.56933e-27
1.38581e-94
2.59983e-89
2.43755e-67
1.16023e-85
0
1.57407e-76
4.7536e-120
1.97276e-81
0
7.48278e-156
1.26543e-16
0
0
1.2976e-158
3.11064e-108
8.63937e-104
1.58419e-133
1.12433e-75
3.4684e-101
0
0
9.62817e-124
7.22557e-46
5.59022e-132
1.49134e-98
5.79561e-09
0
7.6251e-47
8.8989e-13
2.24486e-104
2.88273e-46
8.2944e-147
8.27069e-100
1.56633e-102
0
331.856
6479.79
7.27646e-06
0
2.01044e-44
2.08582e-94
7.40639e-08
0.157126
5.31237e-100
0
0
4.05013e-123
0
4.14286e-105
1.02418e-118
0
0
4.01571e-73
0
7.50389e-97
2.75674e-109
1.79642e-67
0
0
1.70716e-65
1.4967e-97
0
0
7.9628e-42
0
0
0
1.547e-17
3.60894e-103
1.93817e-147
1.33581e-43
1.36997e-74
5.12611e-68
1.00398e-66
1.66377e-84
2.87496e-66
9.22295e-70
9.48554e-118
0
306078
6.84289e-29
3.44347e-51
1.58077e-64
18.7091
4.8801e-65
5.91638
0
0
0.000109677
0
0.00220118
0.000360932
1.70046e-71
5.35799e-12
6.13378e-105
1.58081e-96
1.81565e-57
44216.8
1.08415e-72
6.94034e-21
0.00623966
2.54472e-99
0.0101205
3.48922e-88
2.91387e-36
2.70307e-65
11605.1
2.16467e-145
2.66723e-28
3.12495e-115
2.78453e-63
0
6.52541e-16
1.16737e-120
5.64714e-100
0
4.16848e-92
6.48098e-115
1.69948e-43
216546
0
2.12992e-76
565706
9.06939e-115
2.60691e-91
4.73e-111
30.5646
1.40621e-31
8.51884e-44
4.42727e-145
560825
1.25765e-42
183.729
1.40708e-152
5.83224e-145
40.3069
1.71372e-133
0
632.461
2.34385e-161
2229.11
2.18529e-05
17950.5
3.77556e-128
1.21713e-116
1.23751e-74
1.65106e-116
7.68811e-95
1.39663e-136
8.57928e-109
4.25152e-102
1.9662e-77
3.4283e-74
2.48482e-142
6.6969e-18
2.34052e-21
3.90059e-28
3.30645e-19
0
8.78031e-146
0
4.9844e-145
2.22772e-73
0
4.55345e-134
7.83831e-114
1.0423e-99
0
1.47838e-89
0
0
4.45802e-46
1.23374e-22
0
5.34685e-29
3.77676e-55
0
0
8.58007e-54
1.21228e-51
0
0
3.88491e-115
9.06993e-42
3.82753e-133
0
0
0
1.39189e-41
1.88111e-13
0
7.94779e-108
1.09946e-105
2.72241e-71
1.91203e-34
1.25848e-57
1.31441e-51
1.79723e-56
1.07759e-20
0
8.41793e-103
7.44873e-72
0
8.7824e-52
1.32388e-21
0
1.4925e-33
6.88617e-88
4.55635e-65
0
1.41702e-132
0
0
5.55343e-60
1.14344e-30
9.91442e-17
3.80428e-68
0
77872.8
3.74233e-65
1.22553e-19
7.87392e-27
2.27211e-107
2.63499e-59
6.11826e-68
4.42526e-134
1.24638e-114
5.48673e-69
2.23465e-74
3.24978e-83
1.0587e-90
1.14532e-91
6.83262e-32
0
1.29732e-80
6.59536e-05
4.11963e-94
9.37085e-76
0.00102708
0
1.55779e-116
2.06267e-134
6.56386e-07
0
0
0
0
0
5.40418e-46
1.33648e-40
2.10469e-109
3.073e-32
6.28367e-157
0
0
8.87145e-95
8.79989e-114
1.12713e-06
3.9238e-103
6.66461e-134
9.32899e-16
0
8.78646e-12
0
7.26429e-104
0
0
1.21176e-51
0
0
7.2434e-47
0
0
8.13045e-38
1.21099e-40
3.87442e-06
0
7.53123e-104
1.47647e-56
0
5.06087e-58
2.85514e-34
1.65529e+06
1.98863e-37
0
1.45185e-41
0
1.44712e-41
1404.73
3.71234e-18
6.58992e-48
0
4.19809e-68
0
0
9.27144e-28
5.98345e-14
1.70382e-35
6.35909e-91
3.98625e-145
2.90829e-54
3.39028e-130
2.64177e-72
4.94266e-67
5537.73
6.99187e-107
3.92007e-111
0
0
4.30296e-29
4.22413e-62
1.23913e-80
0
1.2326e-46
0
0
0
1.38078e-131
5.12178e-37
8.20595e-63
0.0347677
0
0
1.24698e-58
1.27218e-45
0
3.36041e-27
8.36104e-134
1.9095e-17
0
1.12965e-13
3.44436e-132
1.00621e-70
0
0
1.0886e-117
1.30173e-101
3.52232e-27
2.1606e-09
1.08311e-29
0.00738034
3.0111e-61
1.15152e-24
3.77264e-08
2.13216e-30
1.8271e-122
5.07838e-128
55575.3
4.58427e-15
2.79311e-25
0
1.76056e-23
0
5.63445e-26
7.77889e-107
1.08217e-28
9.0533e-58
1.00456e-26
4.88771e-28
4.59678e-29
9.22616e-31
2.14081e-18
9.93528e-34
5.20856e-20
0
8.4337e-73
3.02956
1.99238e-19
6.46696e-21
5.57954e-17
0
1.11596e-118
0
6.42977e-88
6.42101e-115
2.9642e-62
0
1.13735e-38
5.76283e-30
1.43782e-35
2.12705e-35
0
5.41059e-21
1.30892e-18
1.5063e-18
6.96792e-132
1.98141e-16
2.16271e-50
6.11421e-125
1.18807e-17
4.50572e-40
1.49039e-25
9.39732e-22
1.1733e-32
2.54877e-24
1.01263e-33
6.92531e-06
0
0
2211.6
0
0
2.40962e-28
2.95429e-91
7.68685e-98
90799.5
3.90755e-66
0
0
248482
6.25063e-29
2.98318e-98
6.13014e-137
0
6.62605e-27
5.60631e-145
8.45949e-32
7.11575e-71
2.97044e-109
0
0
2.66481e-27
56750.1
1.30299e-78
93548.5
1.26358e-60
0
0
0
1.40397e-31
0
4.55251e-24
8.56914e-18
3.06471e-18
0
4.56956e-25
3.73076e-20
0
6.31144e-27
0
3.92479e-23
3.42029e-23
2.89089e-16
7.33232e-21
1.31985e-67
4.84278e-155
2.50984e-35
1.96511e-147
2.42339e-57
0
0
2.14043e-19
0.173441
1.42e-08
1.01504e-34
4.48736e-28
1.02211e-27
7.59504e-28
4.42389e-33
2.66552e-17
3.2394e-84
0
6.98786e-146
0
2.37601e-150
3.02626e-21
7.9634e-144
1.47352e-23
3.25381e-21
0
1.21095e-26
1.77334e-143
0
0
9.22611e-29
0
0
6.50584e-35
8.11492e-160
9.44484e-72
7.59698e-47
3.87526e-09
0
2.42226e-14
0
0
2.01135e-45
47712.9
3.71476e-11
1.69606e-56
1.37854e-68
0.000130075
5.19778e-44
8.34074e-46
2.05352e-34
8.88776e-77
5.35506e-21
0
1.47615e-105
0
3.85508e-132
3.33602e-14
1.53324e-110
7.86518e-82
2.22563e-07
1.73954e-32
1.0086
3.45316e-64
0.0223851
4.89315e-109
0
2.2183e-32
8.1866e-140
1.04989e-52
1.53481e-35
7.8054e-102
7.17942e-86
0
5.51204e-82
1.77029e-81
3.02265e-43
0
0
0
3.28597e-87
0
3.21728e-103
6.28475e-91
57.8684
0
253.165
5.21828e-73
5.22806e-89
3.14817e-51
1.08052e+06
5.54717e-16
6.59484e-104
8.03004e-25
6.10539e-42
6.48008e-57
3.16883e-66
1.411e-16
0
1.02572e-41
7.86852e-17
0
2.98758e-37
1.06825e-24
0.0115339
2.05358e-36
0
1.07537e-41
1.42147e-33
4.34733e-34
2.38826e-99
1.22943e-16
0
0
5626.88
0
38239.5
1.37267e-39
838.971
0
1.45463e-26
1.92501e-104
1.43669e-10
0
1.91212e-92
0
5.8968e-108
2.39401e-12
1.83348e-41
1.77241e-13
0
6.69333e-119
1.69502e-64
0
1.0843e-43
0
2.34946e-146
0
3.5041e-18
2.2279e-13
6.00749e-105
0
1.91499e-28
2.43715e-17
0
0
6.58839e-14
1.53488e-09
9.79691e-33
1.40967e-21
3.00702e-57
0.41429
3.10289e-139
0.193865
8.86348e-16
10254
0
0
5.19333e-13
1.9276e-30
1.9018e-39
9.30626e-113
4.26663e-152
0
2.78414e-18
0
3.35967e-05
1.84618e-23
0
0.0954917
5.02467e-123
9.64774e-109
123.909
25648.2
2.00167e-75
2.20618e-47
2.8835e-177
1.10866e-110
7.57978e-25
2.31144e-11
14.7565
1.15491e-66
3.38347
1.0626e-12
5.80402e-27
0
0
1.88438e-27
5.04052e-99
1.59339e-97
6.47293e-141
1.96395e-30
3.36913e-65
3.20961e-13
0
0
8.42706e-30
4.43827e-120
9.73778e-24
4.35434e-30
3.61463e-31
1.71815e-34
1.14389e-106
0.000156854
2.97586e-107
537.7
0
1.70537e-58
4.15673e-133
3.75385e-48
1.32745e-14
2.47226e-117
1.6245e-71
1.0634
5.22593e-27
0
8.48614e-117
6.4377e-39
0
0
0
3.34741e-16
0.0114258
7.40538e-36
1.3419e-74
2.15347e-35
7.43524e-47
4.50531e-50
4.81194e-18
0
4.5738e-05
1.16849e-05
1.80529e-50
2.77566e-20
7.86862e-48
3.57646e-36
0
1.74132e-09
0
0
1.0172e-130
0.0172085
0
0
9.34998e-134
0.00374384
0
5.55902e-51
7.09015e-58
3.76932e-127
1.89103e-62
0
9.56923e-87
2.04272e-15
0
4.31412e-64
0
0
0
0
0
8.90637e-130
0
2.40181e-126
170.269
1.35335e-22
2.04229e-89
1.03836e-55
0
4.5899e-43
7.52028e-18
3.55295e-32
0
0
3.04774e-29
3.76337e-105
1.20189e-14
1.33699e-09
0
4.39023e-137
0
0
0
0
1.11922e-28
5.21403e-119
1.64063e-141
6.50936e-56
0
2.14761e-09
9.11446e-57
3.80709e-30
1.53928e-133
0
2.36518e-33
3.2683e-13
0
0
3.63966e-57
1.79579e-86
6.60709e-44
0
1.88652e-99
0
3.23515e-106
8406.71
6.75436e-66
2.54273e-20
1.98555e-114
2.08895e-15
1.1132e-20
2.48957e-120
3.2815e-21
3.89846e-46
4.23028e-29
2.3738e-33
0.108689
5.84159e-42
0
1.21529e-22
0
0
7.85426e-118
6.02279e-109
6.57231e-25
2.05348e-14
348660
0
0
8.42352e-34
3.77628e-68
2.26909e-08
1.32508e-38
6.85564e-10
2.08077e-42
4.8693e-11
2.7596e-36
0
1.08151e-12
5.02892e-16
8.88466e-87
0
1.41543e-143
7.88811e-75
0
1.586e-147
2.2244e-37
616.788
0
27791.9
2.45076e-29
4.02326e-69
0
5.60686e-18
1.20554e-11
0
8.5241e-29
9.78775e-55
0
2.05566e-144
6.7888e-36
0
1.85155e-15
0
0
2.69646e-145
2.90545e-67
5.51777e-57
1.15853e-131
0
0
1.69217e+06
1.77766e-32
6.48902e-149
0
0
9.69583e-72
1.01595e-89
1.65859e-145
7.38536e-50
0
2.46656e-61
0
5.44388e-60
3.5145e-60
0
0
0
7.28109e-76
0
0
0
3.96936e-15
1.34746e-29
1.33202e-41
5.08304e-17
1.07796e-52
8.52271e-153
0
0
1.52214e-105
3.76079e-51
0
6.31484e-46
3.29909e-70
5.60926e-12
3.26693e-70
2.77197e-40
0
5.83724e-103
4.10956e-53
0
775.744
8840.44
0
0
3.58005e-87
0
3.31624e-41
3.55495e-103
6.2282e-53
1.07521e-119
0
0
1.09903e-112
1.82402e-154
4.38582e-120
1.9097e-27
5.13338e-71
4.99167e-50
1.10336e-38
1.66409e-36
3.42137e-30
6.3887e-07
1.41728e-23
6.54448e-24
0
2.26642e-50
1.2465e-08
2.19432e-158
4.84958e-24
1.08917e-95
1.73002e-98
2.90221e-98
5559.61
7.6528e-14
9.71071e-140
0.0386541
1.63313e-117
0.0860942
9.9782e-05
2.7525e-94
3.69606e-72
1.63614e-54
6.57776e-42
0
4.55787e-40
0
0
33343.6
1.43138e-10
4.60717e-89
6.36092e-155
5.17818e-11
0
0
0
1.68577e-128
6.03831e-138
1468.86
0
1.58906e-19
0
1.11699e-29
0
0
1.76727e-35
5.4038e-71
1.53681e-122
0.00193922
1.31546e-25
0
0.000151171
0
0.0370931
1.17301e-63
0
1.10717e-46
6.72815e-116
9.25474e-55
1.97545e+06
1.1656e-95
3.74443e-54
4.54557e-103
0.00487686
6.49775e-79
3.99462e-91
0
2.64396e-40
0
0
1.29734e-95
3.33975e-33
1.14012e-46
0
0
4.31196e-48
5.8792e-122
0
0
1.16311e-19
1.38194e-30
1.91005e-117
1.69353e-19
2.42792e-106
9.43585e-119
0
0
0
0
3.94776e-19
2.36847e-38
6798.63
3.99818e-21
1.49649e-90
0
9.80278e-20
2.32224e-69
6.88349e-31
0
4.8088e-32
2.19986e-39
0
9.50326e-132
0
6.54148e-30
0
0
0
3.54373e-39
8.21585e-67
1.07666e-105
1.30248e-96
9.25152e-89
0
1.19328e-54
7.63837e-58
2.26968e-16
4.77896e-116
1.68017e-63
1.7395e-90
2.20806e-37
0
1.64599e-91
1.21141e-75
0
34.8248
9.95929e-93
2.11167
7.51421e-27
4.49757e-76
1.40839e-82
1.94179e-94
0
2.52299e-100
1.12289e-50
4.5782e-38
0
3.39413e-40
6.65919e-39
1.05253e-115
3.17938e-39
7.17037
6.1588e-41
2.3817e-35
0
1.25709e-18
4.92738e-25
0
0
3.99296e-123
0
1.07826e-33
0
2.29972e-127
2.4818e-33
0
0
1.13369e-41
1.5133e-08
0
0
7.78745e-19
1.12467e-112
2.57624e-19
8.32513e-127
0
0
9.50028e-74
1.29001e-105
5.93898e-31
0
7.64586e-09
2.31188e-26
375.934
7.98945e-26
1.25037e-107
1.17113e-67
1.02104e-166
2.0676e-32
6.55784e-32
1.29807e-50
0.00188477
5.27252e-129
0
4.63286e-44
2.69969e-34
8.57551e-121
2.8548e-34
3.0787e-32
0.0454473
0.00259244
0
4.25695e-119
1.39295e-23
0
1.08063e-49
8.25851e-16
8.06789e-36
6.04794e-40
1.42597e-91
5.20221e-50
0
6.25485e-36
32302.2
2.72811e-27
1.4939e-52
8.53019e-20
1.20528e-07
0
3.09109e-25
0
2.09477e-54
1.79319e-40
1.27446e-49
1.05467e-21
4.23633e-38
6.2905e-136
4.29178e-54
8.01601e-27
0
2.40203e-24
0
1.03701e-51
3.41556e-11
0
3.63927e-120
6.14665e-18
0
3.6634e-130
0
7.51584e-55
1.17392e-11
7.13176e-118
4.70429e-103
34.6208
0
1.85881e-20
0
2.81175e-17
0
7.03586e-62
8.24549e-32
1.95142e-32
0
4.91535e-15
0
4.2032e-45
4.9229e-21
1.11331e-136
2.35665e-126
2.59943e-108
4.4285e-14
2.73272e-24
5.31487e-74
4.42021e-24
2.18935e-99
0
7.51991e-11
0.132477
6.98399e-21
0
0
59779.1
2.29903e-72
2.3992e-81
0
0
1.83811e-127
8.11274e-130
7.15493e-106
1.772e-148
4.04194e-22
1.53973e-16
3.03157e-34
0
0
7.25463e-92
4.96194e-120
0
0
7.45421e-112
215.979
9.44354e-11
0
6.11468e-81
1.29447e-72
0
1.84832e-38
1.8692e-72
3.9196e-41
3.33232e-73
2.22281e-80
0
3.07623e-40
1.11064e-05
0
2.48382e-18
0
3.34557e-78
0
7.38125e-16
1.0621e-91
2.10401e-93
1.03567e-103
0
4.63555e-17
0
173211
2.31426e-107
6.36032e-141
839859
0
4.11609e-42
9.11293e-63
9.32074e-95
1.22769e-32
1.35635e-103
4.65937e-43
0
1.52898e-41
183213
1.46717e-08
1.67822e-44
0
5.01692e-18
3.80965e-139
1.8465e-09
0
3.03562e-104
1.29607e-101
2.0996e-82
3.07876e-121
1.22934e-84
5.17289e-51
0
0
179.305
0
1.36711e-08
3.43025e-136
1.71339e-86
0.00301896
2.9339e-18
9.7765e-100
4.07798e-20
0
4.4188e-98
1.68889e-46
2.34472e-31
6.64168e-06
0
0
716.557
0.00380736
0.337319
0
0
5.18436e-49
0
5.69797e-05
0
0
0
5.15033e-87
0
1.33095e-16
9.05351e-51
5.63981e-73
6.27909e-16
1.5226e-72
0
2.3295e-15
0
0.000148066
3.08244e-107
8.70415e-122
14103.6
1.26557e-158
2.40858e-53
8.86626e-26
0
16285.2
0
5.91876e-68
6.91163e-57
2.63746e-57
8.73259e-64
0
4.00335e-11
1.33242e-11
9.94709e-13
5.85288
0
1.58977e-05
0
5.83041e-60
0
2.95758e-71
1.02511e-58
7.60734e-64
3.75655e-79
3.7645e-53
4.47857e-41
5.32031e-57
0
2.28087e-33
15.9067
0
5.34125e-08
7.66031e-10
5.65654e-16
0
1.86846e-12
1.7439e-67
1.35768e-60
2.84294e-81
0
0
0
0
6.52899e-10
2.43145e-26
2817.24
272.397
0
0
0
5.89947e-08
7.59045e-21
20822
0
2.35257e-15
0
0.00033693
5.0893e-59
4.49296e-18
5.19831e-79
0
0
5.00185e-133
0.00230632
1.26041e-127
5.09583e-39
0
13461.1
5.15791e-08
0
0
0
0.0056528
1.98981e-20
8.48055e-05
0
1.54575e-18
218764
2.69736e-105
2.72581e-74
3.08621e-43
0
5.95136e-41
2.244e-67
9.1802e-39
0.00196627
3.62639e-39
6.43414e-43
0.684301
2.9077e-19
4.67507e-37
4.99852e-49
0.0985377
0
2.61953e-16
45436
0
0
0
0
52671.5
3.35832e-18
1.69698e-37
0
4.61746e-40
8.82721e-10
0
7.98101e-113
0
1.36242e-31
0
0
1.7412e-39
2.27266e-80
23.8371
9619.81
9.41487e-49
342826
3.74749e-36
1.27173e-147
2.90342e-29
0.227216
3.10955e-16
1.79349e-07
1.21879e-08
0.000126871
170.945
151597
1.06473e-06
3.85379e-33
0.000284213
8.56571e-67
7.65685e-42
3.63172e-47
0
3.74328e-28
0.00303662
9.97397e-08
3.51288e-16
0.00145962
0.0454115
2.49093e-30
0
1.07222e-48
0
9.34244e-109
1.36614e-31
8.03101e-84
4.82855e-29
0
649.274
7591.64
255.46
0
14533.3
0
0
4.5074e-32
0.319517
2.90938e-06
149.737
5.37337e-51
2.30649e-43
0
0
6.20388e-141
1.85206e-127
2.27951e-20
0
0
40697
0
3.44395e-32
0
0.235332
7.63794e-07
7672.98
2.79612e-144
236.963
4.54144e-32
1.01e-119
6.23138e-75
4.74832e-06
5.89615e-17
1.36354e-142
5.08115e-106
0
1.08604e-67
0
2210.15
1036.13
3912.51
2.97829e-07
4.43567e-115
0
2.28309e-21
1.76747e-142
0
5.28831e-71
0
10056.8
9.51548e-61
1.65256e-71
0
1.71975e-65
9.72513e-40
1.28932e-67
2.67749e-45
0
5.33026e-86
2.67539e-16
4.16122e-28
7.33005e-48
1.14428e-14
5.87614e-15
1.06718e-24
0
4.03541e-48
4.08588e-81
2.58064e-41
3.39559e-38
9.36563e-50
5.26219e-18
0
6.58637e-51
0
0
1.80128e-40
0
2.88568e-42
2.7986e-40
0.560847
0
6.6107e-05
1.52985e-09
2.9939e-29
4.89004e-138
0
1.61443e-38
8.30068e-21
5.07051e-29
1.24786e-104
2.144e-14
0
4.29956e-86
1.02746e-17
0
3.495e-39
6.118e-33
0
1.72781e-25
0
2.31331e-63
1.15406e-09
3.12023e-16
4.62865e-26
8.90456e-69
1.71211e-15
1.1958e-31
2.28415e-26
1.21511e-29
17493.8
0
9.19728e-75
4.69877e-22
49.0734
0
0.0552049
0
1.52823e-31
1.59233e-106
1.85304e-131
1.16881e+06
4.84036e-25
2.72047e-10
2.13628e-20
2.94432e-10
84.9983
5.00591e-05
1.43384e-153
1.84369e-22
4.77962e-131
6.53709e-24
1.93961e-66
9.82971e-29
2.94452e-24
2.01068e-78
3.21538e-19
0
9.65618e-35
2.10866e-30
0
2.37231e-63
2.75372e-21
1.93668e-67
1.51898e-69
0
5.46132e-135
2.81996e-38
0
3.93152e-29
0
0
0
0
2.13569e-70
0
6.83264e-19
6.25979e-110
4.85306e-106
0
1.92817e-67
3.25968e-50
0
2.5803e-09
1.72753e-63
7.76097e-116
7.42165e-30
4.53164e-86
0
36210.8
0
0
2.81384e-30
2.56056e-52
0.0021871
0
3.66908e-88
7.1784e-159
2.33332e-130
0
8906.97
207860
5.18677e-31
0
1.3272e+06
2.36559e-46
5.23387e-26
1.80425e-162
1.64358e-11
1.69987e-101
452.483
1.07765e-28
5.68809e-103
0
0
2.69777e-24
0
0
7.69502e-13
8.58755e-26
0
2.42002e-23
9.63119e-13
2.02037e-84
0
1.06356e-76
2.64727e-14
6.62037e-78
1.03324e-167
5.05448e-108
0
0
8.36749e-17
1.47929
4.12051e-163
1.25084e-160
3.08613e-15
8.13099e-150
0
8.88222e-47
0
4.88746e-05
5.41548e-14
1.34857e-34
0
0
0
5.83007e-18
0
1.45971e-17
1.35597e-63
2.53368e-09
2.11268e-43
2.86322e-93
20399.1
7.99889e-28
940.556
0.000781695
4.29405e-13
3.00973e-29
9.20511e-69
2.32374e-116
2.4928e-05
0
3.44058e-14
2.23591e-09
3.03302e-52
0
1.91915e-66
2.25362
5.01524e-26
1.53814e-25
2.83971e-67
0
3.5577e-35
0
8.30879e-07
0
1.05659e-119
2.48868e-124
0
5.97874e-27
7.85207e-19
2.54019e-89
0
0
2.5624e-07
2.05113e-28
1.00007e-10
8.76146e-149
0
1.39228e-09
5.44616e-09
3.14468e-155
1.96961e-55
1.05057e-11
2.01027e-50
3.269e-50
0
4.0538e-21
6.9101e-19
0
1.31676e-154
8.98148e-14
144814
1.60795e-13
2.14957e-17
3.22302e-62
3077.85
0
0
8994.27
25105.5
7914.65
5420.28
4236.84
2329.89
0
1.96406e+06
4.716e-20
1.97602e-20
4.44765e-157
0.409308
41431.4
4.43057e-141
7.95054e-26
3321.87
0
9106.78
0
2.16491e-14
3.47455e-21
2.27574e-06
0
1.11155e-10
4.75775e-93
0
3.01553e-50
1.19617e-44
28.8452
4.43417e-109
5.65053e-06
0
1.30037e-151
3.52767e-156
0
5.82569e-55
5.62571e-57
0
9.66093e-17
0
1.98736e-23
3.0504e-56
7196.97
1.84512e-153
1.46487e-13
0
2.09379e-38
6.17181e-12
0
3.95706e-154
3.47337e-65
3.1515e-38
0
2.20741
0.102948
9889.14
1.57221e-16
2.26425e-34
1.83146e-37
0
0
0
9.28111e-32
0
0
1.1767e-23
0.0259632
8.70003e-39
3.09267e-35
3.05555e-61
0
3.60354e-21
0
2.26373e-53
0
0
0.0116595
4.4903e-89
325.095
0
1.58349e-67
1.39538e-05
1.04226e-07
5.38123e-104
1.57466e-48
6.12452e-68
0
1.10457e-59
0
0
2.571e-36
8.71096e-69
1.41432e-66
1.39934e-90
3.55164e-65
0.000643343
5.57105e-70
4.96184e-16
1.15418e-68
0
1.59321e-71
0
4.6024e-34
0.181437
1.32282e-07
9.12047e-79
0
0
0
2520.52
0
0
12196.5
0
0
0
2.61893e-37
1895.34
7.00848e-70
1.67212e-70
4.84662e-62
0
8438.25
0
4.46474e-110
0
2.84337e-50
6.98523e-61
2.61178e-108
4.9297e-83
1.37348e-69
4.58188e-104
6.61436e-20
3.02755e-59
1.60984e-107
6.42718e-37
0
8.71372e-42
5.12288e-13
5.54277e-68
1.16993e-110
1.0535e-06
2.70894e-08
0
9.54606e-105
0
0
0
0
1.21327e-65
1.24192e-09
0
1.00219e-53
0
0
1.647e-54
0
1.45807e-24
1.1589e-15
2.67273e-06
0
0.00212427
1.27032e-25
0.000876065
6.4573e-103
8.8732e-63
0
2.08797e-104
0
0
2.18586e-100
4.07296e-07
0
6.57967e-103
4.17197e-23
1.09348e-50
4.11777e-14
4.97463e-56
4.51604e-13
1.97969e-50
1.76835e-58
7.90841e-11
6.34968e-106
0.188358
8.42182e-82
2.8444e-46
0
1.44297e-29
8.70577e-11
2.1802e-62
6.5441e-11
2.03143e-22
8.58744e-09
2.95855e-60
0
0
0.000224858
2.13724e-35
1.08966e-25
2.15546e-48
4.39369e-102
3.85723e-60
1.41945e-46
1.7125e-43
1.20043e-20
9.13637e-96
1.41339e-97
4.0212e-49
1.84818e-23
2.40742e-26
0
9.47683e-46
0
0
6.18517e-68
5.01264e-80
1.4838e-39
1.73855e-42
0
4.46106e-77
4.224e-82
0
4.68287e-78
1.20566e-74
3.1282e-70
0
0
0
3.93073e-07
0
1.37532e-06
11219.7
1.49495e-127
0
2.88929e-17
1.43271e-81
0
0
3.06431e-136
1.01705e-83
3.80125e-22
1.01739e-11
8.55371e-42
6.99047e-70
7.7655e-29
9.20661e-139
7.258e-34
1.22217e-06
2.12452e-137
0
2.44259e-10
7.25721e-139
1.01548e-84
0
2.61058e-90
1.29039e-34
0
1.04419e-61
1.95303e-141
2.58079e-16
15791.5
2.05896e-22
1.92429e-47
3.7377e-101
2.28887e-135
3.89079e-94
0
0
2.67089e-103
7.94103e-102
7.49967e-64
3.3781e-32
1.58694e-78
2.13951e-100
1.59003e-97
1.7919e-11
0
1.37268e-06
1.61137e-13
1.88809e-20
0
3.44426e-15
0
1.57186e-88
1.54131e-76
13.7199
0
2.92165e-71
1.02845e-43
5.21554e-15
2.56029e-62
1.51019e-65
1.66166e-13
0
1.63351e-11
0
0
1.66455e-59
6.37937e-69
6.90525e-15
0
6.76586e-14
1.49985e-71
0
9.27599e-16
1.73705e-78
7.63936e-96
6.6321e-20
4.76457e-13
1.15896e-67
3.2022e-16
4.91578e-16
0
5.12906e-10
1.68233e-13
8.40576e-23
1.1692e-17
1.52153e-92
1.1627e-22
0
1.24406e-25
3927.42
0
0
2.53337e-44
1.25783e-47
2.64468e-46
0
0
1.38617e-56
0
0
0
1.60113e-44
2.14433e-40
1.30643e-135
0
4.88155e-108
4.44678e-32
4675.32
3.60524e-103
1.53036e-24
5.3333e-26
8794.47
5.06088e-110
0
213425
1.32066e-114
0
2.38001e-37
3.64992e-33
1.19778e-93
1.5e-27
7.247e-113
2.10473e-113
0
2.19422e-115
1488.86
1.07086e-53
2.01674e-56
25.0296
1.35824e-09
4.10061e-108
2.74031e-69
0
1.57858e-59
7.41035e-113
6.86758e-67
2.9181e-16
0
1.92902e-23
8.26128e-42
2.03486e-18
0.0141292
1.15232e-54
5.0695e-87
26691.9
2.19318e-29
0
0
0.000167568
1.96134e-29
1.11004e-25
1.53597e-20
6.96667e-31
1.71447e-15
0
14144.8
0
8.22031e-14
7.13329e-15
0
1.50627e-21
2.96357e-96
0
0
8.20602e-40
3.5806e-41
0
120.668
4.72707e-27
0
3.57319e-15
2.09538e-44
0
4.63404
1.87871e-75
1.70962e-13
3.71592e-83
0.00732096
16303.4
89799.1
1.8462e-117
1.24702e-91
0
0
3.12478e-56
3.36097e-05
3.08965e-46
3.80592e-13
5.26856e-12
1.96983e-16
8.07977e-69
5000.77
0
1.72876e-29
25739.8
0.817799
0
6.50853e-16
1.34605e-75
2.13123e-34
0
0
3.77001e-70
1.79523e-60
1.19165e-92
0
0
3254.12
3.62341e-47
6.44495e-49
7.23279e-98
8.91157e-23
2.37563e-41
1.05458e-91
8.37594e-36
2.13687e-72
4.48477e-72
3.16338e-48
0
2.03971e-43
0
4.80557e-34
6.02699e-71
0
3.37684e-41
0.0959411
1.40979e-72
0
2.60956e-32
7.69663e-12
2.01556e-125
0
1.13447e-19
0
0
19151.2
2.51221e-66
1.20774e-37
0
1.43259e-93
0
1.35748e-58
2.12472e-127
0
1.05842e-36
3.25543e-91
2.7149e-25
12011.4
6.92489e-126
1.25815e-13
9.9942e-124
8.91047e-24
6.10015e-38
4.61992e-93
1.43211e-122
7.02136e-17
0
8.49952e-112
0
0
0
0
0
3.22694e-19
1.9739e-14
7.84555e-128
2.08749e-26
8.03561e-95
1.01337e-133
0
1.2063e-52
0
1.86012e-43
0
9.25079e-65
7.55603e-97
0
0
13.6805
5.2343e-37
0
0
9.95501e-110
0
0
0
2.56523e-76
8.59724e-75
0
1.92979e-84
0
0.00333089
1.59655e-114
6.54422e-58
1.96545e-67
4754.33
155.079
4.8841e-81
5.32548e-43
1.4343e-09
1.44718e-93
9.3089e-43
1.1069e+06
1.59165e-126
0.00595346
2.05262e-23
4.83038e-51
1.15421e-60
1.04646e-87
5.17179e-12
2.24288e-40
2.21697e-104
2.62326e-107
9.87856e-64
1.22955e-87
0
1.22394e-19
0.000181774
1.00688e-37
1.60792e-22
0
1.02477e-14
231.011
0
5.69924e-43
0
0.000311619
19052
1.0085e-92
3.73306e-83
1.51513e-133
2.43905e-48
3.28107e-42
0.00271623
0
0
0
4.50349e-16
1.20908e-147
6.2874e-96
0
2.08697e-94
1.86266e-99
2.35209e-117
7.27076e-99
3.15982e-33
7.32905e-25
0
5.93146e-37
0
1.40744e-85
0
2.1696e-120
0
4.22338e-14
1.26131e-130
0
2.29035e-122
0
2.13072e-102
8.05651e-16
0
0
5.87534e-45
2.12024e-117
0
0
1.09056e-15
4.81903e-30
19963.9
1.05449e-75
7.20692e-116
0
4.83191e-09
5.0473e-09
2.09339e-21
0
17062.8
17326.8
8.0927e-16
8384.46
6845.12
5.40569e-51
9.38974e-17
3.36592e-11
0
0
2.30269e-142
2.44685e-81
2.4114e-118
4.9093e-62
195115
0
245.351
1.31187e-12
454.61
7.49082e-48
0
0
6.11109e-11
6.09577e-18
6339.81
1.48719e-09
0.0701139
7070.01
0
1.32208e-09
608.957
5.40748e-72
0
9.1251e-13
0
2.58612e-136
13784.8
0
0
4.34367e-110
1.29045e-92
0
7.14252e-36
0
1.79835e-116
4.95617e-18
2.06836e-06
0
1.16579e-36
1.86217e-63
3334.53
6.8851e-12
7.65258e-46
1.20224e-140
8.15135e-126
994.387
8.23093e-83
7.04998e-77
6.44999e-14
0
2.69745e-49
0
7.02288e-82
1.6804e-20
1.98111e-17
4.06917e-76
1.11518e-176
6.55777e-78
0
2.2845e-79
1.00857e-24
0
6.55582e-27
3.21664e-64
1.93556e-83
1.81181e-51
0
7.11558e-117
0
0
7.02604e-104
1.99206e-72
3.11182e-79
4.92134e-80
5.44495e-74
6.55416e-35
0
304.081
5.02517e-76
6.32598e-142
1.54097e-89
0
0
0
7.22285e-20
214.356
1.62161e-27
342.242
0
7.15059e-10
4.12427e-16
92.0698
421.522
1.68009e-09
2.68627e-20
2.06265e-59
0
0
2.09497e-57
5.96088e-121
2.42901e-87
0
215.922
1.65525e-105
1.93306e-12
6.91546e-74
3.67926e-31
0
0
0
0
0
2.14267e-14
0
1.041e-94
0
7.81771e-31
0
3.73778e-49
5.80963e-35
23906.5
0
11275
7.77436e-158
4.92172e-145
5.11015e-27
5825.15
10763.5
15545.9
210.208
2795.46
3.86677e-14
7.52207e-12
5.44351e-31
9205.46
0
0
5.03094e-102
0
6.33153e-21
1.47308e-12
1.41425e-10
5.65315e-42
0
0
0
1.42055e-13
0.480496
5.1623e-124
0
1.2826e-114
0.0183326
0.000225971
0
0
0.237961
4.99436e-08
3.44546e-16
0
1.71112e-07
0
1.36771e-17
7.88874e-135
3.88227e-06
2.62084e-17
7.38975e-22
9.02384e-127
0
0
5.74413e-117
5.38557e-107
1.17415e-18
0
2.0228e-88
0
6.83663e-109
1.11243e-18
0
1.16978e-103
5.64681e-19
1.22761e-08
1.42387e-06
9.42558e-30
2.5505e-07
2.75442e-17
3.10098e-05
1.10118e-55
0
1.36183e-06
1.1271e-09
0
0
2.26598e-39
0
9.32835e-20
3.78268e-32
2.06787e-14
0
1.57931e-52
1.54109e-10
0
7.65214e-23
0
5.90049e-73
0
3.26301e-10
0
0
0
3.41467e-74
0
1.06703e-12
0
3.74638e-14
0
0.0158633
2.21176e-19
0
0
1.50919e-38
15996.3
0
9.20515e-20
5.93874e-78
2.26806e-32
1.23872e-93
2.35939e-55
1.81678e-106
0
7.46095e-107
8.23105e-78
7.40962e-108
4.48968e-21
1.80819e-155
0
6.4094e-100
0
1.59585e-110
3.44443e-142
0
1.59957e-11
0
2.94044e-129
0
3.95853e-25
0
1.27822e-21
7.22554e-26
2.34425e-111
9.17953e-22
1.73703e-73
0
1.22447e-58
8.54305e-23
1.5985e-27
1.53047e-103
7.63115e-42
6.73158e-72
1.12902e-98
2.81497e-99
0
8.63387e-113
0
5.46938e-110
7.93973e-148
0
0
0
1.39154e-13
9.94324e-133
3.90181e-50
8.65783e-100
1.76668e-30
8.86248e-98
9.28328e-26
1.0989e-48
1.85787e-09
1.84567e-99
5.86098e-101
7.13704e-103
0
4.18831e-20
2.22882e-61
0
0
0
0
8.20242e-23
3.04963e-99
1.38433e-115
0
2.74406e-96
0
7.78536e-19
1.72203e-110
0
0
0
8.15318e-69
7.42081e-87
4.30937e-85
4.70579e-47
4.29173e-114
1.27008e-136
6.92959e-46
3.73047e-13
1.80796e-119
6.46622e-101
0
2.0967e-72
1.59155e-61
1.63977e-70
2.89355e-16
8.05789e-19
1.41762e-83
0
4.70944e-106
4.44088e-18
3.23285e-101
1.67608e-08
0
3.30712e-28
0
0
1.04186e-55
0
2.53527e-96
0
1.12558e-47
6.57084e-139
0
1.50816e-73
5.62864e-144
4.94791e-99
0
1.51124e-67
8.43919e-83
193403
0
0
6.56136e-62
0
1.56005e-27
7.33753e-27
1.16887e-19
3.10402e-08
758.44
5.69002e-36
0
0
3.50123e-25
0
0
7.28533e-68
3.99051e-53
32639.7
1.28543e-97
1.07514e-71
0
2.08344e-21
1.74829e-20
1.71091e-10
1.15039e-19
0
1.18826e-24
5280.15
1.05848e-128
1.16437e-18
2.54132e-106
4.97665e-74
2.81822e-138
4.86664e-64
0
9.50636e-40
0
3989.98
2.91866e-06
1132.76
0.0633457
278.902
7.36603e-25
6.6304e-130
2.23585e-118
2.39488e-103
3.72145e-101
0
8.71718e-126
4.65429e-129
7.60393e-110
4781.33
7.18532e-14
2.54379e-24
1.10809e-23
1.05156e-88
1.33044
3.00352e-43
9.81283e-16
8.66852e-27
5.05707e-130
0
0
0
0
8.4565e-17
0
36.103
0
3.55464
0
1.10923e-26
0
6.6934e-16
0
7.41756e-15
1.9435e-37
0
0
0
2.58595e-10
0
6.78782e-16
1.64118e-128
2.11214e-82
5.34436e-05
7.79977e-104
7.71029e-28
1.93914e-131
0
0
3.09264e-114
5.8033e-100
5.06872e-102
4.61444e-23
1.7558e-97
0
0
1.75225e-22
2.20386e-101
9.90401e-74
0
7.98838e-63
1.96425e-99
5.2144e-99
30887.1
0
5.62257e-16
6541.98
1.0235e-17
2.35822e-137
0
2.75765e-25
6.37254e-101
2.22279e-99
5.16916e-05
7.69287e-21
1.03242e-93
0
6151.08
1.51142e-33
0
5.57413e-42
4.33746e-50
7.77639e-116
0
7.84316e-74
0
3955.13
0
15515.9
1.98006e-63
7.68643e-33
0
1.64665e-141
3.2346e-16
3.15402e-127
3.30687e-94
1.213e-56
0
0
8092.34
4.06173e-48
2749.97
2.33063e-44
5.68804e-17
1.08159e-45
6.46899e-41
3.11229e-75
8.28641e-98
7.19526e-33
33274.5
1.92309e-09
2.56967e-27
6.17762e-15
17402.9
1.63651e-42
3.52507e-13
3.16306e-05
0
229.578
1.06412e-07
6.78777e-46
4.38884e-111
0.0184121
0.0337301
0.894808
0.000531074
3.22268e-12
1.1171e-14
15207.1
5.03366e-38
150.169
4.01929e-27
0
2.08709e-72
1.33036e-14
5002.5
2.98531e-50
6.27317e-39
0
5.1324
6.49723e-30
66.0155
6.94289e-135
4.08779e-125
26348.1
2.0477e-28
2.64332e-53
3.9111e-43
0
2.40087e-60
1.43389e-87
1.23163e+06
1006.71
0
0
3389.45
2.53266e-21
1.18781e-06
420.123
16568.4
2.60769e-21
0
0
5.75776e-30
2.72606e-95
3.18383e-96
2.60706e-29
1.01213e-21
4.76654e-51
3457.47
1.42568e-45
6.3953e-35
2.19131e-12
3.64221e-09
3.76e-127
0
23115.2
2.65545e-46
0
7.68898e-12
0
7.26316e-130
3.43255e-26
0
0.575345
4.04124e-15
0
0
1.93169e-111
0
420698
4.50678e-14
4.29852
3.2099e-139
9.21269e-26
1.08776e-137
3.50184e-35
0
6599.03
0
0
1.694e-14
0
1.40735e-146
9.5735e-31
0
3.58089e-21
2.27449e-24
3.31239e-30
0
1.83574e-143
0
4.11348e-23
2510.17
1.80875e-69
0
0
4.11606e-84
3.65783e-15
9.96162e-18
0
1.4817e-72
6.40355e-107
0
5.22955e-76
5.40811e-85
0
1.6676e-58
206.072
0
1.99234e-24
1.32537e+06
0
277.596
1.11679e-83
3.61035e-47
9.20262e-91
0
8.98984
0
2.15397e-15
67.3691
0
0.000277336
0
2.44993e-35
864.422
2.26237e-18
0.0393384