/*--------------------------------*- C++ -*----------------------------------*\
| =========                 |                                                 |
| \\      /  F ield         | OpenFOAM: The Open Source CFD Toolbox           |
|  \\    /   O peration     | Version:  v2012                                 |
|   \\  /    A nd           | Website:  www.openfoam.com                      |
|    \\/     M anipulation  |                                                 |
\*---------------------------------------------------------------------------*/
FoamFile
{
    version     2.0;
    format      ascii;
    class       volScalarField;
    location    "2.5";
    object      qin;
}
// * * * * * * * * * * * * * * * * * * * * * * * * * * * * * * * * * * * * * //

dimensions      [1 0 -3 0 0 0 0];


internalField   uniform 0;

boundaryField
{
    fire_inlet
    {
        type            calculated;
        value           nonuniform List<scalar> 
41
(
10359.7
10157.4
11066.2
10222.8
5252.41
22253.6
31324.5
29893.1
31433.1
18424.7
25316
29163.2
28718.5
26952.8
30830.8
33648.6
12750.1
8963.61
11693.7
7045.7
13873.1
13069.7
8679.2
12471.5
20834.9
24431
31849.2
22156.7
21493.8
14190.6
17877.2
24192.5
25262.1
22640.2
28390.3
32315
33100
31197
32345.7
33354.5
31055
)
;
    }
    outlet
    {
        type            calculated;
        value           nonuniform List<scalar> 
400
(
469.248
467.563
467.424
464.577
464.061
463.639
467.509
478.728
493.394
485.717
477.115
479.711
472.694
473.085
475.511
471.128
493.654
470.573
470.591
470.286
471.52
470.799
473.02
470.5
476.392
473.008
480.544
480.967
476.623
464.857
478.704
468.119
465.382
463.343
464.69
467.319
474.655
466.607
464.498
463.612
469.237
465.668
463.708
468.148
464.059
464.757
463.456
463.396
464.496
464.634
464.293
468.863
463.188
462.996
465.341
466.018
465.079
476.072
478.707
471.606
472.586
465.302
469.439
470.88
468.169
474.523
470.653
467.827
464.897
472.356
465.576
469.635
471.028
467.107
477.746
468.394
467.898
464.106
469.405
478.017
463.557
470.499
470.517
468.406
466.544
465.95
465.592
468.32
464.424
467.755
465.607
467.335
467.696
464.642
464.033
464.24
464.767
464.934
465.95
465.615
459.303
459.303
459.302
459.302
459.302
459.302
459.302
459.302
459.302
459.302
459.302
459.302
459.302
459.302
459.302
459.302
459.302
459.303
459.303
459.303
459.303
459.303
459.303
459.303
459.303
459.303
459.302
459.302
459.302
459.302
459.302
459.303
459.302
459.302
459.302
459.302
459.302
459.303
459.302
459.303
459.302
459.303
459.303
459.302
459.302
459.302
459.302
459.302
459.302
459.302
459.302
459.302
459.303
459.303
459.303
459.302
459.302
459.302
459.302
459.303
459.303
459.303
459.303
459.303
459.303
459.302
459.303
459.302
459.303
459.302
459.302
459.302
459.303
459.302
459.302
459.303
459.302
459.302
459.302
459.303
459.303
459.303
459.302
459.302
459.302
459.302
459.303
459.302
459.302
459.303
459.302
459.302
459.302
459.302
459.302
459.302
459.302
459.302
459.302
459.302
459.302
459.302
459.302
459.302
459.302
459.302
459.302
459.302
459.302
459.302
459.758
460.093
460.614
460.388
461.412
460.98
461.906
462.285
462.774
462.841
462.112
463.143
461.626
464.34
466.011
465.451
467.647
467.224
467.161
467.557
466.108
466.97
464.76
465.734
462.382
463.726
461.147
461.423
460.006
460.564
459.622
459.503
459.745
459.212
459.175
459.184
459.349
459.415
459.442
459.492
459.973
460.235
459.881
459.499
459.264
459.215
460.02
460.139
459.217
459.165
459.229
459.209
459.228
462.798
460.268
460.009
459.564
459.339
459.99
459.921
459.43
460.308
459.406
459.322
459.604
459.981
460.086
460.833
461.785
462.906
461.829
463.89
462.956
464.297
464.771
463.676
460.151
467.573
467.454
467.756
467.069
467.053
465.524
466.335
463.463
464.053
461.6
462.302
460.544
460.87
459.731
460.339
459.348
459.364
459.576
459.498
459.465
460.345
460.249
460.394
461.009
460.498
459.792
459.756
459.238
460.474
461.031
465.424
459.294
461.004
459.291
466.237
459.755
466.717
459.402
459.384
461.143
459.404
460.071
459.6
459.718
459.938
464.893
465.854
466.568
465.21
461.714
467.612
467.104
462.073
467.072
466.764
465.774
466.288
463.512
464.602
462.144
462.673
460.758
460.255
461.231
463.139
459.891
459.703
460.296
461.119
459.643
459.79
459.58
460.377
460.977
460.228
462.458
461.813
463.596
459.873
459.653
461.749
462.323
461.626
466.257
465.664
465.879
465.722
465.298
465.29
463.553
463.811
461.144
460.611
462.196
460.098
460.19
460.744
463.688
463.979
462.433
460.631
461.23
464.466
462.48
461.847
462.777
461.181
462.047
462.018
461.756
462.892
464.004
463.921
)
;
    }
    base
    {
        type            calculated;
        value           nonuniform List<scalar> 
14237
(
2001.91
2459.3
2617.43
1094.6
1702.89
2038.91
2336.16
2397.59
3919.11
6406.1
8365.6
1002.8
1107.99
1247.22
1405.44
1628.8
2526.86
2687.1
3235.56
3491.26
4026.56
5351.55
6351.99
7768.31
8104.6
8574.67
6153.55
955.238
986.303
2466.98
1401.39
1460.59
3769.47
4286.55
4621.9
7832.48
8649.85
1150.97
8753.22
2468.62
2792.22
3240.54
7259.98
1195.4
9551.48
9453.29
9161.76
3722.97
3075.45
2711.45
6184.69
1111.05
2871.53
2518.5
2729.24
3136.2
2391.85
1028.13
3405.45
5368.13
10723.4
11871.8
9327.8
8480.1
10434
8119.24
12941.8
11713.7
9669.63
4746.15
3796.31
459.296
459.297
459.298
459.297
459.3
459.298
459.3
459.299
459.301
459.3
459.301
459.301
459.301
459.301
459.301
459.301
459.301
459.301
459.302
459.301
459.302
459.302
459.302
459.302
459.302
459.302
459.302
459.302
459.302
459.302
459.302
459.302
459.302
459.302
459.302
459.302
459.302
459.302
459.302
459.302
459.302
459.302
459.302
459.302
459.302
459.302
459.302
459.302
459.302
459.302
459.303
459.303
459.304
459.304
459.305
459.305
459.307
459.307
459.31
459.316
459.336
459.339
459.577
459.625
469.447
471.581
469.904
474.29
471.335
465.45
461.433
460.185
459.751
459.303
459.303
459.303
459.304
459.307
459.317
459.337
459.367
459.459
459.932
461.662
467.843
459.302
459.302
459.302
459.302
459.302
459.302
459.302
459.302
459.302
459.302
459.301
459.301
459.302
459.3
459.301
459.298
459.299
459.295
459.296
459.293
459.294
459.297
459.297
459.31
459.334
459.309
459.378
459.347
459.504
459.41
459.79
459.601
460.253
459.963
460.881
460.54
461.875
461.418
462.657
462.351
463.086
463.084
463.045
463.303
462.28
462.64
461.457
461.843
460.828
461.175
460.219
460.532
459.9
459.981
459.649
459.752
459.546
459.606
459.46
459.504
459.384
459.405
459.274
459.297
459.13
459.142
458.889
458.978
458.54
458.712
458.714
458.551
462.361
459.181
459.51
460.576
468.793
482.394
498.831
484.347
478.131
590.957
819.543
730.652
556.576
679.461
902.296
688.312
502.969
487.099
503.041
496.422
483.677
459.179
459.294
459.295
459.331
459.456
459.662
459.662
459.489
459.373
459.333
459.302
459.259
459.161
459.18
459.302
459.813
467.096
469.346
472.124
470.542
471.278
468.703
462.773
460.801
459.926
459.303
459.303
459.303
459.303
459.304
459.305
459.31
459.328
459.35
459.4
459.535
460.497
463.201
462.149
468.834
477.989
459.512
459.21
459.754
459.757
463.981
477.99
493.453
490.501
480.444
496.164
707.616
844.1
627.813
588.956
820.576
840.648
549.409
482.219
494.629
509.898
491.543
468.992
459.294
459.307
459.398
459.56
459.708
459.586
459.419
459.344
459.324
459.28
459.217
459.296
469.477
469.369
468.848
466.061
462.186
460.794
459.922
459.73
459.303
459.304
459.308
459.318
459.336
459.37
459.57
460.56
463.354
467.659
459.303
499.029
484.431
484.508
654.871
868.453
726.089
601.613
837.368
937.845
590.843
486.591
495.34
509.586
492.632
472.044
459.297
459.332
459.457
459.68
459.66
459.481
459.369
459.33
459.288
459.227
490.627
465.94
468.803
470.233
467.233
464.674
461.745
460.205
459.766
459.312
459.328
459.355
459.434
459.84
461.861
467.367
528.291
784.475
869.97
617.202
680.961
945.811
768.411
517.31
486.375
494.006
499.25
485.349
462.837
459.294
459.309
459.402
459.571
459.718
459.583
459.412
459.342
459.316
459.267
467.575
459.305
459.304
482.529
460.584
481.051
464.057
493.633
459.294
470.069
459.795
459.298
459.299
459.298
459.3
459.299
459.3
459.3
459.301
459.3
459.301
459.301
459.301
459.301
459.301
459.301
459.302
459.302
459.303
459.303
459.303
459.302
459.302
459.302
459.302
459.302
459.302
459.302
459.301
459.301
459.301
459.301
459.301
459.301
459.301
459.301
459.302
459.301
459.302
459.302
459.303
459.302
459.304
459.303
459.307
459.305
459.309
459.308
459.315
459.313
459.339
459.323
459.399
459.407
459.732
459.991
459.782
459.303
467.372
469.179
468.265
464.721
467.463
464.585
465.828
464.292
461.887
460.433
460.07
459.679
459.65
459.307
479.596
459.303
459.303
459.303
459.303
459.302
473.779
459.305
459.304
459.305
459.303
459.303
459.302
459.319
459.367
459.45
460.151
461.001
464.167
467.359
514.258
459.293
464.866
459.302
459.301
459.302
459.302
459.302
459.302
459.302
459.302
459.302
459.3
459.302
459.298
459.299
459.296
459.299
459.297
459.297
459.299
459.3
459.311
459.344
459.31
460.005
459.409
459.358
459.595
459.468
459.904
459.692
460.443
460.081
461.432
460.819
462.307
461.841
463.108
462.818
463.333
463.449
462.799
463.312
461.862
462.483
461.191
461.41
460.548
460.815
459.975
460.285
459.767
459.82
459.616
459.69
459.505
459.558
459.439
459.465
459.296
459.332
459.148
459.179
458.97
458.992
458.654
458.752
458.686
462.725
458.604
475.664
459.393
459.394
484.248
473.868
473.986
465.763
465.802
459.226
470.354
470.613
465.238
483.411
498.019
462.062
459.951
462.079
801.911
976.027
646.469
724.809
1034.86
786.202
517.802
483.252
493.837
489.34
467.345
465.293
462.709
463.355
459.302
459.307
459.398
459.563
459.737
459.598
459.42
459.35
459.317
459.271
464.304
465.271
486.788
475.444
459.201
459.296
461.987
464.278
459.297
459.297
459.296
459.302
459.302
459.2
459.643
459.22
459.204
459.302
459.302
465.93
466.14
463.118
462.514
464.662
460.697
459.803
459.658
459.622
459.677
459.631
462.532
459.625
459.39
459.314
459.333
459.306
459.614
460.483
462.002
465.797
465.718
459.302
479.694
459.295
467.496
475.077
645.808
959.505
853.972
620.74
912.781
984.431
597.607
489.123
493.616
500.947
476.558
584.773
459.297
466.984
459.299
459.329
459.45
459.675
459.674
459.489
459.374
459.332
459.291
494.493
470.964
461.359
555.092
459.273
459.329
459.374
459.483
459.702
459.682
469.281
484.13
459.244
459.308
459.349
459.418
459.6
459.742
459.397
474.083
482
483.884
491.149
689.068
1067.84
901.613
459.302
459.294
465.215
465.745
461.498
459.295
460.543
459.302
459.493
464.35
461.062
891.02
461.604
466.771
459.342
459.313
459.321
459.775
462.635
1075.29
683.331
746.474
1031.45
723.479
978.76
983.854
614.894
459.307
459.485
459.33
459.599
459.306
459.298
459.3
459.299
459.3
459.3
459.301
459.301
459.301
459.301
459.301
459.301
459.302
459.302
459.301
459.845
471.627
459.629
459.832
459.302
459.301
459.301
459.301
459.301
459.301
459.301
459.301
459.301
459.301
459.301
459.301
459.301
459.301
459.301
459.302
459.302
459.303
459.303
459.305
459.305
459.315
459.315
459.334
459.324
459.369
459.369
459.496
459.493
487.208
478.763
481.539
478.329
866.353
459.295
464.168
459.302
461.466
459.44
459.326
459.405
459.332
475.506
472.724
459.317
459.323
459.304
459.304
464.245
1125.34
462.748
464.171
460.433
466.213
460.038
996.58
459.302
459.301
459.301
459.301
459.302
459.301
459.303
459.305
459.303
459.304
459.3
459.303
459.3
459.302
459.301
459.303
459.309
459.309
459.322
459.355
459.324
1005.69
459.457
459.413
459.694
459.558
460.075
459.878
460.837
460.573
461.855
461.337
462.838
462.373
463.49
463.301
463.34
463.661
462.503
462.903
461.502
461.89
460.823
461.21
460.292
460.428
459.824
460.089
459.693
459.76
459.557
459.604
459.464
459.507
459.329
459.371
459.156
459.222
458.989
459.03
459.217
459.249
459.425
459.59
492.233
467.38
687.499
807.996
869.233
1112.07
1105.37
804.412
715.711
1008
1084.7
460.919
1107.49
1093.78
993.024
465.241
487.71
470.943
459.243
470.689
577.913
604.572
493.85
500.079
459.449
468.612
472.08
465.61
459.32
459.367
459.328
459.367
459.684
459.727
459.497
459.381
459.333
459.323
475.976
469.369
470.694
459.296
459.221
471.601
469.062
461.901
483.063
507.273
535.502
490.945
459.669
486.27
488.025
503.904
459.475
462.804
463.189
461.102
459.304
459.293
459.294
459.296
459.297
459.296
493.734
511.783
469.701
459.481
459.418
459.302
459.302
548.421
459.842
459.823
491.816
507.628
459.298
459.226
459.745
458.697
461.168
463.583
1089.1
465.578
465.114
459.302
459.221
459.302
459.302
459.302
459.303
459.302
459.304
459.302
460.804
466.549
461.695
459.348
465.583
460.737
929.646
459.346
458.713
459.246
459.439
459.427
498.679
459.54
459.315
470.415
465.478
459.299
460.496
459.302
459.302
459.302
459.439
460.073
460.079
459.295
459.302
770.015
460.174
459.281
660.223
459.453
469.133
459.263
461.853
464.5
459.771
459.59
459.307
459.294
459.767
459.618
459.415
459.351
459.429
478.475
569.531
459.694
459.923
459.378
459.302
461.706
464.413
465.433
470.955
459.716
927.357
800.801
744.711
470.664
459.453
459.603
459.618
459.785
459.739
459.347
459.292
459.302
459.302
459.3
459.3
459.3
459.301
459.3
459.301
459.301
459.301
463.686
460.301
464.043
459.382
459.301
459.301
459.301
459.301
459.301
459.3
459.3
459.301
459.3
459.301
459.301
459.301
459.3
459.305
459.303
459.309
459.307
459.334
459.324
459.354
459.353
459.431
459.438
459.594
459.591
529.55
516.367
524.04
525.36
840.305
463.983
463.434
462.154
466.334
459.632
536.071
459.244
502.942
459.331
738.912
459.321
459.323
700.407
459.25
466.014
466.416
485.18
506.729
461.052
459.488
459.301
463.649
463.033
466.66
459.306
459.305
459.306
459.308
459.307
459.307
459.305
459.31
459.307
459.312
459.324
459.328
459.352
459.409
459.349
459.372
459.443
459.561
459.491
459.88
459.745
460.583
460.306
461.379
460.924
462.44
461.756
463.328
462.974
463.693
463.774
463.06
463.568
462.032
462.632
461.399
461.517
460.507
460.927
460.099
460.23
459.724
459.891
459.612
459.645
459.509
459.534
459.383
459.419
459.208
459.242
459.763
468.355
459.294
459.42
759.749
730.063
459.327
458.678
458.755
458.984
459.298
461.359
459.549
967.036
744.909
662.364
459.545
459.538
459.003
458.834
459.431
525.635
459.7
459.257
954.195
788.958
462.817
459.964
460.685
459.596
459.452
459.616
462.302
461.623
463.109
459.299
459.299
459.298
459.762
459.768
459.805
459.809
459.437
459.431
459.302
459.334
476.655
466.312
461.827
461.876
543.794
497.281
459.499
459.493
569.449
459.323
459.307
459.295
464.785
459.3
459.735
459.337
459.301
462.457
461.61
459.352
459.364
459.304
459.92
459.915
564.786
570.44
921.102
1022.95
459.871
460.235
468.293
459.247
923.015
459.304
459.31
459.318
459.953
459.566
459.647
567.231
459.422
459.352
461.93
460.554
495.957
469.871
459.279
461.066
459.301
459.302
503.173
459.357
459.769
460.34
459.684
465.011
459.303
459.303
459.294
886.892
585.393
462.366
461.595
459.371
459.301
459.302
459.3
459.807
459.3
459.303
459.624
459.295
459.542
459.649
459.301
663.33
1028.02
459.301
503.744
571.897
530.564
459.298
459.301
459.326
459.324
461.141
460.466
460.436
459.355
459.294
459.337
460.273
459.482
607.968
460.636
459.347
540.076
740.332
566.581
459.378
459.298
459.836
919.121
459.784
459.3
459.3
459.301
459.3
459.727
459.342
611.54
990.082
459.3
459.3
459.3
459.3
459.3
459.301
459.301
459.3
459.3
459.303
459.302
459.311
459.311
459.334
459.335
459.372
459.371
459.491
459.489
459.744
459.74
638.002
460.353
776.052
459.282
458.991
459.986
689.134
531.536
459.313
760.496
459.305
459.305
459.309
577.217
939.684
459.921
459.915
461.378
460.576
481.496
459.306
459.312
459.312
459.312
459.313
459.318
459.321
459.32
459.327
459.352
459.353
459.381
459.438
459.369
486.288
459.463
792.757
459.665
459.503
460.122
459.771
460.946
460.393
461.731
461.313
462.871
462.47
463.692
463.601
463.598
463.963
462.829
463.226
461.558
462.227
460.937
461.188
460.235
460.481
459.897
460.071
459.691
459.78
459.559
459.632
459.378
459.406
459.23
459.279
459.378
459.375
459.36
459.458
459.304
459.306
459.303
458.8
461.126
550.03
459.978
458.955
459.25
459.268
459.239
459.3
459.3
462.775
459.301
459.3
459.3
460.641
659.744
459.918
459.315
459.307
462.596
462.553
459.298
459.296
459.296
459.833
459.87
459.655
459.441
459.424
461.731
459.021
459.616
459.583
459.835
459.295
459.297
459.295
463.658
479.046
459.523
459.519
459.325
645.739
673.542
669.947
624.398
621.617
461.451
460.151
459.821
459.774
459.364
462.46
462.473
459.345
742.101
459.939
459.81
459.992
459.99
811.046
937.518
754.561
459.325
459.325
458.964
462.553
460.668
534.972
459.679
461.943
460.911
462.052
459.31
459.399
459.529
496.83
460.964
459.515
459.184
471.475
461.464
459.298
459.297
459.646
459.661
458.913
804.868
459.347
459.434
458.717
459.363
459.348
459.328
459.317
459.782
996.361
459.273
459.282
459.25
459.273
458.531
458.396
460.262
460.65
683.43
458.746
458.766
458.86
461.136
461.05
461.744
459.561
459.441
459.587
459.298
459.31
459.3
458.885
459.037
459.351
459.38
459.305
459.305
459.329
458.443
459.299
459.3
459.894
459.541
459.377
459.298
459.3
459.298
459.302
459.3
459.309
459.307
459.323
459.314
459.356
459.355
459.424
459.412
459.58
459.578
459.801
459.797
458.831
459.31
459.3
459.318
460.337
459.74
459.851
459.855
458.837
459.747
458.845
459.327
459.326
459.334
459.335
459.349
459.348
459.385
459.362
459.406
459.446
459.408
459.759
459.507
460.313
459.918
461.15
460.711
462.071
461.768
463.436
462.641
463.993
463.905
463.336
464.054
462.245
462.882
461.259
462.022
460.49
460.738
460.075
460.359
459.785
459.952
459.598
459.66
459.424
459.52
459.303
459.297
459.311
459.357
459.281
459.275
459.431
459.429
459.296
459.676
459.678
459.315
459.306
461.676
459.406
459.521
458.841
459.311
459.312
459.326
459.553
459.525
459.349
461.262
461.475
460.429
459.836
459.833
460.226
461.662
462.062
459.317
458.85
459.951
459.947
459.3
458.999
458.975
459.307
459.359
459.39
459.299
459.299
459.138
459.304
655.934
459.308
459.553
459.335
459.321
459.168
459.062
459.278
459.3
459.301
459.308
459.335
459.298
459.371
459.446
459.468
459.57
460.078
459.665
459.329
459.405
459.29
459.284
459.299
459.298
459.567
459.574
459.3
459.3
459.312
459.3
459.299
459.3
459.749
459.886
459.37
459.893
460.036
459.056
460.531
460.594
459.297
459.295
459.144
459.021
459.888
459.297
459.301
459.309
459.308
459.327
459.319
459.388
459.388
459.476
459.433
459.662
459.676
459.819
459.817
459.376
459.296
459.296
459.731
459.533
459.545
459.302
461.599
461.336
461.812
459.122
459.297
459.343
459.36
459.361
459.386
459.375
459.408
459.416
459.512
459.511
459.886
460.721
459.93
461.785
460.895
462.663
462.24
463.372
463.185
464.239
463.495
463.01
463.394
462.042
462.743
460.703
461.242
460.353
460.562
459.96
460.076
459.669
459.817
459.52
459.446
459.592
459.3
459.326
459.34
459.323
459.401
459.359
459.411
459.644
459.296
459.296
459.651
459.834
459.685
459.894
459.311
459.308
459.313
459.869
459.873
460.115
459.459
459.333
459.334
459.356
459.522
459.836
459.408
459.296
459.297
459.68
459.637
459.716
459.496
459.295
459.933
459.434
459.553
459.772
459.539
459.441
459.383
459.296
459.297
459.296
459.14
459.301
459.344
459.342
461.49
459.529
459.296
459.299
459.299
459.299
459.561
459.324
459.447
459.52
459.86
460.161
459.536
459.3
459.299
460.77
460.68
459.761
459.772
460.11
460.479
459.372
459.414
459.356
459.41
459.432
459.316
462.013
461.454
459.276
459.459
459.402
459.928
459.298
459.41
459.323
459.454
459.836
459.676
459.871
459.874
459.397
459.91
459.423
459.426
459.455
459.466
459.925
460.95
460.117
461.773
460.973
463.25
462.077
463.487
463.234
463.45
463.672
462.749
463.147
461.24
462.261
460.727
460.921
460.109
460.286
459.827
459.945
460.462
459.919
459.358
459.385
459.359
459.527
459.365
459.363
459.404
459.578
459.254
460.046
460.133
459.539
459.379
459.352
459.303
459.649
459.636
459.406
460.519
459.425
459.325
459.45
460.159
460.288
459.315
459.781
459.756
459.89
459.948
459.628
459.602
459.771
461.561
461.995
461.391
461.34
459.298
459.464
459.569
461.423
460.511
459.529
459.628
461.091
461.145
459.742
459.625
460.127
460.119
459.533
459.802
459.737
459.954
460.651
462.132
460.675
463.026
462.071
463.699
463.304
463.164
463.797
462.262
462.519
460.992
461.895
460.287
460.467
460.275
459.575
459.705
459.577
460.059
461.508
459.857
459.506
460.012
460.132
459.629
460.182
459.427
459.457
460.642
459.375
462.246
461.783
460.285
461.423
462.191
462.041
459.447
459.404
462.133
462.299
462.726
460.244
459.413
460.628
462.685
462.959
461.917
460.465
460.714
460.474
461.361
459.825
459.821
460.679
460.118
462.745
461.518
462.673
461.012
461.03
459.601
461.357
459.463
459.591
461.704
462.388
460.101
462.417
462.771
459.771
462.543
462.648
462.394
460.001
462.581
462.835
459.29
459.295
459.299
459.3
459.301
459.302
459.302
459.302
459.302
459.302
459.302
459.302
459.302
459.302
459.302
459.302
459.302
459.302
459.302
459.302
459.302
459.302
459.302
459.302
459.302
459.302
459.302
459.302
459.302
459.302
459.302
459.302
459.302
459.302
459.302
459.302
459.302
459.302
459.302
459.302
459.302
459.302
459.302
459.302
459.302
459.302
459.302
459.302
459.302
459.302
459.302
459.303
459.303
459.304
459.304
459.304
459.304
459.305
459.304
459.305
459.305
459.305
459.305
459.304
459.304
459.303
459.304
459.303
459.302
459.303
459.302
459.303
459.304
459.302
459.301
459.299
459.294
459.293
459.303
459.303
459.302
459.301
459.302
459.302
459.302
459.302
459.302
459.302
459.302
459.302
459.302
459.302
459.302
459.302
459.302
459.302
459.304
459.303
459.303
459.303
459.302
459.302
459.302
459.302
459.295
459.297
459.297
459.3
459.301
459.302
459.302
459.3
459.302
459.304
459.304
459.302
459.302
459.304
459.304
459.303
459.302
459.3
459.297
459.294
459.303
459.302
459.304
459.301
459.302
459.303
459.303
459.303
459.303
459.303
459.302
459.303
459.302
459.302
459.302
459.294
459.301
459.302
459.302
459.302
459.301
459.299
459.296
459.294
459.304
459.303
459.302
459.301
459.303
459.303
459.303
459.302
459.302
459.302
459.302
459.302
459.293
459.303
459.303
459.302
459.302
459.302
459.302
459.302
459.301
459.3
459.297
459.304
459.299
459.302
459.303
459.304
459.304
459.301
459.303
459.303
459.298
459.297
459.302
459.301
459.302
459.302
459.295
459.3
459.3
459.302
459.302
459.302
459.302
459.302
459.302
459.302
459.302
459.302
459.302
459.302
459.302
459.302
459.302
459.302
459.302
459.302
459.302
459.302
459.302
459.302
459.302
459.302
459.303
459.302
459.303
459.303
459.304
459.303
459.304
459.304
459.304
459.304
459.305
459.304
459.305
459.304
459.304
459.304
459.303
459.303
459.3
459.302
459.302
459.304
459.305
459.301
459.303
459.298
459.299
459.298
459.302
459.296
459.296
459.304
459.295
459.304
459.301
459.302
459.301
459.3
459.3
459.303
459.303
459.301
459.302
459.303
459.302
459.302
459.302
459.302
459.302
459.302
459.302
459.302
459.302
459.302
459.302
459.303
459.303
459.302
459.302
459.302
459.302
459.302
459.302
459.302
459.302
459.302
459.305
459.304
459.296
459.303
459.303
459.303
459.303
459.301
459.301
459.3
459.304
459.303
459.302
459.303
459.303
459.303
459.302
459.304
459.302
459.304
459.302
459.296
459.298
459.302
459.302
459.302
459.302
459.296
459.302
459.303
459.302
459.303
459.303
459.301
459.301
459.301
459.303
459.303
459.303
459.303
459.299
459.299
459.302
459.3
459.302
459.302
459.302
459.302
459.302
459.303
459.302
459.302
459.302
459.302
459.303
459.303
459.303
459.304
459.303
459.303
459.303
459.303
459.303
459.297
459.297
459.302
459.299
459.302
459.301
459.303
459.303
459.301
459.301
459.302
459.302
459.302
459.302
459.302
459.302
459.302
459.302
459.302
459.303
459.299
459.303
459.302
459.302
459.303
459.301
459.302
459.302
459.299
459.302
459.303
459.302
459.303
459.299
459.301
459.301
459.3
459.301
459.299
459.302
459.302
459.302
459.302
459.302
459.302
459.302
459.302
459.301
459.301
459.301
459.302
459.302
459.302
459.302
459.302
459.3
459.301
459.299
459.301
459.302
459.302
459.3
459.302
459.302
459.299
459.3
459.3
459.306
459.346
459.491
459.779
460.09
460.028
459.688
459.491
459.408
459.342
459.261
459.165
459.33
459.229
459.968
460.296
460.514
460.411
459.613
459.358
459.156
458.713
458.694
458.989
459.289
459.282
459.285
459.284
459.298
459.289
459.323
459.303
459.387
459.336
459.562
459.417
459.717
459.588
459.956
459.768
460.121
460.004
460.196
460.157
460.111
460.128
459.911
459.984
459.678
459.806
459.55
459.605
459.451
459.476
459.399
459.409
459.368
459.383
459.346
459.346
459.288
459.325
459.237
459.282
459.186
459.214
459.107
459.114
458.967
459.039
459.283
459.303
459.305
459.307
459.307
459.307
459.308
459.31
459.306
459.309
459.305
459.308
459.303
459.304
459.303
459.304
459.3
459.303
459.3
459.3
459.296
459.297
459.295
459.295
459.289
459.293
459.289
459.288
459.289
459.287
459.288
458.879
459.311
459.413
459.597
459.951
460.11
459.9
459.56
459.45
459.37
459.301
459.225
459.473
459.447
459.645
459.295
459.776
459.805
460.465
459.865
459.981
459.386
459.258
458.964
458.644
459.321
458.833
459.446
459.754
459.31
459.305
459.356
459.596
459.951
460.166
459.98
459.693
459.489
459.382
459.335
459.258
459.907
459.279
459.111
458.679
458.744
460.109
460.102
459.831
459.564
459.427
459.355
459.296
459.234
458.709
458.993
459.612
459.224
459.305
460.148
459.592
459.96
460.067
459.312
460.176
459.857
459.602
459.43
459.361
459.307
459.243
459.255
459.643
458.937
459.463
459.301
459.765
459.564
459.368
459.331
459.311
459.025
458.988
459.54
459.519
459.439
459.037
459.095
458.798
459.463
459.49
459.282
459.282
459.286
459.284
459.301
459.293
459.337
459.309
459.415
459.362
459.569
459.488
459.724
459.607
459.876
459.797
460.047
459.948
460.047
460.057
459.887
459.896
459.712
459.826
459.546
459.628
459.45
459.521
459.402
459.42
459.372
459.392
459.352
459.358
459.316
459.325
459.281
459.297
459.227
459.235
459.125
459.125
459.028
458.843
459.037
459.312
459.379
459.398
459.311
459.314
459.311
459.311
459.316
459.309
459.316
459.306
459.31
459.305
459.306
459.303
459.305
459.3
459.302
459.297
459.299
459.294
459.296
459.291
459.292
459.289
459.288
459.676
459.602
459.111
459.062
459.31
459.788
459.319
459.338
460.255
460.074
459.701
459.498
459.388
459.339
459.269
459.357
459.551
459.324
459.459
459.783
460.191
459.24
459.379
459.679
459.384
459.485
458.769
459.632
460.25
460.042
459.286
459.258
459.323
459.28
459.013
459.3
459.348
459.428
459.54
459.864
460.283
459.2
460.092
460.35
459.227
459.283
460.256
460.222
460.321
460.384
459.92
459.296
459.548
459.717
459.793
459.438
459.288
459.275
459.357
459.323
459.318
459.367
459.109
459.323
459.327
460.121
460.204
459.334
459.31
459.381
459.366
459.519
459.567
459.283
459.282
459.66
459.66
459.288
459.285
459.306
459.297
459.35
459.323
459.44
459.378
459.541
459.465
459.703
459.596
459.727
459.708
459.839
459.754
459.702
459.76
459.652
459.685
459.551
459.551
459.455
459.453
459.4
459.411
459.377
459.391
459.353
459.356
459.317
459.323
459.282
459.314
459.239
459.263
459.174
459.22
459.436
459.445
459.326
459.362
459.34
459.875
459.75
459.329
459.324
459.338
459.314
459.325
459.311
459.316
459.308
459.31
459.304
459.307
459.299
459.302
459.296
459.298
459.29
459.293
459.287
459.284
459.287
459.439
459.263
459.276
459.282
459.192
459.219
459.201
459.488
459.446
459.328
459.976
460.357
459.341
459.37
459.407
459.338
459.545
459.462
459.399
459.314
459.355
459.991
459.113
459.399
459.351
459.449
459.447
459.045
459.133
459.43
459.117
459.346
459.469
460.07
459.149
460.244
460.176
460.417
460.393
460.398
459.348
459.531
459.52
459.389
459.35
460.232
460.357
459.312
459.376
459.357
459.591
459.363
459.67
459.616
459.284
459.286
459.29
459.285
459.309
459.298
459.347
459.328
459.425
459.388
459.513
459.47
459.602
459.55
459.663
459.615
459.644
459.618
459.574
459.546
459.474
459.462
459.424
459.438
459.374
459.39
459.373
459.37
459.346
459.352
459.323
459.333
459.301
459.313
459.268
459.235
459.267
459.469
459.481
459.347
459.334
459.318
459.828
459.754
460.013
460.173
459.33
459.354
459.324
459.328
459.32
459.324
459.309
459.318
459.303
459.31
459.297
459.301
459.294
459.296
459.394
459.801
459.892
459.358
459.941
459.413
460.432
459.358
459.211
459.342
459.338
459.4
459.347
459.36
459.304
459.28
459.117
459.395
459.638
459.465
459.221
459.287
459.287
459.289
459.352
459.342
459.296
459.351
459.327
459.21
459.232
459.274
459.28
459.269
459.344
459.965
459.389
459.428
459.244
459.244
459.28
459.358
459.523
459.649
460.334
459.342
460.336
460.115
460.004
459.601
459.594
459.288
459.289
459.291
459.289
459.314
459.294
459.36
459.326
459.409
459.394
459.462
459.441
459.53
459.47
459.516
459.513
459.493
459.499
459.454
459.465
459.415
459.427
459.39
459.393
459.367
459.364
459.341
459.347
459.328
459.332
459.311
459.313
459.318
459.488
459.459
459.61
459.301
459.757
459.69
460.206
460.237
459.362
459.387
460.421
460.373
460.391
459.368
459.388
459.339
459.361
459.323
459.335
459.31
459.319
459.304
459.307
459.295
459.301
459.864
459.969
459.325
459.345
459.393
459.371
459.296
459.84
459.344
459.335
459.347
459.285
459.346
459.338
459.748
459.345
460.186
459.455
459.337
459.331
459.315
459.309
459.303
459.468
459.338
459.353
459.344
459.423
459.835
459.35
459.322
459.346
459.294
459.29
459.41
460.154
459.274
460.044
459.984
459.566
459.472
459.444
459.295
459.308
459.298
459.327
459.32
459.367
459.349
459.407
459.376
459.446
459.43
459.456
459.454
459.443
459.46
459.423
459.435
459.389
459.415
459.379
459.389
459.362
459.369
459.349
459.356
459.33
459.341
459.318
459.297
459.327
459.289
459.683
459.604
460.21
459.428
459.507
459.371
459.353
459.388
459.333
459.347
459.32
459.329
459.307
459.308
459.321
459.933
460.041
459.412
459.41
459.421
459.714
459.865
459.279
459.348
459.325
459.31
459.358
459.358
459.336
459.341
460.149
459.356
459.709
459.59
459.508
459.605
459.512
459.36
459.379
459.361
459.394
460.222
460.332
460.309
460.305
459.297
459.353
459.348
459.308
459.314
459.318
459.392
459.586
459.806
460.125
459.91
459.379
459.963
459.326
459.322
459.352
459.348
459.398
459.373
459.422
459.416
459.441
459.448
459.447
459.45
459.453
459.441
459.401
459.427
459.389
459.399
459.367
459.371
459.358
459.36
459.345
459.35
459.446
459.426
459.505
459.554
459.468
459.789
459.844
459.377