/*--------------------------------*- C++ -*----------------------------------*\
| =========                 |                                                 |
| \\      /  F ield         | OpenFOAM: The Open Source CFD Toolbox           |
|  \\    /   O peration     | Version:  v2012                                 |
|   \\  /    A nd           | Website:  www.openfoam.com                      |
|    \\/     M anipulation  |                                                 |
\*---------------------------------------------------------------------------*/
FoamFile
{
    version     2.0;
    format      ascii;
    class       volScalarField;
    location    "2.5";
    object      qr;
}
// * * * * * * * * * * * * * * * * * * * * * * * * * * * * * * * * * * * * * //

dimensions      [1 0 -3 0 0 0 0];


internalField   uniform 0;

boundaryField
{
    fire_inlet
    {
        type            calculated;
        value           nonuniform List<scalar> 
41
(
9900.37
9698.06
10606.9
9763.54
4793.1
21794.3
30865.2
29433.8
30973.8
17965.4
24856.7
28703.9
28259.2
26493.5
30371.5
33189.3
12290.8
8504.3
11234.4
6586.4
13413.8
12610.4
8219.9
12012.2
20375.6
23971.7
31389.9
21697.4
21034.5
13731.3
17417.9
23733.2
24802.8
22180.9
27931
31855.7
32640.7
30737.7
31886.4
32895.2
30595.7
)
;
    }
    outlet
    {
        type            calculated;
        value           nonuniform List<scalar> 
400
(
9.93625
8.25035
8.10475
5.24631
4.73293
4.29319
8.12945
19.3455
34.0553
26.3749
17.7696
20.367
13.344
13.7377
16.1553
11.7656
34.3146
11.2612
11.2799
10.9763
12.2078
11.4888
13.7071
11.1879
17.0745
13.6933
21.2216
21.6349
17.3033
5.53018
19.3296
8.80426
6.05795
4.00928
5.32258
8.00377
15.2736
7.29516
5.12097
4.27496
9.9271
6.34772
4.34892
8.76194
4.72452
5.37972
4.12674
4.03653
5.12814
5.30648
4.96731
9.55221
3.843
3.6496
6.02059
6.70466
5.76482
16.7274
19.3695
12.255
13.2414
5.97677
10.1278
11.567
8.85693
15.2067
11.3344
8.51717
5.57285
12.9679
6.18776
10.255
11.6606
7.71496
18.4238
9.08287
8.58663
4.77195
10.045
18.6886
4.20995
11.1612
11.1876
9.0889
7.22948
6.63155
6.27447
8.99888
5.09835
8.39672
6.236
7.98963
8.37289
5.31516
4.66112
4.88828
5.43149
5.60807
6.61853
6.27209
8.26521e-05
0.000231603
-0.000652087
-0.0014254
-0.00115335
-0.000948153
-0.000994251
-0.00102153
-0.000674119
-0.000640071
-0.000852197
-0.000792503
-0.000926287
-0.000860828
-0.00089048
-0.000933376
-0.00066084
0.000152743
-4.45763e-05
-0.000102409
-0.000348976
-0.000382412
-0.000334032
-0.000297677
-0.000584329
-0.000522444
-0.000576849
-0.000634303
-0.000650029
-0.00116865
-0.000962059
3.73417e-05
-0.00094347
-0.00111039
-0.000941983
-0.00090286
-0.000955349
-0.000502109
-0.000914278
-2.37422e-05
-0.000882929
5.74482e-05
-0.000486834
-0.000993799
-0.000934836
-0.000818708
-0.000924233
-0.000905787
-0.000788105
-0.000808727
-0.000766799
-0.000818287
-0.000469548
-0.000278698
-0.000325937
-0.000803095
-0.000759847
-0.000869487
-0.000844365
0.000311614
-0.000446697
-0.00033015
-0.000488557
-0.000559197
-0.000513361
-0.000865315
0.000181975
-0.000891742
-0.000522088
-0.000946547
-0.000892658
-0.000916316
-0.000210696
-0.000882821
-0.000569725
-0.000142094
-0.000874607
-0.000717901
-0.000784936
-0.000558338
-0.000233173
-0.000295136
-0.000911437
-0.000864565
-0.000827587
-0.000813294
-0.000527179
-0.00072665
-0.00088046
-0.000496431
-0.000892857
-0.000546002
-0.000620245
-0.000623734
-0.000774889
-0.000809911
-0.000730097
-0.000760215
-0.000716383
-0.000805474
-0.000843213
-0.00090197
-0.000889062
-0.000857119
-0.000830701
-0.000680535
-0.00068803
-0.000900459
-0.000777615
-0.000837513
0.454728
0.790152
1.31067
1.08459
2.10844
1.67655
2.60157
2.98148
3.46968
3.53683
2.80785
3.83905
2.32281
5.03711
6.70742
6.14669
8.34379
7.91928
7.85785
8.25237
6.80527
7.66601
5.45676
6.42976
3.0791
4.42232
1.84342
2.11875
0.703121
1.26014
0.318447
0.200346
0.441398
-0.090623
-0.128432
-0.119424
0.0454221
0.111231
0.138286
0.188591
0.669716
0.931461
0.578206
0.196296
-0.0394008
-0.0879195
0.716421
0.835543
-0.0865066
-0.138808
-0.0749747
-0.0940417
-0.0753361
3.49395
0.96428
0.705858
0.260753
0.0362203
0.686901
0.617701
0.126305
1.00504
0.101872
0.0192505
0.301047
0.677875
0.782433
1.52922
2.48178
3.60245
2.52507
4.58613
3.65258
4.99258
5.46675
4.37122
0.847939
8.2692
8.14997
8.45216
7.7654
7.74921
6.22043
7.0312
4.1591
4.7493
2.29577
2.99794
1.24
1.56659
0.427291
1.03587
0.0440289
0.0607947
0.271885
0.194748
0.161223
1.04121
0.94535
1.09115
1.70576
1.19435
0.489197
0.452708
-0.0651852
1.17112
1.7274
6.11992
-0.00916718
1.7004
-0.0118945
6.93223
0.451727
7.41321
0.0985303
0.0809306
1.83998
0.100561
0.767273
0.296566
0.414382
0.634514
5.58938
6.54991
7.26387
5.90636
2.41014
8.30756
7.79956
2.76963
7.76817
7.45984
6.46967
6.98456
4.20801
5.29851
2.84071
3.36931
1.45379
0.951271
1.92724
3.83556
0.58721
0.399431
0.991954
1.81536
0.339696
0.486948
0.276277
1.07359
1.67391
0.924986
3.15436
2.50951
4.29233
0.56982
0.349528
2.44575
3.01903
2.32305
6.95327
6.35974
6.57484
6.41844
5.99375
5.98597
4.24942
4.5074
1.84026
1.30717
2.89253
0.794887
0.886661
1.44077
4.38384
4.67507
3.12969
1.32724
1.92702
5.16232
3.17696
2.54299
3.47365
1.8775
2.7431
2.71492
2.45294
3.58878
4.70076
4.61773
)
;
    }
    base
    {
        type            calculated;
        value           nonuniform List<scalar> 
14237
(
1540.12
1997.25
2155.32
634.087
1241.69
1577.06
1874.21
1935.46
3455.15
5954.23
7897.08
542.299
647.341
786.577
944.75
1167.45
2064.63
2225.2
2773.35
3029.03
3561.86
4819.47
5899.85
7304.22
7638.7
8110.99
5691.87
494.83
525.922
2004.94
940.5
999.511
3306.96
3808.21
4117.4
7373.13
8189.54
690.269
8284.33
2006.83
2330.63
2780.92
6809.59
734.584
9088.35
8991.08
8700.48
3260.55
2615
2249.67
5722.86
650.391
2409.63
2056.69
2267.43
2674.72
1930.09
567.573
2943.58
3473.41
-13574.9
-11837.4
6015.2
3649.61
-1733.9
4525.17
-18510
-7957.5
3351.36
3978.87
3318.48
-0.00616192
-0.00537172
-0.0038136
-0.00542657
-0.00247262
-0.00390194
-0.00205915
-0.00261233
-0.00149689
-0.00203047
-0.00108433
-0.00149909
-0.000976306
-0.00110695
-0.000746699
-0.00088291
-0.000610394
-0.000749706
-0.000508344
-0.000605775
-0.000266163
-0.000428248
-0.000154288
-0.000145759
-0.000178689
-0.000170406
-0.000199162
-0.000183752
-0.000166578
-0.000181491
-0.000171894
-0.000181563
-0.000186553
-0.000191638
-0.00014738
-0.000180013
-0.000101358
-0.000107534
-0.000147382
-0.000141962
-1.30095e-05
-6.62367e-05
0.000185293
2.03117e-06
0.000280741
8.75249e-05
0.000681157
0.000272353
0.00116844
0.000993872
0.00191892
0.0015164
0.00281806
0.00286878
0.00371465
0.00379375
0.00601033
0.0065427
0.00908857
0.0153617
0.0354671
0.0380832
0.276969
0.32444
10.1458
12.2795
10.6037
14.9901
12.0347
6.14982
2.13346
0.884843
0.450602
0.000618925
0.00085108
0.0010366
0.00221026
0.00511063
0.0153544
0.0348554
0.0652625
0.157606
0.630915
2.36088
8.54201
0.00024669
0.000184107
0.000138313
-9.27824e-05
-1.52781e-05
-0.000247646
-0.000337461
-0.000361371
-0.000286566
-0.000701545
-0.000913537
-0.0013001
-0.000750998
-0.00249272
-0.00175771
-0.00479849
-0.00376989
-0.00731841
-0.00616518
-0.00918482
-0.00811525
-0.00535578
-0.00561103
0.00751233
0.0315475
0.00661304
0.0754765
0.0444637
0.201145
0.106975
0.487415
0.298738
0.950304
0.660405
1.57814
1.23696
2.57155
2.11493
3.35351
3.04805
3.78257
3.78064
3.74178
3.99986
2.9765
3.33671
2.15414
2.54013
1.5256
1.87269
0.916452
1.22923
0.597857
0.678784
0.347191
0.450349
0.244593
0.303792
0.158589
0.201748
0.0822372
0.103268
-0.0276899
-0.00471653
-0.172057
-0.159574
-0.413424
-0.323965
-0.76464
-0.591015
-0.594866
-0.757056
3.03713
-0.12057
0.207893
1.27254
9.48454
23.0809
39.5134
25.0358
18.8137
131.58
360.146
271.314
97.2102
219.891
442.635
228.861
43.6222
27.7492
43.6533
37.0357
24.3079
-0.122125
-0.00791315
-0.00670899
0.0290776
0.154224
0.360278
0.360489
0.188068
0.0718334
0.0319597
0.00141637
-0.0413477
-0.14017
-0.121495
-0.00015797
0.512933
7.79438
10.0447
12.8224
11.2421
11.9779
9.40309
3.47304
1.50109
0.625613
0.000540406
0.000737949
0.000872148
0.000946169
0.00149733
0.00313666
0.00782694
0.0261032
0.0484563
0.098288
0.233087
1.19545
3.90008
2.82579
9.52625
18.6775
0.209412
-0.0913301
0.451585
0.455014
4.67494
18.678
34.1364
31.1877
21.1325
36.8288
248.216
384.727
168.481
129.495
360.923
381.078
90.0392
22.8829
35.2604
50.4956
32.1602
9.65192
-0.00823896
0.00506785
0.096068
0.258119
0.405888
0.284494
0.118224
0.0426649
0.0229861
-0.0210838
-0.0836278
-0.00631683
10.1755
10.0686
9.54825
6.76065
2.88676
1.49434
0.622263
0.429708
0.00108724
0.00209247
0.00548057
0.016155
0.0342051
0.0683743
0.268233
1.25904
4.05244
8.35736
0.000387197
39.7112
25.1192
25.1833
195.475
409.053
266.753
142.17
377.703
478.206
131.44
27.2527
35.9723
50.1877
33.2485
12.6981
-0.00459594
0.0301295
0.155516
0.378373
0.358546
0.179789
0.0679388
0.0290177
-0.0128781
-0.0741135
31.3134
6.63878
9.50241
10.9323
7.93266
5.37427
2.44554
0.904871
0.46606
0.009767
0.0258561
0.053014
0.132217
0.538808
2.55952
8.06606
68.9391
325.062
410.601
157.848
221.399
486.112
308.899
57.954
27.0295
34.6366
39.86
25.9768
3.5113
-0.0084826
0.00667444
0.100156
0.269707
0.41663
0.281729
0.110891
0.0407324
0.0151395
-0.033496
8.27406
0.0031681
0.00152867
23.2157
1.28073
21.738
4.75181
34.3162
-0.00801591
10.7644
0.494745
-0.00374769
-0.0029923
-0.00378921
-0.00218297
-0.00291333
-0.00158735
-0.00183739
-0.00119067
-0.0015877
-0.000774296
-0.00114092
-0.000634843
-0.00077398
-0.000565527
-0.000641822
-0.000364613
-0.000409665
0.000425419
0.000355205
0.000320776
-0.000267759
-0.000215585
-0.000273471
-0.000238413
-0.000243743
-0.000277449
-0.000334661
-0.000318409
-0.000408381
-0.000234338
-0.000431965
-0.000404653
-0.000547421
-0.000285121
-0.000501746
0.000121182
-0.000215644
0.000535015
8.8432e-05
0.00123921
0.00068065
0.00263663
0.00146027
0.00545605
0.00389242
0.00843227
0.007109
0.0143805
0.0116097
0.0378013
0.0220513
0.0980564
0.106084
0.430981
0.690213
0.481484
0.0012351
8.06948
9.87066
8.96365
5.41921
8.16239
5.28363
6.52757
4.99182
2.58585
1.13303
0.76979
0.379326
0.349555
0.00529958
20.2849
0.00072778
0.000924095
0.000459358
0.000365111
0.000119815
14.4691
0.00321592
0.00187926
0.00309474
0.000829817
0.000334963
3.21099e-05
0.0174854
0.064823
0.148267
0.849008
1.6993
4.8655
8.05779
54.9141
-0.00891839
5.56022
4.81366e-05
-0.000769127
-0.000283415
-0.000160768
-0.000633263
-5.96974e-05
-0.00051996
-0.000640011
-0.000680038
-0.00204003
-0.000824988
-0.00481111
-0.0037471
-0.00673808
-0.00306091
-0.00579215
-0.0057344
-0.00351327
-0.00220399
0.00804603
0.0415177
0.00743295
0.70266
0.106372
0.055842
0.291952
0.165249
0.601228
0.388963
1.1396
0.77827
2.12925
1.51605
3.00391
2.53803
3.80449
3.51502
4.02973
4.14542
3.49559
4.0088
2.55935
3.17955
1.88839
2.10715
1.24586
1.51224
0.673249
0.982619
0.464529
0.518119
0.313648
0.388245
0.203339
0.256128
0.137395
0.162825
-0.00545404
0.0301777
-0.153691
-0.122806
-0.331836
-0.310476
-0.649269
-0.551511
-0.622975
3.40176
-0.70323
16.3524
0.0913565
0.0919873
24.9346
14.558
14.6775
6.45689
6.49622
-0.0752599
11.047
11.3053
5.93234
24.0899
38.6852
2.75756
0.648637
2.77521
342.489
516.64
187.105
265.199
575.091
326.7
58.4469
23.9051
34.4665
29.9669
8.01202
5.96429
3.38665
4.03039
-0.000202883
0.00468388
0.0957762
0.260946
0.435781
0.29665
0.119158
0.0485544
0.0162317
-0.0293338
4.99911
5.96324
27.4751
16.1355
-0.100087
-0.00651032
2.68365
4.97127
-0.00540721
-0.00539299
-0.00636376
0.000145236
-0.000234549
-0.101033
0.342902
-0.08071
-0.0971531
-0.000218481
-0.000203573
6.62599
6.83712
3.81644
3.21311
5.3614
1.39744
0.5027
0.358223
0.32152
0.376956
0.330726
3.22744
0.324968
0.0884642
0.0125236
0.0315336
0.00450322
0.312478
1.18116
2.70091
6.49566
6.4164
-0.000213534
20.3827
-0.00747241
8.18739
15.7633
186.411
500.087
394.618
161.292
453.06
524.777
138.211
29.7841
34.2494
41.5598
17.205
125.395
-0.00497705
7.68212
-0.00249985
0.0271354
0.148659
0.373278
0.372309
0.187391
0.0732486
0.0308351
-0.0102582
35.1229
11.6368
2.05702
95.7209
-0.0277925
0.0285331
0.0724793
0.181541
0.400587
0.38053
9.9433
24.765
-0.0570136
0.00701701
0.047867
0.116649
0.29903
0.440343
0.0956138
14.7368
22.645
24.531
31.8098
229.626
608.129
441.875
9.9427e-05
-0.00815632
5.91333
6.44324
2.19611
-0.00708783
1.24321
-0.000254481
0.190957
5.04795
1.76215
431.458
2.30205
7.46909
0.0405327
0.0107704
0.0191919
0.4737
3.33301
615.492
223.786
287.125
572.026
264.064
519.302
524.477
155.481
0.00497762
0.18366
0.0277776
0.297324
0.00501991
-0.00391752
-0.00195595
-0.00322133
-0.00158179
-0.00218048
-0.00127701
-0.00149778
-0.000929871
-0.00115528
-0.000770392
-0.000949842
-0.00044551
-0.000259367
-0.000773808
0.542982
12.3195
0.327567
0.530299
-0.000383685
-0.000444943
-0.000574026
-0.000415938
-0.000447208
-0.000579638
-0.00086618
-0.000902013
-0.000959459
-0.000672011
-0.00104841
-0.000379167
-0.000572203
-4.16546e-05
-0.000943317
0.000797084
0.000630061
0.0017872
0.00141367
0.00402683
0.00421849
0.0142534
0.0141619
0.033511
0.0233834
0.0677561
0.0682415
0.195555
0.192344
27.8781
19.4427
22.2313
19.0225
406.829
-0.00678935
4.86551
-0.000310906
2.16193
0.140076
0.024353
0.10491
0.0315509
16.1963
13.416
0.0149174
0.0210526
0.00156562
0.00159713
4.94357
665.504
3.44635
4.86898
1.13181
6.90825
0.737217
537.111
-0.000345469
-0.000563334
-0.000488625
-0.000802762
-0.000479584
-0.0014346
0.000984036
0.00224876
0.000143825
0.00174111
-0.00264052
0.000204579
-0.0019733
-4.22443e-05
-0.000991528
0.000860437
0.00641361
0.0065075
0.019247
0.0527971
0.0210364
546.306
0.154593
0.110307
0.391232
0.255565
0.772577
0.575598
1.53456
1.26998
2.55148
2.03443
3.53455
3.0702
4.18696
3.99822
4.03639
4.35805
3.20035
3.59957
2.19917
2.58759
1.52092
1.90769
0.989786
1.12565
0.521748
0.786583
0.390978
0.45761
0.255165
0.302606
0.161873
0.205012
0.0273624
0.0696103
-0.146195
-0.0799866
-0.313682
-0.272298
-0.0929288
-0.0527311
0.122854
0.287797
32.9053
8.07456
228.052
348.554
409.776
652.616
645.948
345.051
256.324
548.192
624.874
1.61758
647.764
634.035
533.369
5.9394
28.379
11.6108
-0.0581123
11.3522
118.544
145.186
34.5351
40.7612
0.147361
9.30404
12.7661
6.2826
0.0180859
0.0651772
0.026066
0.0656261
0.38212
0.425297
0.195788
0.0796348
0.0316982
0.0225906
16.6327
10.0393
11.358
-0.00650861
-0.0800841
12.2944
9.75624
2.59349
23.74
47.9128
76.1497
31.6108
0.368779
26.9427
28.6947
44.5541
0.174172
3.5023
3.88743
1.80109
0.00169862
-0.00856034
-0.00845121
-0.00626318
-0.00550746
-0.00649239
34.4095
52.4609
10.3945
0.179838
0.116488
-8.5712e-05
4.56654e-05
89.0265
0.541093
0.522404
32.5031
48.3084
-0.0040507
-0.0840203
0.432133
-0.606635
1.86476
4.27838
629.631
6.25202
5.78738
-0.000231527
-0.0797164
4.96626e-05
-0.000267192
0.000439515
0.000891226
0.00025488
0.00207388
5.46369e-05
1.50187
7.24261
2.39309
0.0457341
6.28092
1.43499
470.273
0.0437408
-0.590434
-0.0550841
0.137377
0.125056
39.3477
0.239021
0.014688
11.108
6.17298
-0.00255808
1.19152
-0.000273834
9.29226e-05
-0.000373322
0.13897
0.770294
0.776316
-0.00674255
3.5085e-05
310.404
0.871432
-0.0196857
200.806
0.152766
9.8115
-0.0375647
2.53483
5.17337
0.457481
0.288221
0.00467776
-0.00667512
0.465487
0.317043
0.113634
0.050421
0.128162
19.1544
110.16
0.393171
0.621902
0.0774703
-3.41623e-05
2.38895
5.11108
6.1314
11.6244
0.41465
467.612
341.198
285.242
11.3393
0.151699
0.301667
0.316966
0.483746
0.437041
0.0460966
-0.00969799
-0.000380012
-0.000108467
-0.00220511
-0.00164524
-0.0020371
-0.00125888
-0.00159676
-0.000978804
-0.00100473
-0.00074611
4.38411
0.988432
4.73974
0.0812585
-0.00085366
-0.00108788
-0.00124617
-0.00120812
-0.00119485
-0.00138559
-0.00148585
-0.000755926
-0.00157261
-0.000668208
-0.000988372
-0.000372268
-0.00126407
0.0032761
0.00124631
0.00798549
0.00570421
0.0324843
0.0227181
0.052607
0.0518255
0.130125
0.136673
0.293167
0.289717
70.1871
57.025
64.722
66.0407
380.628
4.68123
4.13239
2.84307
7.02695
0.330415
76.7278
-0.0564042
43.6179
0.0290881
279.495
0.0193885
0.0211347
240.972
-0.0508863
6.70806
7.10937
25.8599
47.3981
1.75043
0.186409
-0.000786892
4.34702
3.7314
7.3533
0.00383284
0.00238902
0.00413658
0.0056349
0.0044431
0.00461063
0.00272895
0.00762784
0.00497614
0.00919973
0.0214015
0.0255954
0.0490795
0.106679
0.0465815
0.0699304
0.140685
0.258203
0.188332
0.576825
0.442009
1.28057
1.00283
2.07584
1.62103
3.13674
2.45323
4.02468
3.67047
4.38931
4.4711
3.75723
4.26439
2.72903
3.32943
2.09686
2.21406
1.20511
1.62432
0.796734
0.927954
0.421677
0.58937
0.31059
0.34358
0.206904
0.23178
0.0811991
0.117457
-0.0940365
-0.0600381
0.460709
9.04357
-0.00683076
0.118946
300.17
270.483
0.0269531
-0.625901
-0.550869
-0.317916
-0.0042226
2.04463
0.238451
507.633
285.507
202.922
0.243156
0.225571
-0.304027
-0.472258
0.129483
66.2772
0.39859
-0.0441515
494.813
329.582
3.51234
0.662331
1.38307
0.294283
0.149855
0.314707
2.99977
2.3212
3.80725
-0.00311578
-0.00256941
-0.00425278
0.460058
0.466153
0.502985
0.50774
0.136285
0.129771
5.51955e-06
0.0337593
17.3374
6.99961
2.52398
2.57293
84.4413
37.9512
0.197994
0.192297
110.02
0.0219478
0.00615041
-0.00655814
5.48044
-0.00117874
0.433702
0.0363696
-0.00091923
3.15545
2.30844
0.0499533
0.0620618
0.001604
0.619033
0.614297
105.384
111.104
461.378
563.179
0.563161
0.923746
8.98225
-0.0543075
463.629
0.00173209
0.00784184
0.0160715
0.651949
0.265087
0.346668
107.861
0.121393
0.0499971
2.62655
1.25214
36.6376
10.5633
-0.0213704
1.7641
-0.00109705
0.000250485
43.8415
0.0557005
0.467202
1.0376
0.381788
5.70218
0.000743641
0.00104344
-0.00791341
427.476
126.056
3.0628
2.2922
0.0705095
-0.00125007
-0.000614568
-0.00218311
0.505839
-0.00162513
0.00197104
0.322437
-0.0066752
0.240081
0.345912
-0.000994433
203.907
568.336
-0.0012228
44.4208
112.561
71.2254
-0.00426766
-0.00115684
0.023714
0.0221742
1.83825
1.16381
1.13339
0.0544014
-0.00765372
0.0360339
0.960072
0.17336
148.535
1.33518
0.0458224
80.6974
280.813
107.162
0.0773114
-0.00386183
0.533815
459.702
0.482143
-0.0016669
-0.00151861
-0.00124551
-0.00147288
0.42511
0.0400982
152.09
530.372
-0.00149183
-0.00153814
-0.00181274
-0.00155585
-0.00155596
-0.000777165
-0.000856478
-0.00110515
-0.00147503
0.00141451
0.000837397
0.0101476
0.010029
0.0330991
0.0332841
0.0703385
0.0693708
0.190137
0.188056
0.442482
0.439127
178.576
1.04287
316.664
-0.0192155
-0.311331
0.684469
229.751
72.1919
0.0119631
301.025
0.00319833
0.00274853
0.00668476
117.852
480.104
0.61997
0.614205
2.07505
1.27433
22.1799
0.00408834
0.00940003
0.010198
0.00946919
0.0110077
0.0153292
0.018157
0.0175445
0.0242543
0.0498444
0.0502475
0.078242
0.135656
0.0666411
26.9659
0.16145
333.39
0.362456
0.199934
0.81898
0.468194
1.64291
1.09028
2.42843
2.01029
3.56744
3.16738
4.38838
4.29813
4.2946
4.65938
3.52629
3.9231
2.25506
2.92438
1.63441
1.88584
0.932515
1.17854
0.595282
0.768729
0.389297
0.478511
0.257589
0.330082
0.0763494
0.103879
-0.0717074
-0.0230856
0.0766846
0.0744951
0.0577803
0.156365
0.00200077
0.00397884
0.000659063
-0.504898
1.82425
90.6722
0.675792
-0.350404
-0.0511331
-0.0324571
-0.062213
-0.00169218
-0.00140835
3.4736
-0.00124589
-0.00155838
-0.00198109
1.33863
200.401
0.606591
0.0138518
0.00587516
3.29456
3.25124
-0.00408938
-0.00540735
-0.00594314
0.531126
0.568685
0.353156
0.139547
0.12262
2.42229
-0.285479
0.314
0.280581
0.533214
-0.00656278
-0.00475756
-0.00696533
4.35308
19.7277
0.221735
0.218228
0.0241204
186.331
214.189
210.597
164.987
162.265
2.14484
0.839733
0.519953
0.472257
0.0621412
3.15827
3.17075
0.0431409
282.516
0.638032
0.508377
0.691381
0.688685
351.459
477.782
295.174
0.0231949
0.0228578
-0.338211
3.24989
1.36652
75.6288
0.378084
2.64146
1.60916
2.75063
0.00752877
0.0979455
0.228232
37.5037
1.65868
0.211904
-0.119776
12.166
2.1615
-0.0038944
-0.00488774
0.344869
0.359891
-0.394157
345.246
0.0453441
0.132822
-0.587071
0.0625373
0.047288
0.0273023
0.0162618
0.480533
536.736
-0.0278611
-0.0191822
-0.0512025
-0.0288452
-0.774576
-0.909415
0.96033
1.3484
223.983
-0.558503
-0.53788
-0.443532
1.83406
1.74821
2.44231
0.25986
0.139712
0.285869
-0.00346923
0.00782389
-0.00174329
-0.421486
-0.267835
0.0502327
0.0782511
0.00252253
0.0025777
0.0277462
-0.861136
-0.00311792
-0.00187877
0.592389
0.23962
0.0762676
-0.0035976
-0.00116919
-0.00411104
0.000328739
-0.00123825
0.0074679
0.0053088
0.0214704
0.0127723
0.0542853
0.0537075
0.123001
0.110429
0.279159
0.276865
0.499888
0.496248
-0.471857
0.00845951
-0.00195355
0.0160846
1.03556
0.438974
0.550483
0.553852
-0.465739
0.446153
-0.459705
0.0243082
0.0238659
0.0314305
0.0326836
0.0465992
0.0455746
0.0828464
0.0594763
0.103814
0.143415
0.105654
0.456717
0.204215
1.01007
0.615887
1.8474
1.40848
2.76858
2.46543
4.13248
3.33787
4.68941
4.6021
4.03275
4.75116
2.94243
3.57893
1.95656
2.71958
1.18815
1.43594
0.772863
1.05725
0.482983
0.650461
0.29624
0.358689
0.122708
0.218085
0.000752629
-0.00359095
0.0101614
0.0551396
-0.0197131
-0.026337
0.130472
0.127995
-0.00611483
0.375723
0.37713
0.0145294
0.00517936
2.37405
0.103712
0.219224
-0.462565
0.00926813
0.0102986
0.0236615
0.252259
0.224111
0.0477976
1.96066
2.17369
1.12772
0.534242
0.531908
0.924008
2.35965
2.75998
0.0145236
-0.452626
0.64951
0.646005
-0.00172639
-0.30347
-0.327818
0.00571308
0.0572716
0.0884088
-0.00266047
-0.00336704
-0.1645
0.00149353
196.566
0.00609227
0.252464
0.0345706
0.0191198
-0.134333
-0.240242
-0.0239538
-0.00195704
-0.00137213
0.00619652
0.0328679
-0.00427176
0.0689624
0.144386
0.165811
0.268451
0.776803
0.363451
0.0285177
0.104676
-0.010996
-0.0168088
-0.00275865
-0.00391137
0.265765
0.272983
-0.00209732
-0.0020723
0.00993805
-0.00176287
-0.00265981
-0.00172858
0.448025
0.584873
0.0695042
0.590833
0.734009
-0.247043
1.2289
1.2918
-0.0046228
-0.00661011
-0.15854
-0.282262
0.586272
-0.00515265
-0.000409008
0.00764624
0.00658929
0.0255578
0.0175959
0.0869776
0.0862961
0.174326
0.131954
0.360384
0.374268
0.517347
0.515635
0.0738839
-0.00592668
-0.00582481
0.429699
0.230573
0.243925
0.00142319
2.29669
2.03392
2.50999
-0.179945
-0.0051908
0.0403275
0.0576065
0.0586463
0.0837315
0.0728227
0.105595
0.113525
0.209985
0.208251
0.583246
1.41831
0.627021
2.4824
1.5925
3.3604
2.93714
4.06891
3.88239
4.93583
4.19187
3.70751
4.09097
2.73898
3.44017
1.40066
1.93924
1.05138
1.25973
0.658004
0.773883
0.367159
0.51553
0.218347
0.144526
0.289783
-0.00231645
0.0234804
0.0376713
0.0206207
0.0995003
0.0572972
0.109937
0.343515
-0.00433005
-0.00583252
0.34934
0.532841
0.384525
0.59306
0.00898813
0.00625853
0.0126736
0.567402
0.571279
0.813975
0.156856
0.0313419
0.0317875
0.0538125
0.22017
0.534919
0.106504
-0.00604327
-0.00451518
0.379038
0.33591
0.41372
0.195528
-0.00638817
0.631776
0.13375
0.252026
0.470376
0.236905
0.139259
0.0816572
-0.00593486
-0.00473194
-0.00540953
-0.162015
-0.000491185
0.0418511
0.0399803
2.18817
0.227201
-0.00604471
-0.00249748
-0.00258
-0.0028449
0.259831
0.0228194
0.145721
0.218747
0.559107
0.859233
0.233739
-0.00156615
-0.00328856
1.46805
1.37775
0.458835
0.469984
0.808736
1.1779
0.0715992
0.113524
0.0550784
0.107995
0.130338
0.0136839
2.7109
2.15185
-0.0257564
0.157145
0.0997911
0.62686
-0.00356899
0.109469
0.0213307
0.152382
0.534163
0.374307
0.569978
0.572851
0.094241
0.608667
0.120807
0.123669
0.152518
0.16404
0.622645
1.64689
0.814335
2.4706
1.67022
3.94698
2.77468
4.18447
3.93152
4.14712
4.3693
3.44644
3.8446
1.93814
2.9588
1.42515
1.61926
0.807372
0.984005
0.5253
0.642854
1.16064
0.617895
0.0555828
0.0827927
0.0565916
0.226
0.0631748
0.0606865
0.102209
0.276014
-0.0478893
0.74418
0.831008
0.237968
0.0781724
0.0500172
0.00127268
0.347529
0.334975
0.104921
1.21692
0.123866
0.0235964
0.147825
0.857226
0.985524
0.0135371
0.47809
0.453514
0.587875
0.645603
0.326377
0.300852
0.469698
2.2594
2.69269
2.0893
2.03767
-0.0033638
0.161794
0.267171
2.12083
1.20952
0.227281
0.326263
1.78836
1.84258
0.43941
0.322789
0.824925
0.817734
0.230821
0.500232
0.435235
0.651873
1.34859
2.82889
1.37219
3.72348
2.76796
4.39594
4.00174
3.86179
4.49423
2.96003
3.21671
1.68996
2.59226
0.984947
1.16544
0.973245
0.273103
0.403409
0.275015
0.756713
2.20562
0.555805
0.203232
0.709722
0.829627
0.326973
0.87992
0.124418
0.155143
1.34063
0.0732001
2.94362
2.48121
0.983316
2.12076
2.88856
2.73917
0.144686
0.102183
2.83093
2.99641
3.42327
0.942155
0.110946
1.32543
3.38231
3.65675
2.61486
1.16282
1.41156
1.17161
2.05844
0.52375
0.519794
1.37686
0.81659
3.44223
2.21607
3.37032
1.70972
1.72823
0.299038
2.05424
0.160743
0.288684
2.40159
3.08545
0.798406
3.11455
3.46813
0.468346
3.24037
3.34582
3.09153
0.698616
3.2791
3.53224
-0.0119377
-0.0075054
-0.00331548
-0.00164623
-0.000662142
-0.000444372
-0.000154925
-0.000122927
4.73523e-05
1.69765e-06
-7.12431e-05
2.94931e-05
-0.000109189
-3.76766e-05
-0.000164334
-0.000151255
-0.000203075
-0.000194331
-0.000241631
-0.000241232
-0.00027606
-0.000270286
-0.000295831
-0.000302289
-0.000304563
-0.000318978
-0.000304611
-0.000320319
-0.000289276
-0.000314288
-0.000267502
-0.000293063
-0.000244021
-0.000272556
-0.000215996
-0.000245892
-0.000191535
-0.000212798
-0.000164107
-0.000188808
-0.000146687
-0.000159292
-0.000125799
-0.000137321
-0.00012267
-0.000133075
6.77625e-05
-0.000683847
-0.000570549
0.000174079
-3.85936e-05
0.000994778
0.000570537
0.00193153
0.00144598
0.00187103
0.00184854
0.0023125
0.00199472
0.00224446
0.00226088
0.00242592
0.00230987
0.00205621
0.00193557
0.00109565
0.00183015
0.000294497
0.000144734
0.000535622
-0.000347935
0.000816672
0.00110323
-0.000267003
-0.00121178
-0.00362588
-0.00772691
-0.00871033
0.000387509
0.000480168
-0.000803613
-0.00127859
-0.000886962
-0.00109048
-0.000779331
-0.000724426
-0.000745595
-0.000707901
-0.000690902
-0.000622572
-0.000668229
-0.000629076
-0.000620119
-0.000576181
-0.000557258
-0.000517036
0.000880612
0.000382004
6.4562e-06
-5.09387e-05
-0.000329179
-0.000593313
-0.000624918
-0.000135923
-0.0073486
-0.00540176
-0.00479052
-0.00207974
-0.00076929
-0.000503118
-0.000344099
-0.00253101
-0.000682672
0.00161591
0.00138181
-0.000119229
-0.000636712
0.00136812
0.00117767
8.63462e-05
-0.000775527
-0.00220482
-0.00535082
-0.00780831
0.000559285
-0.000288833
0.0012917
-0.00114313
-0.000433455
0.000719403
0.000595783
0.000554083
0.000192576
-7.34768e-05
-0.00023832
-0.000119465
-0.000487113
-0.000653044
-0.000515695
-0.0079431
-0.00101005
-0.000498749
-0.000353471
-0.000463921
-0.00125652
-0.00370101
-0.00658397
-0.00821002
0.00125638
0.000694427
-0.000496797
-0.00153988
0.000281572
7.19617e-05
4.16828e-05
-0.000404625
-0.000539794
-0.000517559
-0.000461326
-0.000218517
-0.00898408
0.000673023
-0.000194489
-0.00103311
-8.42398e-05
-0.00052694
-0.000580173
-0.000451035
-0.000722771
-0.00195912
-0.00516699
0.00135299
-0.00294597
-0.000862518
0.000182842
0.00163404
0.00121903
-0.00152406
-3.8603e-05
7.45585e-05
-0.00447573
-0.005471
-0.000498837
-0.00145783
-0.000349915
-0.000394239
-0.00759511
-0.00233075
-0.00167005
0.000108063
0.000166878
5.53953e-06
1.80463e-05
-7.67128e-05
-0.000176659
-0.000284966
-0.000315721
-0.000342572
-0.000380322
-0.000391389
-0.000378812
-0.000340754
-0.000330399
-0.000295138
-0.000247806
-0.000289758
-0.0002118
-0.000238756
-0.00017355
-0.000197542
-0.000162734
-0.000164263
0.000341087
-0.000261205
0.000957752
0.000335872
0.00153532
0.00102369
0.00157741
0.00124804
0.0019776
0.00159241
0.0021845
0.00183856
0.00230805
0.00196492
0.0014975
0.0014392
0.000956783
0.00104862
-0.00199049
-0.000126703
-0.000205915
0.00179094
0.00280672
-0.00131001
0.000156235
-0.00378053
-0.00362753
-0.00422243
-0.000568539
-0.00642335
-0.00615802
0.00135954
-0.00677824
0.000992603
-0.001807
-0.000314253
-0.00108497
-0.00253169
-0.00270285
6.86125e-05
0.000642189
-0.000736757
-0.000514726
0.000839402
-0.000784879
-0.000751811
-0.000696138
-0.000638919
-0.000767899
-0.000571153
-0.000717682
-0.000480023
-0.000497695
-0.000470781
-0.000425942
0.000124779
0.000470514
-0.000395106
-0.000320816
-0.000406543
-0.000414337
-0.000382096
-0.000339271
-0.000389081
-0.000354272
-0.00062385
0.00237117
0.00133601
-0.00560884
0.000400608
0.000412708
0.000647837
0.000749312
-0.00142044
-0.00149636
-0.00200427
0.00116873
0.000889605
-0.000366626
0.000353448
0.000812077
0.000491884
-0.000151717
0.00143864
-0.000347254
0.00167154
-0.000182372
-0.00563675
-0.00423918
-0.000131016
-0.000145768
-0.000439434
-0.000157014
-0.0061634
-0.000215407
0.000318671
0.00016683
0.000777139
0.000763313
-0.00101673
-0.000936287
-0.000691971
0.000120649
0.000764285
0.000781488
0.000742016
-0.00284256
-0.00334931
1.75697e-06
-0.00162742
-0.000209731
-0.000340482
-0.00028988
-0.000276802
-0.000284682
0.000844284
-0.000237877
-0.000226835
-0.000272829
-0.000241196
0.00064
0.000910453
0.000995788
0.00117498
0.000999084
0.000813535
0.000716685
0.000914504
0.00100054
-0.00489654
-0.00495149
-0.000589757
-0.00335197
-5.14014e-05
-0.0011655
0.000815959
0.000652796
-0.00063872
-0.000653351
-0.000806602
-0.000783363
-0.000695123
-0.000694609
-0.000491187
-0.000484532
-0.000417404
-0.000477213
5.21552e-05
0.000965173
-0.00325368
0.000554632
-0.000496056
-0.000420218
0.0010443
-0.00119091
-0.000312744
-0.000287689
-0.0027385
-0.000483478
0.000311011
-0.000317224
0.000545838
-0.0033228
-0.00113718
-0.00154908
-0.00251484
-0.00155326
-0.00279279
-0.000364056
-0.000295153
-0.000304247
-0.000262174
-0.000643452
-0.0003097
-0.000439628
-0.000398038
-0.00118652
-0.00084167
-0.000836149
-0.000676936
-0.000464793
-0.000416873
-0.000448569
-0.000704333
-0.00199512
-0.001665
-0.00321417
-0.000964236
-0.000445825
-0.000495986
-0.00199523
-0.000263843
-0.000324601
-0.00298032
-0.00208386
-0.00209491
0.00406991
0.0439976
0.188739
0.477113
0.78809
0.726019
0.386407
0.189349
0.107072
0.0412787
-0.039588
-0.136105
0.0288415
-0.0723769
0.666428
0.994367
1.21225
1.10901
0.311977
0.057228
-0.144571
-0.588104
-0.607296
-0.31244
-0.0134399
-0.0201276
-0.0168461
-0.018383
-0.00388525
-0.0132847
0.0209935
0.000768101
0.0848132
0.0343693
0.259934
0.115492
0.414997
0.286531
0.654211
0.465951
0.819
0.702238
0.89466
0.855303
0.80905
0.826303
0.609151
0.682415
0.377077
0.504378
0.248351
0.304077
0.149662
0.175253
0.0976615
0.107464
0.0668793
0.0823841
0.0446173
0.0453751
-0.0130264
0.0242218
-0.0638562
-0.0184919
-0.114962
-0.0865509