/*--------------------------------*- C++ -*----------------------------------*\
| =========                 |                                                 |
| \\      /  F ield         | OpenFOAM: The Open Source CFD Toolbox           |
|  \\    /   O peration     | Version:  v2012                                 |
|   \\  /    A nd           | Website:  www.openfoam.com                      |
|    \\/     M anipulation  |                                                 |
\*---------------------------------------------------------------------------*/
FoamFile
{
    version     2.0;
    format      ascii;
    class       volVectorField;
    location    "2.5";
    object      U;
}
// * * * * * * * * * * * * * * * * * * * * * * * * * * * * * * * * * * * * * //

dimensions      [0 1 -1 0 0 0 0];


internalField   nonuniform List<vector> 
108993
(
(-0.0139284 2.12723e-05 -0.0167712)
(0.0124923 -0.00368631 -0.0353398)
(0.000428363 -0.00140309 -0.0153796)
(0.0044274 -0.0140403 -0.0114605)
(0.000975751 -0.00611529 -0.00665878)
(0.000612721 -0.000422235 -0.00222523)
(0.0260011 -0.00168645 -0.0336543)
(0.000543386 -0.00117353 -0.000165834)
(-0.00151864 0.00205899 -0.0234683)
(-0.0171392 -0.00217512 -0.00221021)
(-0.00140092 -0.00162926 -0.00898803)
(-0.00104566 -0.000882829 -0.00905759)
(0.00532267 -0.0136253 -0.00684255)
(-0.00252105 -0.00264342 -0.000478086)
(-0.000673476 -1.29461e-05 -0.0100435)
(0.0169578 0.00214962 -0.00622127)
(-0.027611 -0.00183014 -0.000867663)
(-0.00271689 -0.000976716 -0.0045177)
(0.00566998 -0.0114743 -0.0136669)
(0.0136386 -0.011558 -0.0315411)
(0.000984172 -0.000191906 -0.00894376)
(0.0131643 -0.00399286 -0.038233)
(0.00575372 -0.000923079 -0.0134788)
(-0.00129569 -0.000189369 -0.0132883)
(0.00461726 -0.0129612 -0.00706079)
(0.00633441 -0.00426836 -0.00720967)
(-0.00815308 0.0216351 -0.00344348)
(0.00902782 -0.00934185 -0.0316348)
(0.0103769 -0.00785697 -0.0257493)
(-4.03591e-05 -0.00042335 -0.0130217)
(-0.00495982 0.00865269 -0.00872292)
(-0.00146389 -0.00240008 -0.00301829)
(-0.00440022 0.0272527 0.00862043)
(-0.0249278 -0.00306522 -0.0217161)
(0.000723967 -0.0251438 -0.0203473)
(-0.000299188 -0.00182537 -0.01008)
(-0.00318577 0.0175899 -0.00512474)
(0.000112301 -0.00230067 -0.0114249)
(-0.26423 -0.49917 -0.617247)
(0.0520536 0.0587682 -0.950679)
(0.00770609 -0.00765494 -0.0253063)
(-6.0894e-06 -7.39267e-05 -0.0141443)
(-8.19049e-06 -0.00167923 -0.00106505)
(0.00949314 -0.00501383 -0.00147197)
(-0.0256183 -0.0142445 -0.0236453)
(-0.0610228 -0.0226289 -0.508331)
(-0.0016366 0.0154881 -0.00474047)
(0.0236271 0.000247711 -0.0210901)
(0.00944974 -0.00146798 -0.0213676)
(0.0159387 -0.00345747 -0.0433446)
(0.00568795 0.0119997 -0.00890115)
(0.0617573 -0.0866681 0.0401834)
(0.0107294 -0.00525283 -0.0330738)
(0.00236691 0.00970117 -0.00370699)
(-0.00622102 -0.000461971 -0.00424312)
(-0.00369985 -0.000469111 -0.0130519)
(0.00814343 0.0256607 -0.00466717)
(-0.0016575 -0.00581147 -0.00511175)
(0.00171482 -0.00431826 -0.0163829)
(-0.00203468 -0.00790373 -0.00685146)
(-0.0015008 -0.00704358 -0.00832624)
(-0.00238499 -0.0124502 -0.0107151)
(-0.000319546 -0.000846151 -0.0122627)
(0.0121327 -0.000582118 0.000139769)
(0.00665644 -0.022241 -0.00458483)
(0.00845836 -0.00600722 -0.0136399)
(0.00477153 -0.0157225 1.53221e-05)
(0.0017751 -0.00961686 -0.0121294)
(-0.00572019 -0.00300417 -0.00391461)
(-0.0653589 0.0076476 0.0012721)
(-0.000397022 -0.000750924 -0.0129945)
(0.00346375 -0.00919685 -0.0134036)
(0.000388569 -0.00463469 -0.0129571)
(0.00136002 -0.00917835 -0.010676)
(0.00963602 -0.00117604 -0.022025)
(-0.00177965 0.00629451 -0.0138764)
(0.0102798 -0.000558586 0.000287949)
(-0.027335 -0.00334237 -0.00777053)
(0.0140188 0.0200068 -0.00424553)
(0.00236003 -0.013279 -0.00253078)
(-0.000792621 -0.00242227 -0.0150564)
(-0.00819221 -0.00269593 -0.00537094)
(0.00296606 -0.00129089 -0.0175114)
(-0.00014223 -0.00109269 -0.0116265)
(-0.002507 -0.000205187 -0.00542243)
(-0.00092555 -0.00123912 -0.00157604)
(-0.000297745 -5.4907e-06 -0.0130925)
(-0.00142873 -0.000757601 -0.00858698)
(0.00112412 -0.00719536 -0.00511767)
(0.00118086 -0.0139106 -0.00123669)
(-0.00131079 -0.0129123 -0.00442799)
(-0.00153112 0.00830859 -0.0119353)
(-0.00113347 -0.0113975 -0.000988502)
(0.00061575 -0.00669101 -0.00178122)
(-0.00242453 -0.0112884 -0.00247452)
(-0.00394086 -0.00242508 -0.00280265)
(0.000245617 0.0102624 -0.0126893)
(-0.000226033 -0.00201934 -0.0143966)
(-0.00287885 0.0112386 -0.0101392)
(0.000444894 0.000911787 -0.0111285)
(-0.00275931 -0.0103982 -0.00461268)
(0.00368665 -0.0144105 -0.026134)
(-0.000599761 -0.0010618 -0.0119207)
(-0.00427705 -0.0030358 -0.00683422)
(-0.000275709 -0.00264382 -0.014121)
(-0.00209144 -0.0103348 -0.000626688)
(-0.0008791 -0.00173978 -0.013676)
(0.0145942 -0.0629595 -0.0411878)
(0.00641399 0.00238304 -0.011265)
(-0.0227847 -0.117588 -0.818664)
(-0.013727 -0.0148182 -0.000636709)
(-0.000583696 -0.0148056 -0.00274362)
(0.0431322 -0.0167519 -8.02973e-05)
(-0.00514362 -0.0243032 -0.0142803)
(3.24018e-05 -0.000495374 -0.0143705)
(-0.0155074 -0.183422 0.0581239)
(0.00067536 -0.00544183 -0.00824073)
(-0.00179483 -0.00150682 -0.0131782)
(-0.00259491 -0.0376681 -0.0464744)
(-0.000681211 0.00732471 -0.0146657)
(-0.00544279 -0.00293989 -0.00203814)
(-0.00870574 -0.0154712 -0.0234432)
(0.0834546 -0.240145 -0.100366)
(-0.00196121 -0.00214441 -0.0131158)
(0.000618418 -0.0021527 -0.0112011)
(-0.00353481 -0.00184364 -0.0128097)
(0.0106737 -0.00735793 -0.0241157)
(-0.00326743 -0.00198619 -0.0160236)
(-0.00674593 -0.0139203 -0.0266076)
(-0.00428693 -0.0200044 -0.0296079)
(-0.00422456 -0.00204423 -0.00535429)
(-0.00740306 -0.0215269 -0.0274215)
(-0.000456161 -0.00346317 -0.0172084)
(-0.0939353 -0.0769812 -0.00817921)
(0.0001529 -0.0011125 -0.0144555)
(-0.00112722 0.000292428 -0.0141422)
(-0.00347814 -0.0126957 -0.0259926)
(-0.000631361 -0.00263263 -0.0163684)
(0.000718368 -0.00207958 -0.0127586)
(-0.00283859 -0.0026718 -0.0013344)
(-0.00206647 -0.00144728 -0.0131553)
(0.000325982 0.00080297 -0.0135604)
(-0.0532772 -0.0485717 -0.00693672)
(-0.00340375 -0.0167217 -0.0289539)
(-0.00491792 -0.0210496 -0.0305142)
(0.000333382 -0.00404366 -0.0135481)
(-0.000382826 -0.00245169 -0.0142281)
(-0.0143796 -0.0417934 -0.549291)
(-0.00220882 -0.00166152 -0.0124859)
(-0.225208 -0.136395 0.430903)
(-0.224234 -0.0874177 0.532464)
(0.00583324 -0.00428429 -0.00196798)
(0.00313243 0.000615242 -0.000959704)
(-0.287167 -0.130522 0.581691)
(0.00115122 -0.00105836 -0.0173547)
(0.0120974 -0.0102365 -0.0132026)
(-0.0046181 -0.00199727 -0.0120425)
(0.00697151 0.00568448 -0.0685991)
(-0.0337703 0.0318236 -0.0302141)
(0.0185442 -0.0405592 0.0952504)
(-0.269833 -0.182008 0.536746)
(-0.00250292 0.104529 0.0293233)
(-0.00242699 0.00494726 -0.00793066)
(-0.000416607 0.000422759 -0.0137205)
(-0.000482497 -0.00199807 -0.00453202)
(0.0430567 -0.0373652 -0.00622363)
(-0.000728218 -0.00379707 -0.00122763)
(0.00799227 -0.000720586 -0.000105523)
(0.00962711 -0.00239103 -0.000160101)
(2.88511e-05 -0.000818183 -0.0143162)
(0.00256788 -0.007461 -0.014842)
(-0.00223983 -0.00102589 -0.0131277)
(0.02157 -0.0701456 0.0285875)
(-0.000110972 -0.000202024 -0.0129856)
(0.00152158 -0.0260654 -0.0308574)
(0.0137666 -0.00829124 -0.00992897)
(-0.0108518 0.00228665 -0.0562293)
(0.00722002 -0.00221947 0.000864992)
(-0.000787081 -0.00110607 -0.0145367)
(0.000238812 0.00244173 -0.0143135)
(-0.0182913 -0.00590187 -0.00517683)
(0.00330086 -0.00138964 -0.0187256)
(0.0250777 0.0192212 -0.0580793)
(-0.0032933 -0.00116211 -0.0124197)
(-0.00381262 -0.00304227 -0.00353378)
(-0.000433945 -0.00162065 -0.0135706)
(0.0212463 0.00328789 -0.0469503)
(-0.00254072 -0.00160343 -0.00680917)
(-0.00398002 -0.00157027 -0.00812083)
(-0.00250015 -0.00104395 -0.0112057)
(-0.000698341 -0.0017844 -0.0120444)
(0.0196457 0.015966 -0.0374742)
(-0.000430984 -0.00187485 -0.0123786)
(-0.0492906 0.0130551 -0.138711)
(0.000263834 -0.000862391 -0.0152432)
(-0.00119779 -0.00351841 -0.0171437)
(0.00986999 -0.00801408 -0.0258515)
(-0.000312402 -0.00203497 -0.0135338)
(-0.00029718 -0.0028094 -0.0141378)
(-0.00244468 -0.00241815 -0.0121146)
(-0.000666566 -0.00390932 -0.00237509)
(0.06032 -0.0240962 -0.0790385)
(3.63129e-05 0.000197108 -0.0110029)
(0.000181455 -0.0132817 -0.0978234)
(0.037919 0.000419788 -0.0170378)
(0.00906245 -0.0836416 0.308627)
(-0.000371689 -0.00128041 -0.0161094)
(0.00567206 -0.489167 -0.458428)
(-0.000137351 -0.00252223 -0.0159844)
(-0.246768 0.036221 0.651699)
(0.0632651 0.0192583 0.0159803)
(0.00016634 -0.00183444 -0.0125757)
(-0.0540151 -0.0346485 0.118662)
(-0.050039 -1.1262 -0.963308)
(-0.0452982 -0.65142 0.0172033)
(-3.09451e-05 -0.00324202 -0.0138277)
(-0.00324876 -0.00137022 -0.0103033)
(-0.000137719 -0.00119512 -0.0156516)
(0.00936766 0.0193365 -0.0668296)
(-0.00828743 0.0074623 -0.0117938)
(0.0361615 -0.014924 -0.00859477)
(-0.203287 -0.143504 0.498552)
(-0.0202936 -0.0142915 -0.0284301)
(-0.0486498 -0.109856 -0.0279167)
(0.0200039 -0.00276522 5.14335e-05)
(0.0059307 -0.00188074 0.000796787)
(0.00832111 0.0217732 -0.0770561)
(-0.00050363 -0.000733663 -0.0147716)
(-0.179013 -0.161575 -0.0425358)
(0.00229781 -0.00302495 -0.0112673)
(0.144273 -0.8217 0.0686661)
(-0.00164134 -0.000953574 -0.0127413)
(0.00602904 -0.00226572 0.000177087)
(0.00204047 -0.00492246 -0.0225238)
(0.00171688 0.0024562 -0.0138745)
(-0.000725509 0.00509327 -0.00325185)
(-0.000732125 0.00775222 -0.0339932)
(-0.00556525 -0.0115453 -0.0112751)
(0.0354019 0.0136567 -0.000702428)
(0.000847751 0.0223494 -0.0765151)
(-0.000596839 0.00116291 -0.00559437)
(-0.000915062 -0.00181629 -0.0158655)
(-2.67705e-06 -0.000383609 -0.0003503)
(0.000480543 0.011626 -0.0815256)
(0.00298013 -0.00429931 -0.0592631)
(0.0194266 0.00534377 -0.00598846)
(-0.133154 -1.11145 -0.79717)
(0.0498651 -0.18702 -0.0157999)
(-0.00734063 0.0248908 -0.0725705)
(0.00813553 -0.00230496 -0.0235458)
(-0.000830433 -0.000587424 -0.00856867)
(0.00985274 -0.0230245 -0.00866737)
(-0.000746678 -0.00108221 -0.0191047)
(-7.88308e-05 -0.00115764 -0.014645)
(0.00906168 -0.00048011 -0.0663039)
(0.00071102 0.0128627 -0.0836533)
(0.00810584 -0.00953246 -0.0682894)
(-0.00229954 -0.00045098 -0.0106735)
(-0.00440321 0.0102108 -0.0206029)
(0.00104581 -0.000838332 -0.000507385)
(0.000113593 -0.000115764 -0.0150125)
(0.00846384 -0.000512162 -0.0185133)
(-0.015645 -0.0160503 -0.0117498)
(-0.00313824 -0.00245571 -0.0183262)
(0.0166342 0.00395566 0.0127319)
(0.00396833 -0.00295732 -0.0143274)
(-0.000555842 -4.09665e-05 -0.0142379)
(0.0103529 -0.00652116 -0.0204196)
(0.00159193 -0.00117053 -0.00101925)
(-0.00047038 -0.00237456 -0.0170255)
(0.000279879 -0.00187995 -0.00114073)
(-0.000433204 -0.00193785 -0.0154558)
(0.0794022 -0.529532 -0.0611251)
(-0.0353543 0.13196 0.715187)
(-0.00500965 -0.0249507 -0.53799)
(-0.000386699 -0.00149779 -0.0146937)
(0.000267708 0.00663435 -0.00894822)
(0.224626 -0.311238 -0.45773)
(-0.00289881 -0.00209816 -0.0117957)
(0.0152068 -0.00842341 -0.0227453)
(0.0174252 -0.00941073 -0.0229034)
(-0.0928567 -0.0139955 -0.0172281)
(-0.117924 0.00721194 -0.10157)
(0.00449015 -0.00609982 -0.00155263)
(-0.00366823 -0.00360101 -0.017248)
(-0.00824728 -0.00146127 -0.0040735)
(0.00508179 -0.0132962 -0.00931657)
(0.0249903 -0.0120101 -0.0264153)
(-0.00516194 -0.00357065 -0.0111259)
(-0.005009 -0.0364672 -0.410274)
(-0.00641403 -0.00293696 -0.00146574)
(-6.42651e-05 0.000121586 -0.0143696)
(0.0215635 -0.0101415 -0.0265561)
(-0.000167137 -0.000432549 -0.0145364)
(0.00820462 -0.0150509 -0.00585635)
(-0.000840752 -0.000943469 -0.0151424)
(-0.00177816 0.00858864 -0.0153416)
(-0.000242501 -0.000264197 -0.0142429)
(-0.044009 -0.00338774 0.000976287)
(-5.20487e-05 -0.00052306 -0.001896)
(0.00911441 -0.202923 0.0901802)
(-0.0464728 -0.0409488 0.493975)
(-0.000559007 -0.00268681 -0.0132666)
(-0.000213891 -0.000229051 -0.00100937)
(-1.10816e-05 -0.000697738 -0.0185383)
(0.00119901 -0.000242645 -0.0111101)
(0.00609832 -0.00448877 0.00105736)
(0.00465385 -0.000788385 -0.0242947)
(0.00239796 -0.000871398 -0.0105849)
(0.174428 -0.808727 -0.137338)
(-0.000423894 -0.00200554 -0.00445855)
(-0.00136108 -0.0102268 -0.00840102)
(-0.0182834 -0.0114967 -0.00310739)
(-5.23738e-05 -0.00154848 -0.011156)
(0.00254567 -0.000951426 -0.0123483)
(-0.0623215 -0.0912604 0.341239)
(0.01077 -0.000218727 6.64094e-05)
(-0.0147207 -0.00901505 -0.00281815)
(-0.0219821 -0.224081 -0.752175)
(-0.000502727 -0.00010214 -0.0170744)
(0.0154857 -0.00619345 -0.030322)
(0.0128103 -0.000392136 -0.000259079)
(0.000287558 -0.00117172 -0.0269022)
(0.000433088 -0.000819932 -0.0239472)
(-0.000683704 -0.00181447 -0.0141201)
(-1.05339 -0.266084 0.621046)
(0.181574 1.35155 -0.125734)
(0.0160492 -0.231539 0.4151)
(0.0017491 0.00753188 -0.0214162)
(-0.00212161 -0.003709 -0.0170899)
(0.0260007 -0.00156758 -0.0136651)
(0.00538958 -0.315957 0.188244)
(-0.564757 0.0738974 -0.325663)
(0.000111224 -0.000226692 -0.0174644)
(-0.0143829 -0.461075 -0.522037)
(-0.000734274 0.000153292 -0.0112547)
(-0.000121545 0.000361373 -0.012908)
(-0.00187785 -0.00889811 -0.00857983)
(-9.37841e-05 -0.00118884 -0.0149292)
(-0.00319685 -0.00120693 -0.0166857)
(0.00145381 0.0019015 -0.0156673)
(-0.0385568 -0.0038601 0.0513727)
(0.029245 -0.0100834 -0.0407943)
(-0.00104069 -0.00259657 -0.0142719)
(-0.0020446 -0.00231954 -0.0102416)
(-0.00230666 -0.000309019 -0.00779308)
(0.000697326 -0.00037233 -0.0144513)
(-0.00067514 -0.00251554 -0.0100252)
(0.00157479 3.32491e-05 -0.0022202)
(-0.000554091 -0.000313475 -0.0156135)
(0.000268096 0.000259662 -0.0142813)
(0.000635078 -0.000443496 -3.63483e-05)
(-0.0659639 0.0205936 0.00278789)
(-0.00675434 -0.108112 -0.0383801)
(0.0191885 -0.0140647 0.00595765)
(-0.000739746 -0.00377856 -0.014625)
(-0.000903767 -0.00269166 -0.0150564)
(-0.00104022 -0.0509365 -0.806101)
(-0.000119925 -0.000392855 -0.00833855)
(1.40322e-05 -0.00172747 0.000274951)
(-0.0081523 -0.00247593 -0.00888646)
(0.0323815 -0.0107334 -0.0406486)
(0.00125456 -0.000552914 -0.0156108)
(-0.000275365 0.000179144 -0.0141018)
(0.00955472 -0.00202114 -0.0225824)
(0.0175517 -0.00982421 -0.0378222)
(-0.000333504 -0.000698076 -0.0148797)
(-0.00180412 -0.00349704 -0.0269034)
(9.54889e-05 -0.00222488 -0.0077957)
(-0.0307567 1.95986 -0.50879)
(0.00222294 -0.00471319 -0.0220757)
(-0.00720952 -0.00299394 -0.00614064)
(-0.00091597 -0.000414329 -0.0147613)
(-0.374401 0.134414 0.795687)
(0.0187512 -0.00898009 -0.0368314)
(0.108858 -0.562784 0.504958)
(-0.00818147 -0.00453698 -0.00905013)
(-0.000666831 -0.00140869 -0.0152248)
(0.00146463 -0.229852 0.47179)
(-0.000584347 -0.00134659 -0.0117161)
(0.0293568 -0.400594 0.408497)
(0.0222729 -0.318784 0.478671)
(0.0201353 -0.0127735 -0.0369315)
(0.0671499 0.0115796 -0.0300602)
(-0.00368227 -0.000142102 -0.00852574)
(0.00167754 -0.0053121 -0.00223599)
(-0.016277 -0.00782223 -0.00302882)
(0.113149 -1.44206 0.0447281)
(0.0111088 -0.00726524 -0.0187006)
(-0.0163617 -0.189307 -0.439425)
(0.0315369 -0.360907 0.423573)
(0.000340781 -0.00577649 -0.00152905)
(0.0107935 -0.457298 0.432697)
(-0.00657303 -0.00362019 -0.000777714)
(0.00912679 -0.291278 -0.0188452)
(0.0243708 -0.00975406 -0.0322917)
(-0.417069 0.731842 0.97365)
(0.00142428 0.00588761 -0.0109237)
(-0.00569751 -0.00222431 -0.0158782)
(-0.0012103 0.00286444 -0.0220275)
(0.0219973 -0.0101213 -0.0335608)
(0.561943 -0.413137 -0.328928)
(0.103348 -0.574998 -0.242169)
(0.000575207 0.000683445 -0.0137523)
(0.0358001 -0.0114877 -0.00271123)
(4.58122e-05 -0.00574216 -0.000733909)
(0.00113781 -0.00533185 -0.00327964)
(-0.000535896 -0.00279846 -0.0134512)
(0.000707033 -0.00426592 -0.0170912)
(-0.216134 0.00656136 0.805742)
(-7.78516e-05 -0.00230359 -0.000570645)
(0.00776383 -0.00125622 -0.0321296)
(0.191371 -0.697936 -1.6419)
(-0.00142684 -0.000291103 -0.0134312)
(-0.00150165 -0.000896949 -0.00692815)
(0.000384062 0.0024357 -0.0191402)
(-0.0477187 0.128478 1.02832)
(-0.061836 0.00190261 -0.00126874)
(-0.0156598 -0.476344 -0.0579634)
(-0.000591871 0.00025463 -0.00454616)
(-0.228042 0.0894406 1.00827)
(0.0149937 -0.00553004 -0.0332218)
(0.00805024 -0.0580939 1.10796)
(0.00416884 -0.00010947 0.000519714)
(-0.000796125 -0.00527907 -0.00220425)
(-0.133023 0.20715 1.25675)
(-2.09792e-05 -0.00138137 -0.0121832)
(-0.0746651 -0.342775 -0.0288433)
(-0.0981181 0.244952 1.17534)
(0.000146448 -0.0010543 -0.000271149)
(-0.428003 0.445656 0.82017)
(-0.211261 -0.0330055 -0.789001)
(-0.243604 0.104212 1.12036)
(-0.0107452 -0.00997688 -0.0150084)
(0.000346748 2.37041e-05 -0.0138769)
(-0.017165 -0.00388242 -0.00196696)
(0.0270234 0.00106453 0.0315256)
(0.0196749 -0.0132654 -0.0106314)
(0.00695399 -0.00661903 -1.07303e-05)
(-0.000308709 0.00140837 -0.0142414)
(-0.00254593 -0.00194255 -0.00822709)
(-0.000236275 -0.000577739 -0.0151654)
(-0.00116115 -0.00199325 -0.0155783)
(0.00139733 -0.00403563 -0.00744813)
(-0.0288073 0.039582 0.0228225)
(0.0212779 -0.0130241 -0.0427037)
(0.0172477 -0.00952907 -0.0345813)
(0.0123 -0.0727863 0.017747)
(-0.00121872 -0.00152057 -0.0160455)
(0.000201282 -0.0030499 -0.00707756)
(-0.00279091 -0.00058204 -0.00410368)
(-0.000681846 -0.00779999 -0.00235723)
(-0.00108722 -0.00104319 -0.01556)
(-0.0180521 -0.00559382 -0.0146317)
(0.0070291 -0.00800802 0.00015862)
(-0.000781231 -0.00102237 -0.0112113)
(-0.0027332 -0.00208549 -0.00761448)
(0.000668178 -0.00545183 -0.00659461)
(-0.00134214 -0.00148992 -0.01326)
(0.000245148 0.0018344 -0.0105145)
(0.0719765 -0.225423 -0.0076552)
(-0.000203792 -0.00162767 -0.0154416)
(0.0883409 -0.253622 -0.0907998)
(-0.0987524 -0.172874 0.256115)
(-0.0638307 -0.0129016 -0.00219868)
(-0.000508809 0.000117657 -0.0139911)
(0.00536591 0.000654426 -0.0141445)
(0.107297 -0.233278 -0.064358)
(-0.000403996 -0.00067299 -0.014305)
(-0.000653936 -0.000328719 -0.0140636)
(-0.0497289 -0.00210211 -0.00265646)
(0.000486107 -0.00468962 -0.00869935)
(-0.000792257 0.00238265 -0.0145431)
(0.0030719 -0.000172964 -0.00686143)
(0.0110505 -0.000391774 -3.59025e-05)
(-0.00711332 -0.00228414 0.000887113)
(-0.000375805 0.000217697 -0.0136656)
(0.0509701 0.0127235 0.00149759)
(-0.0155889 -0.125869 0.00630008)
(-0.00458625 -0.0222404 -0.0487325)
(-0.000192915 -0.00291834 -0.0143512)
(-0.00273022 0.00255247 -0.0161179)
(-0.00051707 0.00247439 -0.0178886)
(-0.000339321 -0.000731111 -0.0145212)
(0.0283486 0.00611285 -0.0111023)
(-0.00134133 0.000302485 -0.0144608)
(-0.00036964 -0.00105603 -0.0138849)
(-0.000869333 -0.000451751 -0.0145107)
(0.011961 -0.0737399 0.0108801)
(-0.0172939 -0.00308331 -0.0295068)
(-0.00269252 -0.00195598 -0.00725814)
(-0.00235099 -0.00155441 -0.0177354)
(-0.00023541 -0.000765826 -0.0175138)
(-0.00146158 -0.000232696 -0.0146597)
(-0.00701953 -0.0117743 -0.0395511)
(-0.000632636 -0.0010624 -0.0126903)
(-0.00761015 0.0274421 -0.0261062)
(-0.000318149 -0.000258541 -0.0146524)
(-0.000418694 -0.00122226 -0.0148968)
(0.0117493 -0.00534837 -0.0287395)
(-0.00158713 -0.00909548 -0.00430514)
(-0.00095011 0.00145689 -0.0146367)
(-0.000733462 0.000600471 -0.0151866)
(-0.000486366 -0.00103145 -0.0148975)
(-0.0239564 -0.00168633 -0.0116809)
(-0.0858396 -0.0587628 0.250805)
(-0.000734365 -0.000413837 -0.0146616)
(-0.000494214 0.000872696 -0.0139754)
(2.1444 -0.159657 0.4531)
(-0.000470805 -0.00143614 -0.0145932)
(0.00955158 -0.0154839 -0.0217489)
(0.0270522 -0.012865 -0.0377097)
(-0.00178913 0.00328417 -0.0137517)
(-0.00697329 -0.00410645 -0.00424395)
(0.00014333 -0.000719461 -0.0147099)
(0.000883599 -0.0195381 -0.0801819)
(0.000938462 -0.00304607 -0.0058519)
(-0.0005108 -0.0015811 -0.015021)
(0.0104842 -0.000662904 -0.026439)
(0.00603652 -0.00257426 -0.0208904)
(0.0888556 -0.00519775 -0.0904014)
(0.116906 -0.00794071 -0.0933372)
(0.0196938 -0.00803931 -0.0357797)
(0.0147322 -0.00642128 -0.0167455)
(0.0129004 -0.00917771 -0.0217482)
(-0.086089 -0.104624 -0.111052)
(0.000103493 -0.0033996 -0.00422204)
(-0.00138518 -0.0012126 -0.0143117)
(-0.0769244 -0.125412 -0.0767893)
(0.0126549 -0.00549547 -0.0145453)
(5.29359e-05 -0.00290765 -0.0239121)
(-0.000386126 -0.00161112 -0.011063)
(-0.0809323 -0.0586789 -0.101731)
(-0.00636556 -0.00338558 -0.000442125)
(-0.000354033 -0.00193012 -0.0124895)
(0.00031368 -0.000521715 -0.0145422)
(0.0196707 -0.0106091 -0.00276669)
(-0.000645655 -0.00222533 -0.00579736)
(-0.0329009 -0.00494119 -0.00906409)
(0.000436782 -0.176257 0.00256433)
(-0.00123126 -4.18761e-05 -0.0123541)
(0.00382849 -0.0066025 -0.24756)
(0.000293659 -0.000385823 -0.00270388)
(-0.000743263 -0.0018197 -0.0126674)
(-0.000757459 -0.00128708 -0.0109263)
(-0.000612374 -0.00194639 -0.0169349)
(-0.000760288 -0.00306391 -0.0113903)
(-0.0737754 -0.0628559 -0.0762959)
(-0.000668867 -0.00138996 -0.0139566)
(0.00187809 0.00314317 -0.0104122)
(-0.0010847 -0.229546 0.0422662)
(0.000135467 -0.00459466 -0.0240963)
(-0.0136633 -0.326923 -0.0657957)
(-0.000823182 -0.00126034 -0.0129716)
(-0.00213771 -0.00184245 -0.00760402)
(-0.000457794 0.000542648 -0.0109632)
(-0.00137779 0.00057256 -0.0035309)
(0.0173375 -0.0053949 -0.0305933)
(-0.29756 -0.00365368 0.498081)
(0.0124888 -0.00621403 -0.0272637)
(-0.0208161 -0.00674226 -0.0163778)
(-0.000768107 0.000985856 -0.0135301)
(-0.00140255 0.00139124 -0.0117234)
(0.0232803 -0.00696602 -0.0276293)
(-0.0174335 0.00415556 0.00189948)
(0.0154117 -0.634827 -0.194643)
(-0.00372936 -0.0021144 -0.0114114)
(-0.000646826 0.000365776 -0.0139997)
(0.0111892 -0.00773294 -0.0286704)
(0.0075903 -0.00703361 -0.0262452)
(-0.00246386 -0.000946439 -0.0128089)
(0.00349906 -0.00608763 -0.0330702)
(-0.50595 0.532296 1.39228)
(-0.0158858 0.00451525 0.00210118)
(-0.0668153 -0.368988 0.14772)
(0.0151077 -0.00770825 -0.0241936)
(-0.00084782 -0.0022641 -0.0102868)
(-0.0134197 -0.000125711 0.00132646)
(0.029293 0.196269 1.10785)
(0.0546843 0.00838239 -0.0616799)
(-0.0112537 -0.00855574 -0.011298)
(-0.00419499 -0.00220219 -0.0144113)
(0.000773724 -0.00255889 -0.0165676)
(0.00248918 -0.016722 -0.021013)
(-0.00322053 0.000199373 -0.0145625)
(-0.0127691 -0.00250209 -0.024562)
(0.0102351 0.0132341 -0.362647)
(-0.0125066 0.0110099 0.00430869)
(-0.00236398 -0.0016375 -0.00240547)
(0.00421073 -0.00224209 1.25777e-05)
(0.0127096 -0.00688583 -0.0249548)
(-0.000714063 0.000102736 -0.0132932)
(0.0114312 -1.02346e-05 -0.0277208)
(-0.000884562 -0.00173419 -0.0149673)
(0.0256071 -0.0407291 0.656099)
(-0.00378252 -0.00609915 -0.0200816)
(0.00185462 0.00189142 -0.0208546)
(-0.000313526 0.000279399 -0.0124843)
(0.00899068 -0.000800224 -0.0385584)
(-0.0531958 -0.0234577 -0.00379309)
(-0.00117243 -0.00153543 -0.0152794)
(-0.00263342 -0.002182 -0.00914687)
(0.000936657 0.0554839 0.885158)
(-0.00993629 -0.00710613 -0.00235652)
(-0.00292894 -0.00292745 -0.000497699)
(-6.61045e-05 0.000330288 -0.0125159)
(-0.218115 -0.0249642 0.853184)
(-0.000189387 -0.000902403 -0.0103201)
(-0.0166469 -0.0125311 -0.00812144)
(-0.00236804 -0.000345633 -0.0119259)
(-0.214587 0.0863295 -0.207577)
(-0.00380719 -0.000843241 -0.0119151)
(-0.115805 -0.088471 0.0212382)
(-0.00274 -0.000732127 -0.0123307)
(0.0182043 -0.00769114 -0.0260187)
(-0.00104138 -0.000717979 -0.014354)
(0.000606627 -0.0065133 -0.00811151)
(-0.000558789 0.000537916 -0.00986073)
(-0.0254047 -0.61937 -0.338151)
(0.00172914 0.00227261 -0.00883709)
(-0.00642012 -0.0602606 -0.0162012)
(0.0013663 0.00269566 -0.00987975)
(-0.00303439 -0.0021367 -0.0166353)
(0.000385945 -0.192464 -0.544588)
(0.0138359 -0.00185948 -0.0292552)
(-0.00166966 -0.00798722 -0.0120153)
(-0.00167243 0.00123917 -0.0162156)
(-0.0117777 -0.00359091 0.00965818)
(-0.336135 0.0820843 -0.077272)
(-0.00290681 -0.00430021 -0.0106007)
(-0.0640189 -0.263462 0.489326)
(0.0123226 -0.00687834 -0.0247172)
(-0.0433985 -0.0389753 0.0432837)
(-0.159211 -0.121541 0.239431)
(-0.00556178 -0.00141289 -0.00879577)
(0.00132264 -0.00208706 -0.00410723)
(-0.00017691 0.000131968 -0.0134728)
(1.93599 2.55274 -1.60317)
(-0.013685 -0.0229942 -0.0577572)
(0.0159071 -0.0490564 0.00350389)
(-0.00588706 -0.000187738 -0.00136865)
(0.0237515 -0.0521208 0.00416301)
(-0.00123458 -0.000643107 -0.0145823)
(-0.00212231 -0.00846445 -0.0134502)
(0.000248618 0.00125451 -0.014341)
(0.00154775 -0.00136163 -0.0116943)
(-0.00584096 -0.0016915 -0.00648119)
(0.0487051 -0.0343957 0.00676327)
(-0.0330227 -0.0306603 -0.0120969)
(-0.00181416 -0.00412179 -0.0119687)
(-0.00425957 -0.00492579 -0.0107388)
(-0.00565114 -0.00439342 -0.0434603)
(-0.012924 -0.428758 -0.190747)
(0.0398034 0.0582372 -0.145641)
(-0.0574939 0.0017087 -0.000883039)
(0.0104436 0.00065829 -0.0255776)
(0.461787 -0.00673837 -0.198715)
(-0.0166281 0.064824 -0.0798464)
(-0.0421824 0.00833214 -0.00671169)
(0.0506592 0.0983625 -0.12468)
(-0.00443877 0.0404271 -0.0996329)
(0.00770961 -0.00429916 -0.00462698)
(-0.0186062 -0.0122499 -0.00785003)
(-0.000340966 -9.64417e-05 -0.0147848)
(0.000325579 -0.00625845 -0.00284739)
(0.0140614 -0.000363788 -0.0275471)
(0.00756042 -0.00171826 -0.000423558)
(-0.00733221 -0.00127358 -0.00769597)
(-0.019683 -0.636917 -0.157779)
(0.00745635 -0.345281 -0.0768007)
(-0.0105834 -0.00910905 -0.00577532)
(0.0239653 -0.00525478 -0.0184571)
(0.0297131 -0.0390945 -0.00387535)
(0.0430206 0.0512533 -0.119599)
(0.0327658 0.0668882 -0.184986)
(-0.00411778 -0.0136779 -0.00541225)
(-0.00310333 -0.0165429 -0.0214846)
(-0.0569449 -0.000280075 -0.00181888)
(0.0102337 -0.00613186 -0.0019276)
(-0.0327449 -0.106693 -0.620049)
(0.0158859 -0.00337138 -0.0370255)
(0.027404 0.024376 0.00804622)
(-0.0618624 -0.0176052 -0.00901188)
(-0.00253598 -0.00353875 -0.0105439)
(0.00163878 -0.0559685 -0.48291)
(-0.00715462 -0.00575 -0.00841481)
(-0.0662149 0.0914781 -0.0995029)
(-0.0503532 -0.000337686 0.000285957)
(-0.0543333 -0.00246244 -0.00352879)
(-0.446595 1.35709 1.27562)
(-0.0247267 -0.016222 -0.0222271)
(-0.00207067 -0.00216967 -0.0144128)
(0.00190642 -0.0459535 0.00337125)
(-0.0133653 -0.00166185 -0.000913832)
(0.000255439 -0.00073117 -0.0235697)
(1.23998 3.22881 -0.189254)
(-0.0351669 0.00080593 -0.000841879)
(-0.00945556 -0.590793 -0.506508)
(-0.0364191 -0.000465448 -0.00424921)
(1.70069 4.60147 -0.172568)
(-0.00665606 0.00199761 -0.0141973)
(0.00063488 0.000557491 -0.0116779)
(0.0156239 -0.00255756 0.000346287)
(0.0162719 -0.00169921 0.000207757)
(-0.0297704 -0.0260499 -0.0071506)
(-0.00048899 -0.000370957 -0.00471987)
(-0.0255957 -0.0145525 -0.0108713)
(0.00471193 -0.00619485 -0.0185761)
(0.000319167 0.000842692 -0.0138331)
(0.016149 -0.00286476 0.000145989)
(0.00907888 -0.0135221 -0.0215685)
(-0.0210033 -0.205857 -0.201081)
(-1.42578 0.802016 -0.111395)
(-0.00129691 -0.00184836 -0.0159874)
(2.21063 3.46452 -1.04179)
(-0.000250451 -0.00232633 -0.0190509)
(0.0174115 -0.0393207 0.000720357)
(-0.0574088 -0.0386996 -0.0311628)
(-0.000244051 -0.000383901 -0.00106673)
(0.0104627 -0.0377908 -0.00068214)
(0.0105907 -0.000774405 -0.0275719)
(0.00558003 -0.00171824 -0.00852472)
(0.0600493 -0.0246155 -0.0264909)
(0.0147344 0.00155681 -0.0157067)
(-0.00916054 -0.00104512 -0.00609999)
(0.0033399 -0.00218293 -0.0142733)
(0.0418849 -0.0212154 -0.0363295)
(-0.00709421 -0.0095291 -0.00383898)
(-0.0219514 -0.015963 0.0480444)
(-0.000197777 -0.00558507 -0.00893337)
(0.0193822 -0.055943 0.00712401)
(0.00773282 -0.0031384 -0.00681385)
(0.0214674 -0.000268857 -0.0154253)
(0.0099081 -0.00297245 -0.0148954)
(-0.00436198 -0.00156298 -0.00698077)
(-0.000137048 -0.00117606 -0.00203408)
(0.0422307 0.00802158 -0.00664676)
(0.00984994 -0.00202576 -0.00078654)
(-0.000783258 -0.00147769 -0.0148982)
(0.0196933 -0.000884884 -0.0271496)
(-0.00201817 -0.000223182 -0.00896448)
(0.0189173 -0.00446059 -0.0180607)
(-0.363674 0.32033 -0.815825)
(0.00325517 -0.497808 -0.645149)
(-0.0111943 -0.00917089 -0.0113751)
(0.0283163 -0.0180193 -0.0267554)
(-0.0106483 -0.0132264 -0.0129256)
(-0.00837082 -0.0102623 -0.0137739)
(-0.0121223 -0.00971428 -0.0128172)
(-0.0369248 -0.0251787 -0.0228657)
(-0.00389309 -0.00185451 -0.0106266)
(0.00854283 -0.00245963 -9.74093e-05)
(0.0109071 -0.00186512 -0.000736031)
(-0.00950173 -0.00642628 -0.015101)
(0.00884471 -0.00105626 0.000251408)
(0.0343491 -0.0182748 -0.04107)
(0.0113392 -0.00138868 -0.00101171)
(0.0186906 0.00219924 8.92206e-05)
(-0.0240046 -0.0303432 -0.0288261)
(0.00637487 -0.000342472 -0.0178151)
(0.00243371 -0.00320394 -0.017709)
(0.00966036 -0.00348853 0.000683786)
(-0.0101873 -0.00948972 -0.0122726)
(-0.00591709 -0.00393761 -0.0129085)
(-0.0660674 -0.00208762 -0.00362571)
(0.00258323 -0.00777901 -0.032297)
(0.0159734 -0.00109436 -0.0251318)
(0.00347814 -0.317841 -0.0605893)
(0.00177751 -0.0123728 -0.00603821)
(-6.03721e-05 -0.00141568 -0.0156482)
(-0.00616419 -0.00480639 -0.0123671)
(0.120751 0.0212807 -0.0736396)
(0.000427831 0.000611635 -0.0144956)
(-0.0351468 -0.101931 0.00170196)
(0.00677611 -0.138256 0.227822)
(-0.00990428 -0.00447835 -0.00379177)
(-0.00628734 -0.00569796 -0.0131682)
(-0.263093 0.536442 0.953273)
(0.0219101 -0.516718 -0.21029)
(-0.0192998 -0.00638736 -0.0063207)
(0.000588806 -0.000417151 -0.0136317)
(0.148543 0.0552134 -0.0402101)
(-0.00656654 -0.00483047 -0.0124302)
(-0.00675199 -0.0058393 -0.0118453)
(0.0234684 -0.0138473 -0.0252156)
(0.0173475 0.00387588 -0.0407062)
(0.0289987 -0.0143484 -0.0455104)
(0.000243847 -0.000963184 -0.00509309)
(0.00013986 -0.00126836 -0.0164888)
(-0.0615951 -0.00252588 -0.00383277)
(0.00177563 0.00396193 -0.0104417)
(-0.0652649 -0.0974561 -0.730516)
(-0.000403509 -0.000170863 -0.0143047)
(-0.00203331 -0.00134359 -0.0131907)
(-0.114459 0.0804698 -0.946332)
(-0.00600045 -0.00444547 -0.0101227)
(0.0984329 -0.967728 0.225234)
(0.0125519 -0.0077929 -0.00809443)
(-0.0286536 -0.105086 0.734322)
(-0.000177068 -0.000914113 -0.0124019)
(0.021205 -0.013551 -0.0440381)
(-0.0074831 -0.00182235 -0.0108036)
(0.000837718 -0.0147902 -0.00500982)
(-0.00484659 0.000172242 -0.0105874)
(-0.00704283 -0.00297396 -0.00832119)
(-0.000541636 0.00138123 -0.0140412)
(-0.00286234 -0.00206081 -0.0122122)
(-0.00139168 -0.0026704 -0.000170933)
(-0.00123111 -0.00259466 -0.0157509)
(-0.00133901 -0.00136214 -0.0156968)
(-0.00150474 0.00168407 -0.0111135)
(0.00665 -0.0068527 -0.0271283)
(0.000929164 0.00184931 -0.0101029)
(-0.0616105 -0.00231661 -0.00562368)
(-0.000948262 -0.00151737 -0.0138206)
(-0.0295272 0.0849463 -0.282202)