/*--------------------------------*- C++ -*----------------------------------*\
| =========                 |                                                 |
| \\      /  F ield         | OpenFOAM: The Open Source CFD Toolbox           |
|  \\    /   O peration     | Version:  v2012                                 |
|   \\  /    A nd           | Website:  www.openfoam.com                      |
|    \\/     M anipulation  |                                                 |
\*---------------------------------------------------------------------------*/
FoamFile
{
    version     2.0;
    format      ascii;
    class       volScalarField;
    location    "0.497436";
    object      alphat;
}
// * * * * * * * * * * * * * * * * * * * * * * * * * * * * * * * * * * * * * //

dimensions      [0 2 -1 0 0 0 0];


internalField   nonuniform List<scalar> 
83563
(
2.1268e-05
2.24841e-05
2.77856e-05
2.09456e-05
2.8443e-05
3.713e-05
2.12924e-05
7.74522e-05
5.85116e-05
0.000244443
4.79689e-05
1.75819e-05
0.0102598
2.09792e-05
6.90778e-05
6.46675e-05
2.08684e-05
2.10194e-05
5.37385e-05
2.10093e-05
2.0923e-05
2.10526e-05
5.84676e-05
0.000133573
2.086e-05
2.077e-05
2.16039e-05
0.000226651
2.22388e-05
2.16331e-05
2.90075e-05
2.15971e-05
1.32642e-05
2.14125e-05
2.10575e-05
3.31514e-05
2.25052e-05
2.1257e-05
2.30524e-05
5.86363e-05
2.12653e-05
3.64161e-05
2.47274e-05
2.24266e-05
0.00217632
8.71336e-05
2.4034e-05
8.49679e-05
7.05767e-05
0.0015369
0.012347
4.77463e-05
0.0020021
0.0025057
3.21398e-05
0.00707365
2.15239e-05
0.00135879
0.00197963
5.94581e-05
0.00210945
0.000815147
5.42734e-05
2.53207e-05
0.00303535
0.00138471
0.000986239
1.89123e-05
0.000131401
0.0140899
2.2009e-05
0.023054
2.11831e-05
0.00822404
2.51568e-05
6.59057e-05
6.68968e-05
2.14705e-05
2.16667e-05
0.0103863
2.18448e-05
2.11759e-05
2.27342e-05
0.000465209
6.00569e-05
2.13488e-05
2.09183e-05
2.57802e-05
2.12259e-05
3.47355e-05
7.92686e-05
2.13153e-05
9.57213e-05
0.000103988
0.000693378
0.000101561
0.000453674
8.97204e-05
5.93028e-05
9.07813e-05
2.7598e-05
2.27813e-05
5.28499e-05
2.15732e-05
5.48339e-05
2.39344e-05
3.32768e-05
2.15661e-05
0.000512833
2.10573e-05
0.000122241
3.87881e-05
3.84072e-05
2.73787e-05
2.97032e-05
2.08681e-05
0.00245661
0.000123716
3.51091e-05
2.1229e-05
4.96855e-05
3.09504e-05
5.82224e-05
0.00051783
6.26684e-05
2.10509e-05
0.00024364
2.06126e-05
7.98872e-05
5.14294e-05
0.00373636
6.48931e-05
3.96174e-05
0.000749373
2.06947e-05
2.09441e-05
6.42118e-05
2.27594e-05
2.04109e-05
0.0135179
2.93727e-05
0.0151482
6.1399e-05
3.42171e-05
3.38647e-05
0.00240108
3.41629e-05
2.21918e-05
2.91714e-05
2.46568e-05
3.89414e-05
2.13057e-05
2.25602e-05
4.41198e-05
2.12667e-05
2.15061e-05
2.11951e-05
5.40797e-05
5.41217e-05
4.3682e-05
5.41696e-05
2.12117e-05
2.1912e-05
2.15839e-05
8.53669e-05
5.36247e-05
2.12564e-05
0.000109961
2.11381e-05
0.0001106
2.14164e-05
2.26243e-05
8.88027e-05
7.90671e-05
9.96564e-05
3.72353e-05
2.83607e-05
2.32486e-05
4.73743e-05
2.16303e-05
2.25383e-05
2.16411e-05
3.97385e-05
3.15058e-05
0.000130429
0.000270593
4.35634e-05
2.15306e-05
3.71264e-05
2.18046e-05
2.1618e-05
0.000192339
0.00020459
0.000173955
5.88078e-05
9.39781e-05
3.12389e-05
0.000111133
2.1454e-05
5.67361e-05
4.64845e-05
3.73917e-05
0.000123754
2.10186e-05
0.000167681
0.000105616
2.10902e-05
0.00290714
2.10973e-05
2.24724e-05
7.80735e-05
0.000324439
2.10525e-05
2.12207e-05
2.52917e-05
4.87971e-05
4.62265e-05
2.14345e-05
2.23724e-05
4.78669e-05
3.87846e-05
5.60086e-05
2.12364e-05
2.5371e-05
0.000120931
2.10388e-05
0.000281489
2.10668e-05
2.25527e-05
0.000134066
2.10661e-05
2.29004e-05
2.09903e-05
2.32996e-05
0.000127587
2.09059e-05
7.26801e-05
2.3381e-05
2.17591e-05
2.19016e-05
7.63004e-05
5.38541e-05
5.72698e-05
2.11893e-05
2.90276e-05
2.27978e-05
0.0181394
2.1343e-05
0.00132793
3.29873e-05
4.98605e-05
3.11417e-05
2.39137e-05
0.000147371
2.54952e-05
2.90688e-05
2.10865e-05
0.000108262
2.14035e-05
2.28544e-05
2.34311e-05
4.55177e-05
0.0119436
6.43074e-05
3.33881e-05
2.87223e-05
5.47371e-05
3.63593e-05
2.13115e-05
2.14353e-05
4.16301e-05
6.15349e-05
3.61127e-05
3.79855e-05
7.16089e-05
2.46287e-05
0.000146003
6.63673e-05
2.38129e-05
3.81077e-05
8.71269e-05
2.15633e-05
2.13577e-05
0.000107003
2.30896e-05
2.23377e-05
7.76318e-05
2.25733e-05
2.23729e-05
3.55634e-05
9.47429e-05
2.17287e-05
0.000177271
2.11383e-05
2.18632e-05
3.83547e-05
4.47895e-05
3.75794e-05
3.81814e-05
2.87613e-05
2.56325e-05
2.45517e-05
2.3368e-05
2.1101e-05
2.09538e-05
0.000123922
0.000160395
0.00223767
5.35276e-05
0.000111195
2.93036e-05
5.54807e-05
0.00112639
6.22797e-05
0.0129144
1.92164e-05
0.0138469
4.9135e-05
2.12903e-05
5.35946e-05
0.000163882
5.01261e-05
2.11728e-05
3.03698e-05
5.47258e-05
2.13994e-05
0.000176372
0.00137685
2.64667e-05
3.49702e-05
2.56187e-05
2.38564e-05
2.12607e-05
0.00182419
2.14679e-05
2.19687e-05
4.63537e-05
0.00551269
8.28782e-05
2.18154e-05
0.0028993
0.00114003
2.13111e-05
2.21942e-05
2.41245e-05
2.22791e-05
9.89993e-05
3.65527e-05
0.000124584
2.2109e-05
2.10255e-05
2.87231e-05
3.09011e-05
3.29732e-05
0.0216198
2.10209e-05
4.89136e-05
4.92054e-05
3.37476e-05
0.000432479
0.0200102
0.00024844
0.0086304
0.00105143
0.00587171
0.000105711
0.000368108
5.04372e-05
2.7413e-05
2.10012e-05
2.09578e-05
5.38054e-05
8.32991e-05
0.00690736
0.00622827
2.77232e-05
0.000408448
2.0034e-05
2.34597e-05
2.16437e-05
2.34643e-05
1.96479e-05
2.09655e-05
2.10486e-05
0.000417538
0.0108019
3.01274e-05
5.3209e-05
0.00427394
3.52399e-05
0.00013949
1.67641e-05
2.953e-05
0.00801764
5.86072e-05
0.000104906
3.87873e-05
5.66563e-05
2.24863e-05
2.09789e-05
7.00751e-05
2.11115e-05
2.17756e-05
3.34686e-05
7.2771e-05
2.46664e-05
0.00387623
2.9651e-05
2.11214e-05
2.91663e-05
0.00212738
6.58094e-05
2.07767e-05
2.17771e-05
0.00136917
2.49683e-05
2.4443e-05
8.17185e-05
0.00777944
2.84063e-05
2.13967e-05
2.19236e-05
0.00189934
2.12006e-05
6.46163e-05
0.00227054
2.87966e-05
0.000106822
2.11555e-05
2.57604e-05
2.1604e-05
2.15526e-05
2.98699e-05
2.0981e-05
0.0182438
7.24276e-05
4.51482e-05
2.22669e-05
5.88867e-05
0.000365144
8.54839e-05
4.00614e-05
2.01142e-05
2.06206e-05
2.73218e-05
3.47558e-05
4.7824e-05
8.12833e-05
4.69149e-05
0.00910998
9.50337e-05
2.82809e-05
2.31781e-05
2.65093e-05
8.44208e-05
0.000129452
2.11907e-05
2.09773e-05
2.154e-05
3.61811e-05
2.13408e-05
0.00178388
2.36629e-05
2.19196e-05
2.98632e-05
2.23947e-05
2.15185e-05
2.17379e-05
3.02702e-05
4.36853e-05
5.83409e-05
2.75466e-05
2.49169e-05
6.10567e-05
1.93639e-05
0.000114789
2.62459e-05
3.34053e-05
4.75049e-05
2.30955e-05
3.93669e-05
2.30497e-05
3.06984e-05
5.89152e-05
2.09089e-05
1.99209e-05
2.19173e-05
7.0121e-05
6.12125e-05
2.13237e-05
2.11458e-05
2.4794e-05
3.40896e-05
0.00155767
0.000180922
5.8664e-05
2.43305e-05
3.54088e-05
2.88659e-05
2.17695e-05
2.12098e-05
3.9662e-05
2.18931e-05
2.26916e-05
5.85194e-05
2.15811e-05
4.57397e-05
6.14696e-05
1.58733e-05
6.29991e-05
2.13068e-05
2.527e-05
2.09952e-05
2.0976e-05
2.42457e-05
1.94835e-05
5.84403e-05
0.000867584
0.00163363
2.40801e-05
4.3786e-05
7.60044e-05
4.65069e-05
2.56998e-05
7.81637e-05
2.3504e-05
2.7415e-05
0.00156209
2.19296e-05
2.53295e-05
2.06407e-05
2.1511e-05
2.96972e-05
2.44886e-05
2.2449e-05
1.94774e-05
0.00115046
0.000164448
3.41932e-05
0.00130507
4.63986e-05
1.68653e-05
0.00115472
2.12923e-05
2.17307e-05
6.88856e-05
2.23038e-05
5.84779e-05
0.000834878
5.05299e-05
2.67168e-05
1.98375e-05
4.06643e-05
2.37014e-05
2.11264e-05
5.57558e-05
1.42925e-05
0.0158291
0.000543275
2.09243e-05
4.07631e-05
0.0137954
2.03256e-05
5.5519e-05
0.000124806
2.2138e-05
0.000292053
2.2013e-05
2.15176e-05
5.5628e-05
0.00131796
5.32905e-05
2.21403e-05
3.90976e-05
0.000590002
7.18349e-05
2.63172e-05
2.20721e-05
1.71525e-05
2.26108e-05
2.3713e-05
0.00192823
2.10001e-05
2.69603e-05
2.57668e-05
2.34652e-05
2.12274e-05
2.74065e-05
2.10789e-05
0.00276677
2.0926e-05
2.09677e-05
2.10225e-05
2.1686e-05
2.96936e-05
2.0964e-05
2.13793e-05
2.12587e-05
2.10802e-05
2.13241e-05
2.52991e-05
2.12826e-05
2.08744e-05
2.09465e-05
2.4136e-05
3.01407e-05
0.000435613
3.16841e-05
2.1451e-05
2.16027e-05
2.33829e-05
2.13924e-05
2.15069e-05
2.4979e-05
0.000614865
2.39575e-05
4.34011e-05
3.95113e-05
9.25456e-05
6.62863e-05
3.11766e-05
0.000417766
3.8355e-05
2.27128e-05
2.18319e-05
2.54232e-05
2.63294e-05
2.18616e-05
2.6277e-05
2.12441e-05
4.93786e-05
2.42768e-05
2.47505e-05
2.64613e-05
2.08725e-05
0.000132557
3.01534e-05
5.52274e-05
2.09729e-05
2.28791e-05
2.08908e-05
0.000121229
0.000145139
2.12357e-05
6.4204e-05
2.09651e-05
2.09319e-05
2.13138e-05
0.00217688
3.86876e-05
2.73427e-05
3.93743e-05
6.10494e-05
6.3419e-05
0.000116183
2.12282e-05
8.62929e-05
2.12296e-05
2.17726e-05
2.75212e-05
2.36127e-05
0.00201223
2.54837e-05
2.87563e-05
0.0010946
2.10357e-05
2.7972e-05
2.11382e-05
2.31773e-05
0.000191226
3.4857e-05
2.9374e-05
2.18885e-05
5.91742e-05
0.000119661
2.40624e-05
2.76287e-05
2.33338e-05
2.27611e-05
4.77429e-05
0.00150203
4.93078e-05
0.000124738
0.00139055
2.12673e-05
2.53143e-05
0.000129558
1.89031e-05
0.000201685
3.38154e-05
3.17356e-05
2.61803e-05
2.42557e-05
0.000111854
9.51472e-05
0.00199657
2.52329e-05
0.000180641
2.36481e-05
3.08363e-05
3.89202e-05
3.24152e-05
2.09405e-05
3.67327e-05
0.000405358
5.92727e-05
2.08585e-05
3.01044e-05
4.5782e-05
2.94695e-05
2.1103e-05
4.7979e-05
2.12249e-05
2.19486e-05
5.21334e-05
2.12553e-05
2.15464e-05
2.54398e-05
5.22825e-05
0.0001592
2.14004e-05
0.000190465
2.15657e-05
3.50504e-05
2.12809e-05
8.05827e-05
0.00250668
0.00229058
3.0615e-05
0.00204999
2.11069e-05
2.12084e-05
2.35025e-05
0.000112678
0.00143791
7.27022e-05
2.35135e-05
2.99774e-05
0.00117463
2.08829e-05
3.14104e-05
2.10984e-05
2.15322e-05
4.22999e-05
4.04634e-05
2.96782e-05
3.03255e-05
0.000119845
0.00166387
2.45061e-05
3.02405e-05
3.21723e-05
2.09055e-05
0.00220984
4.06113e-05
8.87163e-05
2.10873e-05
2.94182e-05
0.000113794
2.5493e-05
2.19031e-05
2.13121e-05
6.88707e-05
2.11531e-05
5.82251e-05
2.39025e-05
2.09234e-05
2.2558e-05
4.10406e-05
7.567e-05
3.16167e-05
2.11446e-05
2.11034e-05
4.63551e-05
2.48884e-05
2.84562e-05
2.2002e-05
0.00054615
2.15486e-05
2.37077e-05
3.21893e-05
0.00394402
0.00222293
0.00320277
2.11072e-05
0.00324704
2.12259e-05
8.09976e-05
2.5023e-05
4.78945e-05
9.13538e-05
0.000369777
2.37824e-05
0.00196269
6.31671e-05
4.68841e-05
2.42323e-05
1.9147e-05
2.1751e-05
2.34044e-05
4.92794e-05
2.11178e-05
7.06729e-05
2.12672e-05
2.02912e-05
2.17832e-05
4.42695e-05
0.00162125
0.000479068
8.5548e-05
1.92927e-05
2.69306e-05
0.000522413
0.000302519
0.000176616
0.000239912
2.1311e-05
0.000113369
1.78934e-05
2.12651e-05
0.000191189
2.39126e-05
0.000530256
8.02823e-05
2.46629e-05
6.94587e-05
0.000128557
8.4016e-05
3.65332e-05
2.34838e-05
2.12142e-05
4.62329e-05
2.09659e-05
7.0327e-05
2.67897e-05
2.10363e-05
2.11289e-05
5.46642e-05
2.82017e-05
3.86844e-05
1.78652e-05
0.00026148
2.13462e-05
2.13047e-05
3.07155e-05
1.58215e-06
7.7313e-05
1.96033e-05
7.0055e-05
0.00533039
2.27952e-05
2.10734e-05
2.11047e-05
2.09715e-05
2.57008e-05
0.000218149
2.14755e-05
5.91951e-05
7.11141e-05
4.04102e-05
2.16934e-05
2.33373e-05
3.37374e-05
2.11973e-05
8.89064e-05
4.16228e-05
0.000128295
4.46974e-05
2.64402e-05
2.16537e-05
2.39229e-05
0.000273572
9.53302e-05
3.95812e-05
3.2587e-05
3.06244e-05
2.09058e-05
2.17039e-05
2.38158e-05
2.72354e-05
2.08616e-05
3.45359e-05
2.2122e-05
2.10726e-05
2.11752e-05
0.00221466
0.0001013
1.6318e-05
0.000856526
0.00250672
2.30757e-05
0.000204933
2.13306e-05
2.28626e-05
2.12942e-05
2.15539e-05
3.79668e-05
2.13314e-05
3.26779e-05
7.0349e-05
2.09864e-05
2.14879e-05
2.51777e-05
5.84455e-05
2.12513e-05
2.36422e-05
3.01299e-05
2.14244e-05
3.12877e-05
3.43305e-05
2.15988e-05
2.34683e-05
2.09867e-05
3.28806e-05
1.94902e-05
0.00212268
0.00102218
2.1652e-05
0.000730271
2.09684e-05
5.29893e-05
8.95396e-05
5.66026e-05
6.50421e-05
2.1825e-05
2.31142e-05
5.55618e-05
2.20474e-05
0.0008718
2.20222e-05
2.24738e-05
0.000114705
6.29005e-05
5.21031e-05
0.00156014
5.64442e-05
7.24812e-05
2.25224e-05
4.86062e-05
0.000815961
6.0661e-05
1.94102e-05
8.45687e-05
5.59608e-05
2.12326e-05
2.09992e-05
3.05894e-05
2.12086e-05
2.43111e-05
2.09769e-05
2.06404e-05
2.17522e-05
2.02411e-05
2.14092e-05
2.08795e-05
7.80298e-05
0.000830822
2.21344e-05
2.08522e-05
2.09877e-05
6.06912e-05
2.09709e-05
2.23918e-05
2.12182e-05
7.55578e-05
9.40281e-05
3.92855e-05
2.11528e-05
0.000158536
3.45382e-05
0.000171425
2.69211e-05
3.00153e-05
2.77992e-05
2.45454e-05
7.46825e-05
1.71832e-05
2.26314e-05
2.11761e-05
3.25469e-05
2.72717e-05
2.73353e-05
2.79875e-05
2.17652e-05
2.21525e-05
4.33652e-05
8.72366e-05
5.66889e-05
2.58545e-05
2.38503e-05
0.00015615
5.02183e-05
2.11421e-05
2.23209e-05
2.13176e-05
0.000121495
0.000165765
6.05438e-05
7.68454e-05
3.38585e-05
3.27726e-05
2.11988e-05
2.08768e-05
2.32392e-05
0.000661698
2.34889e-05
8.29735e-05
0.000110986
0.000131377
3.47415e-05
2.97737e-05
2.33092e-05
2.48717e-05
2.05663e-05
2.93302e-05
3.08917e-05
2.5084e-05
7.70082e-05
9.15906e-05
1.99588e-05
4.66825e-05
2.44921e-05
8.26885e-05
2.65371e-05
1.89809e-05
2.16669e-05
2.09163e-05
8.57069e-05
2.43712e-05
2.12513e-05
8.01123e-05
4.7909e-05
1.93629e-05
5.19207e-05
3.55233e-05
2.08792e-05
3.78628e-05
2.25164e-05
2.70564e-05
2.14478e-05
2.18159e-05
4.64195e-05
2.22021e-05
9.13734e-05
2.30081e-05
0.0001172
4.68129e-05
2.44621e-05
0.0127441
2.39939e-05
0.0126071
0.0133539
2.09609e-05
2.1425e-05
2.10098e-05
4.11656e-05
2.10512e-05
4.8954e-05
2.17411e-05
0.0137949
2.14725e-05
0.0137935
0.000134294
0.00224045
3.56889e-05
2.13336e-05
4.49397e-05
2.84894e-05
4.24172e-05
4.13675e-05
2.6304e-05
3.05131e-05
0.01486
2.10456e-05
0.000174278
6.66271e-05
2.10048e-05
2.05213e-05
4.72723e-05
0.00927402
2.10292e-05
5.71257e-05
1.85197e-05
2.09244e-05
5.95082e-05
0.0142741
2.27126e-05
1.58942e-05
4.60772e-05
0.000314923
0.0174915
7.99482e-05
9.47743e-05
3.29996e-05
3.75147e-05
7.9184e-05
2.14392e-05
5.34797e-05
7.6776e-05
3.73395e-05
8.982e-05
2.20495e-05
0.000120882
3.31397e-05
4.10919e-05
2.33648e-05
5.57405e-05
2.10771e-05
5.83869e-05
2.11615e-05
1.97336e-05
2.53477e-05
2.47714e-05
2.16457e-05
8.82586e-05
1.98594e-05
6.28632e-05
1.92271e-05
4.3358e-05
2.60869e-05
0.00154554
2.10555e-05
2.7614e-05
2.10813e-05
6.53709e-05
1.97751e-05
9.9754e-05
2.09192e-05
0.000100908
2.29177e-05
2.13884e-05
6.68505e-05
5.42138e-05
2.47148e-05
2.11879e-05
2.10432e-05
2.1224e-05
0.000183254
3.18031e-05
4.87126e-05
2.41631e-05
2.33321e-05
2.13471e-05
2.08868e-05
4.7764e-05
2.57966e-05
5.74903e-05
4.87677e-05
2.67488e-05
2.11238e-05
3.9492e-05
2.28054e-05
2.27469e-05
2.35414e-05
2.15202e-05
5.78101e-05
2.10322e-05
2.09337e-05
2.15913e-05
3.95808e-05
0.000134622
2.45025e-05
3.1899e-05
2.25099e-05
2.25312e-05
2.2374e-05
2.12404e-05
2.78786e-05
2.34677e-05
2.13976e-05
2.30065e-05
2.01307e-05
6.37022e-05
2.23726e-05
3.44772e-05
2.64791e-05
5.13019e-05
3.17681e-05
0.000131845
2.13734e-05
2.11882e-05
3.84774e-05
0.000111562
2.15717e-05
2.10647e-05
2.1083e-05
2.17193e-05
5.38734e-05
0.000119085
2.68672e-05
4.92664e-05
0.000440165
0.0115972
0.0037098
0.000220445
3.64329e-05
2.11162e-05
1.58663e-05
2.25518e-05
7.42748e-05
2.3141e-05
0.000207793
3.62943e-05
2.12633e-05
6.89472e-05
0.000176176
2.22998e-05
7.46173e-05
7.34329e-05
1.45762e-05
2.28581e-05
3.5626e-05
2.12277e-05
2.20809e-05
0.00328608
2.11131e-05
0.0021835
0.00410322
6.22785e-05
4.47496e-05
2.14226e-05
2.20975e-05
2.2211e-05
7.60587e-05
2.1285e-05
8.42789e-05
5.72587e-05
0.00220026
8.29708e-05
2.13682e-05
1.92455e-05
2.15955e-05
2.81275e-05
2.70505e-05
3.656e-05
2.11101e-05
1.2599e-05
0.000283105
2.10947e-05
2.12342e-05
8.94113e-05
2.38433e-05
2.01455e-05
3.09747e-05
2.06517e-05
6.16411e-05
1.38976e-05
2.12779e-05
9.35086e-05
6.79453e-05
8.71082e-05
2.02353e-05
2.11156e-05
2.10324e-05
0.000109061
0.0014768
2.35105e-05
3.89959e-05
2.14576e-05
5.91494e-05
5.6295e-05
3.37222e-05
4.05416e-05
2.26459e-05
2.35217e-05
0.00026041
2.13212e-05
4.72948e-05
5.60005e-05
2.20788e-05
5.08895e-05
9.63551e-05
2.43565e-05
2.34542e-05
8.52762e-05
2.63984e-05
2.10095e-05
5.77888e-05
2.00502e-05
3.30488e-05
0.0123858
5.07735e-05
2.12081e-05
3.46483e-05
0.00165448
3.96289e-05
2.36586e-05
6.89416e-05
2.16007e-05
0.0018614
2.64902e-05
2.11682e-05
2.11677e-05
2.43264e-05
2.16679e-05
2.80194e-05
8.43487e-05
2.23558e-05
2.63802e-05
2.53525e-05
7.79663e-05
0.00010986
2.11589e-05
8.42321e-05
2.2301e-05
2.2098e-05
2.19807e-05
2.12324e-05
8.72678e-05
2.64805e-05
2.0991e-05
2.11347e-05
0.00164563
2.11988e-05
2.12351e-05
2.10915e-05
6.60925e-05
0.0147053
2.09505e-05
0.00140027
2.49485e-05
2.21672e-05
0.000277965
2.15855e-05
0.00183452
0.0151979
2.06216e-05
3.64083e-05
0.0162064
0.000580884
0.0174008
6.83307e-05
2.06023e-05
2.13183e-05
2.13339e-05
3.7925e-05
0.00016942
2.09884e-05
0.000108716
2.12903e-05
2.23306e-05
9.55443e-05
2.32947e-05
2.20506e-05
2.10955e-05
3.72722e-05
0.000104522
2.38511e-05
7.69613e-05
5.94058e-05
2.7868e-05
7.75819e-05
3.00841e-05
5.11265e-05
5.27525e-05
3.59114e-05
2.71386e-05
1.20882e-05
2.16122e-05
2.7804e-05
2.15192e-05
2.79294e-05
1.49274e-05
2.26197e-05
2.16548e-05
2.12142e-05
3.51957e-05
2.30593e-05
3.56964e-05
2.56033e-05
2.10255e-05
3.19648e-05
4.58408e-05
5.95293e-05
2.09646e-05
2.11345e-05
0.00185122
3.71215e-05
1.28799e-05
0.000127276
2.16268e-05
2.22214e-05
2.02444e-05
2.10702e-05
0.0123435
2.13701e-05
4.10798e-05
2.90233e-05
0.000101185
2.52449e-05
2.10284e-05
3.04673e-05
0.00136506
2.08767e-05
3.62388e-05
3.89702e-05
0.000103531
0.000133061
2.87353e-05
2.3007e-05
2.12022e-05
9.19537e-05
6.36933e-05
0.00012895
8.19444e-05
2.12005e-05
2.124e-05
2.13485e-05
2.16375e-05
3.31833e-05
5.85438e-05
2.20666e-05
5.34379e-05
2.45161e-05
4.70275e-05
3.60071e-05
5.733e-05
2.87892e-05
2.36038e-05
2.11781e-05
2.78421e-05
4.36424e-05
2.12338e-05
2.9142e-05
2.21872e-05
1.66549e-06
3.2856e-05
2.11118e-05
2.31208e-05
2.46855e-05
5.00347e-05
7.58611e-05
1.96943e-05
2.53598e-05
6.42087e-05
8.36001e-05
2.13587e-05
2.4066e-05
0.00154688
2.09036e-05
2.92889e-05
2.10159e-05
2.33256e-05
2.14673e-05
2.12143e-05
2.18678e-05
2.05441e-05
0.00282484
2.06281e-05
4.55181e-05
2.18964e-05
2.04248e-05
6.353e-05
2.11456e-05
3.53883e-05
2.13584e-05
0.000246548
0.0010739
3.04073e-05
4.27574e-05
2.11246e-05
4.74226e-05
0.0206714
2.14713e-05
2.12458e-05
7.95803e-05
6.96696e-05
0.00289517
0.000157801
2.40882e-05
2.08653e-05
4.02232e-05
2.3444e-05
3.8394e-05
1.92166e-05
2.37593e-05
0.000124087
0.00495354
1.9151e-05
0.00265173
6.41495e-05
6.73036e-05
2.43185e-05
7.39845e-05
2.152e-05
0.00235367
8.3767e-05
2.82235e-05
3.82892e-05
2.12345e-05
9.02615e-05
0.001276
5.98307e-05
2.24038e-05
2.11173e-05
0.000149716
9.28735e-05
5.03038e-05
2.30333e-05
8.14408e-05
6.50836e-05
4.92095e-05
2.18782e-05
2.5963e-05
0.0018191
2.09723e-05
5.90037e-05
2.25393e-05
2.19378e-05
2.09887e-05
2.11048e-05
2.26755e-05
2.14555e-05
2.8323e-05
5.38494e-05
3.10489e-05
4.04184e-05
5.39823e-05
2.14313e-05
2.14299e-05
3.98192e-05
0.000137705
3.53161e-05
2.13674e-05
2.07112e-05
4.7258e-05
5.0475e-05
2.14853e-05
3.24021e-05
3.11254e-05
2.12108e-05
2.80262e-05
2.0519e-05
4.13736e-05
2.98431e-05
0.000107499
2.1183e-05
2.09836e-05
0.00031837
0.00142353
2.14724e-05
3.98246e-05
0.00118637
0.00153128
2.17382e-05
0.00146361
2.57456e-05
4.91172e-05
1.26093e-05
0.00160737
2.16339e-05
3.38532e-05
2.30807e-05
3.11123e-05
5.72236e-05
2.09545e-05
5.913e-05
2.14044e-05
0.0109272
2.68173e-05
1.79482e-05
2.1173e-05
3.63042e-05
7.52516e-05
2.66352e-05
2.12413e-05
2.71355e-05
4.47994e-05
3.24564e-05
2.12792e-05
0.0034079
8.03377e-05
1.96182e-05
6.59805e-05
2.12891e-05
0.000636474
7.42316e-05
2.17715e-05
2.08897e-05
1.99873e-05
2.22675e-05
2.0723e-05
3.36818e-05
3.46645e-05
6.39656e-05
0.0124103
2.24538e-05
2.12163e-05
2.4624e-05
1.33852e-05
4.86126e-05
2.29449e-05
3.00695e-05
5.91063e-05
2.05097e-05
3.67837e-05
2.12821e-05
6.23245e-05
2.38777e-05
2.33336e-05
2.58259e-05
8.97336e-05
7.87985e-05
1.35264e-05
0.000182075
0.013255
0.00514729
2.15642e-05
2.93829e-05
2.12873e-05
2.12359e-05
0.000168424
2.22361e-05
3.6407e-05
2.13408e-05
2.13044e-05
2.11122e-05
0.00750068
0.0156764
2.13341e-05
2.13625e-05
2.1018e-05
4.92632e-05
0.0035464
0.0123209
3.11572e-05
4.91294e-05
2.09583e-05
3.04514e-05
2.77899e-05
5.31149e-05
3.82903e-05
2.14197e-05
3.20375e-05
4.08086e-05
3.01575e-05
2.413e-05
2.06348e-05
3.53927e-05
3.13946e-05
2.79684e-05
2.23e-05
2.11635e-05
5.00193e-05
5.46248e-05
3.3141e-05
3.06467e-05
3.01512e-05
1.96181e-05
0.000111955
1.19225e-05
5.22648e-05
4.67224e-05
4.59008e-05
2.1532e-05
9.75789e-05
5.59128e-05
7.22578e-05
6.08045e-05
0.00217604
7.36364e-05
2.44833e-05
2.90335e-05
2.97042e-05
3.82323e-05
6.45754e-05
0.00172837
2.1729e-05
2.40903e-05
2.94617e-05
4.076e-05
8.55458e-05
2.12274e-05
2.53402e-05
2.04781e-05
3.75079e-05
2.27298e-05
7.10938e-05
5.08828e-05
2.0712e-05
1.94432e-05
5.23014e-05
2.27096e-05
0.000172836
0.000127688
2.96049e-05
2.0947e-05
2.1639e-05
2.19147e-05
2.077e-05
3.15748e-05
2.16703e-05
2.36662e-05
2.40648e-05
2.14048e-05
0.000488829
2.13884e-05
2.23399e-05
2.10526e-05
2.46284e-05
4.05838e-05
3.11087e-05
0.000480559
3.93434e-05
2.1495e-05
2.58109e-05
4.18708e-05
2.11362e-05
1.78934e-05
3.17979e-05
2.26381e-05
2.12524e-05
2.08229e-05
2.38242e-05
2.26535e-05
2.094e-05
0.00263801
2.10327e-05
2.09708e-05
2.41566e-05
0.00019115
9.69721e-05
3.01045e-05
9.49436e-05
2.94588e-05
8.16364e-05
2.82484e-05
2.11659e-05
2.08883e-05
6.13482e-05
2.09827e-05
2.12128e-05
2.09548e-05
2.1105e-05
2.75767e-05
0.00166957
8.35621e-05
2.09631e-05
6.42343e-05
0.00377274
2.08651e-05
3.48633e-05
2.08869e-05
2.81192e-05
2.09507e-05
6.42234e-05
2.4043e-05
2.08566e-05
0.00697133
4.67675e-05
6.03607e-05
3.84393e-05
2.15432e-05
5.11797e-05
2.57103e-05
2.68565e-05
2.09852e-05
0.00527182
5.49752e-05
2.41925e-05
2.13991e-05
3.45186e-05
2.09608e-05
2.16446e-05
7.20181e-05
2.31902e-05
0.000159258
2.12902e-05
3.21504e-05
0.00162191
3.1214e-05
4.02268e-05
6.33982e-05
0.00376291
2.08893e-05
0.00214476
2.09657e-05
0.00166324
3.77647e-05
2.14303e-05
2.15062e-05
6.95174e-05
2.90079e-05
2.91959e-05
5.56513e-05
2.31318e-05
2.14631e-05
2.13426e-05
2.5596e-05
2.12508e-05
3.03908e-05
3.43486e-05
2.46296e-05
2.52857e-05
5.12402e-05
2.35434e-05
2.16648e-05
0.0017218
2.32626e-05
6.23037e-05
7.12038e-05
2.19344e-05
2.22126e-05
3.36002e-05
3.39884e-05
0.0170116
4.17231e-05
2.48233e-05
0.0208308
0.0234223
2.10377e-05
3.24653e-05
5.43025e-05
2.20586e-05
2.11978e-05
3.5659e-05
2.33078e-05
4.8708e-05
2.6551e-05
0.00579576
4.29741e-05
2.14459e-05
5.433e-05
2.13942e-05
2.22174e-05
2.13304e-05
0.0131706
0.000188413
2.30625e-05
2.27969e-05
3.66713e-05
2.04205e-05
2.17161e-05
2.7461e-05
0.000807786
2.11605e-05
0.00266288
2.38892e-05
2.15137e-05
4.79775e-05
2.24319e-05
4.29592e-05
0.000235296
2.44692e-05
9.93321e-05
2.05047e-05
2.44961e-05
2.66495e-05
2.21065e-05
1.7856e-05
3.31653e-05
2.11268e-05
0.00151165
2.71455e-05
3.33074e-05
2.19663e-05
2.09396e-05
2.16807e-05
6.07069e-05
2.1176e-05
2.37205e-05
3.56502e-05
9.02432e-05
2.1293e-05
2.95074e-05
0.000800232
5.85465e-05
0.00118721
0.00042448
4.8354e-05
6.0312e-05
4.51204e-05
2.18022e-05
2.17661e-05
2.96666e-05
0.000273753
5.37974e-05
2.10534e-05
2.27359e-05
2.39563e-05
4.70463e-05
4.11703e-05
8.49894e-05
0.00310211
2.16999e-05
6.77287e-05
0.000113324
2.14867e-05
2.11567e-05
2.52189e-05
0.000101472
0.00252639
2.17981e-05
2.14129e-05
4.27063e-05
2.11983e-05
7.00981e-05
0.00540955
2.26922e-05
4.91325e-05
0.00826581
2.20905e-05
2.76041e-05
2.14692e-05
2.10118e-05
4.96571e-05
0.00010806
3.82193e-05
0.000106635
5.9936e-05
2.05852e-05
2.2559e-05
8.65466e-05
2.13871e-05
2.11262e-05
0.00150011
2.34761e-05
4.48106e-05
2.15514e-05
0.0017797
1.98061e-05
0.00114469
2.13035e-05
2.14495e-05
5.18972e-05
1.55223e-05
5.40408e-05
4.91322e-05
0.000103563
2.20939e-05
2.10487e-05
0.00163687
0.00155012
0.00081457
2.16866e-05
0.0010983
0.000736754
2.30854e-05
2.10588e-05
1.79513e-05
5.94649e-05
2.53663e-05
2.15053e-05
6.46242e-05
6.56312e-05
0.000980249
0.00103898
0.000499457
0.000102256
2.15351e-05
5.39633e-05
1.63717e-05
6.10998e-05
5.18052e-05
2.10246e-05
2.17702e-05
2.08753e-05
8.07647e-05
2.1043e-05
0.000346141
1.68105e-05
4.98812e-05
2.13434e-05
4.20209e-05
3.99705e-05
2.09347e-05
8.64125e-05
3.63566e-05
0.000127559
2.57693e-05
0.000609036
2.20002e-05
2.19293e-05
2.11548e-05
1.88476e-05
0.000470512
2.14761e-05
2.17628e-05
0.000886362
0.00029488
9.53209e-05
0.00120333
2.16217e-05
2.84994e-05
2.0174e-05
0.000152693
2.17586e-05
6.83896e-05
2.18584e-05
7.46005e-05
2.10505e-05
0.00102078
2.24167e-05
2.10837e-05
2.08972e-05
0.000184442
0.000407771
2.11849e-05
0.0164283
2.10468e-05
2.10364e-05
2.27132e-05
4.60318e-05
2.25333e-05
2.55398e-05
2.14046e-05
0.000179413
4.71114e-05
2.10383e-05
1.63332e-05
1.93017e-05
3.99019e-05
2.29676e-05
3.31068e-05
4.07697e-05
4.01056e-05
3.04415e-05
0.000371753
5.02096e-05
2.15827e-05
4.95903e-05
4.04058e-05
2.13484e-05
2.46456e-05
2.11979e-05
3.06341e-05
2.13672e-05
5.38799e-05
3.06988e-05
4.7923e-05
2.1098e-05
2.37956e-05
6.69524e-05
2.20771e-05
2.1213e-05
2.11971e-05
3.55932e-05
0.000154618
2.16611e-05
4.6125e-05
2.12921e-05
2.09244e-05
2.1449e-05
6.4207e-05
4.55543e-05
2.54301e-05
2.13108e-05
2.7896e-05
2.087e-05
2.09151e-05
2.09833e-05
2.20261e-05
7.83612e-05
5.97323e-05
0.000456777
5.94099e-05
2.39823e-05
2.09605e-05
2.75167e-05
0.000935223
0.00269831
4.84446e-05
2.08951e-05
2.09498e-05
2.17943e-05
2.10589e-05
0.00052787
7.05573e-05
2.58404e-05
0.0022017
7.95926e-05
3.26162e-05
2.13457e-05
0.00013081
9.20307e-05
0.000971217
2.08706e-05
0.0242439
5.40522e-05
2.9505e-05
2.11075e-05
0.000799761
5.10859e-05
0.000434536
6.68678e-05
5.15942e-05
7.56305e-05
2.15886e-05
0.000340456
2.13011e-05
0.00076167
0.000658189
0.00308294
2.07166e-05
3.5929e-05
0.000131198
5.30643e-05
2.20796e-05
0.000346619
0.00216886
2.08672e-05
4.72824e-05
2.18189e-05
2.07684e-05
2.12713e-05
0.00119112
1.25315e-05
2.40515e-05
3.30615e-05
1.6919e-05
6.20189e-05
5.18891e-05
2.14589e-05
1.20419e-05
9.52124e-05
2.87729e-05
2.74623e-05
7.98768e-05
4.00918e-05
2.34949e-05
9.72576e-05
2.20627e-05
2.12773e-05
1.87268e-05
2.74417e-05
2.13569e-05
4.64135e-05
2.20854e-05
2.66182e-05
3.89509e-05
2.93903e-05
9.69722e-05
0.000406427
7.46712e-05
0.00243884
2.12588e-05
2.88373e-05
0.000815737
5.35034e-05
2.21127e-05
2.30731e-05
1.64411e-05
0.00196787
5.52501e-05
0.000326241
2.6145e-05
3.48081e-05
6.9832e-05
8.92293e-05
2.14175e-05
0.00102875
0.000101476
0.000113691
0.00571001
4.38706e-05
4.01036e-05
2.21683e-05
7.64733e-05
2.12268e-05
2.13526e-05
8.39828e-05
3.1738e-05
2.82002e-05
2.45325e-05
2.26661e-05
2.13771e-05
2.74111e-05
8.503e-05
2.1363e-05
3.73221e-05
7.76996e-05
0.000116327
2.36293e-05
9.93422e-05
0.000784958
3.41222e-05
2.07931e-05
2.30082e-05
2.20634e-05
6.34512e-05
7.51923e-05
2.16627e-05
2.13038e-05
2.14899e-05
3.93591e-05
2.27227e-05
9.51993e-05
2.11343e-05
3.70556e-05
5.25428e-05
3.29328e-05
0.000935042
5.6584e-05
2.2565e-05
2.13442e-05
0.00108782
0.00179103
2.2479e-05
4.43163e-05
4.73967e-05
3.91426e-05
6.87537e-05
2.16212e-05
8.56454e-05
2.10773e-05
7.64642e-05
1.8035e-05
2.61372e-05
2.1358e-05
3.31481e-05
3.98903e-05
2.16269e-05
2.62859e-05
2.10845e-05
2.4156e-05
2.09173e-05
2.09192e-05
0.00010753
2.24217e-05
2.44112e-05
1.83356e-05
0.000305805
4.465e-05
2.13496e-05
3.13536e-05
2.14295e-05
3.49213e-05
4.58522e-05
7.13639e-05
1.65039e-05
2.28259e-05
4.67067e-05
0.000509334
2.64176e-05
2.38562e-05
0.000361847
1.77949e-05
8.2262e-05
3.12276e-05
2.15885e-05
1.85383e-05
2.34581e-05
0.0119038
2.32424e-05
2.15947e-05
2.11075e-05
2.18355e-05
0.0029585
5.69934e-05
0.000294923
2.62589e-05
3.06797e-05
0.000138375
2.10364e-05
2.10572e-05
0.00260178
7.08912e-05
0.00301685
2.77989e-05
1.57735e-05
0.00128073
0.000268113
3.08393e-05
2.91304e-05
2.14978e-05
2.16152e-05
2.09018e-05
6.68794e-05
2.53387e-05
2.13307e-05
2.68644e-05
8.10799e-05
3.03449e-05
4.64494e-05
0.00196881
2.78257e-05
3.04002e-05
2.09259e-05
3.61721e-05
0.0146099
7.5172e-05
2.1405e-05
2.27332e-05
2.52377e-05
0.00148949
5.04226e-05
0.00079319
2.73906e-05
2.15703e-05
2.09903e-05
0.00011085
0.000387727
2.09516e-05
2.09222e-05
5.77808e-05
4.41812e-05
2.2813e-05
2.57707e-05
0.000133466
2.59122e-05
2.99988e-05
0.00010488
0.00144157
2.22828e-05
2.09568e-05
7.65995e-05
2.2211e-05
2.1109e-05
0.000102212
2.2594e-05
0.000102771
2.17716e-05
2.00669e-05
2.06259e-05
0.000102135
3.69175e-05
2.10353e-05
5.17088e-05
2.43207e-05
2.09863e-05
2.11841e-05
2.22887e-05
2.16406e-05
3.56891e-05
3.28112e-05
2.64131e-05
3.16307e-05
3.34615e-05
2.18481e-05
0.00350232
5.27966e-05
2.65402e-05
0.000151695
0.0146199
4.00577e-05
4.19147e-05
2.11866e-05
5.06883e-05
2.25029e-05
3.19235e-05
5.25818e-05
1.88325e-05
5.89011e-05
2.39129e-05
4.53669e-05
8.8392e-05
2.96723e-05
3.01788e-05
2.11513e-05
2.38244e-05
4.59591e-05
0.00538173
3.0148e-05
2.22186e-05
2.11517e-05
8.32026e-05
2.61912e-05
6.6084e-05
0.00650682
3.08542e-05
0.0177914
2.10757e-05
0.0112594
4.35474e-05
0.00396323
8.80447e-05
6.97892e-05
0.0155676
0.000315754
3.51064e-05
6.06079e-05
2.1181e-05
5.58418e-05
2.14619e-05
5.33025e-05
2.05197e-05
0.000105348
1.35708e-05
3.24605e-05
6.46885e-05
2.13104e-05
0.00163763
2.13475e-05
2.10969e-05
2.5637e-05
6.86704e-05
2.1581e-05
2.11072e-05
0.000182223
5.04895e-05
2.055e-05
2.12456e-05
5.20637e-05
2.11335e-05
3.72199e-05
2.15146e-05
2.40159e-05
2.09024e-05
3.41494e-05
2.09972e-05
4.52876e-05
8.63688e-05
2.1875e-05
0.000195872
0.000197206
4.5209e-05
3.67061e-05
0.00664055
3.5081e-05
0.00126487
2.40099e-05
7.28851e-05
7.64242e-05
2.09344e-05
2.12807e-05
2.12582e-05
0.000200213
2.15366e-05
4.34322e-05
1.99254e-05
2.10115e-05
2.12073e-05
2.3127e-05
3.94242e-05
8.43697e-05
2.18658e-05
3.78105e-05
2.21786e-05
3.69802e-05
4.1874e-05
2.11396e-05
2.89136e-05
0.000260252
0.000125907
0.00104529
3.94171e-05
1.53673e-05
4.24265e-05
8.44785e-05
7.46082e-05
0.000177307
2.6134e-05
5.38609e-05
2.46077e-05
0.000584423
6.3811e-05
0.000105801
6.41802e-05
5.29647e-05
3.70462e-05
2.86463e-05
2.71419e-05
2.14145e-05
4.3884e-05
0.00025438
2.18098e-05
1.14147e-05
4.05656e-05
1.89766e-05
3.13886e-05
5.1004e-05
2.05355e-05
7.4725e-05
2.41467e-05
6.11984e-05
2.08912e-05
4.75722e-05
3.49399e-05
2.13259e-05
1.97848e-05
5.2974e-05
6.2728e-05
7.35845e-05
9.18317e-05
2.12208e-05