/*--------------------------------*- C++ -*----------------------------------*\
| =========                 |                                                 |
| \\      /  F ield         | OpenFOAM: The Open Source CFD Toolbox           |
|  \\    /   O peration     | Version:  v2012                                 |
|   \\  /    A nd           | Website:  www.openfoam.com                      |
|    \\/     M anipulation  |                                                 |
\*---------------------------------------------------------------------------*/
FoamFile
{
    version     2.0;
    format      ascii;
    class       volScalarField;
    location    "0.497436";
    object      epsilon;
}
// * * * * * * * * * * * * * * * * * * * * * * * * * * * * * * * * * * * * * //

dimensions      [0 2 -3 0 0 0 0];


internalField   nonuniform List<scalar> 
83563
(
3.4381e-05
3.41892e-05
7.03722e-05
9.48186e-05
3.33588e-05
0.000150057
3.72499e-05
0.00119941
0.00057495
0.0142684
0.000291667
5.56411e-05
4.29001
3.31551e-05
0.000874772
0.0008049
3.27224e-05
3.33163e-05
0.000625563
3.3266e-05
3.29347e-05
3.34281e-05
0.00200531
0.0120844
3.2693e-05
4.88881e-05
3.57422e-05
0.0145837
5.10042e-05
3.58568e-05
8.95769e-05
4.09243e-05
0.000131479
3.48912e-05
3.34678e-05
0.000106535
3.12125e-05
3.44073e-05
4.225e-05
0.00223022
3.52057e-05
0.000170128
5.32143e-05
0.000100398
2.2997
0.00488334
5.56228e-05
0.00271184
1.62751e-05
0.0998435
2.06329
0.000318518
0.559327
1.07268
0.000343504
9.1515
3.70628e-05
0.653062
0.871278
0.00174531
1.07272
0.107452
2.00649e-05
5.95115e-05
1.94635
1.245
0.185764
0.000233618
0.397167
1.94328
0.000818546
6.22627
3.45027e-05
7.36175
5.2357e-05
0.000985147
2.57373e-05
3.54489e-05
3.58931e-05
5.83602
3.66678e-05
3.40198e-05
4.11607e-05
0.05859
3.64309e-05
3.46624e-05
3.28617e-05
0.000280193
3.41475e-05
2.92685e-05
0.0014052
3.40137e-05
0.011863
0.00487437
0.31394
0.00277733
0.0726106
0.0122599
1.55202e-05
0.0016001
0.00034278
4.0902e-05
0.000348167
3.76681e-05
0.00045203
6.44637e-05
0.000169701
3.54902e-05
0.227309
3.34545e-05
0.00502954
0.00053582
0.000515424
0.000239717
2.97072e-05
3.63401e-05
0.137693
0.00489631
0.000126171
3.60688e-05
0.000529945
0.000126597
0.00175627
0.0782666
0.00227191
3.66727e-05
0.0248661
3.68943e-05
0.00186069
1.95695e-05
0.269299
2.19209e-05
0.000284545
0.134195
0.000122189
3.30129e-05
0.00250091
3.49707e-05
7.4281e-05
1.85662
0.000171846
1.49987
2.03851e-05
0.00043018
0.000174644
1.23043
0.000260833
3.84363e-05
0.000401333
5.03446e-05
0.0242924
3.27491e-05
4.32577e-05
0.000628556
3.43036e-05
3.55724e-05
3.38829e-05
1.73979e-05
3.38365e-05
0.00530222
0.00084748
3.41104e-05
3.82282e-05
3.75613e-05
0.00355166
0.00347662
3.5333e-05
0.00569833
3.40921e-05
0.00333688
3.7218e-05
3.57108e-05
0.0020625
0.00132969
0.00243069
2.50964e-05
7.1889e-05
0.000177652
0.00043642
3.5796e-05
8.64692e-05
3.58561e-05
0.000959302
0.000132702
0.00907709
0.0231798
0.000749572
3.72184e-05
0.00247839
3.76086e-05
3.59135e-05
0.0141943
0.0157794
0.013669
2.27165e-05
0.00811192
0.0002489
0.00323642
3.49774e-05
0.000765157
0.00091874
6.19863e-05
0.0063436
3.35735e-05
0.0113961
0.00569559
0.000147731
0.196237
3.36198e-05
5.99179e-05
0.00174188
0.056794
3.83231e-05
3.53765e-05
0.000260193
0.00036138
0.00048474
3.5496e-05
3.78865e-05
2.84747e-05
2.58524e-05
1.69431e-05
0.000112899
0.000111408
0.0145355
3.49802e-05
0.0491027
3.30576e-05
5.53794e-05
0.0128138
3.35614e-05
5.77721e-05
3.32372e-05
9.69252e-05
6.33534e-05
3.28673e-05
0.00137692
4.41418e-05
3.63626e-05
3.58101e-05
0.00177991
0.000356043
1.94984e-05
3.51695e-05
0.000293276
3.60457e-05
1.4873
3.64624e-05
0.238
0.000106358
0.000935654
3.09871e-05
8.44842e-05
0.00589785
0.000125952
7.87243e-05
3.35798e-05
0.00287157
3.60405e-05
9.37657e-05
9.08473e-05
0.000260008
0.735038
0.00118092
3.52619e-05
8.63029e-05
0.000880402
0.000598905
3.51662e-05
3.52941e-05
0.000889034
0.00246196
0.000295994
0.000182907
0.00219997
6.26424e-05
0.00878602
0.00104962
4.57383e-05
3.06042e-05
0.00191076
5.14459e-05
3.48792e-05
0.00286363
0.000682681
3.34215e-05
5.98473e-05
4.58559e-05
3.92605e-05
2.35164e-05
0.00688125
3.62177e-05
0.0123045
3.50025e-05
3.85927e-05
0.000906532
0.00035463
0.000699971
3.07858e-05
3.02658e-05
3.1749e-05
0.00010298
9.50332e-05
3.31614e-05
3.30393e-05
0.00630295
0.0095075
1.12035
0.00067691
0.0039611
0.000404536
6.61336e-05
0.669509
0.00316043
1.23037
6.70826e-05
2.18458
0.00101188
3.68047e-05
2.6576e-05
0.011921
0.00130699
3.39528e-05
6.32184e-05
2.82823e-05
3.51877e-05
0.00997506
0.339907
0.000264358
0.00225748
0.000533779
3.82177e-05
3.4636e-05
0.447827
3.55712e-05
3.72605e-05
0.000301781
13.4014
0.00163508
3.55029e-05
1.51228
0.903343
4.4778e-05
3.34468e-05
0.00016229
3.87405e-05
0.00260759
0.000136391
0.00377755
3.52923e-05
3.33338e-05
0.000357627
8.85434e-05
5.25528e-05
3.64546
3.33096e-05
0.00200057
0.00064811
8.73117e-05
0.0450994
3.25507
0.0270238
0.684049
0.062246
0.423264
0.009279
0.05545
0.000906139
0.000118247
3.33133e-05
6.07549e-05
0.000443151
0.00143499
14.2978
4.76122
0.000155654
0.0217445
0.000100721
4.86777e-05
0.000100875
4.42836e-05
4.2189e-05
6.13014e-05
3.6854e-05
0.0246484
0.702142
8.72405e-05
0.000439839
0.220343
0.000440584
0.003752
0.000229684
7.67258e-05
0.454141
5.60996e-05
0.00323629
0.000664014
0.00102537
6.58698e-05
3.31684e-05
4.7147e-05
3.45446e-05
3.2413e-05
0.000444743
0.00682018
5.17064e-05
7.46698
8.44221e-05
3.33277e-05
0.000440688
1.06799
2.83724e-05
4.7432e-05
3.64419e-05
0.505116
5.18977e-05
4.83925e-05
1.39709e-05
0.539436
7.05776e-05
3.48368e-05
3.7138e-05
1.2809
3.73378e-05
0.00228645
1.47103
0.000314474
0.0114285
3.38635e-05
0.000322163
4.92791e-05
6.67725e-05
0.000255208
6.12695e-05
2.0632
0.0010999
0.00184684
3.83804e-05
0.000831547
0.0573808
0.00198367
0.000296331
0.00076926
4.28823e-05
0.000449603
0.00026166
0.000319419
0.00223433
3.87825e-05
32.9014
0.00223558
6.9786e-05
0.000104245
5.96367e-05
0.00178924
0.00395308
4.0028e-05
4.0971e-05
3.55513e-05
0.000721137
3.78906e-05
0.627061
6.06537e-05
3.75908e-05
4.59715e-05
4.3915e-05
3.77472e-05
6.55417e-05
8.67745e-05
0.000295364
0.000542978
0.000308479
5.04037e-05
0.000634235
0.000120241
0.00475572
9.78419e-05
0.000175784
0.000108959
4.76899e-05
6.21842e-05
4.19992e-05
0.000229874
2.32096e-05
3.52684e-05
6.8024e-05
7.40023e-05
0.00132154
0.000575476
3.46119e-05
3.41095e-05
0.000102223
0.000163373
0.17891
0.0136082
2.97411e-05
7.19301e-05
0.000121698
0.000109683
4.25533e-05
3.40581e-05
0.000321064
7.36537e-05
4.04957e-05
0.000650127
3.60103e-05
2.16735e-05
0.0011612
0.000347934
0.000693178
3.64075e-05
3.69485e-05
3.2861e-05
3.3148e-05
6.2692e-05
6.44397e-05
1.9296e-05
0.143671
0.501042
5.53831e-05
0.000326661
0.00336482
0.00040431
0.000446653
0.00171783
4.6646e-05
0.00090162
0.60205
3.74996e-05
5.36791e-05
5.16258e-05
3.52669e-05
0.000174654
7.85235e-05
5.27653e-05
6.08973e-05
0.187788
0.0101511
0.000782599
0.247158
0.000318317
6.15246e-05
0.547836
3.91604e-05
4.44386e-05
0.000879542
8.48323e-05
0.000875353
0.323159
0.000781692
0.000252394
7.07994e-05
0.000500941
0.00185048
3.66255e-05
0.000833091
0.000135472
2.70279
0.139083
3.29369e-05
0.00113657
2.1293
6.39574e-05
0.000646013
0.00739184
4.15628e-05
0.0405503
3.76068e-05
3.63418e-05
0.000655878
0.219568
0.000803442
4.04287e-05
0.000240832
0.130206
0.00193863
5.96532e-05
3.7261e-05
0.000128929
4.02171e-05
4.53903e-05
5.62723
4.22208e-05
0.000187279
5.65214e-05
6.92242e-05
3.42377e-05
6.53369e-05
3.3547e-05
6.23515
3.29501e-05
4.73939e-05
3.33365e-05
4.9571e-05
0.000195888
3.31093e-05
3.51243e-05
3.38348e-05
3.35392e-05
3.6094e-05
5.31861e-05
3.43436e-05
3.27327e-05
3.30249e-05
6.55947e-05
8.27417e-05
0.0337857
0.000476757
3.4888e-05
3.58651e-05
4.5357e-05
3.55382e-05
3.38225e-05
5.50703e-05
0.0968004
9.3349e-05
0.000255501
6.09993e-05
0.00261277
0.00103357
0.000679455
0.0538705
0.000316342
4.21948e-05
3.54482e-05
0.000145135
0.000210619
3.73164e-05
0.000164264
3.55448e-05
3.15107e-05
9.64465e-05
6.33982e-05
0.000117799
3.2727e-05
0.0108252
0.000254238
0.000875647
3.31356e-05
4.02772e-05
0.000102673
0.00363045
0.00481855
3.43409e-05
2.05059e-05
3.31039e-05
3.29519e-05
3.45947e-05
1.10469
0.000345876
0.000239949
0.000702107
0.00296565
0.00283294
0.00742266
5.39768e-05
0.00201893
3.83822e-05
4.16683e-05
0.000221884
4.45541e-05
0.292993
8.83108e-05
0.000137248
0.33633
3.33628e-05
3.14117e-05
3.39687e-05
4.25683e-05
0.00826634
0.000422053
0.000221195
4.89283e-05
0.000630317
0.00357504
0.000328149
0.00140512
0.000463862
0.000191158
0.00536611
0.464864
0.000438077
0.00755321
0.587439
3.42911e-05
7.68035e-05
0.0060928
9.92074e-05
0.0170873
0.000114886
0.000105433
0.000173676
5.48498e-05
0.00425753
0.00776879
0.47079
9.66404e-05
0.0144421
5.36639e-05
0.000121374
0.000255059
4.50103e-05
3.30098e-05
9.68241e-05
0.0188016
0.000648335
3.67625e-05
9.30286e-05
0.000429115
0.000293458
3.36306e-05
0.0001429
3.40826e-05
3.17531e-05
0.000182848
3.4306e-05
3.67211e-05
2.90236e-05
0.000455763
0.012947
3.49864e-05
0.0188474
3.5661e-05
0.00013118
4.19483e-05
1.706e-05
2.01655
13.4151
9.26131e-05
0.578163
3.4749e-05
3.42066e-05
4.53188e-05
0.00259842
1.49132
0.00108371
3.17662e-05
5.01823e-05
0.8186
3.68275e-05
9.93894e-05
0.00106424
3.60291e-05
0.00207738
0.000341232
8.56089e-05
0.000232734
0.00672357
0.262134
5.40357e-05
8.8298e-05
9.93844e-05
3.28644e-05
0.66645
0.000548247
0.00232262
3.35726e-05
3.013e-05
0.00545814
5.7614e-05
3.7503e-05
3.45075e-05
0.26955
3.43292e-05
0.00086079
5.55019e-05
3.29338e-05
3.93823e-05
0.000765952
0.000119474
0.000103112
3.39564e-05
3.39541e-05
0.000208394
5.1187e-05
7.73491e-05
3.9619e-05
0.0426885
3.5871e-05
0.000120283
0.00028559
0.349299
0.725832
3.92693
3.36552e-05
2.39122
6.22912e-05
0.00108473
5.52077e-05
0.000442863
0.00323024
0.0445351
6.98951e-05
0.496731
0.000768574
0.000348897
7.40562e-05
3.92515e-05
3.63674e-05
9.67429e-05
0.000443776
4.56194e-05
0.00266352
3.55042e-05
3.89567e-05
3.64561e-05
0.000993715
1.46549
0.139858
0.00188276
6.50647e-05
3.07266e-05
0.114249
0.0536163
0.00980647
0.03882
3.44952e-05
0.00478741
5.84012e-05
3.43928e-05
0.000534013
0.000101458
0.144397
0.00210588
0.000299715
0.00191259
0.00482792
3.48495e-05
0.155171
4.77719e-05
3.4077e-05
0.00319922
6.13453e-05
0.00108921
7.00036e-05
3.33671e-05
3.37241e-05
1.7855e-05
7.49343e-05
0.000544465
0.0416066
1.16235
3.46462e-05
3.4437e-05
8.85869e-05
0.0115956
0.00207794
6.30391e-05
0.00141339
8.17184
0.000100289
3.40017e-05
3.69125e-05
3.31197e-05
5.91057e-05
0.756144
3.51255e-05
0.00094329
0.000940448
0.000374955
3.87337e-05
0.000117305
3.22364e-05
3.51167e-05
0.00205843
3.20377e-05
0.00390594
5.48659e-05
0.000131445
3.73652e-05
0.000248913
0.0180245
0.00209316
3.82112e-05
7.87121e-05
0.000187559
3.75605e-05
3.607e-05
3.38339e-05
3.68692e-05
3.26958e-05
2.6118e-05
6.81121e-05
3.75473e-05
3.40064e-05
0.344074
0.00620924
0.000116563
0.120164
0.918337
4.27918e-05
0.0217513
3.54195e-05
4.21449e-05
3.44089e-05
3.54248e-05
0.000587665
3.45999e-05
0.000309439
0.000283857
5.96497e-05
3.54421e-05
5.66644e-05
0.000163613
3.78082e-05
6.62445e-05
0.000161352
3.49931e-05
9.12292e-05
0.000531837
3.59564e-05
4.60818e-05
3.31934e-05
0.00019685
0.000103073
0.41051
0.542361
3.58945e-05
0.117719
3.31043e-05
3.13521e-05
0.00195437
0.000808353
0.00125264
3.70378e-05
5.05666e-05
0.000685506
6.5469e-05
0.63785
4.53579e-05
0.000198616
0.012247
0.00118851
0.00047783
0.995953
0.00078945
0.00626786
3.98268e-05
0.000868401
0.136441
0.000672745
8.74533e-05
0.00456612
1.71261e-05
3.41929e-05
3.32924e-05
0.000218958
0.000117087
0.000104482
4.12073e-05
3.69123e-05
3.75312e-05
4.6641e-05
3.57789e-05
3.27631e-05
0.00092012
0.224534
3.81397e-05
3.26584e-05
3.31771e-05
0.000712861
3.31223e-05
4.89559e-05
3.40657e-05
0.0026054
0.00300795
0.000213117
3.38339e-05
0.0073889
0.000305527
0.000461976
8.95391e-05
3.50616e-05
4.05255e-05
6.80582e-05
0.00234326
5.90728e-05
8.47194e-05
3.39442e-05
0.000149832
3.83245e-05
0.000648191
0.000127336
4.30626e-05
3.42358e-05
0.000255395
0.00175171
0.00118934
3.12177e-05
8.44023e-05
0.00765103
0.0011705
3.44834e-05
3.96554e-05
3.46062e-05
0.000110639
0.00444043
0.000901061
0.0020556
0.00260078
0.000103429
3.40273e-05
3.27498e-05
4.51841e-05
0.108879
7.14693e-05
0.0016141
0.00555298
0.00572308
0.000144877
9.75556e-05
4.34076e-05
0.000248101
4.24212e-05
0.000121616
0.00120036
0.000286744
0.00164238
0.00247336
0.00032714
5.34086e-05
5.79233e-05
0.00172299
0.000348667
4.91867e-05
3.61463e-05
3.29044e-05
0.00242849
2.96573e-05
3.42409e-05
0.00490742
0.000418189
0.00013972
1.92217e-05
3.19794e-05
3.27632e-05
4.19965e-05
3.98225e-05
0.000168682
6.83318e-05
3.8491e-05
0.00103331
4.31825e-05
0.00361473
3.25647e-05
0.00458851
2.04905e-05
5.19427e-05
9.18696
4.89046e-05
33.782
26.2315
3.63389e-05
3.23228e-05
3.32578e-05
0.000736008
3.3471e-05
0.00135592
3.6179e-05
6.36037
3.50306e-05
8.87567
0.00026349
0.360208
0.00047234
3.50157e-05
0.000553288
0.000373927
0.000266805
0.000295116
0.000515896
0.000197739
59.317
4.27261e-05
0.01788
2.07688e-05
5.00256e-05
0.000144555
0.000414091
14.225
3.33493e-05
0.000533671
0.000145862
3.29364e-05
0.00117816
68.8597
4.55341e-05
0.000326157
2.33288e-05
0.0209196
3.77611
0.00225763
0.00215084
0.000208174
0.000300484
0.00159492
3.52291e-05
0.00198181
0.00299558
0.000623777
0.00338676
4.03346e-05
0.00922186
0.00126679
0.000451542
5.07354e-05
6.84316e-05
3.35324e-05
0.00209329
3.39902e-05
5.53833e-05
5.30009e-05
6.72391e-05
3.62599e-05
0.00137055
0.000119306
0.00283636
4.31111e-05
0.000408416
0.000118426
0.369258
3.35624e-05
6.81581e-05
3.637e-05
0.000110397
0.000140944
0.00352911
3.2915e-05
0.00213857
3.10253e-05
3.47914e-05
0.000863896
1.8399e-05
5.54249e-05
3.69312e-05
3.34533e-05
3.41101e-05
0.0126773
3.8653e-05
2.1251e-05
5.09185e-05
8.78131e-05
3.53213e-05
3.27943e-05
0.000653151
9.68876e-05
1.97054e-05
0.000520638
0.000239825
3.37313e-05
0.00023774
4.32345e-05
3.19047e-05
4.45439e-05
3.52978e-05
0.000641622
3.34237e-05
3.29797e-05
3.56876e-05
4.11742e-05
0.00427115
3.12355e-05
0.00116999
3.19533e-05
4.01213e-05
3.90525e-05
7.02755e-05
8.22051e-05
0.000111435
6.12743e-05
5.18352e-05
7.449e-05
0.00128582
9.15396e-05
0.000128834
0.000175442
0.000782547
9.99713e-05
0.00492433
3.47235e-05
5.72314e-05
2.30047e-05
0.002648
3.58819e-05
3.24738e-05
3.4274e-05
3.77066e-05
0.000844173
0.00938308
6.18491e-05
0.000723038
0.0257361
0.837599
0.256967
0.0377553
0.000891515
3.69803e-05
0.000102161
5.85211e-05
0.00311357
5.96594e-05
0.0248889
2.58353e-05
3.69958e-05
0.000754622
0.00666906
4.62279e-05
0.00220247
0.000491634
7.46918e-05
4.70856e-05
0.000303695
3.41427e-05
3.89004e-05
26.888
3.3667e-05
2.32069
3.38297
0.000796499
0.000277755
3.48997e-05
6.83875e-05
4.76748e-05
0.00208261
3.47408e-05
0.00159023
0.000507386
9.90934
0.00181318
3.93768e-05
4.36734e-05
3.67826e-05
0.000142944
3.28225e-05
0.000388868
3.45591e-05
0.0313604
0.2271
3.36152e-05
3.43764e-05
0.343252
0.000114953
4.56322e-05
0.000530702
3.97498e-05
9.13387e-05
0.0374185
3.36939e-05
0.00537912
1.64889e-05
0.00244289
9.05783e-05
3.37875e-05
3.54089e-05
0.00231883
0.331474
0.00144838
0.000492648
3.5146e-05
0.000736605
6.1659e-05
0.000198422
0.00047888
0.000114819
4.46115e-05
0.0159314
3.96328e-05
2.5383e-05
1.73858e-05
4.52802e-05
0.000597547
0.000805387
5.92031e-05
4.52461e-05
4.63201e-05
0.000308644
3.33043e-05
0.000958693
7.97834e-05
0.000537058
10.7403
3.1507e-05
3.69414e-05
0.000498587
0.458898
0.000372286
0.000159244
0.00119569
3.65045e-05
0.79776
0.00017847
3.41548e-05
3.38653e-05
0.000283262
3.81402e-05
3.29411e-05
0.00161105
0.000129905
5.97354e-05
8.77434e-05
0.00178813
0.0069079
3.39786e-05
0.0024138
7.19543e-05
3.80047e-05
3.23709e-05
0.000200139
0.00148002
3.44499e-05
3.31951e-05
3.38839e-05
1.85522
3.40342e-05
3.4218e-05
3.37694e-05
0.00107017
1.95104
3.30607e-05
1.14665
6.2422e-05
3.2223e-05
0.0396055
0.000178439
1.43796
1.53283
0.000158172
0.00221418
2.18421
1.74334
2.21054
0.00189704
0.000159936
3.44703e-05
3.45404e-05
0.000181012
0.0163362
3.31853e-05
0.00507598
3.43926e-05
3.88178e-05
0.00335012
5.67075e-05
3.7509e-05
3.36259e-05
0.000246677
0.00527967
6.31255e-05
0.00087401
0.000589731
0.000236153
0.00288467
0.000233568
0.000890743
0.00124334
0.00127409
6.41646e-05
0.000209934
3.57704e-05
0.000128452
3.82475e-05
7.15134e-05
0.000438598
4.66716e-05
3.47161e-05
3.40791e-05
0.000197734
4.53127e-05
4.11415e-05
3.84079e-05
3.33212e-05
0.0001537
0.000498896
0.000471597
3.30983e-05
5.35326e-05
0.326797
4.87302e-05
0.000271604
0.00641672
3.83861e-05
4.02664e-05
6.744e-05
3.27389e-05
1.52037
3.51449e-05
0.000412231
8.69103e-05
0.00330706
6.59205e-05
3.35205e-05
3.37787e-05
0.248354
3.26905e-05
0.000773589
0.000285299
0.00383019
0.00616047
2.69041e-05
4.2065e-05
4.26875e-05
0.00238725
0.00103038
0.0174716
0.00169637
3.2506e-05
3.41918e-05
3.24582e-05
7.0059e-05
6.27456e-05
0.000598416
3.46333e-05
0.000777603
8.0021e-05
9.83268e-05
0.00018724
0.000471093
0.000280018
9.7178e-05
3.40714e-05
3.03464e-05
7.88513e-05
3.47982e-05
7.97351e-05
4.13396e-05
0.00347104
7.27743e-05
3.6885e-05
5.05396e-05
0.00022475
0.00062435
0.0015492
0.000289471
0.000105066
0.00124123
0.00354686
3.46831e-05
4.71223e-05
0.617727
3.28622e-05
9.56532e-05
3.34007e-05
6.44517e-05
3.29936e-05
3.40799e-05
3.76115e-05
4.86161e-05
1.81093
5.24335e-05
0.000352064
6.72657e-05
6.48667e-05
0.00113137
3.41671e-05
0.000336767
9.21897e-05
0.0535533
0.324
0.000139997
0.000221284
3.57409e-05
0.000335748
4.6805
3.68037e-05
3.42046e-05
0.00328274
1.31685e-05
0.987306
0.0074059
0.000156144
3.27046e-05
0.000734363
3.28301e-05
6.8398e-05
6.42746e-05
4.62493e-05
0.00612412
32.2432
0.0001008
1.69957
0.00144384
0.000908644
0.000228491
0.00113469
7.6598e-05
1.16181
0.00145579
7.31117e-05
0.000661674
3.51791e-05
0.00878009
0.379154
0.00215633
4.14438e-05
3.38654e-05
0.00882849
0.00418796
2.00249e-05
4.88844e-05
0.00352082
0.00277809
1.87625e-05
4.04801e-05
0.000109503
0.475596
3.34607e-05
0.00636977
4.84267e-05
6.51726e-05
3.39839e-05
3.37401e-05
3.22777e-05
3.50733e-05
0.000124673
0.000734637
9.48498e-05
0.000172855
0.000493323
3.5566e-05
3.4975e-05
0.000379832
0.0123647
0.000148294
3.49762e-05
0.000172325
0.0024361
0.000394921
3.56843e-05
0.000134292
9.73562e-05
3.40608e-05
8.14188e-05
4.85297e-05
0.000192934
0.00045362
0.00299447
3.4116e-05
3.31572e-05
0.0360284
0.327866
3.56408e-05
0.000996864
0.262755
0.225868
6.87148e-05
0.321543
5.50949e-05
0.00124378
0.000136178
1.10726
3.61318e-05
0.000161896
4.54195e-05
9.02934e-05
5.89698e-05
3.30899e-05
6.50598e-05
3.55314e-05
0.770645
0.000173797
6.87406e-05
3.39675e-05
2.53962e-05
0.00290219
6.14109e-05
3.50441e-05
6.98167e-05
6.01324e-05
3.53097e-05
3.43198e-05
0.231677
0.00234917
0.000147005
0.00176622
3.44479e-05
0.03857
0.00226599
3.6814e-05
3.28071e-05
5.77541e-05
0.000112636
4.17636e-05
0.000453119
0.000628329
0.00183799
39.7091
3.93346e-05
3.40871e-05
0.00143326
0.000319493
0.00186483
4.20441e-05
0.000327864
0.000418685
0.000115484
0.000460731
3.43935e-05
0.00128778
4.96313e-05
4.67562e-05
0.00083566
0.00202392
0.00173748
0.000116291
0.0195743
48.2508
8.49309
3.56211e-05
0.000267101
3.52212e-05
3.73423e-05
0.0218909
3.9578e-05
0.000405928
3.47876e-05
3.49641e-05
3.50324e-05
87.7621
91.8051
3.46799e-05
3.4454e-05
3.47366e-05
2.09363e-05
3.96009
53.4465
0.000139309
6.9897e-05
3.3063e-05
0.000263663
4.33314e-05
8.80928e-05
2.70692e-05
3.5061e-05
0.000122852
2.61766e-05
0.00039589
3.18112e-05
6.86926e-05
3.16928e-05
0.000596861
0.000228843
7.97159e-05
3.38725e-05
0.000748851
1.68089e-05
0.0002716
0.0010269
0.000256901
6.05476e-05
0.00314521
0.000419892
0.000516202
0.000659741
0.000341304
4.90276e-05
0.00242866
0.000841782
0.00151631
0.000601837
0.617776
0.000957983
3.46367e-05
0.000186574
9.23604e-05
0.000291538
0.00181926
0.555485
3.70703e-05
0.000122721
0.000108751
0.000440324
0.00144028
3.42223e-05
3.38327e-05
6.26271e-05
2.7255e-05
3.28548e-05
0.00124662
0.000629167
5.61323e-05
0.000109992
0.000539338
3.57593e-05
0.0120026
0.0118986
2.82939e-05
3.30379e-05
4.3921e-05
0.000204366
7.84478e-05
9.9113e-05
3.60937e-05
4.49895e-05
3.51467e-05
3.49535e-05
0.0759868
3.48728e-05
3.88155e-05
3.39495e-05
0.000124829
0.00021537
0.000756409
0.91494
0.000280464
3.51586e-05
5.6922e-05
2.17878e-05
3.3793e-05
6.39358e-05
0.000454958
4.49895e-05
3.42005e-05
7.93827e-05
3.12937e-05
3.2157e-05
7.27587e-05
0.610386
3.28795e-05
3.29103e-05
4.77707e-05
0.00610736
0.00392757
0.000562246
0.000754376
7.88618e-05
0.00389323
0.00012287
3.40747e-05
3.2798e-05
0.000836415
6.17322e-05
3.81228e-05
3.30575e-05
3.36425e-05
7.80517e-05
0.692064
6.67639e-05
3.30967e-05
1.86044e-05
8.72212
3.27109e-05
0.000124161
3.27977e-05
0.000124101
3.32144e-05
0.000631469
4.96619e-05
3.93072e-05
25.807
0.000440667
0.000742652
0.000148034
3.53982e-05
0.000592818
0.000326842
6.0605e-05
3.32178e-05
16.1064
0.00236466
9.91603e-05
3.64822e-05
0.000333698
3.30706e-05
3.64786e-05
1.70256e-05
4.25383e-05
0.00785309
3.46113e-05
0.000316827
0.917663
2.68214e-05
3.57511e-05
0.000836401
4.46488
3.28e-05
0.845395
3.31045e-05
0.377805
0.000437392
5.17279e-05
3.62276e-05
0.00154666
0.000171288
2.89108e-05
0.000642608
6.67444e-05
3.51098e-05
3.96092e-05
8.7807e-05
3.42146e-05
0.000179739
0.000161396
2.97846e-05
7.26227e-05
0.00226617
5.65799e-05
3.61251e-05
0.976187
6.07055e-05
0.000707851
2.0494e-05
3.69963e-05
3.84296e-05
0.00012592
0.000133569
2.09028
0.000260024
3.15419e-05
2.73333
3.87031
3.33839e-05
0.000130414
1.64123e-05
4.46693e-05
3.43316e-05
0.000165832
3.04446e-05
0.000545201
6.11658e-05
25.9345
0.000221197
5.37795e-05
0.000634362
3.47921e-05
6.12825e-05
3.56234e-05
2.14159
0.0177102
6.03514e-05
5.36304e-05
0.000190143
5.02282e-05
3.69716e-05
0.000329696
0.0219563
3.38767e-05
0.847239
4.60617e-05
3.53522e-05
0.000455565
3.93665e-05
0.000849455
0.0181408
0.000125534
0.00233012
3.88405e-05
6.96829e-05
6.33946e-05
3.88979e-05
4.77365e-05
0.000154604
3.37036e-05
0.766458
0.000416406
3.4187e-05
6.09181e-05
3.30268e-05
3.60381e-05
0.00129202
3.39224e-05
5.44613e-05
0.000133521
0.00157382
3.24837e-05
4.27896e-05
0.166525
0.000802886
0.351455
0.0966543
0.00171538
0.000793262
0.0037483
0.000500769
0.000134964
0.000165518
0.0464836
0.00112236
3.40925e-05
4.58556e-05
3.16907e-05
0.000394541
0.00183522
0.00124446
12.9336
3.89544e-05
0.00164995
0.0100221
3.55099e-05
3.40314e-05
0.000167123
0.00426791
0.958309
3.64857e-05
3.58079e-05
0.000341831
3.40018e-05
0.00112949
26.7494
0.000111718
0.000303413
32.3548
4.7092e-05
6.74576e-05
3.51485e-05
3.32786e-05
0.000489209
0.00293522
0.000303275
0.00157934
1.99132e-05
3.94826e-05
4.04863e-05
0.00492384
3.47913e-05
3.37066e-05
0.473526
5.00683e-05
2.53285e-05
3.73934e-05
1.13356
8.30489e-05
0.230723
3.48941e-05
3.50929e-05
0.00292495
0.000673102
0.000514026
0.000393098
0.000967269
3.78068e-05
3.34219e-05
0.467639
0.412866
1.08515
3.67206e-05
0.858102
0.801589
4.44002e-05
3.63217e-05
0.000105425
0.00173221
0.000197252
3.72225e-05
0.0010424
2.6036e-05
0.44014
0.539399
0.0787649
0.00715114
3.87071e-05
0.00257374
0.000156727
0.00122016
0.000355549
3.33273e-05
3.639e-05
5.60962e-05
0.00413328
3.34138e-05
0.0218917
0.000388797
0.00106566
3.53995e-05
0.000376487
0.000369074
3.28437e-05
0.00306527
0.0001832
0.0034878
0.000129076
0.147061
0.000162377
3.69584e-05
3.38847e-05
9.52103e-05
0.175589
3.51597e-05
0.000101363
0.00725253
0.032313
0.00199702
0.116563
3.56854e-05
7.8771e-05
4.04152e-05
0.0103203
5.79337e-05
0.00102937
3.29897e-05
0.00456695
3.80508e-05
0.0646446
4.0658e-05
3.54048e-05
3.28386e-05
0.0247799
0.0883758
3.42225e-05
2.85902
3.34131e-05
3.34395e-05
0.000369337
0.000476903
7.46266e-05
0.000126952
3.49171e-05
0.00841421
0.000955967
3.36128e-05
6.09818e-05
0.000184203
0.000631542
5.39074e-05
0.000103357
0.000267518
0.000689463
0.000106638
0.0465921
0.000310449
3.58287e-05
0.000638554
0.000547161
3.58957e-05
7.10207e-05
3.40089e-05
0.000225956
3.48246e-05
1.64174e-05
2.70531e-05
0.000371727
3.59714e-05
0.000169879
0.00161739
4.69919e-05
3.41125e-05
3.62954e-05
0.000473507
0.0174554
4.22117e-05
2.16686e-05
3.6973e-05
3.26675e-05
3.26661e-05
0.00191994
2.08794e-05
3.04071e-05
3.44521e-05
0.000127973
3.27205e-05
3.26889e-05
3.31653e-05
0.00022735
0.00234764
0.00141039
0.191041
0.00103644
4.8469e-05
3.30849e-05
2.73705e-05
0.56519
2.78594
0.000882108
3.28265e-05
3.30358e-05
4.07968e-05
3.34642e-05
0.0975993
0.00223869
0.000154839
0.614982
1.44596e-05
0.000108902
3.45742e-05
0.0165629
0.00277782
0.383327
3.73813e-05
6.71056
0.000748721
0.000253866
3.40076e-05
0.405559
0.000792998
0.0389812
0.00129087
0.000515799
0.00123331
3.60747e-05
0.072513
3.71128e-05
1.02466
0.813445
7.03217
4.24371e-05
0.000540931
0.00361294
0.000733409
3.79966e-05
0.36066
5.13531
3.27187e-05
0.000977377
3.66828e-05
4.10104e-05
3.30568e-05
1.89528
0.000104223
5.50973e-05
0.00035659
0.000277614
0.00503766
0.000326109
3.25855e-05
0.000259444
0.0116505
8.82031e-05
0.000309495
0.00773635
0.00069584
4.78309e-05
0.00330904
5.35006e-05
3.43447e-05
0.000108504
6.74899e-05
3.46303e-05
0.000237377
4.16371e-05
0.000119023
0.000184293
9.44746e-05
0.00343326
0.619684
2.44212e-05
0.678447
3.53379e-05
9.3076e-05
1.35608
0.000372281
3.77614e-05
0.000111478
0.0002015
0.500113
0.000793318
0.815643
0.000116073
0.000265552
1.44662e-05
0.244477
3.4986e-05
0.078238
0.00833617
0.0025839
0.606414
0.000337014
0.000364682
3.82491e-05
0.00114262
3.41208e-05
3.4959e-05
0.00141177
0.000150801
0.000124899
4.95847e-05
4.51796e-05
3.47045e-05
9.48206e-05
0.00138647
3.5158e-05
0.000751718
0.00136383
0.00318619
5.61108e-05
0.00258614
1.0183
4.26323e-05
3.70472e-05
4.63219e-05
3.76592e-05
0.00113988
0.00152855
7.75361e-05
5.75378e-05
7.05344e-05
5.04605e-05
6.13695e-05
0.00217084
3.52692e-05
4.63604e-05
0.000717857
0.000400589
0.0877079
0.000866902
0.000304565
3.45696e-05
0.100185
0.28624
3.49604e-05
0.000318362
2.02484e-05
4.97089e-05
0.00110982
3.59235e-05
0.0017631
3.35323e-05
0.00347867
0.000224783
5.93551e-05
3.49616e-05
0.000134549
0.000214135
3.75865e-05
8.7513e-05
3.43994e-05
6.29237e-05
3.29228e-05
3.29142e-05
0.00424394
6.9276e-05
3.67256e-05
0.000127357
0.0579937
2.14395e-05
3.50264e-05
8.97031e-05
3.57713e-05
0.000412942
0.000240054
0.00146168
0.000104913
4.09705e-05
0.00161192
0.139651
6.35496e-05
5.01164e-05
0.0538295
0.000106643
0.000154143
0.000167083
3.55991e-05
0.000208129
0.000106497
11.798
5.49941e-05
3.58778e-05
3.41319e-05
4.28372e-05
4.4821
0.000724144
0.0720293
3.6463e-05
0.00019007
0.0166967
3.4279e-05
3.3465e-05
2.74834
0.000896068
2.06775
7.09573e-05
0.000149078
0.678132
0.0467943
0.000196539
7.63841e-05
3.61536e-05
8.02904e-05
3.28492e-05
0.000938903
0.000113189
7.41863e-05
6.75661e-05
0.00145584
2.82892e-05
0.000670456
0.172134
0.000223144
0.000222447
3.29412e-05
0.000135086
1.47445
0.00420287
3.643e-05
6.28896e-05
5.82973e-05
0.696488
0.000486837
0.246295
7.40749e-05
3.6064e-05
3.33592e-05
0.003341
0.30418
3.30428e-05
3.29352e-05
1.63008e-05
0.00256818
4.38317e-05
0.000101156
0.0132611
0.000244091
0.000148594
0.00479904
0.211165
0.000127135
3.30588e-05
0.00185334
3.80632e-05
3.3675e-05
0.00246751
3.99629e-05
0.00323878
3.63695e-05
6.5022e-05
0.000119943
0.00250285
0.000252409
3.33669e-05
0.000688135
8.2254e-05
3.317e-05
6.6923e-05
3.76641e-05
3.58823e-05
0.000125397
0.000121903
6.31769e-05
0.000327882
0.000171958
3.70901e-05
2.43124
9.98711e-05
0.000178411
0.00809151
1.59914
2.63564e-05
0.000251272
3.39747e-05
0.000348212
0.00012654
0.000217324
0.000683162
0.000122058
0.000138153
5.7058e-05
2.1656e-05
0.00224246
4.19915e-05
0.000226803
3.47636e-05
4.78998e-05
0.0004468
9.74037
0.000219075
3.95678e-05
3.38611e-05
1.26753e-05
5.81967e-05
0.00084666
13.7219
0.000276016
95.5083
3.3536e-05
37.9165
0.000379137
6.47895
0.00201429
0.00112378
70.5619
0.0479858
0.00024457
0.000664504
3.40938e-05
0.000609757
3.52378e-05
0.00113324
4.73563e-05
0.00184121
0.000339827
0.000223031
0.00132259
3.47943e-05
0.542612
3.54383e-05
3.35927e-05
2.97563e-05
0.00158929
3.72919e-05
3.37059e-05
0.020193
0.000470205
4.01107e-05
3.55845e-05
1.98253e-05
3.3782e-05
0.000192911
4.16169e-05
4.61613e-05
3.28477e-05
2.74857e-05
3.74408e-05
0.0006259
0.00334689
3.69775e-05
0.0209758
0.0121363
0.000399167
0.000814076
14.0737
0.00014719
3.41916
0.000185771
0.00269545
0.00273502
4.53617e-05
3.43494e-05
4.00073e-05
0.0189688
3.57519e-05
0.0029626
6.74381e-05
0.000199959
3.4045e-05
3.26159e-05
0.00021357
0.00147634
5.82681e-05
0.000218096
4.50744e-05
7.63355e-05
5.19295e-05
3.39075e-05
0.0001134
0.0704948
0.0110301
0.0609835
0.000932877
7.68752e-05
5.40537e-05
0.00169179
0.00161579
0.0201504
3.48426e-05
0.00158585
3.75416e-05
0.158323
0.000719815
0.0115589
0.000736992
0.00132022
4.4014e-05
0.000197374
2.96188e-05
3.51435e-05
0.000411218
0.0368768
3.64837e-05
0.000417804
0.000429162
5.28082e-05
2.78277e-05
2.53796e-05
5.49103e-05
0.000136433
6.19149e-05
0.00460943
3.28149e-05
0.00259294
0.000276329
3.63196e-05
5.22039e-05
0.000112311
0.000559744
0.000130048
0.00264182
8.49166e-05
0.00102865
0.000192401
0.000124267
4.55521e-05
0.000183143
0.00138805
3.27747e-05
0.00689483
3.7022e-05
0.00064415
2.34517e-05
0.000594168
3.66571e-05
0.000975466
0.00296087
0.0064738
3.44911e-05
3.40957e-05
3.86753e-05
0.00263222
0.000798076
1.33418
0.00191938
0.0170558
1.38565
3.70874e-05
0.0619455
3.63357e-05
2.66224e-05
3.61211e-05
0.000321762
2.0521e-05
0.000813656
0.00159626
5.27034e-05
0.000162124
0.000524311
4.13839e-05
3.35676e-05
3.51075e-05
6.21253e-05
0.000245255
0.000169589
0.00191101
3.56045e-05
0.000380626
0.00189563
2.49326
3.01752e-05
0.0205508
3.27835e-05
3.6738e-05
3.99808e-05
0.00011621
0.00182124
3.55629e-05
0.00159062
0.000121417
3.54714e-05
3.32835e-05
8.51291e-05
0.000241619
3.28091e-05
0.000537853
0.000382541
3.53209e-05
3.50323e-05
3.94978e-05
0.00149777
0.000173386
0.00629532
4.0113e-05
0.000224133
0.00356637
3.35076e-05
0.000168191
0.000146991
3.37604e-05
3.30406e-05
0.0269442
6.11609e-05
0.000314476
3.45965e-05
3.09298e-05
3.92839e-05
1.73082e-05
3.28968e-05
2.77988e-05
3.66875e-05
3.26625e-05
5.64372e-05
0.000953787
5.28411e-05
2.85115e-05
0.00191663
0.000803941
3.27192e-05
3.3953e-05
9.35242e-05
0.0122577
0.000174376
0.141369
0.000344785