/*--------------------------------*- C++ -*----------------------------------*\
| =========                 |                                                 |
| \\      /  F ield         | OpenFOAM: The Open Source CFD Toolbox           |
|  \\    /   O peration     | Version:  v2012                                 |
|   \\  /    A nd           | Website:  www.openfoam.com                      |
|    \\/     M anipulation  |                                                 |
\*---------------------------------------------------------------------------*/
FoamFile
{
    version     2.0;
    format      ascii;
    class       volScalarField;
    location    "0.497436";
    object      k;
}
// * * * * * * * * * * * * * * * * * * * * * * * * * * * * * * * * * * * * * //

dimensions      [0 2 -2 0 0 0 0];


internalField   nonuniform List<scalar> 
83563
(
8.31021e-05
8.52234e-05
0.000135942
0.000136833
9.47215e-05
0.000229395
8.65236e-05
0.000938533
0.000564252
0.00575401
0.000364135
9.59654e-05
0.641225
8.10513e-05
0.000757336
0.000702234
8.03061e-05
8.1326e-05
0.000564453
8.12444e-05
8.06719e-05
8.15252e-05
0.00105452
0.00393237
8.02542e-05
9.78978e-05
8.54197e-05
0.00560313
0.000103507
8.56035e-05
0.000156762
9.12912e-05
0.000128119
8.40047e-05
8.15826e-05
0.000182968
8.14592e-05
8.31227e-05
9.59429e-05
0.00111226
8.40919e-05
0.00024225
0.000111539
0.000145884
0.215761
0.00200757
0.000112421
0.00147642
0.000104224
0.0386257
0.489995
0.000379518
0.102869
0.159303
0.000323209
0.783493
8.68124e-05
0.0915654
0.127633
0.000991702
0.146209
0.0287945
0.000101419
0.000119339
0.236628
0.12775
0.0417207
0.00020447
0.0221491
0.508261
0.000413472
1.16319
8.30875e-05
0.755043
0.000111592
0.000783984
0.000127639
8.47935e-05
8.57086e-05
0.752982
8.69775e-05
8.24859e-05
9.40239e-05
0.0160671
0.000143796
8.36043e-05
8.05739e-05
0.000261026
8.27422e-05
9.80358e-05
0.00102757
8.27494e-05
0.00328024
0.00218912
0.0453812
0.00163504
0.0176706
0.00322777
9.32298e-05
0.00117371
0.000299383
9.38289e-05
0.000417671
8.76161e-05
0.000484386
0.000120755
0.00023117
8.50244e-05
0.0331898
8.15667e-05
0.00241232
0.000443519
0.000433042
0.000249074
9.12885e-05
8.46179e-05
0.0574664
0.00239603
0.000204846
8.50301e-05
0.000499014
0.000192256
0.000983723
0.0195857
0.00116048
8.53775e-05
0.00755949
8.47019e-05
0.00118673
9.74966e-05
0.0985275
0.000115939
0.000326648
0.0309354
0.000154598
8.08084e-05
0.00123267
8.67268e-05
0.000119629
0.486164
0.000218646
0.462735
0.000108734
0.000373409
0.000236936
0.167097
0.000290489
8.97689e-05
0.000332896
0.000108327
0.00303528
8.11776e-05
9.6032e-05
0.000512596
8.30062e-05
8.50019e-05
8.23569e-05
9.42607e-05
0.000131547
0.00147923
0.00065943
8.26663e-05
8.89647e-05
8.74949e-05
0.00169472
0.00133121
8.42187e-05
0.00247469
8.2499e-05
0.00186987
8.67631e-05
8.73607e-05
0.0013186
0.000998277
0.00151675
9.40119e-05
0.000138888
0.000197632
0.000442299
8.55147e-05
0.000135685
8.56144e-05
0.000601586
0.000199169
0.00334646
0.00771482
0.000556699
8.69913e-05
0.000933209
8.80054e-05
8.56307e-05
0.00508441
0.00553735
0.00477022
0.000112344
0.0026935
0.000271194
0.00184719
8.41824e-05
0.000641499
0.000636023
0.000148153
0.00272612
8.16349e-05
0.00425272
0.00238579
0.000171675
0.0744243
8.18463e-05
0.000112776
0.00113521
0.0132145
8.72831e-05
8.41947e-05
0.000249654
0.000409101
0.000460478
8.47681e-05
8.94916e-05
0.000113496
9.73386e-05
9.46662e-05
0.000150468
0.000163325
0.00407955
8.33656e-05
0.0114331
8.11021e-05
0.000108619
0.00403123
8.17166e-05
0.000111806
8.11725e-05
0.000146117
0.00027806
8.0556e-05
0.000973896
9.8744e-05
8.64523e-05
8.60773e-05
0.00113419
0.000426335
0.00010273
8.3887e-05
0.000283872
8.81116e-05
0.50486
8.57186e-05
0.0547563
0.000182239
0.00066445
9.55124e-05
0.000138177
0.00287319
0.000174309
0.00014715
8.17761e-05
0.00171848
8.53608e-05
0.000142318
0.000141855
0.00033482
0.289226
0.000848172
0.000105499
0.000153177
0.00067568
0.000454097
8.4126e-05
8.4525e-05
0.000591943
0.00119716
0.000318179
0.000256352
0.00122084
0.000120791
0.00348356
0.000813135
0.000101446
0.00010496
0.00125608
0.000102324
8.38805e-05
0.00170359
0.000386377
8.39801e-05
0.000211405
9.88376e-05
9.11001e-05
8.89222e-05
0.00249504
8.62186e-05
0.0045404
8.35925e-05
8.92813e-05
0.000573453
0.000388013
0.000499766
0.000105372
9.07177e-05
8.76991e-05
0.000154644
0.000144925
8.12943e-05
8.08594e-05
0.00271773
0.00379854
0.154133
0.000586086
0.00204416
0.000335084
0.00018635
0.0844618
0.00137267
0.389003
0.000110202
0.537449
0.000686008
8.60207e-05
0.000116002
0.00430296
0.000787544
8.24032e-05
0.000134668
0.000120927
8.43303e-05
0.00408122
0.0666373
0.000257379
0.000870563
0.000359714
9.28244e-05
8.33918e-05
0.0880369
8.49274e-05
8.7932e-05
0.000363761
0.834715
0.00113298
8.55366e-05
0.203543
0.0986854
9.49167e-05
8.37412e-05
0.000192416
9.02933e-05
0.00156422
0.000217104
0.00211213
8.58493e-05
8.13581e-05
0.000312174
0.00016089
0.00012801
0.86257
8.13192e-05
0.000960809
0.000549456
0.000166792
0.0135811
0.786356
0.00797798
0.237837
0.0253194
0.155007
0.00304939
0.0138742
0.000658303
0.000175142
8.12869e-05
0.000109638
0.00047506
0.00106455
0.962761
0.526809
0.000202139
0.00937511
0.000137996
0.000103881
0.000143609
9.91129e-05
8.83705e-05
0.000110163
8.55486e-05
0.0100952
0.269164
0.000157719
0.000470446
0.0954804
0.00038349
0.00222594
0.000190693
0.000146376
0.186883
0.000176412
0.00179333
0.00049408
0.00074231
0.00011829
8.10662e-05
0.000177017
8.29898e-05
8.16559e-05
0.000375764
0.00216986
0.000109816
0.52069
0.000153904
8.1538e-05
0.000348912
0.146768
0.000132893
9.64317e-05
8.65868e-05
0.080936
0.000110645
0.000105718
0.000103844
0.200903
0.000137728
8.39087e-05
8.76997e-05
0.151839
8.64558e-05
0.00118276
0.177954
0.000292912
0.00340687
8.22589e-05
0.000280379
0.000100271
0.000116393
0.000268762
0.000110156
0.597057
0.000869026
0.000897224
8.98409e-05
0.000681443
0.0141048
0.00126838
0.000335661
0.000389458
9.135e-05
0.00034116
0.000293489
0.0003805
0.00131175
0.000131142
1.68685
0.00141896
0.000136554
0.000151168
0.000122249
0.00119696
0.00220392
8.94817e-05
9.00773e-05
8.50515e-05
0.000497688
8.73827e-05
0.102983
0.000116463
8.82267e-05
0.000113873
9.64092e-05
8.75849e-05
0.000116004
0.00015767
0.000349662
0.000547856
0.000283645
0.000108955
0.000605893
0.000148274
0.002273
0.000155865
0.000235613
0.000221218
0.000102022
0.00015211
9.56466e-05
0.000258529
0.000113665
8.34428e-05
0.000113044
0.000123792
0.000937103
0.000578478
8.34907e-05
8.25357e-05
0.000154784
0.000229566
0.0513788
0.00482591
0.000128396
0.000128635
0.000201982
0.000173005
9.35439e-05
8.25973e-05
0.000347317
0.000123399
9.31762e-05
0.000599911
8.56722e-05
9.68085e-05
0.00082136
0.000228534
0.000642882
8.55915e-05
9.39179e-05
8.07211e-05
8.10358e-05
0.000119829
0.000108822
0.0001032
0.0344163
0.0881343
0.000112257
0.000367826
0.00155683
0.00042225
0.000330081
0.00112797
0.000101784
0.000483843
0.0945136
8.81388e-05
0.000113333
0.000100281
8.4649e-05
0.000221548
0.000134804
0.000105792
0.000105761
0.0453284
0.0039781
0.000503734
0.0553056
0.000373783
9.88582e-05
0.0773586
8.8717e-05
9.54457e-05
0.000756912
0.000133707
0.000695254
0.0504973
0.000611062
0.000252633
0.000115088
0.000439367
0.000644647
8.54749e-05
0.000663176
0.000134695
0.638366
0.02674
8.06767e-05
0.000662363
0.527036
0.000110755
0.000583061
0.00296934
9.32359e-05
0.0106049
8.84305e-05
8.59402e-05
0.000588455
0.0526027
0.000636392
9.19676e-05
0.00029848
0.0269628
0.00114868
0.000121785
8.81491e-05
0.000144463
9.27008e-05
0.000100855
0.319077
9.13857e-05
0.000218646
0.000117288
0.000123907
8.28527e-05
0.000130176
8.17216e-05
0.403926
8.06968e-05
9.68458e-05
8.13565e-05
0.000100761
0.000234625
8.09661e-05
8.42241e-05
8.2428e-05
8.17141e-05
8.52518e-05
0.000112809
8.30866e-05
8.03308e-05
8.08281e-05
0.000122343
0.000153634
0.0118066
0.000377686
8.40838e-05
8.55562e-05
0.000100124
8.47375e-05
8.2894e-05
0.000114065
0.0237855
0.000145379
0.000323843
0.000151004
0.00151248
0.000806224
0.000448369
0.0147034
0.000338718
9.51674e-05
8.5492e-05
0.000186699
0.000229092
8.77879e-05
0.000202037
8.44493e-05
0.000121179
0.000148801
0.000121802
0.000171764
8.03206e-05
0.00369848
0.000269359
0.000676198
8.10141e-05
9.33229e-05
0.00014232
0.00204225
0.00257427
8.29952e-05
0.000111521
8.09612e-05
8.07114e-05
8.3457e-05
0.150811
0.000355711
0.000249182
0.000511952
0.00131016
0.0013037
0.00285788
0.000104017
0.00128673
8.77058e-05
9.25619e-05
0.000240481
9.96995e-05
0.0747325
0.000145906
0.000193285
0.0590211
8.14129e-05
9.1174e-05
8.23542e-05
9.65499e-05
0.0038705
0.000373212
0.000247953
0.000100559
0.000594361
0.00201278
0.00027322
0.000609477
0.000320149
0.000202915
0.00157316
0.0812938
0.000452162
0.00298707
0.08788
8.29917e-05
0.000135387
0.00273636
0.000133096
0.0057112
0.000191609
0.000177945
0.000207519
0.00011213
0.00212421
0.00264278
0.0943415
0.000151861
0.00497218
0.000109466
0.000188002
0.000306438
0.000117373
8.07986e-05
0.000183335
0.00852682
0.000603789
8.50806e-05
0.000162807
0.000431032
0.000286111
8.18712e-05
0.000254704
8.26544e-05
8.1149e-05
0.000300375
8.29838e-05
8.64551e-05
8.35327e-05
0.000475381
0.00450489
8.4093e-05
0.00585007
8.52406e-05
0.000208634
9.18012e-05
0.000113959
0.218927
0.537249
0.000163766
0.10607
8.32219e-05
8.27764e-05
0.00010031
0.00166593
0.142463
0.000864435
8.4023e-05
0.000119285
0.0953621
8.5206e-05
0.000171853
0.000461022
8.55969e-05
0.000911956
0.000361489
0.000155079
0.000258724
0.00276503
0.0641837
0.000111889
0.000158945
0.000173976
8.05517e-05
0.118288
0.000459509
0.00139788
8.17685e-05
9.15553e-05
0.00242543
0.000117893
8.81035e-05
8.33495e-05
0.0132152
8.28146e-05
0.000688604
0.000112009
8.06717e-05
9.1625e-05
0.00054593
0.000292426
0.000175634
8.23509e-05
8.22625e-05
0.000302658
0.000109739
0.000144343
9.07516e-05
0.0148408
8.54454e-05
0.00016415
0.000294804
0.114959
0.123908
0.34542
8.19117e-05
0.270958
0.000111739
0.000913039
0.000114289
0.000447792
0.00166969
0.0125527
0.000125342
0.0963254
0.000678513
0.000393575
0.00013005
8.41067e-05
8.64546e-05
0.000146251
0.00045552
9.53568e-05
0.00133444
8.44466e-05
8.63605e-05
8.66118e-05
0.00064572
0.150043
0.0251822
0.00123527
0.000108816
8.84758e-05
0.0237998
0.0123903
0.00405022
0.00940686
8.33266e-05
0.00226968
9.9272e-05
8.31122e-05
0.000982814
0.000151394
0.0269398
0.00126712
0.000264427
0.00112117
0.00241843
0.000166431
0.0072204
0.000102987
8.26286e-05
0.00120182
0.000110206
0.000852154
0.000133225
8.14202e-05
8.20337e-05
9.60099e-05
0.000141322
0.000446834
0.00261017
0.0532045
8.35828e-05
8.32412e-05
0.000160465
0.000411235
0.00123467
0.000107959
0.000968611
0.640389
0.000146918
8.22623e-05
8.57603e-05
8.09917e-05
0.000119796
0.0391169
8.44195e-05
0.000727227
0.000795672
0.000378638
8.90794e-05
0.000160698
0.000101397
8.38452e-05
0.00131683
0.000112265
0.00218104
0.000152231
0.000181278
8.74146e-05
0.000237401
0.00682796
0.00137646
0.000119531
0.00015568
0.000233274
8.61002e-05
8.59923e-05
8.72534e-05
9.74122e-05
8.02602e-05
9.23675e-05
0.000119307
8.64233e-05
8.24685e-05
0.0850322
0.00244157
0.000133973
0.0311666
0.147378
9.6578e-05
0.00649564
8.44723e-05
9.54248e-05
8.31914e-05
8.49172e-05
0.000459706
8.34882e-05
0.000309528
0.000435071
0.000108648
8.48142e-05
0.000116169
0.000300985
8.71035e-05
0.000121663
0.000214534
8.4152e-05
0.000164328
0.000416209
8.56472e-05
0.000101068
8.11123e-05
0.000247403
0.000137669
0.090883
0.0723873
8.56722e-05
0.0286158
8.09674e-05
0.000125295
0.00128837
0.000658208
0.000878746
8.73907e-05
0.000105104
0.000600805
0.000116774
0.0725041
9.7141e-05
0.000205084
0.00366697
0.000841383
0.000486139
0.12115
0.000650196
0.00208568
9.20745e-05
0.000632297
0.032531
0.000622165
0.000126589
0.00191254
9.51362e-05
8.28115e-05
8.12568e-05
0.000251827
0.000152955
0.000154981
9.0309e-05
8.47837e-05
8.78039e-05
9.43759e-05
8.50619e-05
8.03776e-05
0.000824913
0.0419827
8.92934e-05
8.01958e-05
8.10932e-05
0.000640141
8.09943e-05
0.000101772
8.26239e-05
0.00136464
0.0016365
0.000281575
8.22172e-05
0.00333606
0.000315953
0.000865398
0.000151029
9.97097e-05
0.000103166
0.000125694
0.0012874
9.77604e-05
0.000134607
8.23966e-05
0.000214907
9.93597e-05
0.000409343
0.000183605
9.40944e-05
8.46503e-05
0.000323963
0.00120353
0.000799536
8.73457e-05
0.000137794
0.00336881
0.000746249
8.29773e-05
9.14635e-05
8.348e-05
0.000356989
0.00264077
0.000718514
0.00122297
0.000918639
0.000179017
8.25403e-05
8.03556e-05
9.96224e-05
0.0261101
0.000125958
0.00112685
0.00241554
0.00267075
0.000218131
0.000165698
9.77797e-05
0.000241699
9.07384e-05
0.000183615
0.000599617
0.000260861
0.00109429
0.0014654
0.000248586
0.000153446
0.000115796
0.00116354
0.000295845
9.37454e-05
8.60109e-05
8.06217e-05
0.00140462
8.26422e-05
8.28976e-05
0.0019285
0.000435912
0.000159812
9.70868e-05
0.000103683
8.03766e-05
0.00012258
9.20453e-05
0.000207781
0.000117659
8.90525e-05
0.000674116
9.51473e-05
0.00176588
8.41396e-05
0.00225529
9.52687e-05
0.000109604
1.05121
0.000105324
2.00383
1.81401
8.47993e-05
8.0875e-05
8.12361e-05
0.000535898
8.15765e-05
0.000792757
8.61922e-05
0.909533
8.42938e-05
1.07256
0.00057981
0.0874145
0.00039956
8.39941e-05
0.000485067
0.000317573
0.000327194
0.000340184
0.000358502
0.000239051
2.88
9.2141e-05
0.00546719
0.000114328
9.95976e-05
0.00016746
0.000430411
1.11877
8.13848e-05
0.000537074
0.000159379
8.06769e-05
0.000814499
3.04781
9.8862e-05
0.000221462
0.000100761
0.00790315
0.787373
0.00130779
0.001389
0.000255089
0.000326877
0.00109353
8.44642e-05
0.00100188
0.00147537
0.000469484
0.00169677
9.16596e-05
0.00324752
0.000630637
0.000419068
0.000105801
0.000189998
8.17009e-05
0.00107519
8.24249e-05
0.00010152
0.000112659
0.000125515
8.61046e-05
0.00107185
0.000149547
0.00129946
8.83653e-05
0.000409695
0.000170972
0.0735074
8.16975e-05
0.00013341
8.50843e-05
0.000261343
0.000162296
0.00182913
8.06403e-05
0.00143095
8.19653e-05
8.38328e-05
0.000740036
9.7061e-05
0.000113803
8.59599e-05
8.15412e-05
8.26875e-05
0.00468501
0.000107771
9.89285e-05
0.000107826
0.000139096
8.43842e-05
8.04297e-05
0.000543718
0.000153752
0.000103449
0.000490523
0.000246394
8.20349e-05
0.000297915
9.65261e-05
8.28079e-05
9.95458e-05
8.47034e-05
0.000592504
8.14807e-05
8.07478e-05
8.53106e-05
0.000124076
0.00233632
8.50423e-05
0.000596341
8.24275e-05
9.24136e-05
9.08534e-05
0.000118717
0.000147254
0.000157213
0.000111261
0.000106188
0.000118958
0.000880896
0.000139072
0.000205077
0.000209537
0.00061684
0.000173333
0.00248161
8.37224e-05
0.000106913
9.1426e-05
0.00167479
8.55017e-05
8.0378e-05
8.26086e-05
8.79486e-05
0.000655797
0.0032579
0.000125354
0.000581168
0.0105739
0.303938
0.0960033
0.00889764
0.000555403
8.58717e-05
0.000123591
0.000111653
0.0014796
0.000114214
0.00702578
9.42065e-05
8.6176e-05
0.000702531
0.00333825
9.86781e-05
0.00124481
0.000584655
0.000101108
0.000100855
0.000320071
8.27336e-05
9.00857e-05
0.910948
8.19341e-05
0.217553
0.361814
0.000685643
0.000343044
8.4032e-05
0.000119483
0.000100022
0.00122649
8.35672e-05
0.00112717
0.000524713
0.451861
0.00119464
8.91439e-05
8.90076e-05
8.66211e-05
0.000194978
9.16314e-05
0.000366638
8.30016e-05
0.00190465
0.0246477
8.18409e-05
8.30331e-05
0.0168291
0.000160918
9.31397e-05
0.000394453
8.80213e-05
0.000230939
0.00219329
8.2293e-05
0.00217656
0.00010288
0.00142028
0.000131571
8.20865e-05
8.38575e-05
0.00154694
0.0679666
0.000569999
0.000426515
8.44049e-05
0.00064228
0.000181207
0.00025161
0.000429095
0.000156821
9.95801e-05
0.0062657
8.93217e-05
0.000106491
9.58894e-05
9.71586e-05
0.000536566
0.000857055
0.000116742
0.000100133
0.000193495
0.00027762
8.12951e-05
0.000724647
0.000122911
0.000410089
1.11991
0.000122943
8.6014e-05
0.000404548
0.0848018
0.000374013
0.000188772
0.000883706
8.63007e-05
0.118535
0.000211395
8.2635e-05
8.2282e-05
0.000255249
8.83438e-05
9.34943e-05
0.00113449
0.000165689
0.000122097
0.000144998
0.0011494
0.00268412
8.24023e-05
0.00138617
0.000123139
8.90653e-05
8.19872e-05
0.000200391
0.00110727
9.28695e-05
8.11227e-05
8.22417e-05
0.169816
8.25481e-05
8.28395e-05
8.20154e-05
0.000818768
0.523584
8.08796e-05
0.123129
0.000121314
8.21447e-05
0.0102547
0.000190789
0.158194
0.471212
0.000175618
0.000873553
0.581083
0.0968973
0.605137
0.00110838
0.000176362
8.33097e-05
8.34243e-05
0.000254928
0.00512675
8.11045e-05
0.0022846
8.31602e-05
9.04968e-05
0.00174054
0.000111728
8.8397e-05
8.18495e-05
0.000295267
0.00229261
0.000119282
0.000798966
0.000576353
0.00024948
0.00145458
0.00025793
0.000656491
0.000788336
0.000658398
0.000128277
0.000155362
8.54626e-05
0.000183794
8.8169e-05
0.000137462
0.000248921
9.98699e-05
8.42664e-05
8.26309e-05
0.000256715
9.93795e-05
0.000117884
9.63901e-05
8.13426e-05
0.000215586
0.000465439
0.00051522
8.09532e-05
0.00010331
0.0756971
0.000130738
0.000183137
0.0027805
8.85474e-05
9.19383e-05
0.000113492
8.07173e-05
0.422553
8.42323e-05
0.000400178
0.000154559
0.00178014
0.000125488
8.15917e-05
9.86647e-05
0.056707
8.0283e-05
0.000515339
0.000324363
0.00193826
0.00278379
8.54401e-05
9.56234e-05
9.24385e-05
0.00144164
0.000788746
0.00461977
0.00114766
8.06777e-05
8.28189e-05
8.08981e-05
0.000119656
0.000140268
0.000576511
8.49655e-05
0.000627548
0.000136176
0.000209136
0.000252512
0.000505338
0.000276141
0.000147236
8.25542e-05
8.93679e-05
0.000180382
8.35387e-05
0.000148275
9.30894e-05
0.000233823
0.000150318
8.57451e-05
0.000105087
0.000229075
0.000543732
0.0010551
0.000232188
0.000158663
0.000868859
0.00167989
8.36467e-05
0.00010357
0.0951547
8.0545e-05
0.000162631
8.1421e-05
0.000119188
8.17948e-05
8.26336e-05
8.81468e-05
9.70757e-05
0.220229
0.000101032
0.000389656
0.000117946
0.000111831
0.000826269
8.26034e-05
0.000336158
0.000136345
0.0111541
0.0574614
0.000200605
0.000299088
8.44365e-05
0.000387995
0.953977
8.63769e-05
8.28457e-05
0.00157385
9.30782e-05
0.164527
0.00332963
0.000188567
8.02777e-05
0.000529304
8.53069e-05
0.00015756
0.000107947
0.000101899
0.00268247
1.22798
0.000135004
0.206862
0.000936948
0.000761528
0.000228994
0.000892131
0.000124791
0.161158
0.00107534
0.000139621
0.000490239
8.39948e-05
0.00273647
0.0677966
0.00110545
9.36386e-05
8.21835e-05
0.00353849
0.00191786
9.75372e-05
0.000103157
0.00164794
0.00130869
9.33756e-05
9.14412e-05
0.000163949
0.0906177
8.14089e-05
0.0018861
0.000101549
0.000116198
8.20732e-05
8.20113e-05
8.31573e-05
8.43087e-05
0.000182728
0.000612123
0.000166958
0.000257271
0.000501963
8.48475e-05
8.41382e-05
0.000378352
0.00403155
0.000222612
8.40211e-05
0.000183607
0.00104516
0.000434657
8.51049e-05
0.000202947
0.000169322
8.26011e-05
0.000146864
9.69387e-05
0.00027495
0.00035811
0.00174695
8.26174e-05
8.10612e-05
0.0104692
0.0665694
8.5015e-05
0.000613214
0.0544793
0.0572865
0.000118787
0.0668496
0.000115759
0.000760869
0.000127061
0.129702
8.5927e-05
0.000227667
9.95204e-05
0.000163032
0.000178656
8.09243e-05
0.000190756
8.47486e-05
0.282539
0.000210017
0.000107831
8.24167e-05
9.33779e-05
0.00143707
0.000124403
8.385e-05
0.000133825
0.000159588
0.000104095
8.30493e-05
0.0876459
0.00133757
0.000164946
0.00105069
8.3224e-05
0.0154996
0.00126181
8.70087e-05
8.0451e-05
0.000104331
0.000153963
9.03821e-05
0.000380015
0.000453862
0.00105437
2.15781
9.13435e-05
8.26476e-05
0.000577895
0.000203063
0.000931071
9.54699e-05
0.000305687
0.00048375
0.000149429
0.00040085
8.3151e-05
0.000872256
0.000105844
0.000101543
0.00045489
0.00131123
0.00113838
0.000121534
0.00580383
2.45992
0.643764
8.51922e-05
0.000272422
8.41491e-05
8.65366e-05
0.00590537
9.11936e-05
0.000374281
8.37337e-05
8.38766e-05
8.35738e-05
2.49248
3.68844
8.35916e-05
8.33849e-05
8.30302e-05
9.87008e-05
0.365719
2.49508
0.00020256
0.000180208
8.08968e-05
0.000275488
0.000106666
0.000210384
9.90124e-05
8.42217e-05
0.000192863
0.000100445
0.000336251
8.51723e-05
0.000115672
0.000102987
0.000421484
0.000246096
0.000129607
8.2283e-05
0.000595173
9.31172e-05
0.000291958
0.000545751
0.000270732
0.000105871
0.00182571
0.000217801
0.000507168
0.000540321
0.000385271
9.98403e-05
0.00149881
0.000667668
0.00101952
0.000588987
0.112896
0.000819594
8.95438e-05
0.000226546
0.000161056
0.000325506
0.00105523
0.0953226
8.72119e-05
0.000167218
0.000174087
0.00041245
0.00108093
8.28341e-05
9.00295e-05
0.000110017
9.83507e-05
8.4005e-05
0.000917215
0.000550524
0.000104749
0.000142062
0.000516542
8.76023e-05
0.00443112
0.00379125
8.90075e-05
8.08439e-05
9.47369e-05
0.000204834
0.000124026
0.000172107
8.59555e-05
0.000100282
8.94035e-05
8.40656e-05
0.0187324
8.39381e-05
9.05157e-05
8.21562e-05
0.000170505
0.000287554
0.000471752
0.0637339
0.000323129
8.44848e-05
0.000117833
9.28186e-05
8.21324e-05
0.000103873
0.000370333
9.80979e-05
8.28585e-05
0.000124951
8.39391e-05
8.29538e-05
0.000119909
0.123476
8.08161e-05
8.07344e-05
0.000104451
0.00332695
0.00189802
0.000400074
0.000823773
0.000148241
0.00173439
0.000181225
8.25353e-05
8.04372e-05
0.000697744
0.000110573
8.73742e-05
8.08829e-05
8.18884e-05
0.00014256
0.104312
0.000229948
8.09484e-05
0.000106251
0.55811
8.02856e-05
0.000202438
8.04343e-05
0.000181606
8.10674e-05
0.000619531
0.000106222
8.79756e-05
1.30511
0.000441509
0.000651071
0.000232098
8.48706e-05
0.000535891
0.000281963
0.00012404
8.11399e-05
0.896662
0.00111012
0.000150615
8.58758e-05
0.000330424
8.0911e-05
8.63511e-05
0.000107675
9.65237e-05
0.00344497
8.34273e-05
0.000310555
0.118448
8.89941e-05
0.000116583
0.00070804
0.39886
8.04416e-05
0.131094
8.09622e-05
0.0772955
0.000395253
0.000102307
8.57788e-05
0.0010094
0.000216915
8.93011e-05
0.000581528
0.000120781
8.43685e-05
8.93436e-05
0.000145725
8.28665e-05
0.000227417
0.000229031
8.32479e-05
0.000131777
0.00104956
0.00011221
8.59813e-05
0.126197
0.000115512
0.00064649
0.000117452
8.75488e-05
8.97921e-05
0.000200091
0.000207348
0.579641
0.00032042
8.604e-05
0.733833
0.924267
8.14429e-05
0.000200262
9.17388e-05
9.64797e-05
8.29033e-05
0.000236583
8.18839e-05
0.000501054
0.000123915
1.18925
0.000300066
0.000104371
0.00057086
8.38467e-05
0.00011342
8.47218e-05
0.51903
0.00576224
0.000114687
0.000107477
0.000256824
9.83906e-05
8.7077e-05
0.000292815
0.0129436
8.22818e-05
0.146083
0.000101948
8.47674e-05
0.000454661
9.13572e-05
0.000587754
0.00637449
0.000170458
0.00148131
8.66922e-05
0.000127033
0.000126456
9.01403e-05
8.95003e-05
0.000220227
8.20037e-05
0.104842
0.000327523
0.000103805
0.00011244
8.08169e-05
8.59069e-05
0.000862041
8.23664e-05
0.000110469
0.000212288
0.0011609
8.08249e-05
0.000109225
0.0355518
0.000667361
0.0627407
0.0196956
0.000884074
0.000673225
0.00127349
0.000321389
0.000166641
0.000215519
0.0109784
0.000755181
8.23321e-05
9.92717e-05
8.47239e-05
0.000419147
0.000844365
0.00100143
0.618432
8.93649e-05
0.00102949
0.00329462
8.48971e-05
8.24658e-05
0.000199561
0.00202477
0.151347
8.66729e-05
8.50972e-05
0.000371656
8.25069e-05
0.000865991
1.17276
0.000154818
0.00037542
1.59327
9.91357e-05
0.00013273
8.44278e-05
8.12642e-05
0.000479515
0.00173366
0.000331631
0.00126482
0.000106221
8.75823e-05
9.28973e-05
0.00203403
8.38264e-05
8.20071e-05
0.082083
0.0001054
0.000103589
8.72494e-05
0.138232
0.000124569
0.0500621
8.37932e-05
8.43129e-05
0.00119981
0.000316133
0.000513311
0.000427595
0.000974253
8.88384e-05
8.15112e-05
0.085171
0.0778046
0.0914314
8.67312e-05
0.0943871
0.0747418
9.84116e-05
8.49883e-05
0.000133477
0.000986917
0.000217539
8.69432e-05
0.000798841
0.000127056
0.0639749
0.0727908
0.0193017
0.00263184
8.87176e-05
0.00114747
0.000155655
0.000839998
0.00041807
8.13482e-05
8.64979e-05
0.000105144
0.00177716
8.14893e-05
0.00847649
0.000245381
0.000710069
8.44766e-05
0.000386879
0.000373736
8.05829e-05
0.00158394
0.000251016
0.00205426
0.000177388
0.029116
0.000183742
8.74908e-05
8.22799e-05
0.000130108
0.027941
8.44523e-05
0.000144288
0.00780523
0.00951298
0.00134401
0.0364006
8.53681e-05
0.000145744
8.77149e-05
0.00385958
0.000109123
0.000816132
8.2534e-05
0.00179431
8.69617e-05
0.0249729
9.28101e-05
8.39592e-05
8.05043e-05
0.00661608
0.0184563
8.27456e-05
0.664422
8.14968e-05
8.15112e-05
0.000281661
0.000455942
0.000126062
0.000175105
8.40167e-05
0.00378274
0.000652843
8.17265e-05
9.6452e-05
0.000183258
0.000488637
0.000108176
0.000180071
0.000321324
0.000511559
0.000175311
0.0127768
0.000384214
8.54562e-05
0.000547274
0.000456976
8.50785e-05
0.000128616
8.25155e-05
0.000255962
8.38296e-05
9.13949e-05
8.85975e-05
0.000410961
8.4654e-05
0.000195571
0.00101198
9.8984e-05
8.26705e-05
8.52352e-05
0.000399745
0.00505258
9.29267e-05
9.71533e-05
8.62228e-05
8.03468e-05
8.13549e-05
0.00107936
9.47744e-05
8.54744e-05
8.32733e-05
0.000183641
8.03066e-05
8.03557e-05
8.10717e-05
0.000217558
0.00132024
0.000892807
0.0287621
0.000764416
0.000104829
8.09284e-05
8.43893e-05
0.0708045
0.264873
0.000635799
8.04853e-05
8.08472e-05
9.16381e-05
8.1583e-05
0.0221252
0.00122204
0.000194603
0.113132
0.000104259
0.000183192
8.34861e-05
0.00456051
0.00155487
0.0593403
8.5824e-05
1.23973
0.000619002
0.000266354
8.23365e-05
0.0554049
0.000619705
0.0126704
0.000903925
0.000502337
0.000940042
8.57687e-05
0.0153087
8.64053e-05
0.0874495
0.0723215
0.463191
9.10856e-05
0.000429567
0.00212057
0.000606778
8.90156e-05
0.0349749
0.329844
8.02991e-05
0.000661614
8.69512e-05
8.96548e-05
8.14974e-05
0.148238
0.000110478
0.000111919
0.000334006
0.000210089
0.00176567
0.00040052
8.127e-05
0.000172984
0.00323968
0.000154998
0.000283418
0.00243068
0.000514005
0.000103061
0.00174472
0.000105574
8.30749e-05
0.000138518
0.000132277
8.35773e-05
0.000323149
9.32133e-05
0.000173119
0.000260691
0.000162021
0.00177723
0.0484345
0.000131419
0.125245
8.42278e-05
0.000159309
0.101359
0.000434419
8.88148e-05
0.000155862
0.000176859
0.0967282
0.000644968
0.0494699
0.000169421
0.000296044
9.76833e-05
0.0141465
8.41254e-05
0.0275855
0.00282824
0.00166881
0.182993
0.000374094
0.000372387
8.94925e-05
0.000910314
8.2711e-05
8.39677e-05
0.00105993
0.000212444
0.000182524
0.000107224
9.83761e-05
8.37085e-05
0.000156821
0.00105744
8.42224e-05
0.000515683
0.00100291
0.00187526
0.000111955
0.00156107
0.0862024
0.000117254
8.52721e-05
0.000100335
8.85875e-05
0.000828032
0.00104384
0.000125966
0.000107585
0.000119625
0.000137004
0.000114792
0.00140015
8.39008e-05
0.000127417
0.00059756
0.000353331
0.0283192
0.00068197
0.000255147
8.34792e-05
0.0325936
0.069673
8.61723e-05
0.000365557
9.52475e-05
0.000135594
0.000850332
8.56489e-05
0.0011961
8.17007e-05
0.00159026
0.000195794
0.00012111
8.39757e-05
0.0002055
0.000284513
8.76246e-05
0.000147524
8.27648e-05
0.000119848
8.06472e-05
8.06396e-05
0.00207945
0.000121133
9.20502e-05
0.000148486
0.0129679
9.51509e-05
8.40382e-05
0.000163023
8.50855e-05
0.000369666
0.000322936
0.000993958
0.000127662
9.40009e-05
0.000843137
0.0259248
0.000126014
0.000106322
0.0135966
0.000133788
0.000346773
0.000222182
8.52018e-05
0.000191013
0.000153414
1.15268
0.000109922
8.55433e-05
8.24845e-05
9.39817e-05
0.35387
0.00062507
0.0141898
9.51326e-05
0.000235061
0.00467845
8.25235e-05
8.15808e-05
0.25998
0.000775956
0.242792
0.000136575
0.000148946
0.0907023
0.010881
0.000239549
0.000145125
8.56719e-05
0.000128043
8.05255e-05
0.000771299
0.000164711
0.000122255
0.000131063
0.00105734
9.01417e-05
0.000541988
0.0576359
0.000242438
0.000252904
8.06856e-05
0.000215076
0.45279
0.00172899
8.58244e-05
0.00011624
0.000117955
0.0991034
0.000481999
0.0430218
0.000138539
8.57195e-05
8.13245e-05
0.00187339
0.0333681
8.08597e-05
8.06714e-05
9.43113e-05
0.00103542
9.72041e-05
0.000156991
0.0041013
0.000244734
0.000205335
0.00218337
0.053623
0.000163667
8.08891e-05
0.00115972
8.93752e-05
8.19353e-05
0.00154722
9.23601e-05
0.00177597
8.64827e-05
0.000110956
0.000152897
0.00155774
0.000296891
8.14184e-05
0.000580699
0.000137491
8.10825e-05
0.000115706
8.9066e-05
8.5646e-05
0.000205868
0.00019451
0.000125603
0.000313332
0.000233355
8.75047e-05
0.283489
0.000223377
0.000211635
0.0034109
0.471609
9.99069e-05
0.000315744
8.24513e-05
0.000408884
0.000164057
0.000256206
0.0005837
0.000146642
0.000277554
0.00011357
9.64221e-05
0.00136995
0.000108508
0.000254416
8.33356e-05
0.000103844
0.000440802
0.705973
0.000250081
9.11331e-05
8.22502e-05
9.9799e-05
0.000120001
0.000727923
0.921052
0.000283921
4.01277
8.17039e-05
2.02014
0.00039526
0.495861
0.00129745
0.00086221
3.23249
0.0120639
0.000284866
0.000618539
8.25862e-05
0.000568676
8.45199e-05
0.000756865
9.57547e-05
0.00135712
0.000210511
0.000261838
0.000900783
8.36792e-05
0.0917668
8.45302e-05
8.18125e-05
8.49122e-05
0.00101617
8.71888e-05
8.19698e-05
0.00592249
0.000473577
8.81973e-05
8.44981e-05
9.87416e-05
8.21125e-05
0.000260556
9.19515e-05
0.000102323
8.05256e-05
9.41951e-05
8.6149e-05
0.000517651
0.0016547
8.74036e-05
0.00623766
0.00476277
0.000413548
0.000532378
0.938853
0.000221047
0.201423
0.000205392
0.00136484
0.001407
9.4674e-05
8.30885e-05
8.96199e-05
0.00598913
8.52834e-05
0.0011085
0.000112603
0.000199192
8.25768e-05
8.44314e-05
0.000282248
0.00108663
0.000109704
0.00027954
9.71619e-05
0.000163367
0.000143376
8.22798e-05
0.000176073
0.0131691
0.00362435
0.0250202
0.000589887
0.000105049
0.000147234
0.00116379
0.0010695
0.00581334
9.27714e-05
0.000899192
9.3443e-05
0.02959
0.000660044
0.00340124
0.000670029
0.000813218
0.000124154
0.000231516
8.71952e-05
8.43103e-05
0.000413201
0.00943131
8.66934e-05
0.000213001
0.000405928
9.71735e-05
9.08781e-05
0.000110609
0.000103148
0.00031065
0.000118894
0.00163901
8.04639e-05
0.00108929
0.000302272
8.55201e-05
9.87094e-05
0.000237322
0.000576926
0.000301005
0.0015165
0.000130442
0.00074418
0.000270928
0.000154235
9.23083e-05
0.00022608
0.00104555
0.000113604
0.00269326
8.6254e-05
0.000554925
9.84129e-05
0.000528435
0.000111303
0.000743078
0.00186046
0.00281958
8.33161e-05
8.26661e-05
8.70644e-05
0.0014924
0.000650289
0.205101
0.00136025
0.0056135
0.410956
8.60696e-05
0.0144736
8.60736e-05
9.54449e-05
8.59993e-05
0.000369883
0.000100649
0.000650746
0.00107448
9.88272e-05
0.000195538
0.000477097
9.45395e-05
8.78984e-05
0.000103947
0.000133939
0.000313536
0.000244532
0.00125813
8.47603e-05
0.000440321
0.00127407
0.258287
8.5866e-05
0.00671289
8.04145e-05
8.57267e-05
9.08443e-05
0.000186397
0.00119123
8.49756e-05
0.00105523
0.000184607
8.42215e-05
8.29993e-05
0.000137915
0.000286042
8.04538e-05
0.000515333
0.000349153