/*--------------------------------*- C++ -*----------------------------------*\
| =========                 |                                                 |
| \\      /  F ield         | OpenFOAM: The Open Source CFD Toolbox           |
|  \\    /   O peration     | Version:  v2012                                 |
|   \\  /    A nd           | Website:  www.openfoam.com                      |
|    \\/     M anipulation  |                                                 |
\*---------------------------------------------------------------------------*/
FoamFile
{
    version     2.0;
    format      ascii;
    class       volScalarField;
    location    "0.497436";
    object      nut;
}
// * * * * * * * * * * * * * * * * * * * * * * * * * * * * * * * * * * * * * //

dimensions      [0 2 -1 0 0 0 0];


internalField   nonuniform List<scalar> 
83563
(
1.80779e-05
1.91193e-05
2.36346e-05
1.77718e-05
2.42063e-05
3.15613e-05
1.80878e-05
6.60955e-05
4.98377e-05
0.000208838
4.09147e-05
1.48962e-05
0.00862592
1.78325e-05
5.90099e-05
5.51397e-05
1.77376e-05
1.78667e-05
4.58382e-05
1.78578e-05
1.77842e-05
1.78943e-05
4.99084e-05
0.000115166
1.77306e-05
1.76435e-05
1.83729e-05
0.000193747
1.89048e-05
1.83931e-05
2.46904e-05
1.83282e-05
1.12361e-05
1.82026e-05
1.78982e-05
2.82812e-05
1.91335e-05
1.8073e-05
1.96083e-05
4.99235e-05
1.80775e-05
3.10452e-05
2.1041e-05
1.9078e-05
0.00182187
7.4279e-05
2.04494e-05
7.2343e-05
6.00689e-05
0.00134486
0.0104729
4.06981e-05
0.00170272
0.00212922
2.73703e-05
0.00603699
1.83007e-05
0.00115545
0.00168272
5.07144e-05
0.0017935
0.00069446
4.61363e-05
2.15379e-05
0.00258913
0.00117976
0.000843304
1.61063e-05
0.000111168
0.0119641
1.87971e-05
0.0195578
1.80078e-05
0.00696956
2.14059e-05
5.61509e-05
5.69702e-05
1.82543e-05
1.84196e-05
0.00874368
1.85683e-05
1.79999e-05
1.93302e-05
0.000396544
5.10815e-05
1.81485e-05
1.77804e-05
2.18853e-05
1.80442e-05
2.95536e-05
6.76277e-05
1.81183e-05
8.16319e-05
8.84839e-05
0.000590402
8.66305e-05
0.000387031
7.64822e-05
5.04027e-05
7.74848e-05
2.35332e-05
1.93719e-05
4.50945e-05
1.83416e-05
4.67153e-05
2.03582e-05
2.83412e-05
1.83325e-05
0.000436151
1.78984e-05
0.000104132
3.30405e-05
3.27444e-05
2.32917e-05
2.52472e-05
1.77329e-05
0.00215853
0.000105526
2.99323e-05
1.80408e-05
4.22899e-05
2.62773e-05
4.95903e-05
0.000441109
5.33493e-05
1.7889e-05
0.000206833
1.75013e-05
6.812e-05
4.37162e-05
0.00324431
5.51881e-05
3.37483e-05
0.000641829
1.76044e-05
1.78021e-05
5.46811e-05
1.93573e-05
1.73397e-05
0.0114574
2.50372e-05
0.0128486
5.21984e-05
2.91717e-05
2.89301e-05
0.00204231
2.91165e-05
1.88692e-05
2.48516e-05
2.09781e-05
3.41327e-05
1.81099e-05
1.91872e-05
3.76226e-05
1.80769e-05
1.82804e-05
1.80161e-05
4.59629e-05
4.60276e-05
3.71413e-05
4.61796e-05
1.80307e-05
1.86335e-05
1.83429e-05
7.27795e-05
4.5875e-05
1.80667e-05
9.67248e-05
1.79675e-05
9.43032e-05
1.82037e-05
1.92343e-05
7.58704e-05
6.74519e-05
8.51811e-05
3.16955e-05
2.41495e-05
1.97872e-05
4.03431e-05
1.83861e-05
1.91622e-05
1.83981e-05
3.39534e-05
2.69036e-05
0.000111037
0.000231091
3.72109e-05
1.82994e-05
3.16251e-05
1.85342e-05
1.83757e-05
0.000163911
0.000174887
0.000149825
5.00038e-05
8.04921e-05
2.65937e-05
9.48861e-05
1.82347e-05
4.84042e-05
3.96274e-05
3.18691e-05
0.000105438
1.78648e-05
0.00014283
8.9943e-05
1.7955e-05
0.00254033
1.79327e-05
1.91039e-05
6.65847e-05
0.000276718
1.78913e-05
1.80342e-05
2.15587e-05
4.16812e-05
3.93687e-05
1.82191e-05
1.90249e-05
4.07144e-05
3.29847e-05
4.76036e-05
1.80486e-05
2.15492e-05
0.000103047
1.78811e-05
0.000239587
1.79075e-05
1.91738e-05
0.00011414
1.7907e-05
1.9474e-05
1.78417e-05
1.98249e-05
0.000109837
1.77695e-05
6.19952e-05
1.98799e-05
1.84986e-05
1.86215e-05
6.50459e-05
4.59454e-05
4.87125e-05
1.8008e-05
2.47293e-05
1.93845e-05
0.0154236
1.81362e-05
0.00113379
2.81032e-05
4.2467e-05
2.6496e-05
2.03393e-05
0.000125973
2.17109e-05
2.47546e-05
1.79233e-05
9.25578e-05
1.81957e-05
1.94411e-05
1.99351e-05
3.8804e-05
0.0102426
5.48265e-05
2.84074e-05
2.44683e-05
4.66707e-05
3.09872e-05
1.81125e-05
1.82184e-05
3.54718e-05
5.23922e-05
3.07824e-05
3.23361e-05
6.09741e-05
2.09626e-05
0.000124308
5.66936e-05
2.02502e-05
3.23971e-05
7.43139e-05
1.83166e-05
1.81551e-05
9.12131e-05
1.9681e-05
1.89919e-05
6.72092e-05
1.91731e-05
1.9025e-05
3.02617e-05
8.142e-05
1.84724e-05
0.000150788
1.79671e-05
1.85891e-05
3.26479e-05
3.82084e-05
3.21141e-05
3.24593e-05
2.44723e-05
2.18023e-05
2.09004e-05
1.98908e-05
1.79362e-05
1.78104e-05
0.000105466
0.000136587
0.00190845
4.56704e-05
9.49413e-05
2.498e-05
4.72585e-05
0.000958974
5.36574e-05
0.0110691
1.62933e-05
0.0119
4.18572e-05
1.80944e-05
4.55701e-05
0.000139786
4.27091e-05
1.79993e-05
2.58183e-05
4.65343e-05
1.81894e-05
0.000150282
0.00117576
2.25526e-05
3.02147e-05
2.1817e-05
2.0291e-05
1.80701e-05
0.00155762
1.8249e-05
1.86762e-05
3.94624e-05
0.00467916
7.06561e-05
1.85474e-05
0.00246562
0.000970277
1.81077e-05
1.88698e-05
2.0532e-05
1.89404e-05
8.44494e-05
3.11021e-05
0.000106285
1.87947e-05
1.78714e-05
2.45249e-05
2.63114e-05
2.80628e-05
0.0183687
1.78673e-05
4.15301e-05
4.19236e-05
2.8676e-05
0.000368078
0.017097
0.000211973
0.00744239
0.000926911
0.00510898
9.01916e-05
0.000312432
4.30426e-05
2.33472e-05
1.78511e-05
1.78067e-05
4.58339e-05
7.10765e-05
0.0058346
0.00524603
2.36255e-05
0.000363786
1.7016e-05
1.99518e-05
1.84002e-05
1.99646e-05
1.66593e-05
1.78173e-05
1.78724e-05
0.000372124
0.0092865
2.56622e-05
4.52864e-05
0.00372368
3.00416e-05
0.000118852
1.42489e-05
2.51327e-05
0.00692136
4.99277e-05
8.94366e-05
3.30872e-05
4.83651e-05
1.91185e-05
1.78319e-05
5.98162e-05
1.79437e-05
1.85139e-05
2.85735e-05
6.2131e-05
2.09908e-05
0.0032678
2.52514e-05
1.79538e-05
2.48625e-05
0.00181526
5.60214e-05
1.76446e-05
1.85159e-05
0.00116717
2.12303e-05
2.07854e-05
6.9467e-05
0.00673405
2.4189e-05
1.81894e-05
1.86389e-05
0.00161993
1.8017e-05
5.50645e-05
0.00193749
2.45545e-05
9.14041e-05
1.79836e-05
2.19614e-05
1.83623e-05
1.826e-05
2.54733e-05
1.78245e-05
0.01555
6.17949e-05
3.92297e-05
1.8927e-05
5.02591e-05
0.000312038
7.29912e-05
3.4219e-05
1.77456e-05
1.75139e-05
2.32986e-05
2.9627e-05
4.07934e-05
6.93101e-05
3.9911e-05
0.00778361
8.10572e-05
2.40483e-05
1.97291e-05
2.25539e-05
7.20664e-05
0.000110585
1.80031e-05
1.78236e-05
1.83126e-05
3.09128e-05
1.81369e-05
0.00152218
2.01263e-05
1.86364e-05
2.53861e-05
1.90488e-05
1.82901e-05
1.84788e-05
2.5784e-05
3.72548e-05
4.975e-05
2.34729e-05
2.11971e-05
5.20936e-05
1.64559e-05
9.77744e-05
2.23467e-05
2.84224e-05
4.04223e-05
1.96427e-05
3.34873e-05
1.96038e-05
2.6168e-05
5.0099e-05
1.77678e-05
1.69073e-05
1.86374e-05
5.98047e-05
5.23346e-05
1.81257e-05
1.79742e-05
2.10932e-05
2.9032e-05
0.00132793
0.000154027
4.98875e-05
2.07038e-05
3.01708e-05
2.45596e-05
1.85072e-05
1.80283e-05
3.38145e-05
1.86067e-05
1.92949e-05
4.98216e-05
1.83441e-05
3.89172e-05
5.22881e-05
1.35098e-05
5.36611e-05
1.81098e-05
2.14853e-05
1.78458e-05
1.78295e-05
2.06136e-05
1.65395e-05
4.96749e-05
0.000741999
0.00139527
2.04781e-05
3.72761e-05
6.48276e-05
3.96888e-05
2.1954e-05
6.66587e-05
1.99889e-05
2.33684e-05
0.00133536
1.86445e-05
2.15352e-05
1.75314e-05
1.8286e-05
2.52928e-05
2.08281e-05
1.90898e-05
1.65308e-05
0.000984724
0.000140308
2.91814e-05
0.0011138
3.95023e-05
1.42962e-05
0.000983125
1.80888e-05
1.84499e-05
5.86241e-05
1.89666e-05
4.96988e-05
0.00071017
4.29909e-05
2.27585e-05
1.68373e-05
3.46825e-05
2.02116e-05
1.7953e-05
4.75125e-05
1.20531e-05
0.0135697
0.000462691
1.77851e-05
3.47407e-05
0.0117405
1.72616e-05
4.73619e-05
0.000107352
1.88237e-05
0.000249609
1.87146e-05
1.82906e-05
4.75167e-05
0.0011342
4.53667e-05
1.88288e-05
3.32936e-05
0.000502507
6.12555e-05
2.23768e-05
1.87683e-05
1.45681e-05
1.92308e-05
2.01684e-05
0.00162831
1.78022e-05
2.29739e-05
2.19048e-05
1.99606e-05
1.80448e-05
2.33425e-05
1.79169e-05
0.00235504
1.77868e-05
1.78107e-05
1.78693e-05
1.84333e-05
2.52919e-05
1.78197e-05
1.81764e-05
1.80729e-05
1.79178e-05
1.81223e-05
2.15342e-05
1.80908e-05
1.77429e-05
1.78043e-05
2.05369e-05
2.56741e-05
0.000371333
2.69282e-05
1.82386e-05
1.83685e-05
1.98917e-05
1.81844e-05
1.82845e-05
2.12632e-05
0.000526003
2.03769e-05
3.69419e-05
3.36432e-05
7.87995e-05
5.65998e-05
2.66289e-05
0.000361185
3.26409e-05
1.93179e-05
1.85566e-05
2.1615e-05
2.24265e-05
1.85871e-05
2.23647e-05
1.80575e-05
4.1941e-05
2.06617e-05
2.10606e-05
2.25407e-05
1.77415e-05
0.000113725
2.56842e-05
4.6996e-05
1.78266e-05
1.94607e-05
1.77549e-05
0.000103396
0.000123776
1.80525e-05
5.45855e-05
1.78204e-05
1.77923e-05
1.812e-05
0.00185296
3.29243e-05
2.32893e-05
3.35968e-05
5.20919e-05
5.39957e-05
9.90309e-05
1.80402e-05
7.38067e-05
1.80372e-05
1.85055e-05
2.34574e-05
2.00789e-05
0.00171555
2.16957e-05
2.4498e-05
0.000932163
1.788e-05
2.38173e-05
1.79695e-05
1.97088e-05
0.000163104
2.9702e-05
2.50154e-05
1.86005e-05
5.0441e-05
0.000101989
2.04737e-05
2.37926e-05
1.98865e-05
1.93856e-05
4.15074e-05
0.00127947
4.20029e-05
0.000106317
0.0011832
1.80771e-05
2.1479e-05
0.000110604
1.60703e-05
0.0001718
2.87613e-05
2.70296e-05
2.23162e-05
2.06305e-05
9.5385e-05
8.09119e-05
0.00170145
2.14772e-05
0.000154065
2.00965e-05
2.62086e-05
3.31349e-05
2.75467e-05
1.77995e-05
3.12427e-05
0.000348034
5.06074e-05
1.77214e-05
2.56431e-05
3.89662e-05
2.51053e-05
1.79378e-05
4.08584e-05
1.80402e-05
1.86648e-05
4.44098e-05
1.80659e-05
1.83193e-05
2.16373e-05
4.4626e-05
0.000141072
1.81913e-05
0.000163423
1.83376e-05
2.98636e-05
1.80811e-05
6.85112e-05
0.0021391
0.00193642
2.60625e-05
0.00175136
1.79381e-05
1.80279e-05
1.99828e-05
9.61269e-05
0.00122483
6.20575e-05
2.0002e-05
2.55189e-05
0.000999821
1.77423e-05
2.67435e-05
1.7974e-05
1.83023e-05
3.60309e-05
3.44653e-05
2.52831e-05
2.58854e-05
0.00010234
0.00141439
2.08514e-05
2.57506e-05
2.74096e-05
1.77692e-05
0.00188953
3.46621e-05
7.57184e-05
1.79238e-05
2.50386e-05
9.70004e-05
2.17116e-05
1.86278e-05
1.8119e-05
5.83113e-05
1.79801e-05
4.95774e-05
2.03441e-05
1.77846e-05
1.91853e-05
3.50199e-05
6.44169e-05
2.69247e-05
1.79745e-05
1.79371e-05
3.95605e-05
2.11741e-05
2.42426e-05
1.87089e-05
0.000464353
1.83179e-05
2.01614e-05
2.73885e-05
0.00340511
0.00190373
0.00273453
1.79425e-05
0.0027633
1.80396e-05
6.91674e-05
2.12936e-05
4.07497e-05
7.76745e-05
0.00031843
2.02297e-05
0.00168114
5.39105e-05
3.99577e-05
2.05542e-05
1.62199e-05
1.84972e-05
1.98985e-05
4.20818e-05
1.79389e-05
6.01707e-05
1.8077e-05
1.72302e-05
1.85194e-05
3.77632e-05
0.00138259
0.000408078
7.29415e-05
1.63787e-05
2.29285e-05
0.000446206
0.000257697
0.000150552
0.000205152
1.81155e-05
9.68434e-05
1.51871e-05
1.80761e-05
0.000162792
2.03317e-05
0.000452348
6.86196e-05
2.09964e-05
5.91516e-05
0.000109031
7.1534e-05
3.02382e-05
1.99819e-05
1.80319e-05
4.06331e-05
1.78185e-05
6.00024e-05
2.28188e-05
1.78808e-05
1.79592e-05
4.64638e-05
2.39872e-05
3.30038e-05
1.47373e-05
0.000219181
1.81477e-05
1.8109e-05
2.61597e-05
1.31259e-06
6.60256e-05
1.66398e-05
5.97417e-05
0.00451659
1.93703e-05
1.7912e-05
1.79325e-05
1.78253e-05
2.18522e-05
0.000182124
1.82602e-05
5.04588e-05
6.05866e-05
3.44122e-05
1.84378e-05
1.98128e-05
2.87041e-05
1.80171e-05
7.58169e-05
3.54052e-05
0.000109608
3.80143e-05
2.25003e-05
1.84053e-05
2.0378e-05
0.000232789
8.14638e-05
3.36523e-05
2.77119e-05
2.6112e-05
1.77631e-05
1.84508e-05
2.02514e-05
2.31636e-05
1.77317e-05
2.93996e-05
1.88082e-05
1.7903e-05
1.79994e-05
0.00189129
8.64056e-05
1.38585e-05
0.000727526
0.00212867
1.96172e-05
0.000174583
1.81313e-05
1.94455e-05
1.81021e-05
1.832e-05
3.23648e-05
1.81309e-05
2.78656e-05
6.00155e-05
1.78105e-05
1.82667e-05
2.14346e-05
4.98325e-05
1.80604e-05
2.011e-05
2.56722e-05
1.82133e-05
2.66399e-05
2.93147e-05
1.83608e-05
1.99499e-05
1.78388e-05
2.79844e-05
1.65489e-05
0.00181086
0.00086952
1.84032e-05
0.000626047
1.78229e-05
4.50654e-05
7.644e-05
4.82357e-05
5.54808e-05
1.85578e-05
1.96616e-05
4.73913e-05
1.87457e-05
0.000741735
1.87238e-05
1.90587e-05
9.88162e-05
5.36077e-05
4.45133e-05
0.00132634
4.81955e-05
6.24621e-05
1.91578e-05
4.14347e-05
0.00069806
5.17849e-05
1.64914e-05
7.20969e-05
4.75638e-05
1.80504e-05
1.78491e-05
2.60667e-05
1.79829e-05
2.069e-05
1.78127e-05
1.75265e-05
1.84875e-05
1.71869e-05
1.82006e-05
1.77471e-05
6.65602e-05
0.000706481
1.8815e-05
1.77236e-05
1.78391e-05
5.17355e-05
1.78251e-05
1.90414e-05
1.80359e-05
6.43283e-05
8.01318e-05
3.34823e-05
1.79811e-05
0.00013556
2.94061e-05
0.0001459
2.29272e-05
2.55203e-05
2.36366e-05
2.08926e-05
6.36572e-05
1.45606e-05
1.92484e-05
1.80009e-05
2.7742e-05
2.31839e-05
2.32656e-05
2.38265e-05
1.85042e-05
1.88373e-05
3.69847e-05
7.44207e-05
4.83741e-05
2.1995e-05
2.02464e-05
0.000133498
4.28192e-05
1.79701e-05
1.89861e-05
1.8124e-05
0.000103668
0.000141344
5.15654e-05
6.54843e-05
2.92031e-05
2.78861e-05
1.80197e-05
1.77446e-05
1.97684e-05
0.000563529
1.99791e-05
7.08016e-05
9.45679e-05
0.00011217
2.95582e-05
2.53295e-05
1.98232e-05
2.11917e-05
1.74679e-05
2.49498e-05
2.69576e-05
2.13583e-05
6.56199e-05
7.81389e-05
1.70006e-05
3.96772e-05
2.08343e-05
7.07173e-05
2.25924e-05
1.60803e-05
1.84199e-05
1.77784e-05
7.31178e-05
2.0726e-05
1.80626e-05
6.82071e-05
4.08947e-05
1.64514e-05
4.41337e-05
3.02542e-05
1.77466e-05
3.22009e-05
1.91477e-05
2.30347e-05
1.82335e-05
1.85428e-05
3.95807e-05
1.8868e-05
7.76409e-05
1.95658e-05
9.97644e-05
3.9865e-05
2.08148e-05
0.0108256
2.04149e-05
0.0106975
0.0112901
1.78096e-05
1.82122e-05
1.78586e-05
3.51176e-05
1.78939e-05
4.17147e-05
1.84809e-05
0.0117057
1.82552e-05
0.011665
0.000114829
0.00190922
3.04194e-05
1.81333e-05
3.82732e-05
2.42741e-05
3.61126e-05
3.52921e-05
2.24214e-05
2.60094e-05
0.0125849
1.78836e-05
0.000150454
5.66421e-05
1.78463e-05
1.74594e-05
4.02636e-05
0.00791906
1.78749e-05
4.86449e-05
1.56733e-05
1.77854e-05
5.0678e-05
0.012141
1.93181e-05
1.35336e-05
3.91683e-05
0.000268713
0.0147761
6.81811e-05
8.0731e-05
2.81318e-05
3.20031e-05
6.74785e-05
1.82258e-05
4.55838e-05
6.53982e-05
3.1802e-05
7.65073e-05
1.87465e-05
0.000102927
2.82552e-05
3.50036e-05
1.98568e-05
4.74769e-05
1.79156e-05
4.97035e-05
1.7989e-05
1.67481e-05
2.15522e-05
2.1087e-05
1.84021e-05
7.5442e-05
1.68708e-05
5.35802e-05
1.63011e-05
3.69881e-05
2.22148e-05
0.00131697
1.78981e-05
2.35019e-05
1.79142e-05
5.56809e-05
1.68193e-05
8.53232e-05
1.77808e-05
8.61718e-05
1.94888e-05
1.81802e-05
5.70541e-05
4.60827e-05
2.10303e-05
1.8007e-05
1.78878e-05
1.80401e-05
0.000155825
2.70435e-05
4.14482e-05
2.05501e-05
1.98296e-05
1.81438e-05
1.77532e-05
4.07358e-05
2.19592e-05
4.88774e-05
4.15935e-05
2.27828e-05
1.79559e-05
3.35988e-05
1.93955e-05
1.93433e-05
2.00217e-05
1.82935e-05
4.92432e-05
1.78771e-05
1.77933e-05
1.8354e-05
3.36504e-05
0.000115017
2.08384e-05
2.73558e-05
1.91369e-05
1.91575e-05
1.90229e-05
1.80494e-05
2.37397e-05
1.99616e-05
1.81825e-05
1.95781e-05
1.70976e-05
5.43141e-05
1.90158e-05
2.93797e-05
2.25231e-05
4.37599e-05
2.70475e-05
0.000112555
1.81678e-05
1.79751e-05
3.27014e-05
9.53332e-05
1.83365e-05
1.79054e-05
1.79196e-05
1.84622e-05
4.58511e-05
0.000101806
2.28656e-05
4.20421e-05
0.000390997
0.00992602
0.00322802
0.000188718
3.11409e-05
1.79462e-05
1.34564e-05
1.91722e-05
6.32812e-05
1.96791e-05
0.000178495
3.09166e-05
1.8066e-05
5.88633e-05
0.000150389
1.89574e-05
6.33196e-05
6.2575e-05
1.2318e-05
1.94424e-05
3.03597e-05
1.8043e-05
1.87759e-05
0.00277761
1.7946e-05
0.00183551
0.00348269
5.31195e-05
3.81313e-05
1.821e-05
1.87877e-05
1.88863e-05
6.50068e-05
1.80915e-05
7.19058e-05
4.88368e-05
0.00185442
7.08402e-05
1.81629e-05
1.6326e-05
1.83589e-05
2.3936e-05
2.30229e-05
3.11111e-05
1.79413e-05
1.0411e-05
0.000240757
1.79328e-05
1.80503e-05
7.42597e-05
2.02734e-05
1.71096e-05
2.63866e-05
1.75422e-05
5.25513e-05
1.15704e-05
1.80891e-05
7.92634e-05
5.77716e-05
7.43166e-05
1.72004e-05
1.79486e-05
1.78737e-05
9.28792e-05
0.00125425
2.01887e-05
3.32334e-05
1.82432e-05
5.04031e-05
4.79288e-05
2.87149e-05
3.46036e-05
1.92769e-05
2.00051e-05
0.000221783
1.81176e-05
4.02091e-05
4.75981e-05
1.87628e-05
4.33628e-05
8.20835e-05
2.07181e-05
1.99444e-05
7.27462e-05
2.24743e-05
1.78596e-05
4.92965e-05
1.70416e-05
2.81824e-05
0.0105098
4.3176e-05
1.80246e-05
2.95422e-05
0.00141038
3.38174e-05
2.01398e-05
5.87812e-05
1.83622e-05
0.00158511
2.25355e-05
1.79936e-05
1.79927e-05
2.07006e-05
1.84167e-05
2.38822e-05
7.19009e-05
1.90197e-05
2.24606e-05
2.15651e-05
6.64946e-05
9.38642e-05
1.79852e-05
7.16431e-05
1.89659e-05
1.87855e-05
1.86887e-05
1.8058e-05
7.45564e-05
2.25321e-05
1.78424e-05
1.79652e-05
0.00139896
1.80194e-05
1.80494e-05
1.79271e-05
5.63782e-05
0.0126459
1.78077e-05
0.00118996
2.12189e-05
1.88467e-05
0.000238965
1.83594e-05
0.0015663
0.0130371
1.7549e-05
3.10176e-05
0.0139131
0.000484712
0.0149091
5.82832e-05
1.75027e-05
1.81213e-05
1.81343e-05
3.23125e-05
0.000144803
1.78397e-05
9.25432e-05
1.80971e-05
1.8988e-05
8.13859e-05
1.98119e-05
1.87492e-05
1.79308e-05
3.18086e-05
8.95976e-05
2.02856e-05
6.57329e-05
5.06952e-05
2.37203e-05
6.6012e-05
2.56349e-05
4.3546e-05
4.49856e-05
3.06211e-05
2.30806e-05
1.03479e-05
1.83768e-05
2.36683e-05
1.82924e-05
2.37806e-05
1.27145e-05
1.92336e-05
1.84086e-05
1.80318e-05
2.9996e-05
1.96162e-05
3.04e-05
2.17714e-05
1.78714e-05
2.72152e-05
3.90804e-05
5.0659e-05
1.78199e-05
1.79436e-05
0.00157806
3.15683e-05
1.11137e-05
0.000108437
1.83831e-05
1.88927e-05
1.71893e-05
1.79107e-05
0.0105695
1.81693e-05
3.4963e-05
2.47376e-05
8.62397e-05
2.14993e-05
1.78741e-05
2.59372e-05
0.00116532
1.77447e-05
3.08971e-05
3.31899e-05
8.8277e-05
0.000113214
2.44201e-05
1.95637e-05
1.80156e-05
7.83535e-05
5.43403e-05
0.000109939
6.98796e-05
1.80213e-05
1.80543e-05
1.81466e-05
1.83928e-05
2.82212e-05
4.99868e-05
1.87601e-05
4.55803e-05
2.08565e-05
4.00338e-05
3.06484e-05
4.87865e-05
2.45086e-05
2.00773e-05
1.80024e-05
2.36864e-05
3.71381e-05
1.80493e-05
2.48157e-05
1.88659e-05
1.41761e-06
2.79437e-05
1.79395e-05
1.96658e-05
2.10135e-05
4.26171e-05
6.4673e-05
1.67616e-05
2.15641e-05
5.47381e-05
7.16079e-05
1.81561e-05
2.04873e-05
0.00131919
1.77673e-05
2.48856e-05
1.78632e-05
1.98369e-05
1.82501e-05
1.80326e-05
1.85924e-05
1.74455e-05
0.00241042
1.75206e-05
3.88135e-05
1.8613e-05
1.73519e-05
5.43102e-05
1.79734e-05
3.01994e-05
1.81484e-05
0.000209086
0.000917169
2.58706e-05
3.63823e-05
1.7953e-05
4.03535e-05
0.0174995
1.82451e-05
1.80592e-05
6.79097e-05
5.92111e-05
0.00246754
0.000134728
2.0495e-05
1.77347e-05
3.43353e-05
1.99498e-05
3.26656e-05
1.63163e-05
2.0206e-05
0.000105747
0.00420908
1.62733e-05
0.00226604
5.47209e-05
5.74407e-05
2.06549e-05
6.31281e-05
1.82976e-05
0.00201192
7.14883e-05
2.39971e-05
3.26899e-05
1.80494e-05
7.67582e-05
0.00109105
5.10043e-05
1.90411e-05
1.79496e-05
0.000127642
7.90448e-05
4.27575e-05
1.95915e-05
6.94192e-05
5.54845e-05
4.18234e-05
1.85902e-05
2.20919e-05
0.00155393
1.78259e-05
5.02631e-05
1.91648e-05
1.86456e-05
1.7839e-05
1.79409e-05
1.92815e-05
1.82394e-05
2.41035e-05
4.59036e-05
2.64496e-05
3.44621e-05
4.59678e-05
1.82174e-05
1.82168e-05
3.39189e-05
0.000118305
3.00756e-05
1.81654e-05
1.76065e-05
4.03562e-05
4.30552e-05
1.82673e-05
2.76029e-05
2.65036e-05
1.80285e-05
2.38424e-05
1.74272e-05
3.52648e-05
2.54439e-05
9.17241e-05
1.80064e-05
1.78357e-05
0.000273796
0.00121645
1.8251e-05
3.39493e-05
0.00101661
0.00130765
1.8481e-05
0.00125084
2.18897e-05
4.18906e-05
1.06699e-05
0.00136737
1.83913e-05
2.88143e-05
1.96256e-05
2.64931e-05
4.87136e-05
1.78117e-05
5.03371e-05
1.81926e-05
0.00932277
2.28407e-05
1.52236e-05
1.79974e-05
3.09003e-05
6.4043e-05
2.2681e-05
1.80565e-05
2.30864e-05
3.81185e-05
2.76189e-05
1.80871e-05
0.00298417
6.85427e-05
1.66568e-05
5.62526e-05
1.80957e-05
0.000560579
6.32371e-05
1.85078e-05
1.77557e-05
1.69623e-05
1.89408e-05
1.76039e-05
2.86834e-05
2.95055e-05
5.44359e-05
0.0105531
1.90907e-05
1.80348e-05
2.09708e-05
1.16156e-05
4.18379e-05
1.95106e-05
2.56509e-05
5.03033e-05
1.74017e-05
3.13877e-05
1.80926e-05
5.31727e-05
2.03151e-05
1.98473e-05
2.22857e-05
7.64551e-05
6.71264e-05
1.14312e-05
0.000154876
0.011287
0.00439167
1.83373e-05
2.50065e-05
1.80941e-05
1.80485e-05
0.000143375
1.89111e-05
3.10591e-05
1.81392e-05
1.81093e-05
1.79437e-05
0.00637089
0.0133371
1.81338e-05
1.81626e-05
1.78619e-05
4.18777e-05
0.00303972
0.0104832
2.65075e-05
4.18148e-05
1.78141e-05
2.59058e-05
2.36315e-05
4.52197e-05
3.25947e-05
1.82082e-05
2.72494e-05
3.46886e-05
2.57037e-05
2.05238e-05
1.75304e-05
3.01196e-05
2.67875e-05
2.38185e-05
1.8965e-05
1.79893e-05
4.25729e-05
4.64262e-05
2.82458e-05
2.61039e-05
2.56777e-05
1.66609e-05
9.53803e-05
1.01678e-05
4.48464e-05
3.98266e-05
3.9141e-05
1.82984e-05
8.32471e-05
4.7661e-05
6.16943e-05
5.18771e-05
0.0018568
6.31077e-05
2.08342e-05
2.47574e-05
2.52761e-05
3.27089e-05
5.50862e-05
0.00147218
1.84658e-05
2.05063e-05
2.5081e-05
3.47707e-05
7.30117e-05
1.80448e-05
2.15613e-05
1.73939e-05
3.19412e-05
1.9331e-05
6.07366e-05
4.3354e-05
1.75925e-05
1.65133e-05
4.45239e-05
1.93146e-05
0.000147229
0.000108721
2.52001e-05
1.78043e-05
1.83912e-05
1.84772e-05
1.76476e-05
2.68974e-05
1.8423e-05
2.01176e-05
2.04676e-05
1.81965e-05
0.000415615
1.81834e-05
1.8997e-05
1.78933e-05
2.09604e-05
3.45539e-05
2.64797e-05
0.000399568
3.35057e-05
1.82712e-05
2.19531e-05
3.55876e-05
1.79657e-05
1.51881e-05
2.71303e-05
1.92509e-05
1.80669e-05
1.77009e-05
2.02635e-05
1.92592e-05
1.77853e-05
0.00224804
1.78777e-05
1.7825e-05
2.05544e-05
0.00016311
8.25502e-05
2.56211e-05
8.09598e-05
2.50791e-05
6.95385e-05
2.40565e-05
1.79924e-05
1.77545e-05
5.23858e-05
1.78251e-05
1.80229e-05
1.78109e-05
1.7939e-05
2.34346e-05
0.00141504
7.12786e-05
1.78186e-05
5.46125e-05
0.00321411
1.77347e-05
2.9706e-05
1.77534e-05
2.39182e-05
1.78077e-05
5.47036e-05
2.04479e-05
1.77213e-05
0.00594019
3.98117e-05
5.13705e-05
3.27511e-05
1.83137e-05
4.35987e-05
2.18921e-05
2.28485e-05
1.78378e-05
0.00449264
4.69043e-05
2.05893e-05
1.81929e-05
2.94464e-05
1.78162e-05
1.83967e-05
6.12871e-05
1.9712e-05
0.000136011
1.80985e-05
2.73967e-05
0.001376
2.65756e-05
3.42153e-05
5.39441e-05
0.00320681
1.77554e-05
0.00182955
1.78205e-05
0.00142326
3.21457e-05
1.82107e-05
1.82794e-05
5.92892e-05
2.47226e-05
2.48254e-05
4.73629e-05
1.96711e-05
1.82463e-05
1.81373e-05
2.17662e-05
1.8063e-05
2.58966e-05
2.92508e-05
2.0941e-05
2.15203e-05
4.37488e-05
2.00283e-05
1.8418e-05
0.00146827
1.97819e-05
5.31403e-05
6.05812e-05
1.8646e-05
1.88822e-05
2.86155e-05
2.89692e-05
0.0144663
3.55359e-05
2.1123e-05
0.0177314
0.0198652
1.78818e-05
2.76768e-05
4.61507e-05
1.87545e-05
1.80174e-05
3.03767e-05
1.98212e-05
4.14434e-05
2.25935e-05
0.00490808
3.66351e-05
1.823e-05
4.62344e-05
1.81859e-05
1.88925e-05
1.81341e-05
0.0113212
0.000168733
1.96147e-05
1.9385e-05
3.12202e-05
1.73461e-05
1.84579e-05
2.34053e-05
0.000686737
1.79866e-05
0.00226691
2.03078e-05
1.8293e-05
4.08383e-05
1.9081e-05
3.66011e-05
0.000201594
2.08312e-05
8.4753e-05
1.74148e-05
2.08424e-05
2.27023e-05
1.87998e-05
1.51022e-05
2.82334e-05
1.79569e-05
0.0012907
2.31852e-05
2.83671e-05
1.86782e-05
1.77984e-05
1.84305e-05
5.17643e-05
1.79993e-05
2.01666e-05
3.03768e-05
7.70679e-05
1.80995e-05
2.50927e-05
0.000683105
4.99241e-05
0.00100803
0.000361211
4.10071e-05
5.14216e-05
3.894e-05
1.85638e-05
1.85177e-05
2.52562e-05
0.000233356
4.57312e-05
1.78946e-05
1.9342e-05
2.03856e-05
4.00758e-05
3.49634e-05
7.25278e-05
0.00266138
1.8451e-05
5.78118e-05
9.74753e-05
1.82675e-05
1.7985e-05
2.14466e-05
8.64523e-05
0.00215123
1.85305e-05
1.82009e-05
3.63676e-05
1.80186e-05
5.9757e-05
0.00462751
1.93092e-05
4.18063e-05
0.00706128
1.87826e-05
2.35045e-05
1.82519e-05
1.78598e-05
4.23012e-05
9.21575e-05
3.26374e-05
9.11634e-05
5.09947e-05
1.74852e-05
1.91841e-05
7.56232e-05
1.81774e-05
1.79569e-05
0.00128058
1.99692e-05
3.81294e-05
1.8322e-05
0.0015171
1.68162e-05
0.000977621
1.81096e-05
1.8231e-05
4.42944e-05
1.33629e-05
4.61338e-05
4.18608e-05
8.8316e-05
1.87877e-05
1.78915e-05
0.0013961
0.0013196
0.000693333
1.84367e-05
0.000934391
0.000627217
1.96313e-05
1.78976e-05
1.52094e-05
5.06061e-05
2.15921e-05
1.82771e-05
5.50972e-05
5.58027e-05
0.000836894
0.000884068
0.000425696
8.71735e-05
1.83009e-05
4.60428e-05
1.39131e-05
5.20455e-05
4.42427e-05
1.78705e-05
1.85043e-05
1.77368e-05
6.87703e-05
1.78862e-05
0.00029539
1.3938e-05
4.2582e-05
1.81434e-05
3.57802e-05
3.40611e-05
1.77941e-05
7.36633e-05
3.09541e-05
0.000108893
2.19404e-05
0.000518812
1.87127e-05
1.86404e-05
1.79815e-05
1.60017e-05
0.000400154
1.82566e-05
1.84852e-05
0.000756004
0.000252057
8.14074e-05
0.00102306
1.83799e-05
2.42695e-05
1.71334e-05
0.000129906
1.84987e-05
5.82361e-05
1.85836e-05
6.3447e-05
1.78869e-05
0.000868259
1.90672e-05
1.79191e-05
1.77622e-05
0.000158981
0.000346897
1.80061e-05
0.0138968
1.78899e-05
1.7882e-05
1.93318e-05
3.92312e-05
1.91655e-05
2.17372e-05
1.81943e-05
0.000153053
4.01251e-05
1.78839e-05
1.37298e-05
1.64087e-05
3.40261e-05
1.95368e-05
2.8235e-05
3.47358e-05
3.41604e-05
2.59386e-05
0.000315337
4.27956e-05
1.83442e-05
4.22138e-05
3.4349e-05
1.81484e-05
2.09628e-05
1.80186e-05
2.60958e-05
1.81615e-05
4.57912e-05
2.61137e-05
4.08903e-05
1.793e-05
2.02633e-05
5.69871e-05
1.8765e-05
1.80314e-05
1.80148e-05
3.03725e-05
0.000131625
1.84116e-05
3.92036e-05
1.80968e-05
1.77854e-05
1.82353e-05
5.46116e-05
3.87174e-05
2.16242e-05
1.8115e-05
2.37172e-05
1.77388e-05
1.77777e-05
1.7836e-05
1.87369e-05
6.6822e-05
5.0865e-05
0.000389724
5.0741e-05
2.04053e-05
1.78162e-05
2.34172e-05
0.000798307
0.00226645
4.1244e-05
1.77603e-05
1.78069e-05
1.85254e-05
1.79003e-05
0.000451408
6.00372e-05
2.2012e-05
0.00187306
6.76573e-05
2.77344e-05
1.81434e-05
0.000113014
7.833e-05
0.000826747
1.7734e-05
0.020613
4.60582e-05
2.5151e-05
1.79412e-05
0.000681216
4.35853e-05
0.000370654
5.69672e-05
4.40304e-05
6.4486e-05
1.83526e-05
0.000290873
1.8105e-05
0.000671703
0.000578695
0.00274583
1.75953e-05
3.07017e-05
0.000112018
4.5181e-05
1.87685e-05
0.000305251
0.00190674
1.77365e-05
4.03078e-05
1.85495e-05
1.76399e-05
1.80829e-05
0.00104349
1.05396e-05
2.04606e-05
2.81567e-05
1.43089e-05
5.56968e-05
4.42719e-05
1.82423e-05
1.03803e-05
8.10783e-05
2.45138e-05
2.33584e-05
6.87327e-05
3.41718e-05
1.99858e-05
8.27928e-05
1.87497e-05
1.80852e-05
1.59151e-05
2.33332e-05
1.81536e-05
3.95922e-05
1.8781e-05
2.26623e-05
3.31884e-05
2.50074e-05
8.27988e-05
0.000340707
6.36494e-05
0.00208089
1.80681e-05
2.45406e-05
0.000681834
4.56237e-05
1.88003e-05
1.96127e-05
1.39709e-05
0.00168376
4.71923e-05
0.000270038
2.22559e-05
2.97033e-05
5.93647e-05
7.36724e-05
1.82055e-05
0.000875362
8.63594e-05
9.70022e-05
0.00496982
3.73727e-05
3.4223e-05
1.8845e-05
6.52714e-05
1.80447e-05
1.81513e-05
7.16202e-05
2.69357e-05
2.40061e-05
2.08681e-05
1.92788e-05
1.81717e-05
2.33427e-05
7.25853e-05
1.81582e-05
3.18386e-05
6.63749e-05
9.93333e-05
2.01039e-05
8.48073e-05
0.000656755
2.90242e-05
1.76645e-05
1.95595e-05
1.8755e-05
5.41349e-05
6.41553e-05
1.84182e-05
1.81049e-05
1.82594e-05
3.3478e-05
1.93246e-05
8.1276e-05
1.7963e-05
3.15175e-05
4.4768e-05
2.80483e-05
0.000822938
4.82841e-05
1.92373e-05
1.81428e-05
0.000954348
0.0015263
1.91162e-05
3.77775e-05
4.03235e-05
3.3288e-05
5.86366e-05
1.83784e-05
7.30299e-05
1.79156e-05
6.54286e-05
1.53489e-05
2.22404e-05
1.81534e-05
2.82479e-05
3.4022e-05
1.8385e-05
2.2382e-05
1.79218e-05
2.05444e-05
1.77797e-05
1.7781e-05
9.17e-05
1.90628e-05
2.07646e-05
1.55808e-05
0.000260978
3.80061e-05
1.81468e-05
2.66643e-05
1.82146e-05
2.97833e-05
3.9099e-05
6.08312e-05
1.3981e-05
1.94104e-05
3.96913e-05
0.00043314
2.2489e-05
2.03006e-05
0.000309088
1.51059e-05
7.02115e-05
2.65905e-05
1.83527e-05
1.57774e-05
1.98901e-05
0.0101356
1.97739e-05
1.83565e-05
1.79402e-05
1.8557e-05
0.00251448
4.85596e-05
0.000251586
2.23382e-05
2.61632e-05
0.000117982
1.78801e-05
1.78989e-05
0.00221335
6.0475e-05
0.00256574
2.36585e-05
1.33933e-05
0.00109186
0.000227711
2.62774e-05
2.48154e-05
1.82712e-05
1.83778e-05
1.77658e-05
5.70253e-05
2.15717e-05
1.81321e-05
2.28809e-05
6.91127e-05
2.58507e-05
3.94322e-05
0.00173685
2.3706e-05
2.58779e-05
1.77867e-05
3.08189e-05
0.0125143
6.40146e-05
1.81972e-05
1.93362e-05
2.14797e-05
0.00126913
4.29489e-05
0.00067634
2.33192e-05
1.8337e-05
1.78431e-05
9.45418e-05
0.00032944
1.78086e-05
1.77836e-05
4.9109e-05
3.75711e-05
1.9401e-05
2.1928e-05
0.000114158
2.20841e-05
2.55368e-05
8.94013e-05
0.00122553
1.89626e-05
1.78129e-05
6.53128e-05
1.88874e-05
1.79422e-05
8.73147e-05
1.92112e-05
8.76457e-05
1.85082e-05
1.70407e-05
1.75414e-05
8.72566e-05
3.14291e-05
1.78802e-05
4.41033e-05
2.06841e-05
1.78382e-05
1.80043e-05
1.89557e-05
1.83982e-05
3.04182e-05
2.79327e-05
2.24741e-05
2.69485e-05
2.85006e-05
1.85801e-05
0.002975
4.49657e-05
2.25943e-05
0.000129405
0.0125176
3.40838e-05
3.57083e-05
1.80086e-05
4.32114e-05
1.91428e-05
2.71841e-05
4.48847e-05
1.58561e-05
5.01852e-05
2.03448e-05
3.86383e-05
7.53228e-05
2.52349e-05
2.56853e-05
1.79795e-05
2.02615e-05
3.91396e-05
0.00460515
2.56928e-05
1.88909e-05
1.7981e-05
7.07191e-05
2.22695e-05
5.63254e-05
0.00556414
2.62847e-05
0.0151736
1.7915e-05
0.0096867
3.70861e-05
0.00341553
7.52143e-05
5.9537e-05
0.0133274
0.000272966
2.98622e-05
5.18179e-05
1.80045e-05
4.77327e-05
1.82453e-05
4.54943e-05
1.74255e-05
9.00272e-05
1.17363e-05
2.76658e-05
5.5215e-05
1.81121e-05
0.00139677
1.81465e-05
1.79323e-05
2.18074e-05
5.84753e-05
1.83463e-05
1.79409e-05
0.000156333
4.29275e-05
1.74539e-05
1.80583e-05
4.42611e-05
1.79629e-05
3.16729e-05
1.82848e-05
2.04131e-05
1.77666e-05
2.90531e-05
1.78401e-05
3.85312e-05
7.36276e-05
1.85936e-05
0.000166942
0.00016822
3.85602e-05
3.13342e-05
0.00563675
2.98767e-05
0.00106793
2.04376e-05
6.21979e-05
6.51436e-05
1.77834e-05
1.80886e-05
1.80681e-05
0.000170189
1.83093e-05
3.73286e-05
1.69214e-05
1.78585e-05
1.80263e-05
1.96707e-05
3.3571e-05
7.1981e-05
1.85889e-05
3.22465e-05
1.88497e-05
3.14662e-05
3.56272e-05
1.79694e-05
2.46045e-05
0.000221411
0.000107183
0.000923875
3.35704e-05
1.29193e-05
3.6094e-05
7.20523e-05
6.37115e-05
0.000150942
2.22311e-05
4.58866e-05
2.09326e-05
0.000497725
5.44712e-05
9.00745e-05
5.48236e-05
4.50828e-05
3.15191e-05
2.44409e-05
2.31025e-05
1.82037e-05
3.73675e-05
0.000217087
1.85403e-05
9.77309e-06
3.45557e-05
1.6093e-05
2.67106e-05
4.33851e-05
1.74387e-05
6.36601e-05
2.0548e-05
5.24513e-05
1.77571e-05
4.11845e-05
2.97587e-05
1.81234e-05
1.6798e-05