/*--------------------------------*- C++ -*----------------------------------*\
| =========                 |                                                 |
| \\      /  F ield         | OpenFOAM: The Open Source CFD Toolbox           |
|  \\    /   O peration     | Version:  v2012                                 |
|   \\  /    A nd           | Website:  www.openfoam.com                      |
|    \\/     M anipulation  |                                                 |
\*---------------------------------------------------------------------------*/
FoamFile
{
    version     2.0;
    format      ascii;
    class       surfaceScalarField;
    location    "0.497436";
    object      phi;
}
// * * * * * * * * * * * * * * * * * * * * * * * * * * * * * * * * * * * * * //

dimensions      [0 3 -1 0 0 0 0];
oriented        oriented;


internalField   nonuniform List<scalar> 
156950
(
-0.00239395
0.00107851
0.000925979
0.00038946
0.000463725
-0.00121309
0.000114233
0.000635128
-0.000378522
0.000749658
-0.000371137
-0.000155152
-3.46906e-06
0.000202043
-4.34213e-05
0.000304794
-0.000341921
3.0994e-05
6.13245e-06
-1.64308e-05
-0.000138721
0.000652837
0.00092964
-0.00189035
0.000307873
0.00138413
-0.00136135
-2.2787e-05
0.000903635
-0.000404084
-0.000499551
-7.60415e-05
-4.9034e-06
6.93176e-05
1.16272e-05
7.03026e-05
-0.000665628
0.000595326
-0.00208801
0.00120296
0.00153789
0.00364416
-0.00476213
-0.0029544
0.00407238
0.00056738
0.000584787
-0.001173
2.08348e-05
2.86505e-05
-0.0014734
0.00144475
-0.00166352
0.000166172
0.00135708
0.000140264
0.000261481
-0.000162089
-0.000133084
3.36918e-05
4.36865e-05
0.00103087
-0.000507173
0.000710917
0.00118033
-0.00189125
0.000883626
-0.00092925
0.000630411
0.000162131
-8.5028e-05
-0.00109814
0.00102104
0.000590538
9.03172e-05
0.000202771
-0.00159833
0.00153661
0.00189379
-0.00183207
-0.00128803
0.000956779
0.000331252
0.000289528
-0.000165532
6.82344e-05
-0.00019223
0.00182138
-0.00141058
-0.000698071
0.000287265
2.34804e-05
0.000275039
0.000451827
-0.000750346
-0.000418237
0.00026811
4.42916e-05
0.000105836
-0.000408594
0.00202794
0.000202036
-0.000959275
0.000295296
1.82392e-06
0.000662154
-6.42325e-05
-2.99354e-05
0.000116737
-2.25688e-05
-0.000261129
8.9951e-05
0.000988249
-0.000817071
0.000752857
-0.00142786
0.000865032
-0.000190027
-0.00115285
7.73212e-05
0.000309412
0.000766118
-1.24486e-05
2.86847e-07
-0.000851879
0.00086404
-0.000173381
4.66553e-05
0.000126725
7.79309e-05
-3.68517e-06
-4.68146e-05
-2.74311e-05
0.000172016
0.000324676
-0.000223389
-0.000273303
0.00013206
-0.000479591
0.000347531
-0.00240255
0.00395429
-0.00407999
0.00252825
6.1227e-05
-0.000748235
0.000715597
-2.85886e-05
-0.00138873
0.0011782
-0.000198072
-0.000547995
-0.000197048
0.000596978
0.000148065
0.000283955
-0.00145194
-0.00024259
0.000829933
0.00738683
-0.00582183
-0.00239493
0.0028599
-0.0014016
-0.0014583
-0.00102286
0.000990313
0.000299739
-0.000267191
-7.63137e-05
0.000592933
-0.000233632
-0.000282987
0.000136007
0.00121153
0.000488811
-0.00183635
7.3764e-05
0.00224584
0.000209896
-0.0025295
-0.0020235
-5.74921e-05
0.00221668
-0.000135688
-0.00110477
-0.000806391
0.000181347
0.00124079
-0.000615746
-0.00158462
-2.98464e-05
0.00080808
-0.0015733
0.00127256
-0.000938971
0.00123971
0.000293977
-6.47761e-06
-0.00171416
0.00142666
0.000624722
0.000100413
0.000332213
-0.00105735
0.00119063
0.000632279
-0.00112072
-0.000702187
0.000238678
0.000951949
-0.00151524
-0.00171831
0.00140316
0.00183039
-0.00134595
5.98315e-05
0.000530088
-0.000495648
-9.42715e-05
-0.000449605
0.000443745
5.86054e-06
-0.000295027
0.000370174
5.37619e-05
-0.000128909
0.000249239
-0.00140549
0.00187606
-0.000719812
0.000364671
0.000211421
-0.00102761
-0.000661401
0.000283516
-0.00229797
0.000547883
0.000234854
0.00299623
-0.00230251
-0.00246143
0.0017677
-0.00244794
-0.000250754
0.000234681
0.00246401
-0.000174925
0.000124873
0.000477595
-0.000427543
-0.000925748
-0.00317034
0.0034472
0.000648883
-0.000479111
3.42347e-05
-3.71364e-05
0.000482013
0.00104603
0.000773823
-0.000293368
-0.00152648
-0.000207093
-0.000298546
0.000505639
0.000829995
-0.000149402
-0.000922293
0.000241699
-0.000248032
-2.77996e-05
0.000275831
0.000533201
0.000194333
0.000250007
-0.00097754
-0.000972405
0.000584703
0.000805172
-0.00041747
-0.000693326
-0.00369062
0.00329773
0.00108622
-0.000395996
0.00029316
0.00214381
-0.00204098
-0.00119935
0.00131969
0.00211914
-0.00223948
-0.000878117
-0.000321769
0.000376003
0.000823884
0.000606601
-0.00236696
0.000165858
0.0015945
0.000469774
0.000208863
-0.000840241
0.000161604
0.00146409
-0.000883748
0.00025218
-0.000832523
-2.39665e-05
1.3734e-06
2.25736e-05
1.94585e-08
-0.000243019
-0.000496102
0.000739121
-0.000556248
0.00111109
-0.000991989
0.000437143
-0.00053724
0.00088558
-0.000390034
4.16947e-05
2.82497e-05
0.00159575
-0.001624
0.000198605
-0.0001279
0.00155528
-0.00162598
-0.000714327
-0.00115781
0.00437558
-0.00250345
0.000848673
-0.00163516
-0.000557647
0.00134414
-0.000363375
0.000694486
-0.000143169
-0.000187941
0.00158114
-0.00173693
0.000155789
-2.93514e-05
-1.39258e-05
-0.000320098
-0.00107533
-0.00306096
0.00342196
9.64152e-05
3.01622e-06
-9.94314e-05
0.0017061
-0.00158221
-0.000123891
-0.00235145
-0.000716839
0.00132005
0.00174824
-7.26132e-05
-0.000199529
0.000272142
3.97492e-05
0.00105639
-0.00109614
1.63852e-05
-0.00079806
-0.00024397
0.00102565
0.000636951
0.000417478
-0.00105443
0.000224741
0.000606752
-0.000559847
-0.000271647
0.000475527
0.000492073
-0.000330649
0.000500516
-0.00152605
0.000688454
0.000337077
0.000529074
0.00030919
-0.00022437
-0.000712417
0.00045884
0.000477948
-0.00160611
-0.000112202
-0.000905892
-0.00144389
0.00125449
0.00109529
-0.00146996
0.00289894
-0.000311456
-0.00111753
-0.00022277
0.000325333
0.000419311
-0.000521874
7.94967e-05
-7.1043e-06
-7.23924e-05
-0.00181567
-0.000129817
0.00205783
-0.00011234
-0.000246111
0.00157616
0.00247962
-0.00380967
0.00102111
-0.00105628
3.51684e-05
-0.000907733
0.000445989
0.000461744
0.00108403
0.00126175
-0.000136951
-0.00220882
0.000700268
-0.00311472
0.00513644
-0.00610989
0.00408817
-0.00116096
0.0014606
0.000722726
-0.00102237
-0.000289345
0.000257461
2.53172e-06
-0.00232529
0.000310187
0.00201511
-0.000213881
0.0018417
-3.67173e-05
-0.0015911
-0.000621156
-0.00243361
-0.000613851
0.00366862
-0.000700227
0.00207791
-0.00135237
-2.53161e-05
-0.0016735
0.00137338
0.000300114
0.000308066
-0.000100582
-0.000207484
-0.00128821
0.00130899
-0.00281927
0.00279849
4.46478e-05
-0.00228794
0.0022433
-0.000743596
0.00108601
0.000328833
-0.00067125
0.000626625
-0.000542014
-0.000391673
0.000307061
-0.00187124
0.00191987
0.000301529
-0.000350157
0.00108272
-9.25776e-05
-0.000828016
0.000869251
-0.000671371
-0.000765494
0.000567614
7.2946e-06
4.71537e-05
-0.000424866
0.000370417
-0.00202649
-7.31695e-05
0.00210105
-1.38133e-06
0.000806245
-0.00395176
0.000697572
0.00156034
-0.000417855
-0.000125612
-0.00101687
-0.00500564
0.00013691
0.00281789
0.00205084
0.00150151
-5.81894e-08
-0.00150145
0.0015111
0.000865087
-0.000815842
-0.000390733
0.000992119
-0.000827759
0.000226373
0.00241785
-0.00318136
0.001027
-0.000951217
0.00168399
9.0725e-05
-0.000823493
0.00020445
0.000150462
-0.000157576
-0.000197336
-0.00132035
-0.000937257
0.00369185
-0.00143424
-0.00014693
-0.000312423
0.000459353
7.62033e-05
0.000721665
-0.00128486
0.000486992
-0.000643744
0.000618225
1.4463e-05
1.10559e-05
0.000807118
-0.000197078
-0.000626176
1.61363e-05
-0.00168229
0.00169552
0.00157155
-0.00158479
-0.000834246
0.000880176
0.00147295
-0.00151888
0.000273872
-0.000390566
0.00199824
-0.00188155
0.00102059
-5.79661e-06
0.000459849
-0.00147464
8.21784e-05
9.8352e-06
-9.20136e-05
0.00159245
-0.00159205
-3.97937e-07
-0.00396783
-0.00109529
-0.00323831
0.00830142
-0.00162405
0.00164265
-1.85975e-05
-0.000283344
-0.000580802
0.00117708
-0.000312936
7.17316e-05
0.000653613
0.000137785
-0.000863129
0.00247538
-0.000758254
-0.000371851
-0.00134527
0.00146909
0.000369809
-0.00119286
-0.000646046
0.00192346
-0.00110364
-0.000357619
-0.000462202
-0.000146387
0.00219377
-0.000246852
-0.00180053
-0.000500015
0.00256201
-0.000187647
-0.00187434
0.00246387
-0.000687533
1.56305e-07
-0.0017765
0.00172704
-0.000198578
-0.00152846
0.000269903
0.00133234
-0.000899348
-0.000702897
-0.00123806
0.000449075
0.00138682
-0.000597835
0.00173014
-0.00211082
0.000380676
3.16295e-05
-0.00145365
0.00142202
-0.00019454
0.00192468
0.000182654
8.8583e-05
3.68288e-05
-0.000559002
0.000532476
2.65257e-05
0.000109797
0.00213473
0.00051669
-0.00276121
4.65311e-05
-0.0012892
0.00124267
0.00308535
1.94781e-05
-0.00340311
0.000298283
-0.00194002
-0.000117433
0.000116003
0.00194145
-8.34498e-05
0.000735275
-0.000217323
-0.000434502
-0.000844047
0.000914017
0.00236189
-0.00243186
-1.15491e-05
0.00034905
3.85634e-05
-0.000376065
0.00040764
0.000357266
-0.000211526
-0.00055338
-0.000478765
6.05278e-05
0.000326586
-0.000472817
-0.000166313
0.000312544
-9.47189e-06
-0.000375924
-4.24977e-05
0.000427894
-0.00206895
-0.0075064
0.00631602
0.00325933
0.00018725
-0.000848545
0.00212483
-0.00146354
-0.00124579
-0.00024452
0.00109432
-7.11253e-05
0.00143821
-0.00143432
-3.89145e-06
0.000295105
0.00137474
-0.000256242
-0.00141361
-0.00157435
-4.35856e-07
0.00157478
0.00150715
-0.00054866
0.000107541
-0.00106603
0.000626715
0.00173993
-0.00072238
-0.00164427
0.00141122
-0.00140669
-4.52745e-06
-9.92542e-05
-0.00138546
0.000632131
0.00085258
0.00130323
5.60882e-05
-0.00151778
0.000158465
-0.00182628
0.00158932
0.00128085
-0.00104389
0.000161418
0.000580363
-0.000406624
-0.000335157
0.00147823
-0.00124784
-0.000230396
0.00198398
0.000575571
-0.00223313
-0.000326415
0.00126706
0.000211177
0.000290954
9.61594e-05
-0.000164528
-0.00168623
0.00159318
0.000257575
0.0012389
-0.0018498
-0.0027849
0.00339581
-0.000430204
-0.00129071
0.00138082
0.000340093
-8.1363e-05
-0.000362783
1.47848e-05
0.000429361
0.0011387
0.00380539
0.000151216
0.000501661
-0.00445827
-0.00032134
0.00187077
-0.00144497
-0.000104462
0.00220643
0.000156727
-0.00121687
-0.00114629
0.00045199
-0.00187608
-0.000277016
0.00170111
-0.000424742
0.000325874
1.7505e-05
-0.0015323
0.00146989
6.24096e-05
0.000365311
0.00174205
-0.00209725
-1.01071e-05
-0.000453246
-7.55066e-05
0.00016597
0.000198328
-9.7535e-05
-0.000100793
0.00201396
-0.00158705
-0.00207315
0.00164624
1.04934e-05
0.000137155
-0.000147649
6.22183e-05
-7.12493e-05
0.00159518
-0.00158615
0.000469644
-8.46692e-05
-0.000186647
-0.00350173
0.00502798
-0.00487884
0.0033526
-0.000141404
0.000227789
-0.00207753
0.00199115
-0.00179526
0.00188006
-8.47966e-05
0.000175357
-7.99805e-05
-0.000238476
0.000143099
0.000288447
0.00123892
-0.00270368
0.00117632
-0.00275377
0.00360853
-0.000620898
-0.00023386
-0.000235785
6.67752e-05
0.000244421
-7.54112e-05
0.00165056
-3.52742e-05
-2.21945e-05
-0.00159309
-0.00157251
0.00167366
-0.00230873
0.00220758
-0.00187543
0.000245291
0.000522267
0.000391885
-0.00303311
0.00211896
-0.000959363
0.00021722
-8.63881e-05
0.000828531
-0.000891068
0.00109467
-0.000458233
-0.000636552
1.15044e-07
-0.00080996
-1.18475e-05
5.09593e-05
0.000770848
-5.45676e-06
3.08877e-05
-0.000114886
8.9455e-05
-0.00151891
0.000215849
0.00130306
-0.000949059
0.000867342
8.17172e-05
-0.00177705
-0.000297641
0.000552954
0.00152174
0.00254704
0.000168811
7.13088e-05
-0.00278716
0.00268149
-2.41526e-05
0.00024091
-0.00289825
-4.20588e-05
-0.000117625
0.000122582
3.71019e-05
0.00636919
-8.82509e-05
-0.000781511
-0.00549942
-0.00223552
-3.74152e-05
0.00277249
-0.00049955
0.000125559
0.000528768
-0.000224494
-0.000429833
0.000555274
1.05558e-06
-0.000556329
0.000808529
0.00108657
-0.00106804
-0.000827058
-0.000257836
1.98851e-05
0.000195892
-0.00112637
-0.000181916
0.000134756
0.00117353
-0.0012251
0.00122744
-2.33618e-06
0.00136139
-0.000226117
0.000486423
-0.0016217
9.51858e-05
0.000835988
-0.000931174
-3.43844e-05
-0.00184448
0.00101038
0.000868487
0.00127669
0.000110662
-0.00129297
-9.43795e-05
0.000828156
1.44772e-05
0.00154753
-0.00239017
-0.00116279
-0.000267036
0.00143089
-1.06802e-06
-0.000104428
9.07927e-05
-0.00114915
-0.000806769
-0.00014229
0.000398594
-0.000271031
-0.00487046
0.0047429
-0.000937765
0.000822502
-0.00172013
0.0018354
0.000284372
2.30343e-05
-0.000313944
6.53682e-06
1.61721e-05
-0.000542142
0.000426288
9.96815e-05
-0.00169286
0.00101303
-0.000839078
-0.0027282
0.00100281
0.000424915
0.00130048
-0.00236868
0.000590777
0.000271127
0.00150678
0.00180056
-0.00202399
-0.000550364
0.000773801
0.00150084
-0.003017
-0.00121204
0.00120894
-0.00195181
0.000742873
-0.000831278
0.000717497
-0.00106286
0.00117665
0.000984954
-0.0010421
5.71497e-05
0.00107413
0.00120103
-0.00127235
-0.000269405
-0.000525516
0.000866679
-7.17573e-05
-0.000604377
-0.00157057
0.00217495
-0.000286294
-0.00114814
0.00151447
-8.00374e-05
0.00123701
-0.0027727
0.00245858
-0.000922892
0.000269344
1.50281e-05
-0.0017565
0.000489609
0.00136186
-9.4974e-05
0.0019796
-0.00278271
-0.000577988
0.0013811
-0.00213059
-0.000695348
0.00158015
2.26499e-06
-0.00109149
0.00108923
9.53836e-05
-0.000903477
0.000808094
-0.000229466
7.64711e-05
3.537e-05
0.000140328
0.000574861
-0.000715304
0.00310497
-0.00255891
-0.000223088
-0.000322972
-0.000331996
0.000476546
0.000950119
-0.000629202
-0.000652551
0.000566672
0.000715081
-0.000745136
0.00084052
0.00033595
-0.000682779
1.48336e-05
0.0019889
-0.000723695
-0.0012652
0.00031968
0.000538546
-0.00211089
0.00125267
-0.000781374
0.000148254
-0.000108328
0.000741448
-0.000976863
0.00243528
-0.000939772
-0.00051864
0.000406183
-0.000297598
0.00125517
-0.00136376
0.00208364
9.90348e-05
-0.00243233
0.000249658
1.15085e-05
-0.000721657
0.000568838
0.00179389
-0.00164107
-3.91348e-05
0.00016483
-0.000100582
-2.5113e-05
5.53798e-05
0.001671
-0.0016112
-0.000115182
0.00253911
4.8937e-05
-0.00250599
-8.20557e-05
-1.10812e-06
1.00621e-05
9.17834e-05
-0.000100737
-0.000103451
8.90863e-05
1.32569e-05
0.00217085
0.000949742
-0.0011317
0.00156647
0.000418075
0.000305457
0.000852833
-0.00157636
-0.00240641
0.00246199
-5.55847e-05
0.000156407
0.00128643
-0.00144284
0.00120699
-0.00120187
2.46343e-05
-2.97543e-05
2.1018e-05
-0.00111562
0.0010946
-0.000872018
0.00158041
-0.00185222
0.00114383
-5.72279e-06
-2.05721e-05
-0.00101048
0.00103678
0.00179106
-0.00199762
0.00255756
-0.00235099
0.000742589
-0.000924249
-0.000930175
0.00111184
-0.0026055
-0.00139043
0.001337
0.00265893
-0.000570015
0.00188225
0.000113713
-0.00142595
0.000691679
-0.00272424
0.000641956
0.0013906
0.00128005
-0.00126825
-1.18054e-05
0.00147929
0.000264071
-0.00174336
0.00153312
-0.00103104
-0.00180893
0.00130685
-0.000271272
0.00012327
0.000528497
-0.000380494
-0.000180367
-0.000316856
0.000816506
-0.000319283
-2.32288e-06
0.00128238
0.00225178
0.00145588
-0.00301598
0.00204159
-0.00118377
-0.000857823
-0.00039768
0.000304708
0.000119123
-2.615e-05
0.00202747
0.000286448
-0.00175395
-0.000559965
0.000825526
-0.000536061
0.000159336
-0.0004488
0.00137329
-0.0013933
0.000118586
-9.85754e-05
-5.75379e-05
6.84339e-05
-3.38563e-05
2.29603e-05
7.46552e-06
0.000345777
0.00124385
-0.00159709
0.00316183
-0.00157239
-0.00161866
2.92182e-05
0.00197051
-0.00299267
-0.000422537
0.00144469
-0.000271682
0.000207409
-0.000680769
0.000745042
-0.000314111
0.00129907
-0.00182035
0.00178926
-0.000665166
0.000111303
-0.00181059
0.00169929
-0.000108243
-5.14299e-05
0.000120538
-0.000757091
0.000756988
-0.000661909
0.000662012
0.00313061
-0.00365431
-0.00188483
0.00240853
-9.48581e-05
0.000421854
-0.00161057
0.00128357
0.000259288
4.1059e-06
-1.77682e-05
-0.000245626
-0.00187424
0.00189966
8.58794e-05
0.000509412
-0.000334177
-0.000985195
0.00010603
-0.00180524
0.00169921
0.000209344
-0.000193499
-1.58445e-05
0.00119625
-0.00125867
6.24206e-05
0.000236981
2.42938e-05
-1.98606e-06
0.000757884
-0.00172598
0.000393085
0.000575007
9.76754e-05
-0.000101915
0.0014499
-0.00144566
-0.000340981
0.000253964
8.70164e-05
0.000405978
-1.6582e-06
-0.00040432
0.00273492
-0.00130957
-0.00142536
-9.19052e-05
-0.000925961
0.000434294
0.000583573
0.00055498
-0.000122092
0.0001065
-0.000539387
1.61791e-05
0.00270767
-0.00272385
-0.000465318
0.00169897
-0.00149431
0.000260657
-0.000188196
-0.000510819
0.00128309
-0.000584076
-0.000106228
0.000224122
-0.00259255
0.00247466
-0.000323606
0.00115788
-0.000525525
-0.00030875
0.00201263
-0.00235633
-0.00201521
0.00235891
0.00107727
0.000610014
-0.000448384
-0.000216661
-0.00082979
0.00305908
-0.000584855
0.000205587
5.56627e-05
-9.82493e-05
0.000465033
-0.0013688
0.00124911
0.00170741
-0.00158772
-2.30101e-07
0.00245812
-0.000158944
-0.00229895
-0.000177323
-0.000158623
0.00128702
-0.000951079
0.00287316
-0.00285205
1.34398e-05
-3.45531e-05
-0.00131374
0.000790061
0.000523675
-0.00128251
2.30638e-05
0.00125945
-0.000553223
-0.000573389
0.00445674
-0.00333013
-0.00263164
-0.000535886
0.00261431
-0.00218824
0.00110813
-3.0382e-05
0.0011105
-0.00183316
0.00493874
0.000392866
-0.00349845
-9.91423e-05
7.63767e-05
0.00187348
-0.00185071
-0.000644024
0.000665701
-0.000582224
0.000560547
0.000807772
0.00178061
-0.00246963
-0.000118754
0.000119167
0.000364125
-0.000483291
-0.000403631
0.000542687
-0.00181026
0.0016712
-0.00176143
0.000729258
0.00165691
-0.000624744
0.000820213
0.00126326
6.10436e-05
-0.00214452
0.00379911
-0.000906877
-0.00296014
6.79014e-05
0.00205086
0.00212481
-0.000599661
-0.00357601
-0.000560185
9.18419e-05
0.000468343
-0.000191145
-0.000799275
0.000990421
-0.00420864
-0.000755065
0.000140425
0.00482328
-0.00064461
-0.00090641
0.001951
-0.000399981
0.000724589
2.35062e-05
-0.000748095
0.000294021
8.90528e-05
-0.000538846
0.000155772
-0.000320535
-3.32748e-05
0.00035381
0.00101449
-0.00317227
0.00134059
-0.00136406
2.34755e-05
0.00116168
-0.00130523
0.000143551
-0.00147356
0.00191986
-0.000323244
-0.000123057
-0.00066212
-0.00118663
0.00165415
0.000194604
-0.000104271
0.00168277
7.20651e-05
-0.00196066
0.00158382
0.00049885
-0.00012201
-4.52524e-05
0.00191996
-0.00187471
0.00184894
-0.00183811
0.000439255
-0.000450085
0.000127856
-9.0165e-05
0.000600236
-0.000637927
0.00267019
-0.000266035
-0.000832119
-0.00157204
0.00240831
-0.00238877
-0.00021194
0.000192408
-0.0005485
0.0004472
0.00018432
-8.30205e-05
-0.00141103
-0.000151769
0.00098941
6.57722e-05
-0.000786727
0.000720955
-0.000775244
0.00159043
0.000155998
-0.000971189
-0.000481595
0.0015544
-0.000480791
-0.000592013
-0.00192607
0.00173447
0.000134746
5.68483e-05
-0.00139823
2.19255e-05
0.00137631
0.000329028
0.00115007
-0.00183541
0.00035632
-2.65687e-05
0.0002324
0.000147896
-0.000353728
0.0017549
-0.000145031
-0.00149855
-0.00011132
-0.00156389
-0.00355819
0.000446842
0.00467524
0.00026475
-4.6951e-05
-0.000217799
-0.00107482
0.00107622
-1.39651e-06
-0.000764171
0.00267232
4.25733e-05
0.00017861
-0.000221184
-4.22575e-05
0.000446706
-0.000431017
0.000182267
-7.58241e-05
0.000125957
0.00209005
-0.000335149
-0.00100791
0.00155582
-0.000275562
-0.000272346
-0.000600377
-0.00123369
0.00183407
0.000163981
-0.00175333
0.00216251
-0.00241878
0.00200959
-0.000188036
0.000592632
0.000290587
-0.000695182
0.00121747
0.00188575
-0.00225061
-0.000852607
-0.00282262
-0.00103641
0.00269487
0.00116416
0.00250768
-1.18777e-05
-0.00249267
-3.1245e-06
-0.00113551
-0.000583003
0.00130775
0.000410762
-0.000109417
6.27401e-05
-0.00221334
0.00226002
0.00208528
-0.0023619
0.000128369
0.00014825
-0.00140506
0.00323444
0.000716843
-0.00254622
1.9445e-05
0.00117417
-0.00119362
-0.000231104
0.00231351
-0.0020824
0.00062394
0.000848082
-0.00107367
-0.000398351
0.00103831
0.000699225
-0.000425112
-0.00131242
-0.000603152
0.000270085
-1.25805e-06
-0.00130125
0.00130251
0.000373407
-1.34567e-06
-0.00035793
-1.41319e-05
2.64403e-05
-0.00168473
-0.00118883
0.00284711
-0.00193658
0.00107799
5.72261e-05
0.000801371
-0.000168186
-0.00171862
0.00168696
0.000199846
0.00128012
-0.00140735
-0.000853087
0.00098031
0.000393792
-2.03845e-05
0.00141228
-0.00158047
6.51138e-05
0.00196251
-0.000502011
-0.00152561
-0.00786087
0.00171591
0.00225984
0.00388513
0.00141859
-6.30906e-06
-0.000272464
4.89166e-05
0.000223548
-0.00285801
0.00043009
0.00095756
0.00147036
5.64602e-05
0.000270849
-0.000327309
0.000164758
0.0011736
-1.1764e-05
-0.00132659
4.97049e-05
0.00136152
-0.000132356
0.00317089
-0.000325028
-0.0027135
0.000391351
-0.000335214
-5.7483e-05
-0.000240092
0.000260423
3.61285e-05
0.00256158
-0.0024603
0.000412579
-0.000513862
0.00123385
0.000350437
-0.00187607
0.000291785
0.00443039
-0.000453148
-0.0016623
-0.00231494
0.001002
-0.0005538
0.000757887
-0.00120609
5.91047e-05
0.00045079
-0.000442551
-6.73433e-05
2.15037e-05
-1.98305e-05
0.000365462
-0.000367135
-0.000146362
-0.00111293
0.000220647
0.00103864
-0.00149906
-0.00151663
0.00199781
0.00101788
6.50979e-05
-0.00283418
0.00281867
-4.95871e-05
-1.96536e-05
-0.000639059
0.000658713
-0.00146292
-0.000160052
0.00118692
0.000436045
-0.00156719
-0.000578848
-0.000286281
-0.00107369
0.00193882
0.000156068
-0.000426603
0.000270535
0.00170598
-0.00169363
-1.23571e-05
-0.00138573
6.33193e-05
-6.32669e-05
0.00138568
-0.00188016
0.000557769
0.00132239
0.00155141
0.000389035
-0.00247005
0.000529601
-0.000480259
-3.67248e-05
0.000538487
-0.000470058
-1.0201e-05
-0.000895358
0.000206771
0.000733268
-4.4681e-05
-2.83566e-07
-0.000184849
0.000232329
3.56437e-05
-8.31233e-05
0.00129642
-0.000205406
7.5974e-06
-0.00109862
0.000431124
-0.000759501
-0.000386359
0.000277879
-0.00209407
0.00220255
0.00034051
-0.000913249
0.000607384
-3.46448e-05
0.000258882
3.20838e-05
-0.00170065
0.00140969
0.00165089
0.000297771
-0.00194866
0.00109571
-0.00148644
-0.00150062
0.000235414
0.00159474
-0.00032954
0.00236177
-0.00146809
0.00173396
-0.00262765
0.000756851
-0.000529494
0.00180529
-0.00203265
0.000967403
-0.00231432
6.83894e-05
0.00127853
0.000918614
-0.000759192
0.000700962
-0.000860384
0.0014238
-3.41677e-05
-0.00138963
3.7393e-07
-0.00176435
0.00176398
-0.00227669
0.00209565
0.00114844
-0.00034057
0.000592253
-0.000251683
-0.000674209
0.000586444
0.000767233
-0.000679467
0.000983043
-0.00145442
-0.000407406
0.000878785
0.000796353
0.000168202
0.00137393
-0.00233849
-0.00236417
0.00134224
-0.000843616
0.00186554
0.00096151
-0.00151949
0.00135123
-0.000793247
0.000437679
-0.000396714
-0.000635149
0.000594184
-0.000847517
-0.00084458
0.0016921
0.00162818
-0.00259583
0.00242943
-0.00146178
-0.000326742
3.01344e-05
0.00011733
0.000179278
-0.00121111
-0.000629309
0.00184042
0.000247319
0.00029499
0.000333754
-0.000876063
-0.00113591
0.000656808
0.000479102
-0.00231221
0.00191847
-0.0021477
0.00254144
-0.000108089
0.000311251
-5.50787e-05
-0.000148084
-0.000169212
-0.000180497
0.000251117
9.85921e-05
-3.8688e-05
-0.000126862
0.000161669
3.88117e-06
0.00107228
0.000330958
-0.00107062
-0.000332612
-0.00112158
0.00352669
-0.000366054
-0.00203906
-0.000314779
-1.19634e-05
-0.000229255
0.000752502
-6.96583e-05
-0.000453589
-0.000692847
6.59119e-05
-0.000225891
0.000124676
0.00117349
-0.000613872
-0.000522039
-0.00348593
0.00338596
-0.000487301
0.000587277
0.00140112
-0.000329531
-0.0013461
0.000274505
0.00105902
0.000473355
-0.0028344
0.00130203
-0.00184257
0.0016156
0.000226969
0.000915666
-0.000959745
-0.000380084
0.000424163
-0.000469181
0.00313811
-0.000375412
-0.00229352
-0.000668519
0.00144771
-0.000474487
-0.00122219
0.000228224
0.000989974
3.9875e-06
5.50471e-05
0.000105403
-0.00016045
-0.000846511
-0.0024137
0.00298053
0.000279683
-0.00045866
-0.00140699
0.00187098
-5.33025e-06
0.00105009
-0.00108402
-0.000308574
0.000342502
-0.000437203
0.000251227
-0.000211961
0.000397937
0.00103271
-0.000559866
-3.46968e-05
-0.000438152
2.46131e-05
-0.00263985
0.00265163
-3.64e-05
0.000625279
-0.000541296
0.00113188
-0.00114697
1.50912e-05
0.00218084
-0.000752906
-0.00179607
0.000368134
-0.00159716
0.00064076
0.000263558
0.000908209
0.00016133
-0.00106954
-0.00167935
0.00178547
0.00302705
-0.00313317
0.00102822
-0.000680005
4.33133e-06
-0.000352543
0.000313612
0.000183126
-0.00220493
0.00170819
0.000444232
0.000626641
-0.000871298
-0.000199576
-0.0013042
-0.000219871
0.00152407
0.00095539
2.60436e-05
0.00115213
-0.00213356
-0.00136723
6.30303e-05
0.000864257
0.000379352
0.000473135
-0.00168425
-0.0014037
0.00136771
0.000229666
-0.000193672
0.00232281
0.00184926
-9.97255e-05
-0.00407234
-0.00140638
0.00183007
-0.00186527
0.00144159
0.000470411
0.00823321
-0.00772278
-0.000980844
0.00276591
0.000408591
-0.00158539
-0.00158911
-0.00150285
0.000450601
0.00143117
-0.000378917
0.000207709
0.000423275
-0.000190181
-0.000440803
-0.00248558
0.00222915
0.000256428
-0.000996509
0.00258201
-0.000721241
-0.000864828
0.000409024
-0.000229661
0.000685465
0.000657966
0.00208068
-0.000431929
-0.00230671
0.00184463
0.000183151
-0.00202778
-0.000206011
0.00202404
5.75881e-05
-0.00187562
0.00134915
9.29675e-05
-0.00144212
0.000151986
0.0010159
-0.000376586
-0.000791303
-0.000938783
0.00150326
-0.000870389
0.000305915
-0.000446243
-0.000646416
9.61504e-05
-0.000132492
4.40849e-05
8.29503e-05
0.0033629
0.000455063
-0.00196947
-0.00184849
-0.000151309
-0.0012373
0.0011826
0.000641415
0.000919148
-0.00156056
-0.000876673
0.00122987
-0.000353193
-0.000755241
0.000189065
-0.000322425
0.000888602
0.000539385
-0.00209686
-0.000544263
-0.000581985
5.79387e-05
-0.00178497
0.00172703
0.000284378
-5.37454e-05
-0.000230633
0.000427417
-0.000436232
2.07218e-07
8.60831e-06
-0.00233847
0.000253407
-0.00226264
0.00434769
0.000181836
0.000474876
-0.000530176
-0.000126536
0.000352717
5.00632e-06
6.96936e-05
-0.00667572
0.00389854
0.0113524
-0.00857522
0.00288936
0.000415892
9.21099e-05
-0.00339736
-0.000107993
-0.00129863
-0.00145139
3.38508e-05
-0.000117358
8.35069e-05
-0.00157245
-0.000164864
-0.000119744
-0.000542318
0.000532439
0.000129624
0.000166753
-0.000285131
0.000118379
0.000610664
-0.000682339
-0.000125421
0.000197097
0.00212364
-0.0053056
-0.00349375
-0.000509884
2.93787e-05
-0.000341701
0.000822207
-0.00127925
0.00155663
0.000329707
-0.000607085
0.000655837
0.000435219
-0.00045185
-0.000639206
-4.49756e-05
-0.00094226
-0.000280191
0.00126743
-0.00096505
-7.67907e-05
-0.000418623
0.00146046
-0.000127931
0.000105381
-0.00010058
0.00012313
0.000788517
-0.00023489
0.000181217
-0.000734844
6.89506e-06
-8.5845e-05
-2.62319e-06
8.15732e-05
-0.0010394
0.000800188
-0.0013224
0.00156162
-0.00248177
0.000318697
0.00245756
-0.000294487
-0.0002063
-0.000191679
0.000397979
-0.00110539
0.000630881
-0.000104686
0.000579199
-6.93266e-05
-4.63702e-06
8.08586e-05
0.000716749
-0.000307202
0.000473296
-0.000882843
0.000391629
-0.000431005
-0.0011873
0.00122668
-0.000121397
0.000529637
-0.00040824
-6.91926e-05
-0.00106529
0.00198315
-0.000219519
-0.000858351
0.000618235
0.000459636
8.25471e-05
7.46225e-06
-8.70076e-05
-3.00179e-06
-0.000225772
0.000462962
0.000443096
-0.000680287
-0.000602452
-0.000688806
0.000542746
0.000748512
-0.000452291
0.000100813
-0.00127297
0.00162444
0.000689806
0.00135716
-0.00149106
-0.000555906
-2.20644e-05
-0.000772649
0.00073788
5.68335e-05
0.00204808
-0.0016662
0.000872303
-0.00125418
0.0002195
-0.000272594
-0.000870665
0.000923759
-0.000286268
-0.000675853
0.00096212
-0.000349358
-7.49969e-06
0.000356858
-0.000663693
-0.00093812
0.00160181
0.00134031
-0.00121963
-0.000139204
1.85198e-05
-1.82225e-05
-0.000371036
0.000257539
0.00013172
0.00122609
-0.00292549
0.0016994
-0.000499893
0.000317353
0.000631179
-0.00044864
0.000234326
0.000168122
-0.000143035
-0.000259412
0.0001206
-0.00233139
0.00246804
-0.000257256
-5.45719e-05
0.00156718
-0.00148646
-2.61544e-05
0.00023211
-0.000253992
0.00195097
-0.00192908
-0.000338288
-0.00049196
0.000297578
0.00053267
-0.00064506
-0.000219464
0.000578256
-2.96927e-05
0.000885314
-0.000136936
-0.000718685
0.000217385
0.00123245
-0.00135067
-9.91616e-05
0.00120515
-0.00147254
8.57238e-05
0.000181674
0.000847392
0.000198031
-0.000350277
-0.000695146
0.00180503
-0.00159249
-0.000436503
0.000223968
-0.000100083
5.4632e-05
-2.38759e-05
0.00270082
0.000163501
-0.00182521
-0.00103911
-0.000155121
0.00131072
0.000165164
-0.00132077
-0.00125803
0.000594335
-2.42522e-05
-0.00111072
0.000336314
0.000798654
-3.29791e-06
5.49307e-05
-0.00112257
-8.72474e-05
0.00115489
0.000926093
-0.000871162
8.57591e-05
0.000840334
0.00116591
0.00183757
-0.00195729
-0.00104618
-8.35739e-06
-0.00149044
0.0014988
-0.000152073
0.000108702
-0.000134545
0.000177915
-8.79292e-05
-4.69123e-06
-0.00201255
0.00186805
0.000611907
-0.000467409
0.00181209
0.000435537
-0.000864801
-0.00160159
0.00120836
-0.00200021
0.000795462
0.000339942
0.000863015
-0.00215591
0.00160167
-0.000308773
0.000504243
0.00262548
-0.000513275
-0.00261645
-0.00171376
0.00309709
-0.00581095
0.00442762
-0.00162727
0.00213152
-0.00212636
0.00111122
-9.89129e-05
0.00111405
7.14653e-05
-0.00113962
0.00128554
-0.00235777
-0.000141041
0.00250719
-8.37283e-06
2.34474e-05
-0.00217922
0.00128353
0.000872241
-0.00165093
0.00166232
-6.69901e-05
5.55993e-05
0.000845354
0.00301017
-0.00261852
-0.000884769
0.000465361
2.38462e-05
0.000395562
-0.00204108
0.00124269
0.000821844
0.000501892
-0.00121925
-0.00132373
0.000535246
0.000224032
-0.00081114
5.18627e-05
0.000232585
0.000743745
-0.000554221
-0.000422108
9.7099e-05
-0.000292932
-0.000259984
0.000455817
0.000369142
-0.000816938
-0.000200792
0.000648588
2.5563e-05
0.00101719
-0.00135836
0.000315603
-0.00095361
0.00103937
-0.00107102
0.00102756
0.00128614
0.00156447
-0.00182846
0.00166852
-0.00140453
-0.000900304
-0.000777023
0.00145797
0.000290148
-0.00174812
0.00167801
-0.00187879
0.000200779
0.00141672
-3.17216e-05
3.33438e-05
-0.00141835
-0.00101952
-0.0011643
0.00128034
-0.000251003
-0.000630247
0.000117343
-0.000213481
0.00186571
-0.00176957
0.000767225
0.00013818
0.00036446
-0.00126986
-0.00013485
0.000670096
-0.00165355
0.00133826
5.57868e-05
0.000259502
-0.0011023
0.00121964
0.000651771
-0.000786621
0.00266047
-0.000436529
-0.000370816
-0.00185313
-0.000225671
0.000218022
0.000647297
-0.000639648
0.00119223
0.000292692
-0.00148492
-0.00210938
-5.36932e-05
0.00237035
-0.000207273
-0.00015174
-0.000432701
5.29213e-05
0.00053152
-0.000173939
0.000360338
-0.000186399
0.000662931
-0.000535363
-0.000127569