/*--------------------------------*- C++ -*----------------------------------*\
| =========                 |                                                 |
| \\      /  F ield         | OpenFOAM: The Open Source CFD Toolbox           |
|  \\    /   O peration     | Version:  v2012                                 |
|   \\  /    A nd           | Website:  www.openfoam.com                      |
|    \\/     M anipulation  |                                                 |
\*---------------------------------------------------------------------------*/
FoamFile
{
    version     2.0;
    format      ascii;
    class       volVectorField;
    location    "0.497436";
    object      U;
}
// * * * * * * * * * * * * * * * * * * * * * * * * * * * * * * * * * * * * * //

dimensions      [0 1 -1 0 0 0 0];


internalField   nonuniform List<vector> 
83563
(
(0.0224271 0.340091 2.81901e-06)
(-0.0456397 0.0657211 0.000482821)
(-0.111953 0.0663681 9.47163e-05)
(0.0241998 0.0597284 0.00126589)
(0.0025084 -0.142492 -0.000892409)
(-0.0136857 0.0394133 0.00277068)
(0.401269 -0.0414224 0.000215741)
(0.350658 -0.00156779 -0.000122411)
(0.117281 -0.173444 -0.000924234)
(-0.0144336 -0.0519089 0.00354688)
(0.150204 -0.127246 -0.00114909)
(0.357708 -0.0612768 0.000130905)
(0.981727 0.289415 -0.0150526)
(0.120306 0.0373242 0.000197081)
(0.348537 0.00169117 -0.000567939)
(0.228293 -0.257736 -0.00258326)
(0.0636811 -0.0245356 -0.000806075)
(0.121071 0.027594 0.000251518)
(0.257315 0.0438557 0.000264589)
(0.132692 0.0449313 6.34947e-05)
(0.180805 0.00970912 -0.000220438)
(0.132383 0.0417715 -0.000125606)
(0.403022 0.0849479 0.00159485)
(0.227215 -0.104425 0.00839533)
(0.0649712 -0.0187059 -0.00103748)
(0.264045 0.0204663 -0.000232096)
(-0.000795565 -0.101618 -0.000623964)
(-0.0228776 -0.177883 0.00507132)
(0.266722 0.023886 -0.000292255)
(0.080321 -0.053934 0.000688204)
(-0.0141182 -0.0129848 0.000215601)
(-0.0177694 -0.200776 -0.00112655)
(0.0194716 -0.244215 -0.00163138)
(0.153745 -0.0355044 0.000120065)
(0.127208 0.139573 0.000186968)
(-0.00353291 -0.0755272 0.00826788)
(0.0140584 -0.0113765 -0.000937289)
(0.0449211 -0.0557731 -0.00149661)
(0.081363 -0.0271391 -0.000676862)
(-0.382836 0.352333 0.00046353)
(0.152129 -0.0122884 -0.000467428)
(0.256797 0.0165565 -0.00027612)
(0.0172843 -0.132638 -1.64763e-05)
(0.259538 0.0181775 -0.00022473)
(1.1741 0.0740863 -0.000778869)
(0.432264 0.246903 -0.000398427)
(0.0719861 -0.218158 -0.00332194)
(0.222582 -0.0258853 -0.000864238)
(0.3302 -0.00101747 -0.000354247)
(0.00745068 -0.404751 -0.00298147)
(-0.145101 -0.47376 -0.00843206)
(0.254991 0.0210345 -0.000245269)
(-0.0677475 0.349458 -0.00153021)
(-0.417857 0.466132 0.0259588)
(0.259912 0.171158 -5.79695e-05)
(-0.241425 -0.893215 0.00959183)
(0.180707 -0.0606458 -0.000610003)
(0.0562154 0.488728 0.0141611)
(-0.231015 0.637647 0.0224435)
(0.32426 0.195049 -4.97712e-05)
(-0.615631 0.550671 0.0649466)
(0.0191073 0.11357 0.000852417)
(0.138223 -0.000204739 -0.000466286)
(0.0393428 -0.0509345 0.00164446)
(-0.577355 -0.130289 0.00718034)
(0.617854 0.351744 -0.035922)
(-0.374298 -0.440573 0.0122503)
(0.331236 0.190841 -1.95116e-05)
(2.00063 -0.299284 0.0569053)
(0.0668075 -0.551441 -0.00780882)
(0.0761528 -0.0749503 0.00244955)
(0.853395 0.336309 -0.0139384)
(0.109426 -0.0118997 -0.000524337)
(-0.94345 0.0696661 0.00128525)
(0.091645 0.0374714 -0.000143812)
(-0.264355 0.0337184 -0.00518207)
(0.070045 0.124241 -0.00471628)
(0.129742 -0.0272239 -0.000643758)
(0.065605 -0.182261 -0.000877814)
(0.196086 0.770319 -0.0327257)
(-0.106233 0.309057 0.000384851)
(0.422418 -0.0145068 -0.000434303)
(0.162817 0.0807838 9.29422e-05)
(-0.0367955 -0.510851 0.00263185)
(0.0011122 0.242442 2.45402e-05)
(0.111955 -0.213868 -0.001591)
(0.0041239 0.00403201 0.000155046)
(-0.0661066 0.211685 0.00748989)
(0.13637 -0.14736 -0.00157863)
(0.00249923 0.217439 -1.444e-06)
(0.389301 0.00797744 0.000535563)
(0.351222 -0.00748985 -0.000187598)
(0.80041 0.507828 0.00269541)
(0.13161 -0.184766 0.00594203)
(0.254349 0.2132 0.00496694)
(0.415113 0.0313814 -0.000262546)
(0.217658 0.268201 -0.00818454)
(0.785746 0.447033 0.0027491)
(-0.000981224 -0.0206418 -0.000636727)
(0.394821 -0.0271199 3.90866e-05)
(0.415361 0.25161 -0.000199632)
(0.0137255 -0.0592023 -0.000310159)
(0.221448 -0.133121 -6.38871e-05)
(0.0374159 -0.170491 -0.000469639)
(0.0878377 -0.224413 -0.000995525)
(0.069037 -0.190076 -0.000674321)
(0.0781946 -0.209076 -0.000860831)
(0.302307 0.0496752 -0.000212502)
(-0.447262 0.570703 0.0280213)
(0.0856729 0.018322 0.000348192)
(0.329106 0.18808 9.0736e-05)
(0.29632 0.155595 7.27306e-05)
(0.37294 -0.0234286 -0.000555934)
(0.0665676 0.110807 0.00258113)
(0.000697662 -0.0306369 -0.00118752)
(0.357792 0.0240625 6.2875e-06)
(0.590505 0.215661 -0.0036478)
(0.362071 -0.000448379 -0.000783129)
(0.0951706 -0.16544 -0.00248112)
(0.441169 0.0207292 5.2374e-05)
(0.0685056 -0.205729 -0.0008209)
(0.897025 0.0488141 0.00196619)
(0.322306 0.163252 -0.000100136)
(-0.174664 -0.273409 0.00374046)
(0.51675 0.0676089 -0.000418106)
(0.325246 0.0182183 -0.000136549)
(0.494354 0.135102 6.51621e-05)
(0.235416 -0.124052 -0.000546111)
(0.391791 0.0753071 -0.000134996)
(-0.00416075 0.057489 0.000898756)
(0.243405 -0.41166 -0.00656478)
(0.503759 -0.0292172 0.0010295)
(0.209635 -0.085905 0.00170789)
(0.0254362 0.0130882 -0.0268972)
(0.352952 0.017324 -0.000137104)
(0.181627 -0.0027013 -0.000234877)
(-0.0656686 0.4299 -0.00219066)
(-0.0643344 0.0250565 0.0012218)
(0.363216 0.0319789 3.12592e-05)
(0.294982 -0.505149 -0.00553322)
(0.244232 -0.222782 -0.000717816)
(0.624373 -0.382021 -0.00598143)
(0.33696 0.00695281 -0.000164686)
(0.248637 -0.214931 -0.000694737)
(0.216817 -0.0755117 0.00226263)
(0.77827 0.845522 0.0523368)
(0.334053 0.0543257 -0.000385672)
(0.0705637 0.0376868 0.000110983)
(0.362848 0.0634587 -2.67826e-05)
(0.083403 0.0451646 -0.0023955)
(0.124316 -0.26545 0.00450277)
(0.124121 -0.00145052 -0.000605255)
(0.143577 -0.0737936 -0.000576449)
(0.411236 0.012775 -0.000111315)
(0.263783 0.0287934 -0.000427663)
(0.316799 0.0225431 -0.000124552)
(0.329194 -0.00192728 -0.000625359)
(0.0195726 -0.00146385 0.000190864)
(0.445764 -0.0021823 -4.8326e-06)
(1.50917 0.741442 0.00929965)
(0.388874 0.00757591 0.000180741)
(0.159147 0.0607147 5.8185e-05)
(0.163347 -0.0223695 -0.000139753)
(0.348149 0.019392 -0.000689121)
(0.415701 0.0326285 5.15346e-05)
(0.104358 0.278421 -0.0011063)
(0.366763 0.143283 0.000151938)
(0.469021 0.0461494 0.0073174)
(0.414495 0.0237768 5.108e-05)
(0.403045 0.049307 0.000512627)
(0.350899 -0.00689181 -0.000769799)
(0.338513 0.0208309 -0.00133734)
(0.469019 0.0782368 -0.00251757)
(0.346435 0.010054 -0.00374132)
(0.433996 0.0444528 -6.32387e-05)
(0.0115364 0.0516721 0.00135796)
(0.135912 0.00552208 0.000403306)
(0.421472 0.0504284 0.000123479)
(0.205384 0.143484 0.000126583)
(0.39337 0.0682344 5.91255e-05)
(0.293334 -0.0253913 -0.00113231)
(0.104546 -0.054474 2.31299e-05)
(0.39744 0.101319 7.73822e-05)
(0.00985278 -0.159374 -0.00124159)
(0.13754 0.042337 0.00406293)
(0.0233933 -0.258063 0.00618334)
(0.0451934 0.151899 0.00215337)
(0.117258 -0.00692398 -0.000422177)
(-0.0943975 1.21607 -0.00312225)
(-0.135541 0.373484 -0.000157597)
(-0.0719755 0.269911 -0.000110118)
(0.129163 -0.492421 0.0158059)
(0.461392 0.0005016 0.000240054)
(0.167495 -0.0973839 0.000339638)
(0.376938 -0.00202893 0.000295929)
(0.27853 -0.0792968 0.000491887)
(0.316658 0.0336349 4.31806e-05)
(0.393283 0.000377833 0.000300249)
(0.175975 0.0262345 -0.000358114)
(0.335353 0.0279219 -0.000122518)
(-0.289813 0.276783 0.00102221)
(0.125511 0.00102094 0.00236934)
(-0.226054 0.327386 0.00166684)
(0.346711 0.0306069 8.95571e-05)
(-0.252091 0.336131 0.00113353)
(-0.0966788 0.106396 0.00328833)
(0.322359 0.0386763 -0.000114768)
(0.465915 0.116522 0.00458174)
(0.244112 -0.0343797 -0.000567431)
(0.19934 -0.00584643 -5.56818e-05)
(0.334513 0.0356431 -8.40689e-05)
(0.1093 0.977456 0.00553297)
(0.26366 0.141987 -7.43087e-05)
(0.351217 0.0141849 -5.31553e-05)
(0.367409 0.0524362 1.07087e-05)
(0.181666 -0.0017632 -7.20341e-06)
(0.33618 0.00972265 -0.000133674)
(0.420702 -0.0249733 -0.000301343)
(0.189995 -0.00547046 6.50844e-05)
(-0.0967566 0.0152472 0.000795561)
(0.347764 0.00358504 9.8424e-05)
(-0.00487589 -0.0355013 -0.00141595)
(0.322341 0.0236734 -0.000348609)
(-0.100005 -0.086894 0.00139943)
(-0.356948 0.909767 0.00805362)
(0.342398 -0.00355715 -5.9407e-05)
(-0.279449 0.522271 0.00104721)
(0.050375 -0.00445731 -0.000443364)
(0.362217 0.0450018 -3.76277e-05)
(0.0498493 0.785442 0.00258372)
(0.053722 -0.0225916 -0.000628004)
(0.331251 0.029703 -0.000479348)
(0.330177 0.0220155 -0.000212457)
(0.318306 0.0338942 -0.000255141)
(0.499784 0.0252332 0.0036244)
(0.161223 -0.0214008 -0.000318274)
(0.333188 0.0226102 9.43271e-05)
(0.152875 -0.0965738 0.00171045)
(0.125459 -0.0802287 -0.000124706)
(-0.00283749 -0.00774982 0.00141058)
(0.380796 0.0480902 -5.79421e-05)
(0.224954 0.0110357 -0.000102594)
(0.335915 -0.00723289 -0.000494675)
(0.369057 0.0110757 -2.62386e-06)
(0.478209 0.137797 0.000729603)
(-0.0264306 0.0480229 -0.000400814)
(0.847213 0.250372 0.00146939)
(0.471101 0.031016 0.000180676)
(0.0354879 0.339005 -0.00347011)
(0.147296 0.000468873 -0.000483228)
(0.282092 0.114984 8.96972e-05)
(-0.00161767 0.0686167 -0.000416931)
(0.0349719 0.245916 0.000534947)
(0.388754 -0.00697448 -0.000165749)
(0.0088308 0.246 -0.000116209)
(0.166836 0.0164256 0.000133017)
(0.346436 0.00769341 -0.00045539)
(0.391091 -0.0266306 0.000102342)
(0.279034 -0.0473321 -0.000459753)
(0.0211288 0.261246 0.000331094)
(0.0210588 0.25777 0.000522463)
(0.216981 0.0021152 -0.000191018)
(0.697359 0.222295 -0.00173917)
(0.378321 0.0584985 3.82504e-05)
(0.00218049 0.10678 -0.000340148)
(0.191644 -0.0365603 0.00040478)
(0.382993 0.0378935 6.89243e-05)
(0.361291 0.278336 -0.000776849)
(0.415254 0.0307199 7.86414e-05)
(0.342801 0.00488238 0.000236056)
(0.365485 0.268637 -0.000573271)
(0.365734 0.283925 -0.000869572)
(0.19078 -0.252925 -0.000488934)
(0.152925 0.0889492 0.00183289)
(0.353118 0.281501 -0.000874913)
(0.211571 -0.0124471 0.00140986)
(0.346 0.354041 -0.00151903)
(0.337586 -0.0230759 -0.000241035)
(-0.353514 0.144764 0.000638382)
(-0.00135593 0.0783036 -0.000519452)
(0.391067 0.0819602 0.000261604)
(-0.239312 0.410541 0.00135939)
(-0.0586855 0.281469 9.17604e-05)
(-0.149384 0.29569 0.0016731)
(0.166637 -0.130493 0.00301214)
(-0.0303999 0.0505889 -0.000443816)
(0.18915 0.0387665 0.00308523)
(0.394819 0.294167 0.000423454)
(0.150428 -0.0675615 0.000616305)
(0.0397179 -0.0930432 -0.00105772)
(0.140337 -0.125939 0.00294758)
(0.0994857 -0.0800787 -1.49461e-05)
(0.360931 0.306915 -0.000236915)
(0.331309 0.0372348 -0.000329691)
(0.0296411 -0.142667 -0.00023306)
(-0.323635 0.237722 0.00181848)
(0.319076 -0.016388 -0.000747721)
(0.475006 0.0294239 0.000208845)
(0.000609159 0.0742043 -0.000667393)
(0.351456 -0.0260578 -0.000579232)
(-0.0496418 0.00981496 -0.000533698)
(0.294948 -0.0225947 -0.000638702)
(0.375477 0.0170186 -1.8192e-05)
(-0.0022586 0.022063 8.78351e-05)
(0.00201711 0.022258 8.05285e-05)
(0.351393 0.327107 -0.000356173)
(0.350836 0.344637 -0.000987514)
(-0.341715 0.497234 -0.00917655)
(0.395998 0.00229714 0.000534038)
(0.383892 -0.0428225 -0.0019139)
(0.157638 0.333414 -0.000331434)
(0.362549 -0.0011982 -0.00073075)
(0.0707305 0.727402 -0.0195265)
(0.213295 -0.132276 0.000317722)
(0.226153 0.472435 -0.00323894)
(0.0461249 0.125499 0.000502514)
(0.619335 0.315514 -0.00408671)
(0.148095 0.393519 -0.000372654)
(0.172506 0.360354 -0.000654433)
(0.339377 -0.000811751 -0.000539896)
(0.480931 0.0734157 0.000125718)
(0.133695 0.349895 -0.000482988)
(0.0677308 -0.0807911 -0.00115531)
(0.167917 -0.0312042 0.000280815)
(0.343025 0.00175675 -0.000648844)
(0.178356 0.356618 -2.1047e-05)
(0.413641 0.195257 -0.000387603)
(-0.679725 -0.124251 0.00551064)
(0.351422 0.035537 3.80445e-05)
(-0.0706527 0.1431 -0.00436742)
(0.403095 0.0278708 -2.8394e-05)
(-0.0172206 0.0174991 0.00137018)
(0.393625 0.0587973 0.000412578)
(0.866193 0.114169 -0.00481902)
(-0.0463047 0.364095 3.09427e-05)
(0.115776 -0.060335 -0.000484377)
(0.150986 0.150649 0.00181436)
(-2.59988 2.29071 -0.102764)
(0.403183 0.0230107 -0.000247188)
(-0.0238908 0.0223544 -0.00051058)
(-0.253191 0.304964 -0.0154408)
(0.971679 0.639796 0.0385707)
(0.206744 0.248751 -0.000103266)
(4.39214e-05 0.0909108 0.00012397)
(0.405075 0.0231408 -9.9506e-05)
(0.143343 -0.0775416 -8.75169e-05)
(0.418371 0.0227482 2.36913e-05)
(0.0854825 0.00513489 0.000599843)
(0.366618 0.0126389 0.000126344)
(-0.00564185 0.0973646 0.000100716)
(0.329736 0.0233904 -7.79613e-05)
(0.393733 -0.0304965 -0.00174405)
(0.0639435 -0.0753251 -0.000453058)
(0.00101237 -0.18428 -0.00405776)
(0.63041 0.0222832 -0.00540088)
(0.0965336 0.0594574 0.000328176)
(-0.134987 0.0187082 0.0032107)
(0.37657 0.084951 -1.19772e-05)
(0.364208 0.00259542 -5.81651e-05)
(-0.419996 0.164401 0.00862847)
(0.695002 0.275609 -0.00305237)
(-0.250916 0.167771 0.00384614)
(0.674983 0.0275294 0.00328514)
(0.526707 0.0686939 0.00407847)
(0.650254 0.0121019 0.00343069)
(-0.184731 -0.194558 0.00919655)
(-0.11972 -0.262742 0.00543369)
(0.364439 -0.00137374 0.000232344)
(0.423856 0.000624017 -0.00345125)
(0.197403 -0.0274523 -0.000310419)
(0.370692 0.00352 -0.000312389)
(0.270143 0.0303935 -0.000450548)
(0.345446 0.00348687 0.000200532)
(0.196427 -1.46164 0.0703512)
(0.145576 -0.976599 0.0306671)
(0.329422 -0.0131493 -0.00102333)
(0.614533 -0.115514 -8.10231e-05)
(0.33832 0.0265975 -0.00018403)
(0.151227 0.0129857 -0.000180143)
(0.414791 0.0180923 6.32332e-05)
(0.020103 -0.100029 -0.00148614)
(0.266118 0.137784 0.000249221)
(-0.081835 0.352854 -0.000793201)
(0.0503748 -0.277819 -0.0018925)
(0.590621 -0.0836237 0.00384489)
(0.709088 0.152062 0.00396624)
(0.1332 0.0182751 0.00215358)
(0.0391023 0.216099 0.000396983)
(0.673183 0.0449192 0.00315362)
(0.351105 0.107172 0.000789379)
(0.00821996 0.248865 0.0003697)
(0.0596813 0.0278505 0.00140407)
(0.081816 0.042193 0.000416792)
(0.698164 0.115676 -0.000242193)
(0.412021 0.00344844 -0.00240811)
(0.371828 0.0411747 0.000367836)
(0.403751 0.0349166 3.3937e-05)
(0.358482 -0.00598986 -0.000163953)
(0.344845 0.0172029 -0.000261421)
(0.372328 0.000351813 -2.3278e-05)
(0.47425 0.00344556 -0.00473096)
(0.297335 0.0250026 -0.000119174)
(0.132083 -0.00289316 -0.000619583)
(0.395693 -0.103482 -0.00434555)
(0.655161 0.0533245 0.000575076)
(0.134035 0.0237264 0.000363254)
(0.322854 -0.519078 0.0257483)
(0.157319 -0.000432155 -0.00238438)
(0.0226492 0.200237 0.000163339)
(0.33136 0.0155251 -0.00153651)
(-0.0269918 0.647087 -0.0103464)
(0.322972 -0.00168562 -0.00112831)
(0.394387 0.298049 0.000794256)
(0.0688143 0.0164998 0.00102263)
(0.0427123 0.479118 -0.00609469)
(-0.363418 0.476194 0.000207838)
(0.0484684 0.0134601 0.00163768)
(0.00152404 0.220707 0.000261439)
(0.651059 0.108404 0.0067007)
(0.0256161 0.0841694 0.00170261)
(0.0679596 0.0843983 0.000807064)
(0.0391567 -0.00791478 0.00193494)
(0.158114 0.856643 -0.0326956)
(0.319123 -0.0167135 -0.000102064)
(0.404912 0.0874661 0.00119151)
(0.0260085 0.856756 -0.00737518)
(0.363453 0.0877357 0.00106152)
(0.0930341 -0.0310415 -0.000456632)
(0.405788 -0.0591867 -0.00136259)
(0.435995 0.0172683 7.45119e-05)
(0.341538 0.00404219 -0.000125349)
(0.262008 -0.0964596 8.45241e-05)
(0.383979 0.0195779 0.000162822)
(0.347428 0.0364361 -0.000216953)
(0.470978 0.373442 0.00477275)
(0.319946 -0.0031773 -0.000440096)
(0.385227 0.0875443 0.00423747)
(0.259251 0.12711 9.98429e-05)
(0.372373 -0.0111952 -0.000160885)
(0.0210122 0.26121 -0.00172174)
(0.385588 -0.00446482 -0.00080918)
(0.0153183 -0.159214 -5.76678e-06)
(0.490223 0.0413139 -0.00383387)
(0.362968 0.0177449 -5.58905e-05)
(0.376295 -0.0927554 0.000651655)
(0.323895 -0.0228582 9.56749e-05)
(0.0119984 -0.151027 3.86477e-05)
(0.346703 -0.0713637 0.00080333)
(0.454698 0.0138525 0.00190438)
(1.33522 -0.589679 0.0416435)
(0.335659 -0.0558269 0.00175205)
(0.0705665 -0.0144937 0.000425637)
(0.356242 0.0125407 -0.000276336)
(0.0769329 -0.00398637 0.000628237)
(0.410364 0.0672345 0.000274605)
(0.386952 0.00653658 -2.98012e-05)
(0.4722 -0.0797786 0.000655333)
(0.0193639 -0.143479 -0.000133506)
(0.0421967 -0.017079 0.000497216)
(0.421551 -0.100741 8.78471e-05)
(-0.0363278 0.287304 0.00097979)
(0.759583 -0.138986 0.0205089)
(0.169188 -0.0813438 -0.00088571)
(0.0819817 -0.00282964 0.00039339)
(0.00205213 0.230221 -2.20974e-05)
(0.201984 -0.0475571 -0.00059807)
(0.269299 0.128226 0.000117318)
(0.319102 -0.0117517 0.00015369)
(0.159859 0.00626473 -0.000187305)
(0.324305 0.0161996 -0.000215812)
(0.323678 0.0216161 -0.000430765)
(0.357036 0.00990843 -0.000235102)
(0.0831778 0.027567 0.000131267)
(0.360364 -0.00274627 -6.55073e-05)
(0.320124 0.0163478 -0.000128275)
(0.419289 0.12616 -0.000122525)
(0.331502 0.0154753 -0.000200247)
(0.00351289 0.255577 -1.469e-05)
(0.00164907 0.249024 -4.20297e-07)
(0.186011 -0.0148275 0.00141696)
(0.00083871 0.24495 -9.85772e-06)
(0.0216347 0.0684593 0.000618272)
(0.332735 0.0545614 0.000117138)
(0.000526625 0.221452 -1.19159e-05)
(0.379972 0.0169133 -0.000130481)
(0.0282141 -0.0945459 0.000690089)
(0.344941 -0.0363035 -0.000444221)
(0.379838 0.0513634 0.000205849)
(0.344565 -0.0913386 0.00218343)
(0.349058 -0.0276507 -0.000523113)
(0.348734 0.0178739 -8.32454e-05)
(0.257964 0.145716 -0.000176249)
(0.260642 0.144545 -7.79486e-05)
(0.603856 0.215268 -0.00522945)
(0.443805 0.00919775 -0.000279539)
(0.449854 -0.00162759 0.000104992)
(0.258312 0.139598 -0.000123173)
(0.0592206 -0.124203 -0.000301555)
(0.0454252 0.176322 0.000180044)
(0.26721 0.138476 9.72641e-06)
(0.33964 -0.0319616 -0.000619693)
(0.380736 0.0791744 0.000285869)
(0.410001 0.00398295 -0.00297168)
(0.129378 -0.0817103 0.00027843)
(0.203318 0.257552 -0.000505196)
(0.376683 0.0639084 9.70742e-05)
(0.00128502 0.0758499 0.000116177)
(0.346078 0.102002 -0.000310131)
(-0.163239 -0.0541628 0.00165322)
(0.187047 0.188919 0.000122786)
(0.364511 0.0858909 -0.0012873)
(0.00307587 0.0685579 0.000148432)
(0.00615743 0.0384708 0.000367196)
(0.031781 0.00265644 0.000465605)
(0.159395 0.134687 -7.0884e-05)
(0.442424 0.0322637 7.06034e-05)
(0.00231008 0.0740672 0.000145021)
(-0.28558 -0.20332 -0.000687985)
(0.3135 -0.0690577 0.00245044)
(0.159774 0.165723 -0.000128491)
(0.16285 0.189394 -9.25567e-05)
(0.541891 0.384455 0.00213626)
(0.307718 0.0305378 -0.000547005)
(0.394944 0.0408588 8.36934e-05)
(0.38299 0.0523117 9.22856e-05)
(0.138519 0.0535795 -7.07987e-05)
(0.493924 0.0487952 0.00014834)
(-0.625072 -0.393338 0.00501813)
(0.189137 0.130248 0.000985876)
(0.0304683 0.0331829 0.00042083)
(0.456465 0.0239969 6.21268e-05)
(-0.121504 0.275316 0.000258281)
(0.0783986 0.197023 0.000211616)
(0.0509391 0.12136 0.000397362)
(0.214005 -0.0208697 -0.000237336)
(0.348641 0.00136468 7.72782e-06)
(-0.401504 -0.0744697 -0.00738872)
(0.412579 -0.00381181 -0.000396183)
(0.521833 0.0504847 0.000375591)
(0.618582 0.0661905 -0.00255163)
(0.0312808 0.21769 0.000526046)
(0.516927 0.048611 0.000203976)
(0.512415 0.294279 0.0050426)
(0.28837 -0.0778878 -0.000600034)
(0.182103 -0.0421202 0.000606241)
(0.262284 -0.117842 0.00195562)
(0.123546 0.219618 0.000462206)
(0.27896 -0.133435 0.0024093)
(-0.466152 0.246739 0.0205644)
(0.328663 0.102321 -0.000103997)
(0.328642 0.041969 -6.62216e-05)
(0.455905 0.124034 0.0007807)
(0.329677 0.0441037 -0.000100644)
(0.970115 1.12669 0.00729181)
(0.345741 0.0330909 -5.97516e-05)
(0.368378 0.0513654 1.49155e-05)
(0.0414875 -0.0309339 -0.00251576)
(0.665025 0.172057 0.00236141)
(0.301687 0.384596 -0.00150026)
(0.137222 -0.000405491 -0.000451793)
(0.381972 0.114195 0.000312208)
(-0.0410164 -0.510723 0.00466163)
(0.34641 -0.00553529 -0.000618928)
(0.340546 -0.0164082 -2.89968e-05)
(-0.18032 0.00340935 0.00156874)
(0.218333 0.00356003 -0.000259821)
(0.335115 0.179985 -0.00305151)
(-0.023234 0.00967209 0.00231932)
(0.353981 -0.0788734 -0.00178017)
(0.346104 0.00462242 -0.000677485)
(0.326638 -0.196618 -0.000955383)
(0.168859 0.221544 4.34556e-05)
(0.170919 -0.0351424 -0.000464422)
(0.2645 0.14797 -0.000391216)
(0.173953 0.413515 -0.00524027)
(0.407354 0.0114777 6.72499e-05)
(0.0548157 0.0457197 0.000521356)
(0.191768 -0.0189174 0.000376585)
(0.443326 0.452699 -0.00105956)
(0.107974 0.0347944 0.00107701)
(0.154726 0.00743072 0.000677211)
(1.98076 -0.839559 0.123267)
(0.538187 -0.0114024 -0.00471517)
(0.349231 0.00577723 -0.000203181)
(0.0380953 0.0105729 0.000168125)
(0.259909 0.137384 7.27634e-07)
(0.12913 0.017581 -0.000339614)
(0.0796925 -0.0519778 -0.000935001)
(0.136521 0.0473887 -9.25162e-05)
(1.30938 -1.88644 0.245043)
(0.0974659 -0.0400982 -0.0007428)
(0.357715 0.0563158 -0.000302266)
(0.077495 -0.11173 -0.000758696)
(0.0493984 0.200376 0.000488983)
(0.247511 0.0628644 -0.000833621)
(0.0257553 -0.00687063 0.000454458)
(0.0966269 -0.091298 -0.000710346)
(0.00283947 -0.0344792 -0.000927986)
(0.0812699 0.140128 0.000524406)
(0.277217 0.215622 0.00032767)
(0.0148808 0.0868645 0.00323676)
(0.18548 0.0348351 -0.000227888)
(0.0030461 -0.0258809 -0.00098858)
(0.16143 -0.0744172 -0.000831354)
(0.213754 -0.0832049 -0.000336891)
(0.122043 0.0326779 -0.000254146)
(0.2818 0.198854 -0.000894211)
(0.0767181 -0.122392 8.5878e-05)
(0.00564468 -0.0411026 -0.00095738)
(0.0897159 -0.0413275 0.00211388)
(0.160158 0.0145687 -0.000281618)
(0.326816 -0.00597173 -0.000145077)
(0.351948 -0.00374777 -0.0001866)
(0.172709 0.000101156 0.000141651)
(0.495261 0.205941 0.00212347)
(0.0530069 0.217951 0.000499729)
(0.0567963 0.185669 0.000402621)
(0.182463 -0.000661119 1.7081e-05)
(0.161213 0.290497 -0.000353616)
(0.367062 -0.0617097 -0.00143702)
(-0.0204861 -0.110739 0.00248423)
(0.564024 0.0288429 0.00835662)
(0.0670556 0.195206 0.000314959)
(0.0590789 -0.0383827 -0.000376365)
(0.389485 -0.0110239 -0.000127316)
(0.260468 0.105697 0.000596076)
(0.366753 0.0544664 -0.000125099)
(0.16852 0.0455162 -0.000303112)
(0.0569372 0.182572 0.000407342)
(0.171071 0.0112181 -0.000374205)
(0.318266 0.00942295 -0.000949658)
(0.345711 0.128483 -6.88961e-06)
(0.0988874 -0.0761133 0.00163227)
(0.347068 -0.0101306 -0.000487662)
(0.00938682 -0.0306476 -0.00114945)
(0.458104 0.0810709 0.00234763)
(-0.0565152 0.258991 0.000512359)
(0.143853 0.267527 -0.000245339)
(0.189728 -0.0796523 -0.000790336)
(0.00320309 -0.0372653 -0.000893401)
(-0.0150688 0.268023 0.000685955)
(-0.0104512 0.289665 0.000628979)
(-0.0186883 0.293752 0.00076514)
(0.157611 -0.218726 -0.00148727)
(0.32312 -0.00506242 -0.000468537)
(0.0235114 0.0200657 0.000422978)
(0.00592541 -0.0392782 -0.000980642)
(0.151719 -0.265829 -0.00139705)
(0.958059 -0.846939 0.0314523)
(0.149888 0.263305 -0.000292791)
(0.157603 0.272672 -0.000300764)
(0.206242 0.40437 -0.000493815)
(0.517421 0.124397 0.000603526)
(-0.580894 0.68911 -0.00637568)
(0.523617 0.119799 0.000415204)
(0.329365 -0.0162847 -0.000114549)
(0.355992 0.0180912 -0.000936746)
(0.366389 0.0476877 -3.14306e-06)
(0.262426 -0.179443 -0.000615127)
(0.319261 0.00436666 -0.000349006)
(-0.373395 0.139355 -9.774e-05)
(-0.0789569 -0.0998711 -0.000194879)
(0.280962 -0.177757 -0.000497018)
(0.281398 -0.190273 -0.000426557)
(-0.246381 0.39519 0.015416)
(0.0338762 0.101882 0.000304268)
(0.0026526 -0.157645 -0.000458543)
(0.132402 -0.0476592 -0.000574354)
(0.175198 0.00619231 0.00108017)
(-0.0168638 0.323302 0.000582841)
(0.2834 -0.174702 -0.00036274)
(0.340581 0.0208342 9.34918e-05)
(0.266023 -0.188836 -0.000618996)
(0.264672 -0.223902 -0.000493629)
(0.422335 0.0408169 -0.000203375)
(0.32964 0.189159 4.44796e-05)
(0.175861 -0.12398 0.00202746)
(0.33241 0.186311 5.4057e-05)
(0.392888 0.0366664 3.6211e-05)
(0.0212046 -0.126343 0.000644781)
(-0.212594 0.281944 0.0229156)
(0.273267 0.137968 -0.000344492)
(0.399964 0.0350343 4.46216e-05)
(-0.331968 0.218199 0.0306013)
(0.335337 -0.00672569 -0.000382918)
(0.0153046 -0.086659 0.00100975)
(0.442051 -0.0851516 0.000619135)
(0.45855 -0.0284302 0.00202837)
(0.0209728 0.054055 0.000875556)
(0.044587 0.083052 0.000280363)
(0.154618 -0.0291174 -0.000382872)
(0.396261 -0.000360324 0.000598796)
(0.0084989 0.15412 0.000140134)
(0.400981 -0.0332233 -0.000251751)
(-0.491156 0.306703 -0.00186889)
(-0.316552 0.331904 0.00116186)
(0.328753 0.0178722 -0.000866008)
(0.482787 0.0679954 -0.000202765)
(0.0953485 -0.0277777 0.000770408)
(0.109776 -0.0341182 0.000793943)
(0.304358 0.042877 -0.000233024)
(-5.53382e-05 0.239126 0.0004999)
(0.105323 -0.0101293 -0.000535455)
(-0.00343303 0.270213 0.000433693)
(0.127073 0.0651834 -0.00123565)
(0.358983 -0.0395361 -0.000435652)
(0.349667 0.000929345 2.8428e-05)
(0.162682 0.0241793 -7.09774e-05)
(0.267005 0.111179 1.57415e-05)
(-0.0015936 0.256205 0.000360703)
(0.161359 0.00884351 -2.03539e-06)
(-0.00202422 0.261273 0.000467629)
(0.0680847 0.136435 0.000376472)
(0.0050429 -0.0401409 -0.00138926)
(-0.00347985 0.267778 0.000461147)
(0.42352 0.038228 0.000134628)
(0.138418 -0.0353947 -0.00069242)
(-0.00112562 -0.0347353 -0.001361)
(0.346568 -0.0313324 -0.00110951)
(0.347241 -0.408328 0.0010841)
(0.00493763 0.0379271 7.76166e-05)
(0.379043 0.435263 -0.000944499)
(0.0354351 -0.174484 -0.000248976)
(0.0592923 0.182565 0.0030552)
(0.3551 -0.00817541 -0.00075005)
(0.418469 0.00860302 -2.08601e-05)
(-0.132671 -0.473501 0.000529609)
(-1.12202 -0.121959 0.10197)
(0.148775 -0.0156586 -0.00065036)
(0.236541 -0.769077 0.00662718)
(0.396617 0.0632235 5.8461e-05)
(0.0306864 0.048276 0.000187486)
(0.0395898 0.0558873 0.000179418)
(0.343667 -0.0353963 -0.0044051)
(-0.856139 0.92779 -0.0480804)
(0.365589 -0.0308714 -0.0004948)
(0.136373 0.00323284 3.1941e-05)
(0.100863 -0.0960194 0.00186484)
(0.0733824 1.13954 0.0424741)
(0.398705 0.0745485 -0.000189971)
(0.142934 -0.0374507 -0.000667512)
(1.46452 0.577149 0.00389069)
(0.331452 -0.00799941 -0.000209537)
(0.645311 0.185006 0.000617876)
(-0.0720321 0.237445 -0.000519023)
(0.101279 -0.138841 -0.00127707)
(0.364328 0.0440865 0.000130869)
(0.439957 0.0543105 0.000880519)
(-0.262381 0.867023 0.00119944)
(0.136127 -0.03954 -0.00053806)
(0.154808 0.0198027 -0.000315821)
(0.150459 0.0186668 -0.000300896)
(0.100467 0.0683079 0.000263156)
(-0.190179 -1.02144 -0.0126836)
(0.332153 0.125494 -3.87178e-05)
(0.378606 -0.000211511 -0.0006328)
(0.100885 0.0427808 -0.0002911)
(0.489642 0.0169529 -4.7092e-05)
(0.490072 0.0592942 4.48685e-05)
(0.0976613 0.0135105 -0.00217892)
(0.0797921 -0.000596572 -0.00214261)
(0.118758 -0.0071294 -0.00195766)
(-0.0806125 -1.46983 0.0418486)
(0.364863 0.0548141 -0.000189539)
(0.219511 0.166205 0.000288107)
(0.0891368 -0.181425 -0.00214363)
(0.209006 -0.0446266 -0.000620427)
(0.132752 0.00326177 0.000559781)
(0.399381 0.230496 -0.000527769)
(0.256585 0.00232817 -0.00197882)
(0.15953 -0.00689249 -0.000134676)
(0.163445 0.00405251 -0.000342268)
(0.339763 -0.00124724 -0.000118215)
(0.109771 0.016182 0.000728189)
(0.0650787 -0.0261989 -0.000472363)
(0.110843 -0.00927875 0.000564888)
(0.154904 0.0261518 0.00021013)
(-0.50795 0.353963 -0.00615873)
(0.121139 0.010463 -0.000276256)
(0.262703 0.136128 0.000766556)
(0.278691 0.136298 0.000578814)
(-0.0304889 -0.440122 0.00123776)
(-0.434902 -0.100114 -0.00203682)
(-0.584683 -0.157499 0.00248486)
(0.000337889 -0.103871 -0.00144835)
(-0.04612 -0.355651 -0.00088506)
(0.346231 0.000399803 -0.000182207)
(0.377434 0.0192414 0.000238801)
(0.17595 -0.0273312 -0.000345136)
(0.131253 0.154633 2.64623e-05)
(-0.319112 -0.139844 0.00832375)
(0.00457978 0.343197 -0.000207204)
(0.187356 0.192252 0.000819916)
(-0.521986 0.194869 2.21373e-05)
(0.331491 -0.026775 -0.000923403)
(0.174065 0.172312 0.0010449)
(0.181038 0.0874949 -0.00151569)
(0.0935262 -0.0780001 0.000394727)
(0.0770882 -0.0213055 0.000932492)
(0.168492 0.182123 0.00114762)
(0.36765 0.00977074 9.25224e-06)
(0.362628 0.045327 -0.000259168)
(0.353458 0.3187 0.00132784)
(0.276068 0.0299401 -0.000585896)
(0.411574 0.0744099 8.75689e-05)
(0.166114 0.0342435 0.00043436)
(0.425296 0.00687377 8.10136e-05)
(0.814434 -0.0952663 -0.0285032)
(-0.0891151 0.400182 0.0101137)
(0.352028 0.021312 -0.00116904)
(0.378398 0.0502892 -0.000312109)
(0.345971 -0.00636234 -0.000745743)
(-0.175547 0.247532 0.00948638)
(0.339363 -0.25784 -0.0116935)
(0.164845 -0.416179 -0.00986316)
(0.287101 0.12742 -0.00815605)
(0.0612201 -0.000725025 -0.000220884)
(0.118725 0.136381 -0.0141396)
(0.257477 0.204534 0.000511145)
(0.363499 0.0675439 3.01982e-05)
(2.84627 0.327746 0.0264922)
(0.129123 0.158985 5.9439e-05)
(0.545504 -0.175685 -0.000324012)
(0.291918 -0.111349 0.000814151)
(0.369579 0.109251 -4.49347e-05)
(0.391534 0.145307 -0.000115776)
(-0.154085 -0.0797127 0.00256049)
(-0.152137 0.0166868 0.00238749)
(2.11303 -0.26269 0.127999)
(0.106239 -0.141151 -0.00202563)
(0.359147 0.0109449 0.000105677)
(0.111337 0.212574 -0.00422346)
(0.365562 0.00615584 -4.59179e-05)
(0.307777 -0.0605875 0.00239663)
(0.167586 0.0160049 0.000108132)
(0.186198 0.0270358 -6.08255e-05)
(0.0484085 0.113807 0.000382465)
(0.103522 0.00482081 -6.52828e-05)
(0.0986768 0.056268 0.000240362)
(0.358943 0.127594 -0.000293632)
(1.70272 -0.12291 0.0483311)
(1.7108 0.5419 0.11561)
(0.0659056 -0.00795534 -0.000663732)
(0.0409095 0.149195 0.000419072)
(0.0283693 -0.138598 -2.00175e-08)
(1.51508 -0.857143 -0.196854)
(0.356166 -0.0187322 0.00143342)
(0.308855 -0.0449078 0.0014251)
(0.334709 0.0225274 0.0011213)
(0.548904 -0.335723 -0.0274934)
(0.322453 -0.0248672 0.00100294)
(0.38663 0.0445324 -9.11964e-05)
(0.397014 0.103713 4.29656e-05)
(0.0995599 -0.0015032 -0.00102827)
(0.114732 0.0758991 4.98415e-06)
(2.04127 0.0609642 0.0207012)
(0.0214197 -0.0253956 -0.00188672)
(0.295667 -0.00494774 0.00153445)
(-0.0157353 0.255483 0.000627208)
(0.342167 0.0640048 0.000264832)
(0.115238 0.236996 0.000491759)
(0.787208 0.0411375 0.000255683)
(0.000273219 0.230886 0.000424926)
(0.369189 0.0558872 -0.000194648)
(0.356565 0.0408502 0.000269561)
(0.00373935 0.133578 0.00013366)
(0.396842 0.0310159 -4.84284e-05)
(0.000387967 0.138537 0.000220443)
(0.316558 0.0576183 0.000583411)
(0.424984 -0.00148073 6.16089e-05)
(0.369299 0.0186713 5.40098e-05)
(-0.520521 1.03475 0.0288139)
(0.396878 0.0307821 -0.000140385)
(0.00105712 0.136921 0.000111936)