/*--------------------------------*- C++ -*----------------------------------*\
| =========                 |                                                 |
| \\      /  F ield         | OpenFOAM: The Open Source CFD Toolbox           |
|  \\    /   O peration     | Version:  v2012                                 |
|   \\  /    A nd           | Website:  www.openfoam.com                      |
|    \\/     M anipulation  |                                                 |
\*---------------------------------------------------------------------------*/
FoamFile
{
    version     2.0;
    format      ascii;
    class       volScalarField;
    location    "0.654544";
    object      alphat;
}
// * * * * * * * * * * * * * * * * * * * * * * * * * * * * * * * * * * * * * //

dimensions      [0 2 -1 0 0 0 0];


internalField   nonuniform List<scalar> 
83563
(
2.13052e-05
2.39027e-05
2.98778e-05
1.91442e-05
3.19575e-05
3.73239e-05
1.59053e-05
0.000111033
6.7537e-05
0.000378478
6.13347e-05
1.24816e-05
0.00372319
2.09988e-05
0.000111068
8.33843e-05
2.08522e-05
2.10298e-05
7.35786e-05
2.09921e-05
2.08796e-05
2.09933e-05
9.03151e-05
0.000458907
2.08839e-05
1.98498e-05
2.31166e-05
0.000392646
2.27112e-05
2.24613e-05
3.17773e-05
1.1417e-05
4.31217e-05
2.17152e-05
2.10064e-05
4.79575e-05
2.30117e-05
2.24978e-05
2.50231e-05
7.09372e-05
2.1542e-05
4.86756e-05
2.74687e-05
2.66752e-05
0.000735924
0.000115602
2.10312e-05
0.000104716
7.65701e-05
0.00709799
0.0092178
6.0139e-05
0.0019052
0.0024073
4.18997e-05
0.0079749
2.24706e-05
0.00145931
0.00200455
7.75693e-05
0.0021171
0.000809391
5.47996e-05
2.70396e-05
0.00437341
0.00183368
0.00169016
2.42546e-05
4.34489e-05
0.0107251
5.61298e-05
0.0153807
2.16216e-05
0.00655963
2.78324e-05
0.000353814
0.000229316
2.22011e-05
2.20459e-05
0.00330532
2.19671e-05
2.09832e-05
2.33395e-05
0.000612432
6.66941e-05
2.1598e-05
2.09792e-05
3.8726e-05
2.1685e-05
3.75758e-05
0.00010798
2.10488e-05
0.000142442
0.000115521
0.000823181
0.000137676
0.00071448
0.000136829
5.87036e-05
0.000120651
3.86357e-05
2.36436e-05
7.08271e-05
2.21695e-05
5.99573e-05
2.60343e-05
3.79762e-05
2.15736e-05
0.000538983
2.10318e-05
0.000144767
4.715e-05
5.40873e-05
3.24547e-05
2.96989e-05
1.95989e-05
0.0125486
0.000162517
4.49878e-05
1.9557e-05
5.04633e-05
3.33796e-05
7.12093e-05
0.000646494
7.54103e-05
1.95926e-05
0.000315287
1.54491e-05
0.000106591
5.18232e-05
0.0111855
7.54065e-05
4.9307e-05
0.00143583
2.41512e-05
2.08976e-05
7.40886e-05
2.47478e-05
1.92192e-05
0.0082881
4.13859e-05
0.00870834
6.24931e-05
4.74378e-05
0.000107015
0.00244284
4.47479e-05
2.30612e-05
3.72123e-05
2.69906e-05
0.000485515
2.1348e-05
2.41555e-05
6.26638e-05
2.12401e-05
2.13643e-05
2.13238e-05
5.34647e-05
5.75699e-05
4.66187e-05
7.30715e-05
2.12976e-05
2.32398e-05
1.97855e-05
0.000113074
0.000112849
2.05976e-05
0.00297614
2.09933e-05
0.000144585
2.06726e-05
2.22009e-05
0.000134098
0.00010645
0.000154115
4.27815e-05
3.40868e-05
2.7965e-05
5.77576e-05
2.14748e-05
2.44926e-05
2.20756e-05
6.35812e-05
5.97773e-05
0.000153095
0.000402095
7.80253e-05
1.84965e-05
4.2158e-05
2.1725e-05
2.17065e-05
0.00023598
0.000344766
0.00047976
6.07273e-05
0.000202723
3.77506e-05
0.000152743
2.12469e-05
8.08776e-05
6.26245e-05
5.08841e-05
0.000153276
2.0676e-05
0.000205167
0.000131556
2.56344e-05
0.0126352
2.10771e-05
2.36453e-05
0.000105708
0.0004024
2.03523e-05
2.00437e-05
3.5347e-05
7.88594e-05
5.4281e-05
2.08586e-05
2.25198e-05
5.25218e-05
3.8304e-05
5.54241e-05
2.41973e-05
2.66753e-05
0.000144143
2.02188e-05
0.000304571
2.11896e-05
2.31848e-05
0.000149896
2.1229e-05
2.42975e-05
2.09354e-05
2.64579e-05
0.00303765
2.08383e-05
9.86263e-05
2.37574e-05
2.20086e-05
2.24712e-05
9.75585e-05
7.26014e-05
6.06368e-05
2.0244e-05
3.77308e-05
2.36383e-05
0.0129845
1.97288e-05
0.0019594
4.02124e-05
6.23209e-05
3.42208e-05
2.5724e-05
0.000243222
3.1666e-05
3.43546e-05
2.10466e-05
0.000166629
2.15405e-05
2.55813e-05
2.63551e-05
5.80399e-05
0.0168378
8.36236e-05
3.66669e-05
3.33085e-05
7.22971e-05
4.69631e-05
2.04099e-05
2.11369e-05
5.20146e-05
7.39698e-05
4.61017e-05
4.40587e-05
8.50727e-05
2.89393e-05
0.000170007
0.000100816
2.48217e-05
3.90435e-05
0.000122142
1.98265e-05
2.1492e-05
0.000135703
5.20246e-05
2.30273e-05
0.000470834
1.9482e-05
2.32797e-05
3.8738e-05
0.000232488
2.20322e-05
0.000189894
2.07039e-05
2.26064e-05
4.45432e-05
6.2022e-05
6.35013e-05
3.89575e-05
3.10535e-05
2.76168e-05
2.99989e-05
2.94899e-05
2.11827e-05
2.09256e-05
0.000139594
0.00018271
0.00300401
7.52252e-05
0.000162632
3.90443e-05
7.23847e-05
0.00130547
0.000153594
0.0165464
1.56373e-05
0.0221443
6.21303e-05
2.04805e-05
5.49974e-05
0.000220993
6.24238e-05
2.16192e-05
3.06005e-05
5.65665e-05
2.12229e-05
0.000216
0.00204189
3.77395e-05
0.000229972
3.33322e-05
2.59665e-05
2.08661e-05
0.00228815
2.14814e-05
2.22502e-05
5.32309e-05
0.00470864
0.000106376
2.25394e-05
0.00326864
0.00131962
2.02064e-05
2.29245e-05
2.92365e-05
2.14082e-05
0.000131533
4.05237e-05
0.000161191
2.24834e-05
2.10065e-05
4.79215e-05
3.51426e-05
4.62321e-05
0.0172523
2.09629e-05
4.54998e-05
6.23826e-05
3.51278e-05
0.000498187
0.0231505
0.000385387
0.0164745
0.00923857
0.0164949
0.00016285
0.000312308
7.39003e-05
3.33217e-05
2.10335e-05
2.11618e-05
6.36731e-05
0.000115673
0.00323666
0.00253592
3.8234e-05
0.00802745
2.17415e-05
2.46875e-05
2.3138e-05
2.64699e-05
1.2329e-05
2.09988e-05
1.42085e-05
0.00888166
0.016737
3.75916e-05
5.9985e-05
0.0144731
4.73839e-05
0.000176584
1.94304e-05
3.30754e-05
0.0158922
8.05458e-05
0.000134768
5.38397e-05
8.50272e-05
2.41663e-05
2.09357e-05
0.000130748
2.05812e-05
2.24522e-05
7.0323e-05
0.000120537
2.83676e-05
0.00171293
3.48955e-05
2.12485e-05
4.06385e-05
0.00287971
8.20146e-05
1.84538e-05
2.27647e-05
0.00174312
2.55707e-05
2.582e-05
8.26356e-05
0.0169064
3.49816e-05
2.17732e-05
2.2529e-05
0.00253116
1.97797e-05
8.4202e-05
0.00310866
4.04974e-05
0.000179048
2.13928e-05
3.58278e-05
2.12641e-05
1.63557e-05
4.35885e-05
2.01926e-05
0.0185082
9.81344e-05
0.0018959
2.22725e-05
8.26144e-05
0.00055636
0.000127352
6.51928e-05
0.00117662
1.78453e-05
4.78759e-05
4.63459e-05
6.47165e-05
0.000109415
4.83955e-05
0.0102138
0.000120525
2.921e-05
2.99541e-05
2.95932e-05
0.000120816
0.000189299
1.81231e-05
1.95772e-05
2.2286e-05
5.86154e-05
2.06128e-05
0.00226512
2.55332e-05
2.25708e-05
2.93649e-05
2.47879e-05
2.10862e-05
2.33371e-05
3.70484e-05
5.90783e-05
7.6138e-05
3.85082e-05
2.69432e-05
8.50496e-05
2.28371e-05
0.000139888
3.30723e-05
3.78996e-05
5.32301e-05
2.3919e-05
4.34092e-05
2.46488e-05
4.15539e-05
6.0726e-05
1.94041e-05
1.71056e-05
2.64226e-05
9.96268e-05
0.000378894
2.12879e-05
2.09625e-05
2.83902e-05
4.19128e-05
0.00208722
0.000215672
6.15939e-05
2.75824e-05
4.28733e-05
3.19963e-05
2.23193e-05
2.1165e-05
5.16495e-05
2.22217e-05
2.33058e-05
6.44704e-05
2.14805e-05
4.96802e-05
6.40705e-05
1.86018e-05
7.10881e-05
2.04734e-05
2.58895e-05
2.10326e-05
2.09814e-05
2.52741e-05
1.70127e-05
5.84728e-05
0.00181543
0.00243212
2.54352e-05
4.89115e-05
0.000104075
6.62622e-05
4.18866e-05
0.000100526
2.47758e-05
3.65693e-05
0.00251122
2.26167e-05
2.59225e-05
1.90936e-05
2.17141e-05
3.64939e-05
2.61787e-05
2.37661e-05
1.77184e-05
0.00210747
0.000225486
5.1405e-05
0.00177779
5.38916e-05
1.33452e-05
0.00126997
1.51451e-05
1.31234e-05
6.69623e-05
2.38836e-05
5.63623e-05
0.000878179
5.22763e-05
3.49905e-05
1.65443e-05
5.88539e-05
3.1997e-05
1.98312e-05
7.06484e-05
5.55903e-05
0.021838
0.000662167
2.08696e-05
5.51081e-05
0.0124096
1.95345e-05
7.69847e-05
0.000338037
2.28817e-05
0.00045902
2.24762e-05
2.116e-05
8.72324e-05
0.00316086
6.22468e-05
2.36328e-05
4.78418e-05
0.000711699
9.36469e-05
2.72298e-05
2.33445e-05
1.70524e-05
2.45434e-05
2.43013e-05
0.000954572
3.63746e-05
3.71667e-05
2.59448e-05
2.55002e-05
2.14496e-05
3.46428e-05
2.10223e-05
0.00170268
2.09139e-05
1.87537e-05
2.10649e-05
2.20346e-05
3.67264e-05
2.10651e-05
2.20282e-05
2.18865e-05
2.10408e-05
2.03958e-05
3.06442e-05
2.136e-05
2.09062e-05
2.09693e-05
2.7867e-05
3.62302e-05
0.000551756
3.15946e-05
2.24962e-05
2.2567e-05
2.57389e-05
2.10722e-05
2.20759e-05
2.98322e-05
0.000941796
2.59804e-05
5.0068e-05
4.97496e-05
0.000109349
9.83064e-05
5.85625e-05
0.00153185
4.32035e-05
2.43585e-05
2.16064e-05
2.67862e-05
3.58533e-05
2.2644e-05
3.03359e-05
2.12421e-05
4.18516e-05
2.90077e-05
2.79395e-05
3.65002e-05
2.09767e-05
0.00024318
3.84382e-05
6.15952e-05
2.09626e-05
2.47978e-05
2.13786e-05
0.000168306
0.000200601
2.16594e-05
6.56061e-05
2.1007e-05
2.10412e-05
2.12317e-05
0.00247486
4.44408e-05
3.38472e-05
5.61253e-05
8.61643e-05
7.3525e-05
0.00014845
2.19236e-05
0.000151598
1.93037e-05
2.0719e-05
3.77967e-05
2.46448e-05
0.00251564
3.16045e-05
3.71756e-05
0.0012851
2.09941e-05
3.29575e-05
2.1528e-05
2.39879e-05
0.000261348
4.47167e-05
3.70482e-05
2.05195e-05
7.09294e-05
0.000147012
2.94287e-05
0.000104107
2.89502e-05
2.95816e-05
0.000267254
0.00175221
6.09284e-05
0.000160988
0.00157395
2.12273e-05
1.64267e-05
0.000175504
2.58087e-05
0.000261791
3.5944e-05
3.76859e-05
3.98811e-05
2.60663e-05
0.000148835
0.000103212
0.00210752
3.12817e-05
0.0002436
1.91485e-05
2.89882e-05
4.46332e-05
3.096e-05
2.09797e-05
4.26019e-05
0.000859449
8.76603e-05
1.8606e-05
3.73409e-05
5.2385e-05
3.94587e-05
2.11251e-05
5.98341e-05
2.11065e-05
2.33925e-05
6.80537e-05
2.10252e-05
2.22231e-05
2.64037e-05
7.53278e-05
0.00490011
2.15288e-05
0.000415622
2.28168e-05
4.61791e-05
1.90072e-05
8.26739e-05
0.00309457
0.00135364
3.42653e-05
0.00327862
2.00763e-05
2.13307e-05
2.41618e-05
0.000148346
0.0016952
0.000103058
2.54495e-05
3.50454e-05
0.00136699
1.87492e-05
3.54376e-05
2.82615e-05
2.12461e-05
5.64548e-05
4.96226e-05
3.59202e-05
4.89233e-05
0.000174071
0.00167649
2.73014e-05
3.51469e-05
3.94126e-05
2.08472e-05
0.00328756
5.97294e-05
0.000128208
2.10056e-05
3.20488e-05
0.000145496
3.29646e-05
2.38067e-05
2.20471e-05
1.5956e-05
2.09589e-05
6.96163e-05
2.90103e-05
2.08968e-05
2.38278e-05
5.80841e-05
8.6239e-05
3.67084e-05
2.14195e-05
2.06012e-05
6.70721e-05
2.6847e-05
3.77227e-05
2.29419e-05
0.000554102
2.18147e-05
2.57242e-05
3.92385e-05
0.00871773
0.0038214
0.00466998
2.15757e-05
0.00352206
2.1681e-05
0.000118473
2.81037e-05
5.21276e-05
7.25989e-05
0.000959036
2.61003e-05
0.00331536
8.5681e-05
6.06189e-05
1.86089e-05
1.11393e-05
2.32589e-05
2.41167e-05
7.7245e-05
1.92657e-05
8.18881e-05
2.10721e-05
1.7128e-05
2.24195e-05
6.40814e-05
0.00197462
0.000583049
0.000104138
1.74047e-05
3.32039e-05
0.000775796
0.000356554
0.00024251
0.000362228
2.14812e-05
0.000184691
1.60735e-05
2.12948e-05
0.000229737
2.50464e-05
0.00066074
0.000120472
3.04555e-05
8.35869e-05
8.97548e-05
9.76751e-05
5.6807e-06
2.66748e-05
2.11449e-05
0.00313096
2.26971e-05
9.26881e-05
3.4185e-05
2.10176e-05
2.11032e-05
5.46564e-05
3.03254e-05
5.51569e-05
4.36911e-06
9.59824e-05
2.19916e-05
2.13206e-05
3.68849e-05
1.29884e-06
0.000122908
1.77246e-05
9.87029e-05
0.00478722
2.18011e-05
2.06162e-05
1.97979e-05
2.0914e-05
2.65189e-05
6.72302e-05
2.25988e-05
8.12534e-05
8.88354e-05
4.9271e-05
2.12282e-05
2.29069e-05
3.42392e-05
2.07528e-05
0.000120064
4.4364e-05
0.000208254
4.74717e-05
3.23325e-05
2.09637e-05
3.28723e-05
0.000300392
0.000162208
4.0764e-05
3.46568e-05
4.35903e-05
1.88608e-05
2.18689e-05
2.47499e-05
2.85583e-05
2.07904e-05
3.98955e-05
2.27476e-05
1.88173e-05
2.11858e-05
0.00314894
0.000135816
1.85668e-05
0.000826827
0.00223811
2.3655e-05
0.000248953
2.11852e-05
2.44539e-05
2.15864e-05
2.14544e-05
5.43896e-05
2.11205e-05
5.28018e-05
0.000105167
1.84359e-05
2.13255e-05
3.09278e-05
8.41939e-05
2.01105e-05
2.68618e-05
3.89233e-05
2.18108e-05
3.56495e-05
6.05736e-05
2.10018e-05
2.33897e-05
2.09765e-05
3.68562e-05
1.94114e-05
0.00293215
0.00120673
2.14054e-05
0.00127086
2.0962e-05
5.67831e-05
0.00013237
7.19531e-05
9.11191e-05
1.82406e-05
2.52334e-05
7.36333e-05
2.36133e-05
0.000923833
2.33614e-05
2.62708e-05
0.000281336
8.20328e-05
8.32426e-05
0.0016013
8.109e-05
0.000260475
2.50921e-05
6.40411e-05
0.00115873
9.00524e-05
2.02914e-05
0.000113905
5.55191e-05
2.16448e-05
2.09945e-05
4.0846e-05
2.20905e-05
2.94125e-05
1.70004e-05
1.59774e-05
1.96009e-05
1.82231e-05
2.18397e-05
2.08315e-05
9.89312e-05
0.000907405
2.22394e-05
2.07607e-05
2.09423e-05
7.95522e-05
2.09553e-05
2.40028e-05
2.12561e-05
9.12947e-05
0.000116503
4.89731e-05
2.13233e-05
0.000276735
4.14749e-05
0.000194875
3.40301e-05
3.12875e-05
2.89778e-05
2.9709e-05
9.77996e-05
1.34045e-05
2.56016e-05
2.13866e-05
4.27414e-05
2.78016e-05
3.36685e-05
3.27102e-05
2.21297e-05
2.35345e-05
5.73779e-05
0.000119359
8.56615e-05
2.82869e-05
1.96148e-05
0.000262952
6.49951e-05
2.07259e-05
2.43559e-05
2.21136e-05
0.000181207
0.000203813
7.31974e-05
9.437e-05
0.000117234
3.52936e-05
2.12608e-05
2.07963e-05
2.53869e-05
0.000744254
2.55807e-05
0.000120524
0.000141928
0.000231085
3.8401e-05
3.2685e-05
2.4387e-05
3.37765e-05
1.76226e-05
3.2234e-05
0.000657977
3.0603e-05
9.78321e-05
0.00015114
0.000480522
4.93437e-05
2.65363e-05
0.00014924
3.84958e-05
1.28094e-05
2.20649e-05
2.08736e-05
0.000121482
2.59061e-05
2.10929e-05
9.71044e-05
6.54804e-05
2.09535e-05
5.22035e-05
4.20772e-05
2.08004e-05
3.9179e-05
2.33657e-05
3.33956e-05
2.34665e-05
1.98659e-05
6.45742e-05
2.09618e-05
0.000103959
2.42926e-05
0.000131046
5.33492e-05
2.74966e-05
0.0107907
2.68127e-05
0.00965924
0.00671045
1.88712e-05
2.15769e-05
2.10983e-05
6.18817e-05
2.11038e-05
6.04406e-05
2.18339e-05
0.0104028
2.1939e-05
0.00707574
0.000219321
0.00269054
4.57928e-05
2.11692e-05
5.24513e-05
3.54651e-05
4.96753e-05
6.06871e-05
3.46877e-05
4.30547e-05
0.0092786
1.92558e-05
0.000678591
6.75943e-05
2.03103e-05
2.68052e-05
5.86213e-05
0.0114805
2.10452e-05
6.96678e-05
2.53785e-05
2.08943e-05
7.0646e-05
0.0134726
2.44585e-05
3.65842e-05
4.63374e-05
0.000450769
0.00718584
0.000109522
0.000112017
4.76881e-05
5.35243e-05
0.000102476
2.17435e-05
7.10959e-05
9.30961e-05
5.0851e-05
0.000110549
2.2675e-05
0.000145574
4.49365e-05
5.02023e-05
2.15424e-05
6.46045e-05
2.11041e-05
6.66302e-05
2.14855e-05
1.71874e-05
2.61387e-05
2.99803e-05
2.20074e-05
0.000158978
2.10123e-05
7.93593e-05
1.40055e-05
6.33777e-05
3.45742e-05
0.00180548
2.12259e-05
3.07816e-05
2.00226e-05
8.14716e-05
2.39355e-05
0.000178875
2.08627e-05
0.000169683
2.43811e-05
2.13654e-05
9.57798e-05
5.43656e-05
2.77032e-05
2.01229e-05
2.12666e-05
2.11549e-05
0.00019919
3.30904e-05
5.2826e-05
2.46731e-05
2.41252e-05
2.09899e-05
2.08998e-05
6.11513e-05
3.15688e-05
5.95809e-05
6.77287e-05
3.27401e-05
2.12392e-05
4.36891e-05
2.43433e-05
2.39065e-05
2.46109e-05
2.16192e-05
7.02512e-05
2.09764e-05
2.08978e-05
2.1534e-05
4.02113e-05
0.000198093
2.5905e-05
9.0318e-05
2.30082e-05
2.33007e-05
2.26788e-05
2.13847e-05
3.39717e-05
2.73026e-05
2.02321e-05
2.65894e-05
1.97594e-05
8.46401e-05
2.31419e-05
4.34974e-05
3.31158e-05
6.95249e-05
3.61366e-05
0.000177373
2.13951e-05
1.71032e-05
3.7928e-05
0.000178264
2.14128e-05
2.11664e-05
2.07429e-05
2.1607e-05
5.89839e-05
0.000186363
3.01792e-05
7.39388e-05
0.00761615
0.0133603
0.012619
0.000354716
0.000805582
2.02364e-05
1.38816e-05
2.29737e-05
9.55803e-05
2.4048e-05
0.000686084
4.40065e-05
1.90785e-05
9.98074e-05
0.000217769
2.23459e-05
7.0523e-05
9.02246e-05
1.35054e-05
2.49582e-05
4.77145e-05
2.1067e-05
2.32157e-05
0.00198913
2.1075e-05
0.000805746
0.00315031
8.49263e-05
5.43983e-05
2.14194e-05
2.31677e-05
2.38371e-05
0.000125653
2.09627e-05
0.000116928
7.4419e-05
0.00126981
0.000117424
2.08983e-05
1.51437e-05
2.19853e-05
3.04502e-05
3.15465e-05
4.17587e-05
2.05309e-05
2.03935e-05
0.000313451
2.1744e-05
2.14401e-05
1.74082e-05
2.53127e-05
1.79911e-05
4.09114e-05
1.84934e-05
8.99597e-05
5.4722e-05
2.17606e-05
6.48997e-05
7.03492e-05
0.000125041
2.34352e-05
2.1099e-05
2.00119e-05
0.000124366
0.00130553
7.05655e-05
4.91856e-05
2.21909e-05
7.11036e-05
6.98473e-05
4.08368e-05
5.75969e-05
2.8166e-05
2.50975e-05
0.000285353
2.01385e-05
4.82936e-05
5.57203e-05
2.14248e-05
6.42947e-05
0.000110315
2.66734e-05
2.46175e-05
0.000133477
3.3971e-05
2.15566e-05
7.38573e-05
2.57567e-05
4.44455e-05
0.0100623
5.3185e-05
2.04309e-05
4.82182e-05
0.00229624
5.99592e-05
3.0304e-05
9.49143e-05
2.18015e-05
0.00223307
3.17315e-05
2.10639e-05
2.12103e-05
2.8173e-05
2.14545e-05
3.63025e-05
0.000105521
2.81425e-05
3.21157e-05
2.80672e-05
0.000107976
0.000179062
2.11777e-05
8.88313e-05
2.59303e-05
2.22152e-05
2.29596e-05
2.34569e-05
0.000134771
2.84305e-05
2.09957e-05
2.12885e-05
0.00166074
2.1233e-05
2.10307e-05
2.09905e-05
8.58845e-05
0.023265
2.09509e-05
0.00144428
2.69334e-05
2.27152e-05
0.000634609
2.39916e-05
0.00249303
0.0222714
2.65293e-05
4.57945e-05
0.0250089
0.000228931
0.0243409
8.91723e-05
2.38584e-05
2.13835e-05
2.13394e-05
4.54797e-05
0.000291059
2.092e-05
0.000127574
2.12682e-05
2.32187e-05
0.00011585
2.47333e-05
2.41732e-05
2.10116e-05
5.93238e-05
0.002494
2.576e-05
0.000113514
8.42525e-05
3.38886e-05
8.81023e-05
3.89527e-05
6.31515e-05
7.0658e-05
4.84496e-05
2.87808e-05
0.000141855
2.27422e-05
3.29164e-05
2.16353e-05
3.27128e-05
1.91416e-05
2.28156e-05
2.19772e-05
2.11425e-05
4.31309e-05
2.56693e-05
4.16758e-05
2.66816e-05
2.0986e-05
3.7904e-05
6.74372e-05
7.5886e-05
2.0963e-05
1.90834e-05
0.00221423
3.91247e-05
0.000795699
0.000158598
2.16938e-05
2.28587e-05
1.83233e-05
2.12896e-05
0.0171425
2.2489e-05
4.44651e-05
3.98325e-05
0.000127299
3.25709e-05
2.08884e-05
3.60258e-05
0.0019999
2.08319e-05
0.000345059
4.45107e-05
0.000135239
0.000145606
2.82811e-05
2.4208e-05
1.98448e-05
0.000109637
8.94835e-05
0.000158913
0.000105921
2.13924e-05
2.12629e-05
2.13975e-05
2.40047e-05
3.56274e-05
8.7152e-05
2.25419e-05
7.18547e-05
2.70326e-05
5.59142e-05
4.11054e-05
6.35336e-05
3.38456e-05
2.58418e-05
2.13621e-05
3.0311e-05
4.98943e-05
2.10262e-05
3.4727e-05
2.28837e-05
1.82165e-06
3.65128e-05
1.9812e-05
2.50694e-05
2.91156e-05
6.12518e-05
9.5528e-05
2.57924e-05
2.58119e-05
8.47555e-05
0.00136888
2.12656e-05
2.85562e-05
0.00218826
2.08582e-05
2.86534e-05
2.1006e-05
2.47665e-05
2.18899e-05
2.12666e-05
2.25358e-05
1.84173e-05
0.00391078
1.92873e-05
5.69474e-05
2.20907e-05
1.94926e-05
0.000108823
2.10705e-05
5.30715e-05
2.40483e-05
0.00020486
0.0017029
3.35419e-05
4.71819e-05
2.01681e-05
5.28038e-05
0.0111187
2.0041e-05
2.1269e-05
0.000115079
6.86401e-05
0.00378062
0.000237527
2.82247e-05
2.07757e-05
5.99466e-05
2.765e-05
9.05068e-05
1.72606e-05
2.5363e-05
0.000155555
0.00439993
1.90716e-05
0.00419216
8.72855e-05
9.31855e-05
2.82178e-05
9.9699e-05
2.28462e-05
0.00376144
0.000117122
2.89919e-05
6.07268e-05
2.06912e-05
0.000100205
0.00209142
7.61665e-05
2.19672e-05
2.103e-05
0.000198639
0.000108283
5.0249e-05
2.48651e-05
0.000108976
7.98331e-05
4.86714e-05
1.99982e-05
2.96606e-05
0.00241264
2.06814e-05
7.27215e-05
2.33928e-05
2.25184e-05
2.05844e-05
2.14893e-05
2.37189e-05
2.18441e-05
3.18641e-05
6.95377e-05
3.80514e-05
5.2812e-05
7.77454e-05
2.13168e-05
2.1594e-05
4.9602e-05
0.000307545
4.04203e-05
1.96853e-05
2.27128e-05
7.60093e-05
6.8968e-05
2.2312e-05
4.02977e-05
3.61154e-05
2.10909e-05
3.12847e-05
1.84945e-05
5.0722e-05
4.00217e-05
0.000148093
2.13308e-05
2.09491e-05
0.000803617
0.00189056
2.13975e-05
5.51943e-05
0.00215098
0.00209155
2.4028e-05
0.00210547
2.63377e-05
6.62357e-05
1.4604e-05
0.00180095
2.16163e-05
3.98558e-05
2.39133e-05
3.58342e-05
6.71258e-05
2.10873e-05
7.08671e-05
2.0562e-05
0.0105718
3.33333e-05
1.60028e-05
2.12232e-05
4.07941e-05
8.65619e-05
3.21316e-05
2.10857e-05
2.98946e-05
5.15141e-05
3.57798e-05
2.12339e-05
0.0143531
0.000112888
8.61209e-05
8.6695e-05
2.12548e-05
0.00629931
8.81852e-05
2.19769e-05
2.08461e-05
1.72386e-05
2.64712e-05
1.82478e-05
4.10789e-05
4.13161e-05
7.44711e-05
0.0110266
2.31032e-05
2.13456e-05
3.14169e-05
0.000786749
0.00204926
2.3714e-05
5.85443e-05
7.0999e-05
1.91626e-05
8.45738e-05
2.17922e-05
0.000175128
2.6645e-05
2.50528e-05
0.00130265
0.000107522
9.44684e-05
9.52124e-05
0.000203878
0.0130286
0.00683435
2.30543e-05
3.46526e-05
2.09397e-05
2.03474e-05
0.000189383
2.38768e-05
4.8799e-05
2.11222e-05
2.08958e-05
1.97351e-05
0.00704805
0.0149122
2.12147e-05
2.21431e-05
1.93984e-05
4.97274e-05
0.00607944
0.0120922
3.59942e-05
5.67826e-05
2.08914e-05
3.74469e-05
2.85894e-05
6.26339e-05
4.34997e-05
2.16278e-05
3.49425e-05
4.08904e-05
4.06263e-05
2.55639e-05
2.00394e-05
3.9423e-05
4.30317e-05
3.41589e-05
3.73074e-05
2.12197e-05
5.73658e-05
5.4116e-05
4.40424e-05
4.98827e-05
3.89948e-05
1.83225e-05
0.000138614
3.88778e-05
0.000146406
6.08898e-05
6.11422e-05
2.59819e-05
0.000129482
7.24762e-05
0.000112842
7.95554e-05
0.00292667
0.000169303
2.66776e-05
4.21753e-05
3.19337e-05
8.84255e-05
9.0029e-05
0.002125
2.06966e-05
2.90785e-05
3.2949e-05
5.69147e-05
0.000113976
2.14618e-05
2.89282e-05
1.98662e-05
4.59678e-05
2.38915e-05
0.000110549
6.27696e-05
1.94116e-05
2.08568e-05
5.98169e-05
2.46784e-05
0.000201207
0.000151323
3.44445e-05
2.08781e-05
2.10885e-05
1.26909e-05
2.16436e-05
3.88479e-05
2.20537e-05
2.37294e-05
2.59789e-05
2.17927e-05
0.00035389
2.17897e-05
2.35706e-05
2.05083e-05
2.99212e-05
4.65162e-05
3.80656e-05
5.50649e-05
4.84446e-05
2.15335e-05
2.723e-05
4.16246e-05
2.10699e-05
1.6142e-05
5.46115e-05
2.37821e-05
2.1658e-05
2.34639e-05
2.54295e-05
2.31948e-05
2.20351e-05
0.00318269
2.10729e-05
2.09637e-05
2.7266e-05
0.000234432
0.000110052
3.59655e-05
0.000124352
3.33972e-05
0.000116708
3.48074e-05
2.13746e-05
2.08154e-05
9.52454e-05
2.01794e-05
1.91234e-05
2.08681e-05
2.10865e-05
2.66653e-05
0.00125004
0.000120794
2.09988e-05
6.60222e-05
0.00422648
2.08061e-05
4.28385e-05
2.08524e-05
3.06399e-05
2.08196e-05
7.19529e-05
2.52394e-05
1.95057e-05
0.00791412
5.26028e-05
6.40509e-05
4.65804e-05
2.18831e-05
6.2243e-05
8.84243e-05
2.9359e-05
2.10959e-05
0.00610717
7.29231e-05
2.87868e-05
2.19487e-05
4.88229e-05
2.09231e-05
2.12655e-05
7.82321e-05
2.31282e-05
0.000246582
2.16135e-05
4.11413e-05
0.00177381
3.68916e-05
4.22452e-05
6.9803e-05
0.00448043
2.08537e-05
0.0028381
2.0928e-05
0.00305814
4.40809e-05
2.081e-05
2.09333e-05
9.22134e-05
3.89948e-05
2.98132e-05
6.24433e-05
2.47701e-05
2.18656e-05
2.04096e-05
2.73322e-05
2.12125e-05
3.96331e-05
4.03766e-05
2.52568e-05
2.93879e-05
7.94159e-05
2.63277e-05
2.20637e-05
0.00228054
2.42784e-05
8.18045e-05
8.33395e-05
2.21766e-05
2.23908e-05
3.88602e-05
4.8324e-05
0.0144272
4.74788e-05
2.83211e-05
0.0172949
0.0154191
2.10318e-05
4.44359e-05
5.34911e-05
2.28006e-05
2.10787e-05
4.23076e-05
2.47853e-05
5.26421e-05
2.90357e-05
0.00641404
5.38073e-05
2.18205e-05
6.16867e-05
2.14832e-05
2.3634e-05
2.179e-05
0.020614
0.00838824
2.49582e-05
2.3883e-05
4.27564e-05
1.89378e-05
2.13773e-05
3.73672e-05
0.000771319
2.11535e-05
0.00344168
2.41055e-05
2.27258e-05
5.51486e-05
2.47635e-05
5.48323e-05
0.000476941
3.17242e-05
0.000140718
1.76756e-05
2.70702e-05
3.51108e-05
2.35956e-05
1.05487e-05
3.94238e-05
2.10425e-05
0.00221244
3.97264e-05
4.0161e-05
2.35876e-05
2.09098e-05
2.1834e-05
8.26963e-05
2.11488e-05
2.41407e-05
4.34921e-05
0.000131581
2.13673e-05
3.07695e-05
0.00117156
7.79386e-05
0.00106266
0.000437365
5.08512e-05
7.64129e-05
0.000160394
2.67022e-05
2.66795e-05
3.5253e-05
0.000316945
5.63996e-05
2.09351e-05
2.55946e-05
2.72196e-05
5.8492e-05
3.88964e-05
0.000110382
0.00327561
2.26414e-05
9.45415e-05
0.000446738
2.20524e-05
2.14687e-05
2.89219e-05
0.00013001
0.00291571
2.19516e-05
2.09554e-05
4.80536e-05
2.12045e-05
8.77212e-05
0.00509815
2.87215e-05
5.30895e-05
0.00769688
2.36605e-05
3.2763e-05
2.19393e-05
2.09729e-05
6.03141e-05
0.000139478
6.10434e-05
0.000160651
6.42995e-05
1.82241e-05
2.31813e-05
0.00221516
2.11064e-05
2.10674e-05
0.00211438
2.58128e-05
4.91589e-05
2.20293e-05
0.00195302
1.84439e-05
0.00166055
2.1532e-05
2.11627e-05
8.89926e-05
8.18058e-05
8.22768e-05
5.71729e-05
0.000125884
2.32663e-05
2.10645e-05
0.00227028
0.00182783
0.000923347
2.20502e-05
0.00125957
0.000891661
2.42958e-05
2.03257e-05
1.57878e-05
6.75395e-05
3.22491e-05
2.05528e-05
8.41541e-05
6.75152e-05
0.00150344
0.00116235
0.00065257
0.000135435
2.05545e-05
7.98616e-05
1.71606e-05
7.36774e-05
8.09071e-05
2.09839e-05
2.17556e-05
2.0735e-05
9.41922e-05
2.10075e-05
0.000494831
2.92854e-05
7.74966e-05
2.15556e-05
5.05355e-05
5.24196e-05
2.0903e-05
0.000112859
4.31736e-05
0.00018149
3.16677e-05
0.000736337
2.56075e-05
2.19775e-05
2.10922e-05
1.74855e-05
0.000499408
2.17096e-05
2.17361e-05
0.00113074
0.000501263
0.000142383
0.0012886
2.17893e-05
3.48466e-05
1.79366e-05
0.000163254
2.32678e-05
8.156e-05
2.24423e-05
8.00797e-05
1.91921e-05
0.00111806
2.45982e-05
2.02363e-05
2.08788e-05
0.000720114
0.000424989
2.07517e-05
0.00752823
2.10436e-05
2.12435e-05
2.66742e-05
6.03541e-05
2.67782e-05
2.96407e-05
2.13954e-05
0.0002545
5.81187e-05
2.13205e-05
0.00013872
7.06211e-05
5.42436e-05
2.56407e-05
4.69857e-05
4.96942e-05
5.20222e-05
3.88659e-05
0.000334167
6.3555e-05
2.13197e-05
5.82401e-05
4.30534e-05
2.16527e-05
2.65191e-05
2.12689e-05
3.96816e-05
2.12198e-05
5.30283e-05
3.30533e-05
6.9004e-05
2.00838e-05
3.15261e-05
7.58572e-05
2.16176e-05
2.11856e-05
1.9858e-05
5.07424e-05
0.00019472
2.09602e-05
4.57779e-05
2.00612e-05
2.08964e-05
2.20926e-05
7.22591e-05
4.51021e-05
2.64583e-05
2.14011e-05
2.96015e-05
2.07958e-05
2.09498e-05
2.10966e-05
2.75969e-05
9.96622e-05
7.32217e-05
0.000631398
9.20371e-05
2.69715e-05
2.09859e-05
3.11221e-05
0.00141603
0.00126318
5.92686e-05
2.08418e-05
2.08891e-05
2.11717e-05
2.11066e-05
0.00086853
8.04583e-05
3.46762e-05
0.0021738
8.00503e-05
3.36762e-05
2.13331e-05
0.000487808
0.000106764
0.00109527
1.89846e-05
0.0193484
6.37039e-05
4.2171e-05
2.07977e-05
0.000998693
6.88977e-05
0.000545342
8.03572e-05
7.62265e-05
9.08586e-05
2.1968e-05
0.00065011
2.10184e-05
0.00760245
0.00932206
0.0124603
1.84153e-05
6.12848e-05
0.000185906
6.14259e-05
2.20208e-05
0.00552572
0.0134733
2.08283e-05
6.15243e-05
2.21218e-05
1.85102e-05
2.12612e-05
0.0124258
0.00036755
2.62751e-05
4.01644e-05
3.78551e-05
0.00419335
7.06808e-05
2.1816e-05
0.000850772
0.000129873
3.73617e-05
3.87627e-05
0.000306244
5.33524e-05
2.53123e-05
0.000105529
2.1489e-05
2.11571e-05
1.9142e-05
2.84312e-05
2.13582e-05
6.28319e-05
2.32676e-05
3.21676e-05
4.66731e-05
3.27187e-05
0.000148384
7.74336e-05
0.000107982
0.0033978
2.0564e-05
2.83507e-05
0.000126726
6.84345e-05
2.24357e-05
2.38384e-05
1.79359e-05
0.00263523
8.47518e-05
3.35941e-05
3.19221e-05
5.29478e-05
7.13329e-05
5.09695e-06
2.14374e-05
0.00114839
0.00012107
0.000143552
0.0145101
5.14839e-05
5.81262e-05
2.2257e-05
0.000107854
2.1584e-05
2.11244e-05
0.000105913
2.48773e-05
3.3058e-05
2.61684e-05
2.45642e-05
2.14973e-05
3.44212e-05
0.000120834
2.12509e-05
5.41275e-05
0.000119293
0.000165367
2.68814e-05
0.000128969
0.000152188
3.61894e-05
1.85993e-05
2.32884e-05
2.21922e-05
8.73043e-05
0.000102804
2.40584e-05
2.19354e-05
2.22192e-05
4.28577e-05
2.44091e-05
0.000141589
2.04103e-05
3.9082e-05
6.74103e-05
3.9784e-05
0.00887885
7.79605e-05
3.50781e-05
2.13111e-05
0.00890274
0.00227212
2.40225e-05
5.7407e-05
5.10147e-05
4.15298e-05
9.20182e-05
2.15757e-05
0.000117532
2.10323e-05
0.00013025
2.15693e-05
2.92935e-05
2.10502e-05
4.27542e-05
5.43885e-05
2.18038e-05
3.28e-05
2.07024e-05
2.56773e-05
2.09831e-05
2.08756e-05
0.000145301
2.32266e-05
2.63135e-05
1.97122e-05
0.000505255
4.91288e-05
2.12216e-05
3.2926e-05
2.12189e-05
5.27843e-05
5.97784e-05
9.00047e-05
1.42395e-05
2.37261e-05
5.84844e-05
0.000570477
3.02364e-05
2.74632e-05
0.000601867
1.67786e-05
0.000123912
3.76307e-05
2.18904e-05
2.16863e-05
1.82534e-05
0.0113997
2.6596e-05
2.14684e-05
2.0642e-05
2.12029e-05
0.00302996
6.70706e-05
0.000390989
2.57919e-05
4.39333e-05
0.000190211
2.05404e-05
2.11379e-05
0.00283511
8.9423e-05
0.00322539
3.0535e-05
1.53233e-05
0.00162617
0.000282618
4.09031e-05
3.63807e-05
2.04233e-05
2.56491e-05
2.08246e-05
8.29173e-05
2.98425e-05
2.27408e-05
3.40351e-05
9.5974e-05
3.64122e-05
6.59686e-05
0.0141431
3.73361e-05
3.62339e-05
2.09033e-05
4.39699e-05
0.0201556
9.30781e-05
2.17604e-05
2.5327e-05
2.90364e-05
0.00184242
5.84551e-05
0.000934337
3.21345e-05
2.18219e-05
2.12907e-05
0.000150635
0.00040697
2.09414e-05
2.09208e-05
5.73723e-05
4.99667e-05
2.41088e-05
3.01779e-05
0.000238954
3.49368e-05
3.4929e-05
0.000129013
0.00159463
2.87252e-05
2.09305e-05
9.99278e-05
2.34139e-05
2.10313e-05
0.000158382
2.33376e-05
0.000136867
2.19179e-05
1.96633e-05
2.26776e-05
0.000158227
4.23588e-05
2.10382e-05
7.15904e-05
2.58178e-05
2.09909e-05
2.18956e-05
2.35466e-05
2.21747e-05
4.61846e-05
3.6876e-05
2.85662e-05
4.24794e-05
4.13389e-05
2.34743e-05
0.00412468
6.63618e-05
3.32411e-05
0.000203838
0.0176983
4.21984e-05
5.12798e-05
2.12002e-05
6.49451e-05
2.59542e-05
4.17721e-05
7.44115e-05
0.000229255
7.63379e-05
2.685e-05
5.23846e-05
0.000109937
2.99744e-05
3.66512e-05
2.1065e-05
2.53031e-05
5.18294e-05
0.00625897
4.02939e-05
2.29263e-05
2.16178e-05
8.27317e-05
2.70014e-05
7.73191e-05
0.00740146
3.91012e-05
0.0168808
2.13089e-05
0.0136277
5.29986e-05
0.00615905
0.00013238
9.44215e-05
0.0165198
0.00117861
3.76691e-05
0.000105724
2.1289e-05
9.62066e-05
2.19112e-05
7.73134e-05
1.80555e-05
0.000162991
0.000364827
4.19746e-05
9.17393e-05
2.08884e-05
0.00213942
2.10945e-05
2.11031e-05
2.76195e-05
8.08329e-05
2.1923e-05
2.10732e-05
0.000376662
4.88933e-05
1.77768e-05
2.04765e-05
5.38149e-05
2.10691e-05
4.16778e-05
2.04824e-05
2.39054e-05
2.08642e-05
3.68812e-05
1.93391e-05
5.12009e-05
0.000111896
2.1786e-05
0.000253241
0.000254153
6.47546e-05
5.81124e-05
0.00562998
4.07272e-05
0.000346806
2.81617e-05
0.000107368
9.90613e-05
1.90981e-05
2.12139e-05
2.04964e-05
0.00021398
2.19331e-05
0.000153343
1.9291e-05
2.34148e-05
2.12339e-05
2.49881e-05
4.73474e-05
0.000114166
2.2552e-05
5.34917e-05
2.15502e-05
4.27529e-05
4.76082e-05
2.11852e-05
3.32442e-05
0.000276784
0.00014288
0.0102293
4.82039e-05
0.000177447
4.76191e-05
0.000110341
0.000114576
0.00019879
2.81085e-05
6.82989e-05
2.67982e-05
0.000641374
9.06205e-05
0.000125386
0.000102042
6.13163e-05
4.07461e-05
4.41466e-05
3.12239e-05
2.122e-05
5.06007e-05
0.000342073
2.22007e-05
8.13498e-05
5.01463e-05
1.61035e-05
3.46825e-05
5.34236e-05
1.92792e-05
9.1411e-05
2.78876e-05
0.000137833
2.08748e-05
0.000213756
4.38446e-05
1.99067e-05
1.74232e-05
6.88534e-05
8.40614e-05
9.42127e-05
0.000129429
2.16267e-05
7.85017e-05