/*--------------------------------*- C++ -*----------------------------------*\
| =========                 |                                                 |
| \\      /  F ield         | OpenFOAM: The Open Source CFD Toolbox           |
|  \\    /   O peration     | Version:  v2012                                 |
|   \\  /    A nd           | Website:  www.openfoam.com                      |
|    \\/     M anipulation  |                                                 |
\*---------------------------------------------------------------------------*/
FoamFile
{
    version     2.0;
    format      ascii;
    class       volScalarField;
    location    "0.654544";
    object      epsilon;
}
// * * * * * * * * * * * * * * * * * * * * * * * * * * * * * * * * * * * * * //

dimensions      [0 2 -3 0 0 0 0];


internalField   nonuniform List<scalar> 
83563
(
3.1789e-05
3.10177e-05
7.84194e-05
0.000187406
3.72029e-05
0.000137778
5.33738e-05
0.00283571
0.00074552
0.0334302
0.000573414
0.000117769
2.37719
2.98424e-05
0.00250053
0.00164406
2.93455e-05
2.99598e-05
0.00155035
2.98122e-05
2.94294e-05
2.98075e-05
0.0050109
0.0405627
2.9467e-05
9.89383e-05
3.80647e-05
0.0424856
9.09779e-05
3.54311e-05
0.000107031
8.27875e-05
0.00109263
3.24247e-05
3.00149e-05
0.000245862
2.85274e-05
3.70204e-05
4.73073e-05
0.00334751
3.93779e-05
0.000367675
7.05224e-05
0.000262
0.774738
0.00822573
0.000717853
0.0039623
1.65256e-05
0.432688
1.25872
0.000627955
0.433953
0.857295
0.000700945
6.15301
4.49093e-05
0.617927
0.741906
0.00296398
0.941381
0.0742655
2.06505e-05
7.41655e-05
3.85797
2.87458
0.340294
0.000489365
0.134326
1.31702
0.00348661
6.2414
3.66907e-05
4.27968
6.1699e-05
0.0469848
0.000722095
3.58453e-05
3.36982e-05
1.83565
3.36294e-05
3.26999e-05
4.22616e-05
0.0721014
5.78164e-05
3.26336e-05
2.96677e-05
0.00159518
3.249e-05
2.92684e-05
0.00314307
3.20593e-05
0.0209217
0.0044887
0.337036
0.00569305
0.12413
0.0222089
1.50569e-05
0.00377273
0.000796144
4.04648e-05
0.000722095
4.39635e-05
0.000592783
9.45761e-05
0.00025209
3.18677e-05
0.264329
2.99504e-05
0.00760372
0.000912988
0.00150389
0.000502506
2.96841e-05
3.93248e-05
0.73107
0.0104111
0.000233804
4.02092e-05
0.000627755
0.000283
0.0028944
0.0853911
0.00393263
4.68554e-05
0.0283105
5.51367e-05
0.00364435
2.00027e-05
0.753976
3.28268e-05
0.000552709
0.23871
0.000258012
2.94841e-05
0.00342666
3.31842e-05
0.000140381
1.11331
0.000530436
1.08204
2.14947e-05
0.00105139
0.0119686
1.30559
0.00056601
3.86547e-05
0.000841377
5.76142e-05
0.0981394
2.92851e-05
5.38965e-05
0.00153004
3.09763e-05
3.32898e-05
3.04486e-05
1.68138e-05
4.06505e-05
0.00641449
0.00194727
3.11674e-05
4.42789e-05
4.62354e-05
0.00675304
0.00669408
3.54229e-05
0.115726
3.30766e-05
0.00655916
4.38562e-05
3.46578e-05
0.00633756
0.00319433
0.00785936
2.27393e-05
0.000109428
0.00034937
0.000759565
3.23846e-05
0.000139883
3.38126e-05
0.00238912
0.000731128
0.0133616
0.0541881
0.0026521
5.11568e-05
0.00343594
3.78952e-05
3.32792e-05
0.0227117
0.037951
0.038713
2.50223e-05
0.0115692
0.000488525
0.0072415
3.06577e-05
0.0018166
0.00157192
0.000108757
0.00989662
3.10771e-05
0.017054
0.00843438
0.000319713
0.832261
3.01114e-05
0.00013555
0.00349386
0.0842031
4.34242e-05
3.59181e-05
0.000651243
0.00110557
0.000963567
3.53249e-05
4.89716e-05
3.74465e-05
2.96268e-05
1.64249e-05
0.000330143
0.000254084
0.0201595
3.71027e-05
0.0634462
2.98773e-05
0.000106904
0.016989
3.09003e-05
9.86039e-05
3.03582e-05
0.000185856
0.774174
2.92837e-05
0.00298506
4.19243e-05
3.53364e-05
3.86647e-05
0.00347103
0.000731942
1.9961e-05
3.63435e-05
0.000668575
3.31461e-05
0.940877
4.00011e-05
0.364088
0.000161929
0.00170624
3.03872e-05
0.000116344
0.0162284
0.000228397
0.000127989
3.02254e-05
0.00809138
4.22511e-05
0.000148157
0.00014369
0.000496803
0.854961
0.00244682
3.82845e-05
0.000199013
0.00186582
0.00114353
3.53871e-05
3.22107e-05
0.00157926
0.00392995
0.000734164
0.000260209
0.00353361
0.000107303
0.0132106
0.00281568
4.66063e-05
3.28709e-05
0.0043298
7.06013e-05
3.27481e-05
0.00460949
0.00207351
2.97906e-05
0.0139653
5.96398e-05
3.91895e-05
2.15713e-05
0.0120658
3.38447e-05
0.0166976
3.92174e-05
4.33188e-05
0.00124701
0.000862048
0.00188486
3.26744e-05
2.75412e-05
2.87588e-05
0.000238123
0.000225477
2.97892e-05
2.95603e-05
0.00906406
0.0137181
2.0519
0.00158953
0.00957296
0.000739022
0.000145701
0.919992
0.00562298
1.52378
0.000147237
4.14454
0.00163637
4.01153e-05
2.87529e-05
0.0225035
0.00208932
3.21688e-05
7.17088e-05
3.12607e-05
3.33775e-05
0.0170853
0.527847
0.000778462
0.0167514
0.00106375
3.99788e-05
3.2113e-05
0.621785
3.41596e-05
3.44997e-05
0.000430396
8.36387
0.00316293
3.34829e-05
1.85593
1.40397
5.75958e-05
2.98246e-05
0.000359535
4.03474e-05
0.0053463
0.000154375
0.00792035
3.13596e-05
2.99378e-05
0.00127109
0.000111016
0.000132408
3.38432
2.97062e-05
0.00161398
0.00141405
0.000212644
0.0516162
4.20205
0.0388469
1.38087
0.474768
1.32229
0.0137752
0.032403
0.0023673
0.000678573
3.05651e-05
0.000136935
0.000739164
0.00327067
4.59327
1.89393
0.000462069
0.355566
0.000295859
5.77929e-05
0.000220258
5.50479e-05
0.000102548
9.53891e-05
8.43389e-05
0.489423
1.04269
0.000147887
0.000592133
0.694191
0.000978998
0.00583182
0.000329645
9.38419e-05
0.814613
0.000143473
0.00623648
0.00144459
0.00258176
0.000126343
2.99346e-05
0.000289903
3.49239e-05
2.86423e-05
0.00245142
0.0127088
7.07046e-05
1.24154
0.000143962
3.00493e-05
0.00131767
1.49711
5.42672e-05
6.15089e-05
3.66701e-05
0.662
5.43319e-05
5.04414e-05
1.44416e-05
1.28986
0.000109791
3.26646e-05
3.56399e-05
1.71583
4.871e-05
0.00418396
2.05631
0.000775679
0.0174027
3.1439e-05
0.000822107
8.33165e-05
0.000258035
0.000722867
0.000122284
1.87651
0.00250485
0.0976121
3.45313e-05
0.00203364
0.0828897
0.00475592
0.000835311
0.0437285
7.27839e-05
0.00177445
0.000683963
0.000684861
0.00628288
6.54854e-05
26.2439
0.00528712
6.78655e-05
0.000311801
7.05237e-05
0.00384505
0.00954161
5.99867e-05
5.74489e-05
3.53187e-05
0.00242405
4.0963e-05
0.701511
0.000101537
3.65938e-05
5.82062e-05
6.9617e-05
4.14793e-05
0.000139792
0.000136129
0.000639216
0.00107715
0.000884912
5.52811e-05
0.00155547
0.000370771
0.00770635
0.000253436
0.000274224
0.000153146
7.3734e-05
8.30321e-05
4.44419e-05
0.000552258
2.70288e-05
4.02627e-05
0.000180837
0.000232799
0.00327943
0.0625481
3.19233e-05
3.27797e-05
0.000188745
0.000302794
0.237913
0.0214049
3.44072e-05
0.000124366
0.000173106
0.000147527
5.53457e-05
3.04439e-05
0.000744785
0.000169212
3.88879e-05
0.00104217
3.45737e-05
2.03555e-05
0.0016861
0.000486026
0.00105864
4.23875e-05
3.66362e-05
2.9435e-05
2.98008e-05
8.50634e-05
0.000119264
1.93312e-05
0.256505
0.79205
7.30284e-05
0.000473424
0.00609289
0.000983938
0.00127992
0.00359746
5.55795e-05
0.00166844
0.985758
3.88916e-05
5.09211e-05
8.55964e-05
3.26044e-05
0.000277999
9.69297e-05
8.43128e-05
0.000126812
0.363933
0.0202123
0.00178766
0.347217
0.000454398
0.000115641
0.598073
8.31063e-05
0.000113505
0.00167013
0.000129295
0.00228194
0.378213
0.00122566
0.000565022
0.000157737
0.00131187
0.0029811
3.79454e-05
0.0016438
0.00468396
4.1481
0.171662
2.93927e-05
0.0021331
1.81574
0.000144622
0.00163594
0.0189376
5.51497e-05
0.0611988
3.57512e-05
3.74618e-05
0.00184519
0.500049
0.00116136
5.14381e-05
0.000442431
0.14437
0.00391237
5.8616e-05
3.77352e-05
0.000232949
4.48361e-05
4.38528e-05
1.96984
0.000974051
0.000536703
5.15963e-05
0.000114056
3.24576e-05
0.000107999
2.99195e-05
3.27754
2.95591e-05
7.39404e-05
3.01276e-05
7.08045e-05
0.000334676
3.01138e-05
3.57406e-05
3.27145e-05
2.99986e-05
3.59029e-05
7.73302e-05
3.11154e-05
2.95194e-05
2.97822e-05
0.000126939
0.000121475
0.0369496
0.000454317
3.60795e-05
3.63781e-05
5.7365e-05
3.75167e-05
3.03141e-05
8.33789e-05
0.145091
0.000136331
0.000361293
0.000120687
0.00376431
0.00268983
0.00173843
0.212674
0.000427191
4.49612e-05
3.21363e-05
0.000215464
0.000555206
4.00361e-05
0.000240244
3.29855e-05
6.57274e-05
0.000238999
9.51803e-05
0.000376135
2.97701e-05
0.0179474
0.000450697
0.0012431
2.97979e-05
4.41014e-05
0.000166025
0.00630504
0.00853099
3.32551e-05
2.18815e-05
2.98869e-05
3.00006e-05
3.52755e-05
1.62347
0.000538768
0.000407312
0.00133415
0.00543106
0.00419336
0.0125882
0.000127208
0.00627388
4.58172e-05
6.19838e-05
0.000587318
4.48522e-05
0.329022
0.000228468
0.000365274
0.404836
2.98047e-05
2.8785e-05
3.27629e-05
4.17136e-05
0.0143996
0.000992801
0.000501694
8.43606e-05
0.00133525
0.0065309
0.000523224
0.00486125
0.000788233
0.000463508
0.022181
0.510627
0.000743031
0.0132538
0.742621
3.07119e-05
0.000204643
0.0135836
0.000409218
0.0200338
0.000123225
0.000175337
0.000647308
6.36087e-05
0.00896962
0.00992169
0.370148
0.000295091
0.0264724
8.23451e-05
0.000154648
0.000500704
7.09257e-05
2.98475e-05
0.000205148
0.0523263
0.00183812
4.32554e-05
0.000181171
0.000699697
0.000601686
3.02746e-05
0.000275364
3.0172e-05
2.85183e-05
0.000403482
3.11124e-05
3.93722e-05
2.58173e-05
0.00118777
0.391791
3.19209e-05
0.0328739
3.72857e-05
0.00025621
6.27099e-05
1.84139e-05
2.93399
2.76095
0.000118552
1.21834
3.59043e-05
3.12955e-05
4.37952e-05
0.00598861
2.47354
0.0029736
2.83019e-05
7.34387e-05
1.29392
4.57249e-05
0.000133667
0.00160908
3.48486e-05
0.00356999
0.000552172
0.000144271
0.000773317
0.0165221
0.267191
7.12455e-05
0.00012466
0.000154555
2.93135e-05
0.937783
0.00126485
0.00518598
2.98492e-05
3.01575e-05
0.00969727
0.000109197
4.61683e-05
3.42252e-05
0.0550177
3.28013e-05
0.00137171
0.000112239
2.94875e-05
4.653e-05
0.00165333
0.000190858
0.00015618
3.23712e-05
3.23417e-05
0.00047133
5.56678e-05
0.000162518
4.71489e-05
0.0353602
3.52204e-05
0.000194725
0.00055362
0.683416
1.3516
5.61337
3.19656e-05
2.7765
0.000131538
0.00265003
7.15774e-05
0.000577648
0.0024373
0.0982909
0.000121974
0.89373
0.00180216
0.000674777
0.000243623
9.20709e-05
3.8685e-05
0.000158699
0.00124043
7.02572e-05
0.00398991
3.5845e-05
5.58705e-05
3.55823e-05
0.0023368
2.70995
0.172627
0.00420469
0.000130247
3.21817e-05
0.204145
0.0854644
0.0154032
0.0875996
3.15922e-05
0.0112612
8.88107e-05
3.18681e-05
0.000926075
0.00012888
0.270993
0.00446825
0.000589963
0.0030929
0.00297451
5.48717e-05
0.0310354
7.17161e-05
3.06134e-05
0.268091
0.000158636
0.00332691
0.000129537
2.98906e-05
3.01858e-05
1.78435e-05
8.37314e-05
0.00119993
0.00934103
0.381078
3.35699e-05
3.1056e-05
0.000134723
0.00491479
0.00597647
0.000150176
0.00364955
4.41229
0.000293269
3.41876e-05
3.77233e-05
2.95359e-05
6.28544e-05
0.213151
3.56098e-05
0.00250653
0.00152657
0.000742653
4.1559e-05
0.000219443
3.68714e-05
3.48719e-05
0.00426186
3.6005e-05
0.0100983
6.56906e-05
0.000284068
3.90901e-05
0.000693097
0.0238976
0.00595463
4.17064e-05
0.000111224
0.000576449
5.31656e-05
3.31438e-05
3.08071e-05
3.78071e-05
2.9122e-05
2.19827e-05
0.00013517
4.24756e-05
3.12594e-05
0.376805
0.0107706
0.000278975
0.0937557
0.773071
4.35184e-05
0.0322203
3.59769e-05
4.58642e-05
3.19625e-05
3.16167e-05
0.00146908
3.0911e-05
0.000746493
0.000944054
0.000106768
3.50412e-05
9.18468e-05
0.000485024
4.29518e-05
0.000179528
0.000407969
3.32863e-05
0.000115584
0.00136573
3.61284e-05
4.34214e-05
3.02026e-05
0.000310591
0.000205969
0.631372
0.599384
3.16574e-05
0.195393
2.97056e-05
3.84543e-05
0.00466658
0.00164298
0.0033468
7.00623e-05
8.81452e-05
0.00144452
0.000143566
0.760691
8.04933e-05
0.00071145
0.0190369
0.0025118
0.00142287
1.06188
0.00217049
0.0203398
4.76298e-05
0.0018796
0.182661
0.00179427
0.000203047
0.00803197
1.67298e-05
3.22133e-05
2.99883e-05
0.000574734
0.000459509
0.00024798
5.43366e-05
4.84338e-05
4.15939e-05
8.74397e-05
3.5049e-05
2.92595e-05
0.00167857
0.233611
3.65582e-05
2.90179e-05
2.96464e-05
0.00155802
2.96903e-05
9.27739e-05
3.08648e-05
0.00378826
0.00566235
0.000429035
3.10963e-05
0.0201224
0.000558376
0.000679455
0.00020042
3.96291e-05
4.58231e-05
0.000146332
0.00444758
0.000104215
0.000190365
3.12477e-05
0.000339871
4.05588e-05
0.00103729
0.000208666
5.6938e-05
3.41303e-05
0.000560589
0.00375293
0.00288398
2.81184e-05
0.000202449
0.0233908
0.00228778
3.44176e-05
5.14327e-05
3.46553e-05
0.000366811
0.00697138
0.00137853
0.00373898
0.00637611
0.000141415
3.0865e-05
2.91357e-05
5.66936e-05
0.0793633
9.95996e-05
0.00402162
0.00927844
0.0166327
0.000185992
0.000124162
4.38e-05
0.000534534
6.14681e-05
0.000163059
0.0264498
0.000479987
0.00283076
0.00718409
0.0281892
0.000156057
8.60905e-05
0.00628031
0.00134308
0.000191431
3.50782e-05
2.94039e-05
0.00528503
2.58427e-05
3.02866e-05
0.00742879
0.000932994
0.000335556
1.95275e-05
3.55422e-05
2.91562e-05
4.66499e-05
4.01554e-05
0.000411496
0.000155212
4.74988e-05
0.00226471
5.30601e-05
0.00456706
2.94603e-05
0.00742086
1.87243e-05
6.92141e-05
4.34169
6.34055e-05
14.2404
8.93058
4.33026e-05
2.87357e-05
3.01697e-05
0.0017046
3.08582e-05
0.00221521
3.28972e-05
2.85854
3.29318e-05
3.04393
0.00117268
0.358724
0.000958219
3.26232e-05
0.00117894
0.000610121
0.000428178
0.000760186
0.00102209
0.000556274
20.9459
7.32017e-05
0.0718471
2.16941e-05
8.62221e-05
0.000435871
0.000733862
10.75
3.00052e-05
0.000898666
0.00088763
2.94919e-05
0.00212119
39.9715
6.07769e-05
0.00157671
2.37332e-05
0.0349994
1.48673
0.00432003
0.00323849
0.000506559
0.000791266
0.00282527
3.38964e-05
0.00350634
0.00470791
0.0010922
0.00636486
4.09445e-05
0.0130641
0.00210162
0.000912954
7.03675e-05
0.000107798
3.03837e-05
0.0029107
3.20342e-05
9.93869e-05
5.12028e-05
0.00013552
3.67681e-05
0.003324
0.000259494
0.00421898
6.43642e-05
0.00103385
0.000408863
0.464189
3.11223e-05
8.33717e-05
3.87578e-05
0.000213419
0.000363916
0.0119142
2.9362e-05
0.00526383
2.76895e-05
3.1488e-05
0.00207975
1.85523e-05
7.50859e-05
4.28631e-05
3.10634e-05
3.03886e-05
0.0129638
3.98055e-05
2.01041e-05
6.65567e-05
0.000161426
3.34585e-05
2.952e-05
0.0011815
0.000228169
2.18773e-05
0.0013303
0.00039921
3.12736e-05
0.000339973
5.05385e-05
2.85873e-05
4.48212e-05
3.20595e-05
0.000970058
3.01974e-05
2.94977e-05
3.37393e-05
4.32102e-05
0.0102821
2.85284e-05
0.00368255
2.90686e-05
4.23759e-05
3.62371e-05
0.000137714
0.000145055
0.000248902
0.000116149
0.0001041
0.000169089
0.00284783
0.000212967
0.000240813
0.000495028
0.00192552
0.000131313
0.0111483
3.17267e-05
0.000115535
2.20368e-05
0.00701429
3.45508e-05
2.88915e-05
3.34709e-05
3.86971e-05
0.00158638
0.017493
7.66537e-05
0.00208731
0.393603
0.837447
0.800739
0.0706229
0.0406384
4.59908e-05
0.000191867
0.000113114
0.00539488
0.000125248
0.0982532
2.22279e-05
4.36705e-05
0.00178659
0.0130152
6.09164e-05
0.00197837
0.000919129
0.000318698
6.65853e-05
0.000718797
3.04456e-05
4.3863e-05
13.5515
3.00944e-05
0.781683
1.55578
0.00176648
0.000495858
3.12898e-05
9.93213e-05
7.18643e-05
0.00596648
3.3029e-05
0.00347342
0.00104596
5.66558
0.00428735
5.48135e-05
7.34167e-05
3.57608e-05
0.000242896
3.10666e-05
0.00058753
3.29719e-05
0.0367333
0.277154
3.29762e-05
3.19273e-05
0.0458218
0.000186816
6.67527e-05
0.00104375
5.01383e-05
0.00028078
0.113015
3.10967e-05
0.00272217
1.82961e-05
0.00698054
0.00027836
3.14952e-05
3.69936e-05
0.00281133
0.230359
0.00391685
0.000866776
3.51055e-05
0.00136834
0.000116791
0.00032434
0.00133872
0.000275403
4.69104e-05
0.0213103
4.74102e-05
2.70273e-05
1.71273e-05
5.32271e-05
0.00120157
0.00122484
7.90119e-05
4.63896e-05
0.000175594
0.000891031
3.22177e-05
0.0022078
0.00039454
0.00115135
5.46661
3.61905e-05
4.17381e-05
0.00114168
0.628871
0.00115466
0.000433066
0.00243893
3.39981e-05
0.839806
0.00031316
3.25039e-05
3.0707e-05
0.000523452
3.90646e-05
3.90584e-05
0.00310654
0.000405907
9.09808e-05
0.000173778
0.00383889
0.0128154
3.09896e-05
0.0034272
0.000188369
3.50236e-05
2.83302e-05
0.000380769
0.00425369
4.43704e-05
2.98267e-05
3.10825e-05
1.90728
3.11748e-05
3.16896e-05
3.13661e-05
0.00236549
4.63362
2.98554e-05
1.24973
8.45594e-05
2.89955e-05
0.0534629
0.000370071
2.0601
2.80302
0.000447378
0.00361229
4.03288
0.505771
3.64445
0.00428216
0.000430387
3.12685e-05
3.09913e-05
0.000326503
0.0271919
2.95706e-05
0.00714285
3.09307e-05
3.83627e-05
0.0050821
7.26485e-05
4.30362e-05
3.04569e-05
0.000891597
0.205611
0.00013884
0.00227952
0.00153124
0.00048067
0.0045816
0.00050504
0.00142173
0.00249267
0.00238539
6.71236e-05
0.00381164
3.65107e-05
0.000358055
4.16919e-05
0.000102602
0.000514744
9.44067e-05
3.19116e-05
3.03824e-05
0.000361231
6.51315e-05
5.51655e-05
4.00073e-05
2.98038e-05
0.00024706
0.00261879
0.000875426
2.97344e-05
8.6358e-05
0.406332
5.70077e-05
0.0262481
0.00979053
3.94816e-05
4.42054e-05
0.000104359
2.99786e-05
1.93781
4.03856e-05
0.000794818
0.000186789
0.00652217
0.00015783
3.12745e-05
3.44506e-05
0.368304
2.91081e-05
0.0185355
0.000686107
0.00716964
0.00847889
2.56264e-05
4.32651e-05
6.83554e-05
0.00433238
0.00233204
0.0255942
0.00363492
2.90087e-05
3.10427e-05
2.88677e-05
0.000177613
9.32662e-05
0.00163075
3.29962e-05
0.00182317
0.000108434
0.000164696
0.000247687
0.000588357
0.000425756
0.000150493
3.14473e-05
2.80993e-05
0.000117417
3.66861e-05
0.000117987
5.83402e-05
0.00293282
0.000119365
4.03314e-05
9.03104e-05
0.000451689
0.00121951
0.00307638
0.000829365
0.000189426
0.00255726
0.105105
3.42251e-05
6.62519e-05
0.933462
2.9367e-05
0.000100612
3.03399e-05
8.44128e-05
2.93419e-05
3.09335e-05
3.89169e-05
0.000100478
2.68272
0.000110094
0.000762509
0.000130125
0.000107644
0.00358108
3.15159e-05
0.000991299
0.000315091
0.0460477
0.540345
0.000185974
0.000275626
3.75707e-05
0.000441428
2.60908
3.73326e-05
3.09381e-05
0.00656349
1.25963e-05
1.23262
0.0160068
0.000362011
2.90631e-05
0.0016314
2.88244e-05
0.000631584
0.000109985
4.89773e-05
0.0103687
18.6145
0.000184239
3.06274
0.00315818
0.00208339
0.000715925
0.00257676
0.000116625
2.09714
0.00316648
7.01892e-05
0.00195264
3.68343e-05
0.0114758
0.634726
0.00350631
4.17104e-05
3.1503e-05
0.0156279
0.00646725
1.9958e-05
6.44946e-05
0.00655768
0.00484099
1.81522e-05
4.43946e-05
0.000176355
0.684631
3.18116e-05
0.00929078
5.96799e-05
9.24522e-05
3.29324e-05
3.20298e-05
2.88437e-05
3.29379e-05
0.000171152
0.0018674
0.000155756
0.000328927
0.00328585
3.486e-05
3.243e-05
0.00064207
0.0245566
0.000228233
4.14826e-05
0.000299273
0.00492999
0.000830602
3.79283e-05
0.000238321
0.000142725
3.02942e-05
9.67734e-05
8.01994e-05
0.00032775
0.000899782
0.00652324
3.26004e-05
2.96486e-05
0.100386
0.426309
3.30971e-05
0.00196945
0.533477
0.259608
0.000176021
0.48465
5.2183e-05
0.00248634
0.000478831
1.48591
3.69614e-05
0.000262498
5.57558e-05
0.000117628
9.50979e-05
3.04255e-05
0.000111502
3.58061e-05
0.728884
0.000319523
0.000153181
3.11712e-05
2.2928e-05
0.00448651
9.22386e-05
4.0305e-05
8.15959e-05
0.00010017
3.55088e-05
3.07458e-05
1.07302
0.00466767
0.00318361
0.0034681
3.1393e-05
0.312085
0.00378903
3.54065e-05
2.93193e-05
0.000119294
0.000283587
8.12589e-05
0.00086563
0.00105548
0.00296381
22.2254
3.81551e-05
3.10535e-05
0.00229085
0.0249135
0.199221
4.32968e-05
0.00268749
0.000610168
0.000392168
0.00504087
3.27767e-05
0.0142938
6.67051e-05
5.44801e-05
0.0842241
0.00354036
0.00309527
0.00260468
0.0255746
31.7394
6.72856
3.8076e-05
0.000455748
3.73534e-05
4.59573e-05
0.0279524
4.86648e-05
0.00114014
3.20117e-05
3.62223e-05
3.93628e-05
44.3152
55.3765
3.23157e-05
3.3396e-05
3.74815e-05
2.15354e-05
3.92809
33.1379
0.000236072
0.000107701
2.94717e-05
0.000684356
4.43609e-05
0.000144395
2.36221e-05
3.29617e-05
0.000188182
2.63439e-05
0.000841285
2.76715e-05
0.000133279
2.8598e-05
0.00114878
0.000377507
0.000901667
3.05981e-05
0.00105664
1.63386e-05
0.000667952
0.00231847
0.000579596
9.18348e-05
0.00526045
0.0032432
0.00612846
0.00120263
0.000644233
0.000391935
0.00488303
0.00152621
0.00409425
0.00134206
0.870766
0.00721812
3.84605e-05
0.000512153
0.000134948
0.00252756
0.00401518
1.03635
3.56384e-05
0.000247686
0.000204255
0.00112422
0.00318527
3.20242e-05
3.27622e-05
0.00013764
2.80899e-05
3.21788e-05
0.00332539
0.00127703
0.000116231
0.000288399
0.000788271
3.54057e-05
0.0173583
0.0171556
2.45555e-05
2.9524e-05
4.96732e-05
0.000335578
0.000198733
0.000162721
3.45105e-05
4.04767e-05
3.4509e-05
3.28148e-05
0.0491194
3.33857e-05
3.98163e-05
3.3057e-05
0.000301006
0.000352438
0.00121274
0.122767
0.000567098
3.18122e-05
6.12155e-05
2.14004e-05
3.06599e-05
9.24873e-05
0.00191002
5.29548e-05
3.22641e-05
0.000223856
2.76922e-05
2.93364e-05
0.000260641
0.596003
2.93705e-05
2.94152e-05
5.98293e-05
0.0115826
0.00678781
0.000874692
0.00170878
9.93867e-05
0.00405911
0.000272864
3.21552e-05
2.92034e-05
0.0024551
0.000136268
4.27774e-05
2.93836e-05
3.02954e-05
8.8981e-05
0.640588
0.000201463
2.98817e-05
2.01918e-05
9.98891
2.91793e-05
0.000200305
2.9345e-05
0.00017371
3.04337e-05
0.000804884
5.28094e-05
4.67657e-05
29.7411
0.000633648
0.000948501
0.000230004
3.30404e-05
0.00120286
0.00325258
6.88734e-05
3.03685e-05
18.6493
0.00411576
0.000189297
4.28787e-05
0.000681548
2.95969e-05
3.50638e-05
1.55143e-05
3.7742e-05
0.0187242
3.32134e-05
0.000550807
1.16841
2.25194e-05
3.56712e-05
0.00113385
5.44602
2.93378e-05
1.18412
2.96004e-05
0.754103
0.000708947
8.77977e-05
3.63781e-05
0.00336256
0.000440824
2.75202e-05
0.000904628
0.000122768
3.31012e-05
4.42454e-05
0.000141232
3.05677e-05
0.000435783
0.000326566
2.69406e-05
0.000148628
0.00451096
0.000103921
3.5154e-05
1.31093
0.000100898
0.00153884
3.24587e-05
3.40704e-05
3.61794e-05
0.000193034
0.000297309
1.63215
0.000412242
3.04635e-05
2.30232
2.32006
3.01161e-05
0.000289148
1.56904e-05
5.34486e-05
3.14408e-05
0.000315842
2.63726e-05
0.000754843
7.00969e-05
15.9875
0.000397085
7.09669e-05
0.000901911
3.17413e-05
8.68698e-05
3.87001e-05
3.55634
0.952852
8.55385e-05
6.75962e-05
0.000275815
7.08453e-05
3.51271e-05
0.000643171
0.0192784
3.06762e-05
1.27958
4.21059e-05
3.64576e-05
0.000639064
4.53776e-05
0.0014796
0.0313222
0.000359372
0.00542189
5.43748e-05
0.000133487
0.000121476
4.41259e-05
0.000176043
0.000250751
2.99771e-05
1.18268
0.000914649
4.14345e-05
0.000116723
2.98176e-05
3.3604e-05
0.00250104
3.04194e-05
5.62036e-05
0.000223118
0.00382895
2.88903e-05
4.55119e-05
0.262711
0.00163672
0.304307
0.103525
0.00301424
0.00162557
0.0101901
0.00086158
0.000375928
0.000321451
0.0602666
0.00147495
3.12622e-05
6.29271e-05
2.77029e-05
0.00076327
0.0022673
0.00263365
11.0803
5.02024e-05
0.00430658
0.0406343
3.47892e-05
3.22463e-05
0.000296078
0.00773557
1.28656
3.3327e-05
3.71704e-05
0.000611048
3.05417e-05
0.00230837
20.702
0.000338401
0.000361002
24.6816
7.8633e-05
9.74264e-05
3.32917e-05
2.97575e-05
0.000823985
0.0058158
0.00100464
0.00426021
1.97635e-05
5.55741e-05
4.71528e-05
0.133583
3.02139e-05
3.00552e-05
0.88601
7.30568e-05
2.59782e-05
3.84765e-05
1.85424
0.000163762
0.32806
3.24824e-05
3.11653e-05
0.00692449
0.00393197
0.00129711
0.000682162
0.00177883
3.86516e-05
3.00885e-05
0.648212
0.483109
1.59036
3.7863e-05
1.15738
1.4227
4.70166e-05
3.9976e-05
0.000177619
0.00269163
0.000416907
4.1156e-05
0.00208777
2.83482e-05
0.682147
0.646107
0.10611
0.0123597
4.30019e-05
0.00347292
0.000283803
0.00221151
0.000999769
2.98901e-05
3.29392e-05
0.000115869
0.00629636
3.00944e-05
0.0290976
0.00652967
0.00274816
3.56872e-05
0.000645326
0.000857747
2.92871e-05
0.00591927
0.000276339
0.00778155
0.000298757
0.181372
0.000401274
3.3381e-05
3.10991e-05
0.000194393
0.210019
3.27268e-05
0.000207003
0.0153174
0.048776
0.00507301
0.12461
3.26046e-05
0.000120292
5.25214e-05
0.0132659
0.000111835
0.00155654
2.9345e-05
0.00579741
5.1722e-05
0.0848021
5.75602e-05
3.86377e-05
2.94399e-05
0.100088
0.105052
3.25104e-05
1.65878
2.99888e-05
3.19413e-05
0.000658028
0.000994577
0.000174387
0.000200729
3.19917e-05
0.0148461
0.00176956
3.51741e-05
0.00464362
0.00241783
0.00127892
0.000108572
0.000228111
0.000522666
0.00129037
0.000197391
0.0333033
0.000536153
3.34701e-05
0.000979234
0.000862618
4.14412e-05
8.86417e-05
3.0957e-05
0.000565809
3.16333e-05
1.56541e-05
2.45318e-05
0.000937498
3.96857e-05
0.000491865
0.00238091
7.33127e-05
3.11429e-05
4.20328e-05
0.00106374
0.0257431
5.71338e-05
2.11862e-05
4.61904e-05
2.90384e-05
2.85476e-05
0.00295445
2.02651e-05
2.756e-05
3.12302e-05
0.000194629
2.91235e-05
2.93563e-05
3.02049e-05
0.000533907
0.00477899
0.00217087
0.251715
0.00280463
6.2523e-05
2.98188e-05
2.3416e-05
0.952854
1.23518
0.00138212
2.92982e-05
2.94497e-05
5.02209e-05
3.02844e-05
0.172928
0.00307497
0.000399741
0.397033
1.47092e-05
0.00010305
3.12519e-05
0.0709065
0.00444701
0.456211
5.3884e-05
5.69875
0.00153154
0.000815874
3.27962e-05
0.4805
0.00164715
0.0465324
0.00226506
0.00128624
0.00251906
3.44921e-05
0.129754
3.72743e-05
7.82142
15.3384
26.8248
7.18863e-05
0.00192685
0.00803417
0.00135847
3.56902e-05
4.50804
34.5165
2.9262e-05
0.00207984
3.53296e-05
5.62144e-05
3.18396e-05
26.9855
0.0125635
7.91803e-05
0.000555245
0.00194855
0.333649
0.000665182
2.89615e-05
0.029804
0.0183909
0.000173951
0.00115763
0.0288717
0.00139041
6.06292e-05
0.00527858
8.8707e-05
3.05319e-05
0.00019153
6.65301e-05
3.12525e-05
0.000466268
5.44868e-05
0.000210036
0.000306517
0.000114648
0.00808584
0.116651
7.30229e-05
1.09798
3.44737e-05
0.000185548
0.232462
0.000692363
3.6241e-05
0.000173681
0.000410886
1.26964
0.00218233
0.0771738
0.000300792
0.000792162
1.53954e-05
0.0102768
3.23847e-05
0.10879
0.0118661
0.0050818
1.47164
0.000634065
0.00102118
3.75915e-05
0.00286273
3.19528e-05
3.50304e-05
0.00274031
0.000448945
0.000250697
5.44789e-05
6.8635e-05
3.17032e-05
0.000226858
0.00317494
3.25682e-05
0.00180772
0.00383854
0.00762963
0.000111144
0.00567841
0.196924
5.015e-05
4.39631e-05
4.29067e-05
3.43119e-05
0.00255534
0.00341148
0.00018695
0.000124028
0.000154277
6.49522e-05
9.64002e-05
0.00523982
3.88762e-05
6.29481e-05
0.00156247
0.000633115
0.761254
0.0020138
0.000734576
3.09136e-05
0.731983
0.366423
3.30297e-05
0.000637839
1.8168e-05
5.92764e-05
0.00237402
3.31625e-05
0.00301743
2.99419e-05
0.00486592
0.000455965
7.37533e-05
3.29293e-05
0.000260956
0.000530713
3.82301e-05
0.000214335
3.70567e-05
7.69433e-05
2.98213e-05
2.94057e-05
0.00832799
0.000117403
3.5857e-05
0.000297268
0.0959886
2.04588e-05
3.22988e-05
9.03963e-05
3.46032e-05
0.00132166
0.000443094
0.00283724
0.000302311
4.04198e-05
0.00280568
0.194078
0.000104775
7.62503e-05
0.0846468
0.000205526
0.000501088
0.000302277
3.30726e-05
0.000398303
0.00016131
6.26905
0.000120878
3.37394e-05
3.22682e-05
4.77333e-05
5.10096
0.00158553
0.11235
5.3345e-05
0.000504422
0.0275635
3.49585e-05
3.03521e-05
3.47752
0.00202994
1.97192
8.62307e-05
0.000280803
0.908299
0.0505558
0.000521587
0.000121073
3.93761e-05
0.000259627
2.92386e-05
0.00166471
0.000202334
0.000231567
0.000123796
0.00232967
2.54951e-05
0.00347048
1.35436
0.00045198
0.000535214
2.95093e-05
0.000211592
1.91566
0.0070414
4.06307e-05
0.000126841
8.41236e-05
0.901763
0.000831995
0.283225
0.000113862
3.57053e-05
3.23973e-05
0.00704166
0.353423
2.96732e-05
2.95821e-05
1.59494e-05
0.00274292
5.52227e-05
0.000239028
0.0324941
0.000587267
0.000322986
0.00849889
0.234466
0.000346512
2.95938e-05
0.00374144
4.06386e-05
3.0331e-05
0.0061912
3.88511e-05
0.00649996
3.34162e-05
0.000159062
0.000198343
0.00621021
0.000518336
2.99409e-05
0.00163602
0.000101056
2.9805e-05
0.000133529
3.74864e-05
3.42843e-05
0.000234432
0.000168879
7.73969e-05
0.000620993
0.000325314
4.1288e-05
2.57772
0.000197316
0.000397435
0.016829
2.41025
2.65589e-05
0.000446135
3.06823e-05
0.000659825
0.000324824
0.000424395
0.0019797
0.00850665
0.000299799
8.87814e-05
2.01581e-05
0.00438908
4.77641e-05
0.000397831
3.72231e-05
5.04089e-05
0.000745691
6.61071
0.000624939
3.95907e-05
3.21703e-05
1.24642e-05
5.62227e-05
0.00154409
8.81765
0.000588487
60.7304
3.09786e-05
32.8512
0.000603402
5.59246
0.0054206
0.00253095
53.4578
0.176485
0.000350799
0.00224811
3.11214e-05
0.00206357
3.39823e-05
0.00298703
9.0138e-05
0.00511418
0.0108584
0.000507162
0.00340339
3.24227e-05
0.625633
3.73494e-05
3.01795e-05
2.59304e-05
0.00268159
3.63419e-05
3.05371e-05
0.0391701
0.000490347
5.91388e-05
4.01682e-05
2.18225e-05
3.02316e-05
0.000265569
5.77492e-05
4.06984e-05
2.93786e-05
3.06127e-05
3.97555e-05
0.000958169
0.00633784
3.42191e-05
0.0363513
0.0264183
0.00111971
0.00197878
8.63206
0.000234266
0.690523
0.000420361
0.0056072
0.00525884
6.98073e-05
3.08818e-05
5.99222e-05
0.0237914
3.43614e-05
0.00914119
0.000146022
0.000414271
3.0732e-05
2.82346e-05
0.000309835
0.00325595
7.8578e-05
0.00051725
5.85981e-05
0.000142836
7.58708e-05
3.2105e-05
0.000179214
0.0841229
0.015071
0.540247
0.00146771
0.00598302
7.60327e-05
0.00363981
0.00428319
0.0265347
3.3529e-05
0.00271263
3.68998e-05
0.197934
0.00195899
0.0156932
0.00224064
0.00226192
5.77462e-05
0.000644307
2.66225e-05
3.40137e-05
0.000710596
0.0609211
3.4217e-05
0.0052217
0.000677555
0.000148329
2.61112e-05
2.5947e-05
0.000131887
0.000250925
0.000128544
0.0108013
2.94253e-05
0.0106289
0.000617417
3.93282e-05
8.33178e-05
0.000240784
0.00116497
0.000273146
0.00577526
0.000152776
0.0023061
0.000248877
0.000206207
6.25078e-05
0.00030735
0.00217098
3.79078e-05
0.160668
3.75357e-05
0.000927622
2.20434e-05
0.000965089
4.21144e-05
0.00291087
0.00418877
0.00805388
3.17208e-05
3.09376e-05
4.65245e-05
0.00391834
0.00157771
1.04196
0.00329053
0.0420035
1.03117
4.36643e-05
0.105259
3.57891e-05
2.4598e-05
3.72722e-05
0.00055066
2.16584e-05
0.00181529
0.00320614
0.000109159
0.000465943
0.00107091
4.81216e-05
3.07296e-05
3.62042e-05
7.83978e-05
0.000477108
0.000338849
0.00499505
3.69038e-05
0.000789291
0.0043927
1.03915
2.70036e-05
0.0326212
2.92025e-05
4.41649e-05
5.69489e-05
0.000238636
0.00320338
3.75184e-05
0.00281298
0.000257077
4.11536e-05
3.05365e-05
0.000186459
0.000583782
2.91663e-05
0.00109802
0.000887688
4.10273e-05
3.20631e-05
5.08274e-05
0.00464969
0.000488585
0.0149903
4.51995e-05
0.000455961
0.00680919
3.95583e-05
0.000461352
0.000246675
2.99727e-05
3.09242e-05
0.0687464
0.000112215
0.000437169
3.39482e-05
2.8137e-05
5.34507e-05
1.79121e-05
2.93348e-05
2.69918e-05
3.5134e-05
2.91162e-05
4.96439e-05
0.00248479
0.000106932
2.78048e-05
0.00491629
0.00127991
2.92874e-05
3.28541e-05
0.000217043
0.0188556
0.000230951
0.185424
0.00070375
5.1975e-05
0.0146656
0.00104573
0.00591171
0.0017341
0.00924696
3.92182e-05
2.93923e-05
0.157764
8.5339e-05
0.000177629
9.36571e-05
2.91368e-05
0.0217912
2.92951e-05
2.26622e-05
1.61013e-05
0.00131192
2.7941e-05
2.9634e-05
4.57983e-05
0.00261612