/*--------------------------------*- C++ -*----------------------------------*\
| =========                 |                                                 |
| \\      /  F ield         | OpenFOAM: The Open Source CFD Toolbox           |
|  \\    /   O peration     | Version:  v2012                                 |
|   \\  /    A nd           | Website:  www.openfoam.com                      |
|    \\/     M anipulation  |                                                 |
\*---------------------------------------------------------------------------*/
FoamFile
{
    version     2.0;
    format      ascii;
    class       volScalarField;
    location    "0.654544";
    object      k;
}
// * * * * * * * * * * * * * * * * * * * * * * * * * * * * * * * * * * * * * //

dimensions      [0 2 -2 0 0 0 0];


internalField   nonuniform List<scalar> 
83563
(
7.99782e-05
8.37142e-05
0.000148808
0.000184156
0.000106022
0.000220396
8.9282e-05
0.0017273
0.000689958
0.0109509
0.000576732
0.000117615
0.288367
7.69314e-05
0.00162318
0.00113897
7.60223e-05
7.7139e-05
0.00103931
7.68794e-05
7.61791e-05
7.68749e-05
0.00207201
0.0133262
7.62388e-05
0.000136208
9.11905e-05
0.0125811
0.000139735
8.67168e-05
0.000179231
9.41504e-05
0.00067258
8.15534e-05
7.71668e-05
0.00033428
7.87507e-05
8.8733e-05
0.000105785
0.0014991
8.95149e-05
0.000411663
0.000135329
0.000257253
0.0729155
0.00300099
0.000377587
0.00198193
0.000109345
0.170851
0.330547
0.000597759
0.0883236
0.139585
0.000527443
0.68041
9.76553e-05
0.0923277
0.118532
0.00147503
0.137195
0.0238108
0.000103387
0.000137661
0.399997
0.223444
0.0738653
0.000335225
0.00737901
0.364544
0.00136706
0.949531
8.65718e-05
0.514559
0.000127409
0.0127618
0.00127762
8.6713e-05
8.37734e-05
0.237868
8.35317e-05
8.04841e-05
9.65267e-05
0.0204296
0.000190983
8.15915e-05
7.66736e-05
0.000768442
8.15833e-05
0.000101946
0.00179257
7.98166e-05
0.00531579
0.00221393
0.0512272
0.00272413
0.0290103
0.00536895
9.13617e-05
0.00207504
0.000539843
9.50733e-05
0.000695668
9.59594e-05
0.000579325
0.000152569
0.00030078
8.05776e-05
0.0366882
7.71304e-05
0.0032265
0.000638219
0.000878078
0.000392929
9.1248e-05
8.52739e-05
0.29517
0.00400198
0.000315468
8.61104e-05
0.000546811
0.000299024
0.00139652
0.0228595
0.00167543
9.30574e-05
0.00921385
8.95e-05
0.00191792
9.89521e-05
0.282802
0.000153461
0.000507832
0.0570493
0.000242878
7.62828e-05
0.00154936
8.81153e-05
0.00015963
0.294273
0.000456166
0.297202
0.000112644
0.00068746
0.00356844
0.173543
0.000489725
9.17745e-05
0.000544502
0.000121237
0.0213813
7.68426e-05
0.000110931
0.000953281
7.88271e-05
8.19489e-05
7.83114e-05
9.21356e-05
0.000148723
0.00168218
0.00116098
7.91794e-05
9.86185e-05
9.28675e-05
0.00268887
0.00268411
8.29825e-05
0.0577507
8.09729e-05
0.00299613
9.24969e-05
8.52046e-05
0.00283747
0.00179433
0.00338764
9.59137e-05
0.000187865
0.000304151
0.000644332
8.10361e-05
0.000180016
8.39718e-05
0.00120012
0.000644789
0.00440021
0.014366
0.00140235
9.4342e-05
0.00117006
8.81714e-05
8.25998e-05
0.00712051
0.0111432
0.0132918
0.000119815
0.00472546
0.00041774
0.0032353
7.84296e-05
0.0011798
0.000965619
0.000228995
0.00378858
7.78878e-05
0.00575363
0.00324192
0.000278501
0.316138
7.74205e-05
0.000174108
0.00187017
0.0178973
9.13395e-05
8.24117e-05
0.000467141
0.000909347
0.000703342
8.33891e-05
0.000102031
0.00013637
0.000103482
9.27174e-05
0.000275074
0.000253221
0.00524155
8.41382e-05
0.013511
7.73278e-05
0.000153055
0.00490634
7.87151e-05
0.000150492
7.74724e-05
0.000215665
0.149807
7.59147e-05
0.00166955
9.69886e-05
8.56932e-05
9.05884e-05
0.00179015
0.000709226
0.000106945
8.33217e-05
0.000488786
8.60389e-05
0.338525
8.62715e-05
0.0822147
0.000248192
0.00100321
9.91452e-05
0.000168195
0.00611899
0.000261653
0.000203926
7.75103e-05
0.00357315
9.27067e-05
0.000189329
0.000189244
0.000522342
0.368652
0.00139158
0.000115193
0.0002503
0.00113005
0.000712989
8.25519e-05
8.018e-05
0.000881616
0.0016585
0.00056595
0.000329285
0.00168622
0.000171415
0.00460859
0.00163997
0.000104544
0.000110113
0.00223833
0.000114929
8.15315e-05
0.00243309
0.00101509
8.05056e-05
0.00792034
0.000104654
9.28395e-05
8.88606e-05
0.00516245
8.39231e-05
0.0054741
8.75499e-05
9.61899e-05
0.000724897
0.000711557
0.00106581
0.000109658
8.99e-05
8.66432e-05
0.000260035
0.00025099
7.72015e-05
7.6433e-05
0.00345872
0.00486761
0.241518
0.00106425
0.00384104
0.000522783
0.000316071
0.106556
0.0028632
0.487598
0.000147473
0.931282
0.000981034
8.80567e-05
0.000122219
0.00686229
0.00111093
8.10557e-05
0.000143961
0.000129249
8.17844e-05
0.00590822
0.101145
0.000527834
0.00609014
0.000579567
9.90683e-05
7.95375e-05
0.115971
8.32439e-05
8.51497e-05
0.000465429
0.609412
0.00178441
8.4443e-05
0.239587
0.132351
0.000104809
8.0373e-05
0.000315462
9.02349e-05
0.00257977
0.000243181
0.00347521
8.16118e-05
7.70675e-05
0.000760407
0.000192031
0.000242216
0.741055
7.66886e-05
0.000832834
0.000913831
0.000265789
0.015595
0.958058
0.011915
0.463778
0.204567
0.454427
0.00461442
0.00977112
0.00128772
0.000463868
7.79223e-05
0.00016552
0.000667103
0.00189288
0.373254
0.212023
0.000409195
0.165318
0.000246819
0.000116107
0.000219539
0.000117389
0.000109076
0.000137562
0.000106253
0.203983
0.405949
0.000229392
0.000579474
0.308617
0.000662849
0.00312207
0.000246237
0.000171293
0.3499
0.000330999
0.00282037
0.000858329
0.0014424
0.000169921
7.69324e-05
0.000601515
8.23695e-05
7.79475e-05
0.00128841
0.00381414
0.000137742
0.141198
0.000217888
7.76582e-05
0.000712295
0.201998
0.000205309
0.00010347
8.88197e-05
0.104492
0.00011455
0.000110947
0.000106171
0.454196
0.000190659
8.1967e-05
8.70999e-05
0.202767
9.53341e-05
0.00182668
0.246008
0.000545613
0.00543572
7.97062e-05
0.000528273
0.000129341
0.000200015
0.000546537
0.000152737
0.572105
0.00152557
0.042453
8.52276e-05
0.00126123
0.0209031
0.00239599
0.000718683
0.0223754
0.000110662
0.000899709
0.000547896
0.000647816
0.00255457
0.000173041
1.59583
0.00245557
0.000136846
0.000297515
0.000140481
0.00209752
0.00413545
0.000101192
0.000103028
8.62418e-05
0.00116085
8.92737e-05
0.122568
0.000156549
8.83356e-05
0.000127032
0.000127752
9.08692e-05
0.000175668
0.000218451
0.000597981
0.000881022
0.000568381
0.000118644
0.00111942
0.000283312
0.00319364
0.000281763
0.000313536
0.000277634
0.00012907
0.000184615
0.000101751
0.000466218
0.000124519
8.58416e-05
0.000170983
0.000241448
0.0017597
0.015342
8.01099e-05
8.05473e-05
0.000225166
0.000346583
0.0685657
0.00660973
0.000141512
0.000180117
0.000264926
0.000211253
0.000108031
7.8008e-05
0.000603392
0.000188518
9.25258e-05
0.000796712
8.37433e-05
9.77592e-05
0.0010101
0.000292549
0.000843257
9.04925e-05
9.46563e-05
7.64674e-05
7.68461e-05
0.000142537
0.000138365
0.000103322
0.0665711
0.135131
0.000132493
0.000467822
0.00245085
0.000785833
0.00071313
0.00184972
0.00011407
0.000760251
0.153146
9.11604e-05
0.000111666
0.000124203
8.17742e-05
0.000309859
0.000154862
0.000137623
0.000145677
0.0853199
0.00657002
0.000933412
0.0764567
0.000481227
0.00012064
0.0847079
0.000108703
0.000118237
0.00102717
0.000170852
0.00110394
0.0560094
0.000777847
0.000432727
0.000156888
0.000855463
0.000950473
8.42566e-05
0.00104836
0.00159391
0.92476
0.0327921
7.61133e-05
0.00105531
0.46066
0.000163401
0.00109221
0.00780319
0.000109189
0.0163166
8.7126e-05
8.65024e-05
0.00123529
0.122507
0.000826906
0.000107191
0.00044757
0.0311752
0.00186209
0.000122798
9.12438e-05
0.000193751
0.000101996
0.000100323
0.132792
0.00058993
0.000434787
0.000112439
0.000165813
8.10927e-05
0.000188211
7.70721e-05
0.228767
7.64106e-05
0.000114365
7.74208e-05
0.000121411
0.000341074
7.74056e-05
8.62456e-05
8.22506e-05
7.72086e-05
8.31299e-05
0.000149775
7.92294e-05
7.63474e-05
7.68011e-05
0.000182943
0.000204022
0.0138888
0.000368205
8.75828e-05
8.80756e-05
0.000118149
8.63828e-05
7.95115e-05
0.00015342
0.0359805
0.000182986
0.000413615
0.000238451
0.00197308
0.00158276
0.00098418
0.0557164
0.000417743
0.000101737
8.09711e-05
0.000233602
0.000434385
9.25518e-05
0.000262556
8.13492e-05
0.000161078
0.000256163
0.000158575
0.000360824
7.68026e-05
0.00643284
0.00040503
0.000850824
7.68083e-05
0.000101673
0.000183161
0.00317065
0.00402633
8.24875e-05
0.000116451
7.70049e-05
7.72168e-05
8.4059e-05
0.194938
0.000475869
0.000361213
0.000842152
0.00210575
0.00170775
0.00420574
0.000162394
0.00300423
9.13292e-05
0.000110084
0.000458615
0.000102195
0.0884823
0.000261472
0.000358576
0.0701427
7.68731e-05
9.47283e-05
8.16276e-05
9.72258e-05
0.0059696
0.000648287
0.000419515
0.000127816
0.000946271
0.00301355
0.000381825
0.00220001
0.000464662
0.000360404
0.00752714
0.0919709
0.000654525
0.00449435
0.105113
7.84661e-05
0.000177905
0.00474987
0.000316758
0.00704826
0.000204581
0.00024999
0.000495009
0.000125186
0.00355585
0.00311165
0.0857732
0.000295714
0.00781408
0.000121766
0.000205628
0.000459709
0.000143975
7.69042e-05
0.000287657
0.0206589
0.00123566
8.71031e-05
0.000253043
0.000588705
0.00047441
7.77191e-05
0.000394984
7.75508e-05
7.94085e-05
0.000510019
7.85925e-05
9.09198e-05
8.02404e-05
0.000920544
0.135956
8.05656e-05
0.0113936
8.96712e-05
0.0003348
0.000106013
0.000119924
0.292839
0.187395
0.000195946
0.194618
8.2469e-05
7.94048e-05
9.99815e-05
0.0028997
0.199068
0.00170371
8.25083e-05
0.000156019
0.129307
8.99066e-05
0.000211589
0.000656606
8.36079e-05
0.00138202
0.000509197
0.000221388
0.000599258
0.00522205
0.0650628
0.000135609
0.000203543
0.000240054
7.59695e-05
0.170857
0.000846149
0.00251003
7.69504e-05
9.55479e-05
0.0036545
0.000184656
0.000101942
8.44384e-05
0.00285955
8.05675e-05
0.000950509
0.000175579
7.62861e-05
0.000102354
0.000953776
0.000394534
0.000232819
8.09296e-05
7.9302e-05
0.000547324
0.00011884
0.000241012
0.000101096
0.0136068
8.51911e-05
0.000217663
0.000453553
0.23757
0.221229
0.498088
8.07239e-05
0.304014
0.000164186
0.00172451
0.000137908
0.000533457
0.0012901
0.0299244
0.000173496
0.167569
0.00120882
0.000622267
0.000207085
9.82434e-05
9.22217e-05
0.000190181
0.000953149
0.000113008
0.00175795
8.44508e-05
9.4969e-05
8.68188e-05
0.00119123
0.224893
0.0308593
0.00203478
0.000146292
0.000100585
0.0387379
0.0169766
0.00594956
0.0173319
8.00627e-05
0.0044419
0.000116082
8.00566e-05
0.00141875
0.000174659
0.0411446
0.00225744
0.000412496
0.00156388
0.00158567
0.000225154
0.00127993
0.00013451
7.81866e-05
0.0902782
0.000184624
0.00170896
0.000204763
7.70268e-05
7.75644e-05
9.59732e-05
0.000154917
0.000791862
0.000618971
0.0185221
8.35189e-05
7.90796e-05
0.000216818
0.000246298
0.00263918
0.000158533
0.0018477
0.446823
0.000245852
8.15643e-05
8.3944e-05
7.638e-05
0.000125487
0.0115879
8.72103e-05
0.0013893
0.00113287
0.000588441
9.1265e-05
0.000217949
0.000109153
8.26529e-05
0.00220134
0.000122858
0.00446661
0.00017167
0.000294932
8.79411e-05
0.000464826
0.00823799
0.00302786
0.000126736
0.000190873
0.000488049
9.72418e-05
8.2737e-05
8.48782e-05
0.000100998
7.56178e-05
9.10697e-05
0.000170469
8.68004e-05
7.90846e-05
0.106004
0.00372062
0.000221474
0.0270604
0.127777
9.86153e-05
0.00871094
8.48334e-05
0.000102953
8.07295e-05
8.00374e-05
0.000870528
7.85165e-05
0.000611948
0.000970321
0.000136305
8.399e-05
0.000163994
0.000622262
9.02764e-05
0.000213649
0.000387748
8.28128e-05
0.000197356
0.000886718
8.46083e-05
9.79269e-05
7.73511e-05
0.000328939
0.000194435
0.132402
0.0827294
7.99924e-05
0.0484938
7.66876e-05
0.000143672
0.00241927
0.00105769
0.00170008
0.000109537
0.000145007
0.00100337
0.000179051
0.0815018
0.000133349
0.000422017
0.00713175
0.00139688
0.00105966
0.126792
0.0012908
0.00711266
0.000106319
0.00106764
0.044741
0.00123746
0.000197437
0.00294372
9.36553e-05
8.1158e-05
7.71113e-05
0.000471556
0.000310349
0.000262789
9.32369e-05
8.53248e-05
8.76436e-05
0.000122647
8.5036e-05
7.58717e-05
0.00125319
0.044774
8.76264e-05
7.54279e-05
7.65744e-05
0.00108324
7.66553e-05
0.000145111
7.87164e-05
0.00180903
0.00249824
0.000445863
7.91381e-05
0.00726971
0.000468055
0.00111891
0.000254123
0.000108241
0.000112014
0.000202864
0.00202933
0.000114779
0.000214765
7.94503e-05
0.000370821
0.000103209
0.000575061
0.000254087
0.0001091
8.71325e-05
0.000551774
0.00205955
0.0015306
8.67127e-05
0.000193552
0.00763954
0.00118639
8.20613e-05
0.000108824
8.50968e-05
0.000793837
0.00366518
0.000977038
0.00182697
0.00267184
0.000217104
7.87255e-05
7.5646e-05
0.000116645
0.0236295
0.0001552
0.00214388
0.00353105
0.00604357
0.000259849
0.00019587
0.000100458
0.00041364
0.000101039
0.000222922
0.012968
0.000372849
0.00161902
0.00321245
0.0115524
0.00026987
0.000146956
0.00298318
0.000700601
0.000152364
8.55066e-05
7.61353e-05
0.00246629
7.95452e-05
7.76715e-05
0.00261298
0.000760263
0.000257954
9.8125e-05
0.000118929
7.56803e-05
0.000131401
9.41471e-05
0.000360671
0.000185608
9.42751e-05
0.00117719
0.000102448
0.00212017
8.22388e-05
0.00303194
9.71701e-05
0.000134146
0.664428
0.000126784
1.13801
0.749254
8.77704e-05
7.65269e-05
7.75387e-05
0.0010002
7.8425e-05
0.00112549
8.23648e-05
0.528977
8.26138e-05
0.449099
0.00156122
0.0955212
0.000644489
8.0753e-05
0.000764729
0.000452484
0.000448532
0.000661299
0.000579413
0.000476495
1.35107
0.000115321
0.0215802
0.00011769
0.000128604
0.000332844
0.000638077
1.0801
7.72266e-05
0.000769737
0.000463987
7.62871e-05
0.00119061
2.25394
0.000118538
0.000742258
0.000101915
0.0122253
0.31576
0.00211702
0.00185192
0.000478599
0.000633471
0.00165576
8.34375e-05
0.00153664
0.00203632
0.000725836
0.00258049
9.36542e-05
0.00424167
0.000945766
0.000658528
0.000119579
0.000256557
7.78204e-05
0.00135421
8.06331e-05
0.000126967
0.000112444
0.000196104
8.74232e-05
0.00224041
0.000227093
0.00177986
9.2141e-05
0.000788098
0.000366051
0.0890282
7.89917e-05
0.000155751
8.55758e-05
0.000405684
0.000287252
0.00449799
7.60607e-05
0.00291235
7.98815e-05
7.97096e-05
0.00137368
9.76011e-05
0.00014024
9.02159e-05
7.89942e-05
7.79184e-05
0.00494238
0.000111557
0.00010018
0.00012449
0.000191888
8.1428e-05
7.63365e-05
0.000826735
0.000261149
0.000110981
0.000923858
0.000351667
7.92067e-05
0.000374723
0.00010783
8.03617e-05
0.000102084
8.09079e-05
0.000802948
7.73441e-05
7.6301e-05
8.28254e-05
0.000128108
0.00439161
8.35676e-05
0.00178324
7.94884e-05
9.65851e-05
8.81004e-05
0.000166842
0.000215937
0.000253637
0.000148957
0.000161788
0.000177728
0.00151079
0.000215923
0.000314851
0.00039422
0.00112584
0.000211796
0.00432535
8.00666e-05
0.000136547
8.88401e-05
0.00344314
8.35804e-05
7.60003e-05
8.09607e-05
8.88554e-05
0.000940421
0.00555797
0.000147887
0.00120955
0.169429
0.324569
0.309637
0.015402
0.0179306
9.37218e-05
0.000158595
0.000156704
0.00220985
0.000168708
0.0253697
9.61968e-05
8.8627e-05
0.00129958
0.00517601
0.000113377
0.0011484
0.000885722
0.000202349
0.000125349
0.000569986
7.7825e-05
9.81038e-05
0.502859
7.73941e-05
0.0767225
0.214823
0.00119194
0.000505109
7.95584e-05
0.000147475
0.000127269
0.00266657
8.08514e-05
0.00196137
0.000858152
0.259867
0.00218316
0.000103995
0.000102364
8.61791e-05
0.000264324
9.62872e-05
0.000481729
7.99383e-05
0.00266053
0.0286634
8.23131e-05
8.04102e-05
0.00273239
0.000211415
0.000106439
0.000636048
9.3514e-05
0.000489431
0.0076463
7.99542e-05
0.00128928
0.000110273
0.00287801
0.000248547
7.92179e-05
8.3581e-05
0.00181822
0.0532571
0.00162352
0.000635178
8.57907e-05
0.000959125
0.000277918
0.000354028
0.000854481
0.000271043
0.000105483
0.00757919
9.4922e-05
0.00011104
9.49351e-05
0.000103763
0.00085513
0.00113011
0.000141159
0.000103882
0.000471603
0.000535529
8.10088e-05
0.00124188
0.000310711
0.000696184
0.719934
0.000134862
8.97141e-05
0.00072221
0.117018
0.000810223
0.000352646
0.00148099
8.36718e-05
0.13324
0.000306763
8.04043e-05
7.84311e-05
0.000373529
8.89612e-05
0.000115809
0.00176092
0.00032905
0.000166316
0.000214801
0.00198181
0.00466683
7.8729e-05
0.00169605
0.000215071
8.5721e-05
7.84017e-05
0.000290625
0.00233101
0.000109164
7.69054e-05
7.90583e-05
0.172964
7.90662e-05
7.93256e-05
7.88516e-05
0.00138644
1.00909
7.68606e-05
0.130593
0.000146734
7.88797e-05
0.0179934
0.000289809
0.220424
0.767828
0.000335429
0.00125107
0.97636
0.0329494
0.915331
0.00190057
0.000311959
7.94666e-05
7.90309e-05
0.000374734
0.00866834
7.64347e-05
0.0029358
7.88201e-05
9.17386e-05
0.00236003
0.000130308
9.92093e-05
7.7739e-05
0.000708509
0.0708576
0.000183901
0.00156563
0.00110558
0.000392677
0.00195408
0.000431574
0.000921796
0.00129161
0.00104621
0.000135117
0.00228686
8.85852e-05
0.000333982
9.23014e-05
0.000178158
0.000305418
0.000142661
8.13933e-05
7.78871e-05
0.00038386
0.00012574
0.000147434
0.000100428
7.68573e-05
0.000297634
0.00129787
0.000793277
7.67261e-05
0.000124725
0.0922286
0.000145178
0.0143018
0.00383336
8.99419e-05
9.77053e-05
0.000134338
7.76456e-05
0.560215
9.26496e-05
0.00057793
0.000265504
0.00280314
0.000220658
7.85404e-05
0.000108366
0.0835488
7.56757e-05
0.0079012
0.000537318
0.00302952
0.00341611
8.2729e-05
9.9492e-05
0.000113152
0.00211949
0.00140612
0.00620105
0.00190896
7.6562e-05
7.89549e-05
7.63816e-05
0.000200874
0.000177232
0.00116048
8.38233e-05
0.00111364
0.000166473
0.000295188
0.000310279
0.000594417
0.000369206
0.000191759
7.96574e-05
8.97233e-05
0.0002354
8.53382e-05
0.000196878
0.000112304
0.000224706
0.000203043
8.68281e-05
0.000146305
0.000352748
0.000840754
0.00166739
0.000450232
0.000214898
0.00143247
0.0374847
8.28956e-05
0.000133779
0.139111
7.6061e-05
0.000165032
7.75834e-05
0.000140563
7.78938e-05
7.88234e-05
9.10272e-05
0.000132188
0.315121
0.000141632
0.000640817
0.000164812
0.000140772
0.00192294
7.91915e-05
0.000706281
0.00026791
0.00943127
0.0934222
0.00024284
0.000350602
8.45579e-05
0.000469414
0.521248
8.40087e-05
7.88337e-05
0.00267514
9.03572e-05
0.210054
0.00600295
0.000310979
7.5514e-05
0.000962725
8.68488e-05
0.000747067
0.000133849
0.000108358
0.00390675
0.878877
0.000182203
0.348806
0.00161558
0.00135578
0.000437912
0.00155936
0.000158706
0.27342
0.00187419
0.000138652
0.00106055
8.48114e-05
0.00329836
0.112198
0.00158988
9.30166e-05
7.90965e-05
0.00542178
0.00257394
9.73215e-05
0.00012312
0.00260189
0.0019117
9.13415e-05
9.14933e-05
0.000222441
0.124975
7.88131e-05
0.00252848
0.000114852
0.000140253
7.99986e-05
8.0637e-05
8.0402e-05
8.24438e-05
0.000227076
0.00110879
0.000236804
0.000405481
0.0015724
8.37651e-05
8.1328e-05
0.000549055
0.00847019
0.000295304
8.76381e-05
0.000253586
0.00188549
0.000736499
8.94222e-05
0.000301455
0.00022077
7.7678e-05
0.000169209
0.000118301
0.000396485
0.000583997
0.00302457
8.10436e-05
7.65897e-05
0.0276873
0.0872779
8.17817e-05
0.00101487
0.104268
0.0716811
0.000200067
0.0982482
0.000113938
0.00124877
0.000257832
0.159062
8.6851e-05
0.000314633
0.000112236
0.000199618
0.000245733
7.78474e-05
0.000273455
8.33484e-05
0.269332
0.000317501
0.000152173
7.90449e-05
9.40309e-05
0.0019166
0.000167452
8.95747e-05
0.000151857
0.000220956
0.00010958
7.85216e-05
0.382287
0.00223412
0.00163984
0.00168702
7.93832e-05
0.13698
0.00177764
8.57298e-05
7.59757e-05
0.000139312
0.000266621
0.00011828
0.00058012
0.000642424
0.00144505
1.51947
9.12558e-05
7.91246e-05
0.000825712
0.0138353
0.0631775
9.84873e-05
0.00123211
0.000640253
0.000266943
0.00203404
8.2147e-05
0.00494514
0.000129638
0.000113575
0.0327984
0.00189736
0.00166299
0.00155292
0.00702231
1.97453
0.659347
9.1095e-05
0.000386584
8.59297e-05
9.39401e-05
0.00707422
0.000104801
0.000725576
7.99034e-05
8.45207e-05
8.55832e-05
1.71638
2.79032
8.04596e-05
8.35899e-05
8.27964e-05
0.000100573
0.47542
1.94408
0.000283557
0.000240511
7.62547e-05
0.000492768
0.000109448
0.000292497
9.85619e-05
8.20582e-05
0.000249336
0.000100864
0.000568965
8.17574e-05
0.000158859
0.000103235
0.000684096
0.00034932
0.000566367
7.83091e-05
0.000757113
9.13784e-05
0.000527835
0.00104826
0.000462727
0.000126036
0.00262681
0.00110009
0.00292403
0.000832685
0.000610663
0.000311298
0.00244607
0.00102332
0.00209318
0.00100505
0.155282
0.00341074
9.84461e-05
0.000452562
0.000201775
0.00145948
0.00185041
0.14433
8.34262e-05
0.000261084
0.00025218
0.000778456
0.00185332
8.05733e-05
9.46862e-05
0.000160757
0.000110547
8.5222e-05
0.00186666
0.000870781
0.000145992
0.000238639
0.000667684
9.08892e-05
0.00574573
0.00495554
8.94447e-05
7.62982e-05
9.94427e-05
0.000200559
0.000201729
0.000244574
8.4788e-05
9.52421e-05
9.20582e-05
8.21916e-05
0.0127825
8.28951e-05
9.41763e-05
7.99952e-05
0.000292023
0.000393682
0.000661107
0.00792087
0.000509942
8.04344e-05
0.000125503
9.17203e-05
7.81062e-05
0.000118707
0.000997128
0.00010909
8.12475e-05
0.000223055
8.15787e-05
8.01777e-05
0.00023321
0.133925
7.64573e-05
7.6315e-05
0.000124204
0.00506668
0.00265841
0.000545662
0.00141828
0.000177134
0.00212022
0.000299812
8.05728e-05
7.57687e-05
0.00148913
0.000161192
8.78259e-05
7.60981e-05
7.76745e-05
0.000149665
0.0869293
0.000480272
7.69834e-05
0.000112224
0.631653
7.5721e-05
0.000284906
7.60209e-05
0.000224312
7.73523e-05
0.000739752
0.000112219
9.27758e-05
1.49156
0.000561341
0.000757634
0.000318313
8.26434e-05
0.0008417
0.00167001
0.000138251
7.77893e-05
1.03772
0.00168551
0.000227096
9.42944e-05
0.00056145
7.64752e-05
8.39041e-05
0.000107091
9.07945e-05
0.00661656
8.23482e-05
0.000463177
0.140129
8.86496e-05
0.00011932
0.000864927
0.480427
7.60143e-05
0.178321
7.64893e-05
0.148003
0.000543673
0.00013136
8.47815e-05
0.00171318
0.000403514
8.80296e-05
0.000730758
0.000169555
8.26874e-05
9.23198e-05
0.000191015
7.82546e-05
0.00040441
0.000353152
8.01726e-05
0.000203276
0.00184301
0.000160865
8.55963e-05
0.168245
0.00015214
0.00109149
0.000160026
8.44797e-05
8.74719e-05
0.000266302
0.000369162
0.470714
0.000430087
9.03305e-05
0.61182
0.579487
7.7344e-05
0.000348871
8.90248e-05
0.000107305
7.91116e-05
0.000355485
7.86005e-05
0.000612791
0.000138689
0.984254
0.000449562
0.000120952
0.000725345
8.02523e-05
0.000139307
8.92531e-05
0.832286
0.276977
0.000142066
0.000123512
0.000333969
0.000112527
8.42016e-05
0.000477198
0.0118466
7.82843e-05
0.204226
9.79112e-05
8.84906e-05
0.000577296
0.000103082
0.000876421
0.0119146
0.000328697
0.00268864
9.51829e-05
0.000184819
0.000201019
9.92026e-05
0.000132513
0.000305841
7.71835e-05
0.157425
0.00058678
0.000125468
0.000161339
7.67357e-05
8.32443e-05
0.00139955
7.7948e-05
0.000113206
0.000302953
0.00218449
7.63574e-05
0.000115025
0.0540046
0.00109903
0.0552485
0.0206783
0.00120485
0.00108408
0.0039484
0.000466691
0.000308244
0.000327456
0.0134357
0.000886746
7.86176e-05
0.000123427
8.44477e-05
0.000650041
0.000912577
0.00165807
0.58492
0.00010364
0.00196335
0.0131707
8.51339e-05
8.08671e-05
0.000284684
0.00308574
0.188317
8.31239e-05
8.57467e-05
0.000526794
7.82079e-05
0.00138411
0.997459
0.000303454
0.000425538
1.33821
0.000132632
0.000173763
8.30667e-05
7.67734e-05
0.000685796
0.00277044
0.000762586
0.00254574
0.000109577
9.77258e-05
0.000101605
0.0535066
7.76012e-05
7.73298e-05
0.133098
0.00013353
0.000109867
8.94833e-05
0.184934
0.000168897
0.0718068
8.12796e-05
7.89151e-05
0.00241888
0.00175698
0.00100584
0.00060714
0.0014547
9.21859e-05
7.73687e-05
0.118041
0.0914119
0.117794
8.88049e-05
0.11741
0.109523
0.000103896
8.75742e-05
0.000162782
0.00131113
0.000356904
8.93445e-05
0.00128966
0.000134465
0.0985787
0.0842539
0.0256027
0.00398103
9.13338e-05
0.00162167
0.000214573
0.00124165
0.00087539
7.69643e-05
8.22684e-05
0.00015068
0.00236832
7.72706e-05
0.0116771
0.00136089
0.00142132
8.52412e-05
0.000555505
0.000652528
7.6038e-05
0.0025149
0.000335959
0.003657
0.000299305
0.0355434
0.000311893
8.324e-05
7.87049e-05
0.000179202
0.0314813
8.19187e-05
0.000206222
0.0127999
0.0152282
0.00261623
0.0389569
8.19154e-05
0.000199167
9.42589e-05
0.00452383
0.000156867
0.00109587
7.88777e-05
0.00209531
9.67555e-05
0.0299364
0.000115707
8.58987e-05
7.61928e-05
0.0262363
0.0205339
7.98039e-05
0.341766
7.72014e-05
8.00578e-05
0.000407532
0.000753948
0.000210322
0.000237238
8.04003e-05
0.0059832
0.000986626
8.41639e-05
0.00252341
0.00129306
0.000810553
0.000162282
0.0003187
0.00049567
0.000797377
0.00026947
0.0102503
0.000567793
8.20829e-05
0.000734526
0.000592531
9.20654e-05
0.000149058
7.8858e-05
0.000461147
7.96161e-05
8.85361e-05
8.75408e-05
0.000782999
8.67237e-05
0.000383408
0.00130681
0.000122328
7.89353e-05
8.87293e-05
0.000715094
0.00689047
0.000106317
9.57027e-05
9.34988e-05
7.57022e-05
7.71948e-05
0.00142113
9.29048e-05
8.30023e-05
7.94511e-05
0.000233372
7.56294e-05
7.6215e-05
7.7581e-05
0.000373709
0.00212284
0.00122654
0.0387885
0.00156422
0.000126281
7.68793e-05
8.30136e-05
0.113071
0.120832
0.000880556
7.594e-05
7.62223e-05
0.000100186
7.76986e-05
0.0377354
0.0015298
0.000362442
0.090276
0.000105458
0.000181066
7.93516e-05
0.0181547
0.00211924
0.0687251
9.82232e-05
1.01811
0.000960463
0.000571191
8.02455e-05
0.0673836
0.00103646
0.0154855
0.00131209
0.000964037
0.00147085
8.46043e-05
0.028315
8.60086e-05
0.750493
1.16573
1.77697
0.000111758
0.00105848
0.00376073
0.000888388
8.61499e-05
0.486522
2.09691
7.58701e-05
0.00110051
8.59163e-05
9.90658e-05
7.99446e-05
1.78282
0.00674621
0.000140238
0.000459371
0.00084143
0.116211
0.000667159
7.72561e-05
0.0157676
0.00475777
0.000248085
0.000653321
0.00920114
0.000838285
0.000120431
0.00229396
0.000134166
7.81047e-05
0.000186145
0.000133681
7.93979e-05
0.000526652
0.000109457
0.000252862
0.000367793
0.000188323
0.00337261
0.00913576
0.000273429
0.187919
8.17981e-05
0.000222721
0.0164926
0.000669491
8.76283e-05
0.000197825
0.000264037
0.177829
0.00132396
0.00490867
0.000301517
0.000630664
0.000101858
0.000697632
8.09718e-05
0.0343693
0.00368723
0.00262629
0.449576
0.000555602
0.000749932
8.88859e-05
0.00170997
8.07161e-05
8.35768e-05
0.0016568
0.000324923
0.000279999
0.000116069
0.000126249
8.02309e-05
0.000271921
0.00190625
8.08444e-05
0.000963012
0.00208323
0.00345643
0.000168126
0.00263133
0.0166501
0.000130953
8.78031e-05
9.71498e-05
8.4805e-05
0.00145338
0.00182218
0.000206315
0.000160392
0.000180067
0.000162226
0.00014914
0.00265159
8.65354e-05
0.000152463
0.000998634
0.00048817
0.254048
0.00121909
0.000494645
7.88779e-05
0.249386
0.0887594
8.66018e-05
0.000588767
9.35857e-05
0.00015253
0.00143804
8.22008e-05
0.00183294
7.71194e-05
0.00245277
0.000305072
0.000142926
8.08981e-05
0.000324983
0.000522822
8.87282e-05
0.000258005
8.50982e-05
0.000136642
7.6878e-05
7.61411e-05
0.00338542
0.00016052
9.44301e-05
0.000235441
0.0214597
9.74597e-05
8.04533e-05
0.000167697
8.32648e-05
0.000813558
0.000500666
0.00155437
0.00020195
9.51865e-05
0.00124827
0.0323641
0.000173022
0.000140744
0.0219905
0.000180505
0.00076749
0.00032807
8.26951e-05
0.000285845
0.000166605
0.820746
0.00017442
8.26998e-05
7.9296e-05
9.77499e-05
0.382201
0.00100282
0.0203888
0.00011392
0.00045832
0.00704762
8.23282e-05
7.78442e-05
0.305286
0.00131018
0.245179
0.000157745
0.000201652
0.118203
0.0116249
0.000449554
0.00020417
8.71002e-05
0.000251166
7.58313e-05
0.00114251
0.000238974
0.000223337
0.000199733
0.00145367
9.36788e-05
0.00148112
0.426823
0.000399896
0.000428394
7.63266e-05
0.000296649
0.603923
0.00249099
9.13871e-05
0.000174322
0.000151993
0.125364
0.000678125
0.0500112
0.000186027
8.57871e-05
8.07199e-05
0.00316947
0.0368733
7.66082e-05
7.64532e-05
9.29614e-05
0.00113862
0.000112168
0.000261276
0.00858538
0.000440903
0.000326681
0.0032206
0.0594904
0.000307141
7.64853e-05
0.00188095
9.48242e-05
7.76157e-05
0.0030488
9.25514e-05
0.00290219
8.31689e-05
0.00017197
0.000206231
0.00305183
0.000455678
7.71298e-05
0.00105334
0.000157024
7.68692e-05
0.000166244
9.13271e-05
8.47479e-05
0.000320172
0.000242625
0.000144541
0.000500025
0.000356738
9.57185e-05
0.317626
0.000352108
0.000353728
0.00569953
0.634072
0.000102877
0.00046523
7.83801e-05
0.000636781
0.000282436
0.000409913
0.00118105
0.00437832
0.000465547
0.000150146
9.99116e-05
0.00213671
0.000116256
0.00037152
8.60474e-05
0.000109793
0.000604392
0.624993
0.00048837
9.26036e-05
8.10568e-05
9.86826e-05
0.000119755
0.00106217
0.78464
0.00046672
3.10863
7.89665e-05
2.05462
0.000550101
0.570326
0.00260745
0.0015041
2.88543
0.0445231
0.000353392
0.00150188
7.91058e-05
0.00137259
8.38684e-05
0.00147906
0.000123924
0.0028107
0.00620802
0.000448901
0.00171966
7.99602e-05
0.112549
8.62421e-05
7.75566e-05
8.22728e-05
0.00143177
8.67521e-05
7.79581e-05
0.0118365
0.000475784
9.95544e-05
8.81007e-05
0.000105343
7.75596e-05
0.000323489
0.000105656
9.58546e-05
7.60858e-05
0.000103298
8.51584e-05
0.000681136
0.00259178
8.39055e-05
0.00933656
0.00797017
0.000828959
0.00104464
0.676726
0.000300345
0.0472127
0.000334627
0.00238867
0.00222079
0.000112162
7.86562e-05
0.000107671
0.00693792
8.43747e-05
0.00366223
0.000163169
0.000303028
7.85058e-05
8.16647e-05
0.000372555
0.00187589
0.000129402
0.000512012
0.000109188
0.000240393
0.000184849
8.01457e-05
0.000237397
0.0148356
0.00451258
0.229483
0.000818361
0.00323649
0.000185052
0.00194967
0.00215686
0.00706125
9.43723e-05
0.00132444
9.66814e-05
0.0346273
0.00129656
0.00431421
0.00147258
0.00114544
0.000149145
0.000519458
8.86644e-05
8.25457e-05
0.000583093
0.0140437
8.47124e-05
0.00202609
0.000567085
0.000150241
9.2521e-05
0.000114435
0.000155011
0.00046584
0.000184161
0.00376393
7.6166e-05
0.00465886
0.000506214
8.59302e-05
0.000117025
0.000396244
0.000962739
0.00049358
0.00266128
0.000176716
0.00130928
0.00032225
0.000209705
0.00010063
0.000321054
0.00146899
0.000120197
0.0491333
8.55196e-05
0.000710662
0.00010029
0.000741598
0.000122282
0.00164876
0.00237354
0.00338334
8.00393e-05
7.88765e-05
9.02357e-05
0.0018801
0.00103529
0.176474
0.00198268
0.0154234
0.315719
8.97973e-05
0.0219142
8.44223e-05
0.000101077
8.90832e-05
0.000533494
0.000104366
0.00115115
0.00173675
0.000136114
0.000403856
0.000750653
0.000106253
8.7131e-05
0.000110856
0.000155113
0.000494049
0.000394136
0.00245402
8.66158e-05
0.000728561
0.00227229
0.107402
8.36056e-05
0.00949667
7.5769e-05
8.97934e-05
0.000111297
0.000304581
0.00174333
8.65235e-05
0.00154959
0.000302324
8.8459e-05
8.02305e-05
0.000213571
0.000510434
7.56979e-05
0.000826518
0.000577005
0.000140975
8.09241e-05
9.29082e-05
0.00237312
0.000428303
0.00560491
9.57064e-05
0.000393902
0.00269124
0.00013759
0.000332333
0.000280121
7.71688e-05
9.25006e-05
0.0213297
0.000162784
0.000486702
8.15663e-05
8.22003e-05
0.00010289
0.000111267
7.60083e-05
9.24322e-05
8.57909e-05
7.56095e-05