/*--------------------------------*- C++ -*----------------------------------*\
| =========                 |                                                 |
| \\      /  F ield         | OpenFOAM: The Open Source CFD Toolbox           |
|  \\    /   O peration     | Version:  v2012                                 |
|   \\  /    A nd           | Website:  www.openfoam.com                      |
|    \\/     M anipulation  |                                                 |
\*---------------------------------------------------------------------------*/
FoamFile
{
    version     2.0;
    format      ascii;
    class       volScalarField;
    location    "0.654544";
    object      nut;
}
// * * * * * * * * * * * * * * * * * * * * * * * * * * * * * * * * * * * * * //

dimensions      [0 2 -1 0 0 0 0];


internalField   nonuniform List<scalar> 
83563
(
1.81096e-05
2.03344e-05
2.54139e-05
1.62867e-05
2.71932e-05
3.17302e-05
1.34413e-05
9.46925e-05
5.74684e-05
0.00032285
5.22063e-05
1.05714e-05
0.00314825
1.78491e-05
9.48295e-05
7.1015e-05
1.77249e-05
1.78753e-05
6.2705e-05
1.7843e-05
1.77473e-05
1.78437e-05
7.71101e-05
0.000394029
1.77525e-05
1.68765e-05
1.96616e-05
0.000335304
1.93161e-05
1.91014e-05
2.70122e-05
9.63656e-06
3.72612e-05
1.84608e-05
1.78553e-05
4.09045e-05
1.95654e-05
1.91413e-05
2.12894e-05
6.04203e-05
1.83139e-05
4.14823e-05
2.33722e-05
2.27333e-05
0.000617628
9.85362e-05
1.78748e-05
8.9222e-05
6.51152e-05
0.00607162
0.00781232
5.12113e-05
0.00161791
0.00204545
3.57198e-05
0.00677166
1.91116e-05
0.00124156
0.00170439
6.60643e-05
0.0017995
0.000687073
4.65845e-05
2.29965e-05
0.00373248
0.00156317
0.00144301
2.06672e-05
3.64821e-05
0.00908131
4.82411e-05
0.0130011
1.8384e-05
0.00556804
2.36789e-05
0.000311965
0.000203448
1.8879e-05
1.87434e-05
0.00277411
1.86735e-05
1.78286e-05
1.98423e-05
0.000520979
5.67782e-05
1.83598e-05
1.78341e-05
3.33161e-05
1.84372e-05
3.19584e-05
9.20112e-05
1.78844e-05
0.000121557
9.82764e-05
0.000700756
0.000117315
0.000610197
0.000116814
4.98926e-05
0.000102716
3.29447e-05
2.0104e-05
6.03187e-05
1.88506e-05
5.09555e-05
2.21509e-05
3.22986e-05
1.83367e-05
0.000458301
1.78769e-05
0.000123219
4.01529e-05
4.61417e-05
2.76523e-05
2.52444e-05
1.66421e-05
0.0107258
0.000138451
3.83091e-05
1.65969e-05
4.28674e-05
2.84359e-05
6.06422e-05
0.000550761
6.42407e-05
1.66335e-05
0.000269884
1.30752e-05
9.08408e-05
4.40558e-05
0.00954664
6.45671e-05
4.19939e-05
0.00122708
2.05769e-05
1.77626e-05
6.30485e-05
2.10579e-05
1.63366e-05
0.00700052
3.53066e-05
0.00734688
5.31284e-05
4.04549e-05
9.57539e-05
0.00207612
3.81349e-05
1.96103e-05
3.1714e-05
2.29605e-05
0.000419243
1.81468e-05
2.05487e-05
5.34543e-05
1.80536e-05
1.81559e-05
1.8127e-05
4.54394e-05
4.89702e-05
3.97029e-05
6.22965e-05
1.81037e-05
1.9768e-05
1.67879e-05
9.63569e-05
9.68616e-05
1.74957e-05
0.00259374
1.78403e-05
0.000123173
1.75576e-05
1.88524e-05
0.000114336
9.07122e-05
0.000131416
3.64105e-05
2.9027e-05
2.38307e-05
4.91923e-05
1.82499e-05
2.08497e-05
1.87686e-05
5.42572e-05
5.11782e-05
0.000130416
0.000342777
6.67365e-05
1.56585e-05
3.58601e-05
1.84635e-05
1.84513e-05
0.000200916
0.000294467
0.000410731
5.1634e-05
0.000173711
3.21491e-05
0.00013009
1.80577e-05
6.89605e-05
5.33855e-05
4.33946e-05
0.000130529
1.75687e-05
0.000174703
0.000112148
2.18341e-05
0.0108078
1.79153e-05
2.01271e-05
9.00947e-05
0.000342366
1.72913e-05
1.70179e-05
3.01575e-05
6.73156e-05
4.62055e-05
1.77166e-05
1.91322e-05
4.46962e-05
3.25305e-05
4.71046e-05
2.06272e-05
2.27125e-05
0.000122654
1.71721e-05
0.000258947
1.80124e-05
1.97215e-05
0.000127523
1.80466e-05
2.06716e-05
1.77935e-05
2.25229e-05
0.00260895
1.7712e-05
8.40408e-05
2.01938e-05
1.87031e-05
1.91017e-05
8.30925e-05
6.18493e-05
5.15685e-05
1.71922e-05
3.21611e-05
2.01002e-05
0.010962
1.67458e-05
0.00167084
3.4237e-05
5.30867e-05
2.91136e-05
2.18837e-05
0.000207648
2.69775e-05
2.92425e-05
1.78892e-05
0.000142011
1.83074e-05
2.17748e-05
2.24315e-05
4.94274e-05
0.0143064
7.12293e-05
3.11942e-05
2.83324e-05
6.15983e-05
4.00094e-05
1.73321e-05
1.79628e-05
4.42944e-05
6.29921e-05
3.9265e-05
3.75027e-05
7.24191e-05
2.46448e-05
0.000144696
8.59667e-05
2.11055e-05
3.31975e-05
0.000104141
1.68381e-05
1.82687e-05
0.000115586
4.47242e-05
1.95801e-05
0.000404277
1.65279e-05
1.97942e-05
3.29446e-05
0.000198792
1.8729e-05
0.000161515
1.75904e-05
1.92232e-05
3.79249e-05
5.28604e-05
5.42404e-05
3.3122e-05
2.64106e-05
2.34932e-05
2.55567e-05
2.5145e-05
1.80067e-05
1.77867e-05
0.000118782
0.000155446
0.0025585
6.413e-05
0.000138706
3.32834e-05
6.17093e-05
0.00111075
0.000131214
0.0140425
1.32938e-05
0.0188334
5.29334e-05
1.73963e-05
4.67564e-05
0.000188335
5.31633e-05
1.83812e-05
2.60112e-05
4.80944e-05
1.80356e-05
0.000183879
0.00174432
3.22107e-05
0.000199272
2.84192e-05
2.20944e-05
1.77299e-05
0.00194671
1.82572e-05
1.89144e-05
4.52982e-05
0.0039963
9.06028e-05
1.91667e-05
0.0027836
0.0011229
1.71652e-05
1.94934e-05
2.49112e-05
1.81625e-05
0.000112035
3.44768e-05
0.000137234
1.91152e-05
1.78552e-05
4.0941e-05
2.98949e-05
3.98781e-05
0.014604
1.78179e-05
3.86778e-05
5.31508e-05
2.98993e-05
0.000424058
0.0196592
0.000328907
0.0140187
0.00793288
0.0140554
0.000139117
0.000265183
6.30424e-05
2.85387e-05
1.78789e-05
1.80064e-05
5.4186e-05
9.85946e-05
0.00272979
0.00213622
3.26134e-05
0.00691772
1.85317e-05
2.09935e-05
1.96939e-05
2.25299e-05
1.04418e-05
1.78542e-05
1.20474e-05
0.00765146
0.0142243
3.20236e-05
5.10376e-05
0.0123482
4.03915e-05
0.000150426
1.6554e-05
2.81401e-05
0.0135263
6.87268e-05
0.000114793
4.58991e-05
7.25268e-05
2.05678e-05
1.77945e-05
0.000112327
1.74845e-05
1.90914e-05
6.09444e-05
0.000103023
2.41506e-05
0.00144525
2.96797e-05
1.80627e-05
3.4654e-05
0.00245291
6.9907e-05
1.56651e-05
1.93619e-05
0.0014844
2.17358e-05
2.19627e-05
7.02491e-05
0.0143941
2.97981e-05
1.85115e-05
1.91576e-05
0.00215657
1.67927e-05
7.17759e-05
0.00264882
3.45405e-05
0.000152806
1.81869e-05
3.05513e-05
1.80711e-05
1.39536e-05
3.71898e-05
1.71696e-05
0.015698
8.36225e-05
0.00166171
1.89317e-05
7.03974e-05
0.000474421
0.000108637
5.56505e-05
0.00103044
1.51428e-05
4.10565e-05
3.95009e-05
5.51497e-05
9.34799e-05
4.11524e-05
0.00873345
0.000102643
2.48345e-05
2.55495e-05
2.5185e-05
0.00010298
0.000161312
1.53633e-05
1.66292e-05
1.89528e-05
5.00321e-05
1.75105e-05
0.00192736
2.17229e-05
1.91914e-05
2.49517e-05
2.1099e-05
1.79161e-05
1.98676e-05
3.15502e-05
5.03465e-05
6.48543e-05
3.28565e-05
2.29171e-05
7.25054e-05
1.94835e-05
0.000119115
2.81931e-05
3.22635e-05
4.52983e-05
2.0334e-05
3.69429e-05
2.09665e-05
3.54224e-05
5.16286e-05
1.64716e-05
1.45499e-05
2.25377e-05
8.49804e-05
0.000338684
1.80929e-05
1.78131e-05
2.41753e-05
3.57035e-05
0.00177844
0.000183695
5.23819e-05
2.34775e-05
3.64906e-05
2.72257e-05
1.89783e-05
1.79896e-05
4.39958e-05
1.89024e-05
1.98132e-05
5.4816e-05
1.82556e-05
4.22549e-05
5.44613e-05
1.58482e-05
6.04525e-05
1.73872e-05
2.20105e-05
1.78785e-05
1.78344e-05
2.1496e-05
1.44472e-05
4.97015e-05
0.00155495
0.00207492
2.16341e-05
4.16057e-05
8.87262e-05
5.64853e-05
3.57601e-05
8.55968e-05
2.10702e-05
3.11777e-05
0.00214132
1.92309e-05
2.20387e-05
1.622e-05
1.84586e-05
3.10833e-05
2.22676e-05
2.02176e-05
1.50613e-05
0.0018002
0.000192203
4.38636e-05
0.00151521
4.58676e-05
1.13271e-05
0.00107978
1.27966e-05
1.10849e-05
5.68562e-05
2.03188e-05
4.80649e-05
0.000746495
4.44286e-05
2.98267e-05
1.4044e-05
5.02057e-05
2.72738e-05
1.6838e-05
6.0175e-05
4.88156e-05
0.0185546
0.000563777
1.77388e-05
4.69883e-05
0.0105184
1.66157e-05
6.56281e-05
0.000289375
1.94562e-05
0.000391522
1.91094e-05
1.79767e-05
7.44286e-05
0.00270118
5.29893e-05
2.01037e-05
4.07491e-05
0.000605876
7.97636e-05
2.31531e-05
1.98564e-05
1.45034e-05
2.08824e-05
2.06561e-05
0.000805664
3.2156e-05
3.17001e-05
2.20526e-05
2.16952e-05
1.82343e-05
2.95198e-05
1.78683e-05
0.00143707
1.7777e-05
1.59201e-05
1.79057e-05
1.87369e-05
3.12835e-05
1.79069e-05
1.87307e-05
1.86114e-05
1.78844e-05
1.73232e-05
2.61079e-05
1.81568e-05
1.77715e-05
1.78246e-05
2.37289e-05
3.08396e-05
0.00046985
2.68574e-05
1.91346e-05
1.91917e-05
2.19007e-05
1.79008e-05
1.87697e-05
2.54067e-05
0.000803041
2.21047e-05
4.26163e-05
4.24013e-05
9.30779e-05
8.38206e-05
5.01457e-05
0.00131369
3.67654e-05
2.07188e-05
1.83614e-05
2.2794e-05
3.05871e-05
1.92558e-05
2.58246e-05
1.80562e-05
3.55276e-05
2.47105e-05
2.37775e-05
3.11522e-05
1.78326e-05
0.000207513
3.27592e-05
5.24102e-05
1.78185e-05
2.10961e-05
1.81859e-05
0.0001435
0.000171026
1.84145e-05
5.57769e-05
1.78566e-05
1.78869e-05
1.80276e-05
0.00210664
3.78282e-05
2.88298e-05
4.7843e-05
7.34804e-05
6.25935e-05
0.000126463
1.8658e-05
0.000129471
1.63845e-05
1.7596e-05
3.22304e-05
2.09566e-05
0.00214157
2.69318e-05
3.16801e-05
0.00109377
1.78446e-05
2.80566e-05
1.83035e-05
2.03952e-05
0.000222732
3.80991e-05
3.15717e-05
1.7429e-05
6.03547e-05
0.000125149
2.50775e-05
8.96072e-05
2.46526e-05
2.52211e-05
0.00022989
0.00149087
5.18905e-05
0.000137163
0.00133901
1.80427e-05
1.39195e-05
0.000149483
2.2067e-05
0.000223173
3.05684e-05
3.20785e-05
3.40689e-05
2.21737e-05
0.000126869
8.78292e-05
0.00178883
2.66704e-05
0.000207589
1.62052e-05
2.46073e-05
3.79864e-05
2.63034e-05
1.78334e-05
3.63015e-05
0.000734072
7.47593e-05
1.57859e-05
3.18084e-05
4.45788e-05
3.36652e-05
1.79564e-05
5.09912e-05
1.79395e-05
1.99e-05
5.80217e-05
1.78678e-05
1.8896e-05
2.24449e-05
6.42095e-05
0.00424607
1.83007e-05
0.000355397
1.94091e-05
3.93747e-05
1.61298e-05
7.02931e-05
0.00263052
0.00114472
2.9148e-05
0.00279795
1.70481e-05
1.81324e-05
2.05426e-05
0.000126364
0.00144187
8.78522e-05
2.16482e-05
2.98314e-05
0.001163
1.59101e-05
3.01443e-05
2.41142e-05
1.80531e-05
4.81506e-05
4.2261e-05
3.05753e-05
4.17939e-05
0.000148546
0.00142589
2.32306e-05
2.99106e-05
3.35564e-05
1.77196e-05
0.00280161
5.09446e-05
0.000109338
1.78538e-05
2.72452e-05
0.000123951
2.81034e-05
2.02583e-05
1.87489e-05
1.33762e-05
1.78103e-05
5.92777e-05
2.47198e-05
1.77622e-05
2.02638e-05
4.95195e-05
7.34009e-05
3.12359e-05
1.82095e-05
1.75004e-05
5.72014e-05
2.28332e-05
3.21677e-05
1.95093e-05
0.000471236
1.85454e-05
2.18974e-05
3.34416e-05
0.00743257
0.00325895
0.0039777
1.8347e-05
0.00299592
1.84445e-05
0.000101
2.39136e-05
4.43382e-05
6.14581e-05
0.000819936
2.22104e-05
0.00282763
7.29743e-05
5.1646e-05
1.58424e-05
9.43468e-06
1.97864e-05
2.05118e-05
6.59163e-05
1.63594e-05
6.97093e-05
1.79069e-05
1.45286e-05
1.9065e-05
5.46528e-05
0.0016797
0.000496486
8.86226e-05
1.47883e-05
2.82942e-05
0.000661571
0.000303499
0.000206824
0.000308628
1.82609e-05
0.000157686
1.36554e-05
1.81001e-05
0.000195617
2.13028e-05
0.000562225
0.000102645
2.59571e-05
7.11679e-05
7.60763e-05
8.31481e-05
4.75068e-06
2.27057e-05
1.79719e-05
0.00273606
1.93383e-05
7.90067e-05
2.91308e-05
1.78646e-05
1.79376e-05
4.64583e-05
2.57958e-05
4.70314e-05
3.69137e-06
8.10228e-05
1.87008e-05
1.81228e-05
3.14046e-05
1.11086e-06
0.000104891
1.5062e-05
8.41909e-05
0.0040724
1.85492e-05
1.75136e-05
1.68117e-05
1.77767e-05
2.25478e-05
5.6698e-05
1.92224e-05
6.93046e-05
7.5664e-05
4.19626e-05
1.80379e-05
1.94819e-05
2.90819e-05
1.76312e-05
0.000102334
3.77303e-05
0.000177808
4.03764e-05
2.7559e-05
1.78057e-05
2.80562e-05
0.000255582
0.000138567
3.46609e-05
2.94804e-05
3.71885e-05
1.60073e-05
1.85883e-05
2.10467e-05
2.42826e-05
1.76714e-05
3.39555e-05
1.93488e-05
1.59642e-05
1.80072e-05
0.00268395
0.000115674
1.58242e-05
0.000702931
0.00190076
2.01121e-05
0.000211955
1.80033e-05
2.07993e-05
1.83513e-05
1.82353e-05
4.64263e-05
1.79494e-05
4.51488e-05
8.97587e-05
1.56612e-05
1.81184e-05
2.63531e-05
7.18498e-05
1.70769e-05
2.2883e-05
3.31677e-05
1.85427e-05
3.03281e-05
5.18141e-05
1.78328e-05
1.98766e-05
1.78292e-05
3.13535e-05
1.65192e-05
0.00249888
0.00102768
1.81914e-05
0.0010832
1.78178e-05
4.83105e-05
0.000112878
6.12808e-05
7.77237e-05
1.54127e-05
2.14695e-05
6.27244e-05
2.00975e-05
0.000785902
1.98823e-05
2.25298e-05
0.000240458
6.99157e-05
7.10248e-05
0.00136253
6.90879e-05
0.000223852
2.13593e-05
5.45797e-05
0.000986296
7.68104e-05
1.72783e-05
9.70991e-05
4.71865e-05
1.84023e-05
1.78454e-05
3.48211e-05
1.88646e-05
2.50634e-05
1.43988e-05
1.35283e-05
1.66208e-05
1.54827e-05
1.85683e-05
1.77066e-05
8.42049e-05
0.000772324
1.89029e-05
1.76458e-05
1.78007e-05
6.77827e-05
1.7812e-05
2.04275e-05
1.8068e-05
7.77494e-05
9.92009e-05
4.17015e-05
1.81261e-05
0.000236372
3.53109e-05
0.000165833
2.89994e-05
2.66079e-05
2.46434e-05
2.53113e-05
8.33345e-05
1.13773e-05
2.18063e-05
1.81809e-05
3.64131e-05
2.36371e-05
2.86926e-05
2.78455e-05
1.88144e-05
2.002e-05
4.88787e-05
0.000101723
7.31092e-05
2.40667e-05
1.66542e-05
0.00022456
5.53706e-05
1.76092e-05
2.0723e-05
1.88061e-05
0.000154619
0.000173426
6.23231e-05
8.03442e-05
0.000100764
2.99973e-05
1.8072e-05
1.76762e-05
2.15993e-05
0.000633187
2.17656e-05
0.000102859
0.000120942
0.000197637
3.2673e-05
2.78093e-05
2.07366e-05
2.8808e-05
1.49475e-05
2.74286e-05
0.000572228
2.60662e-05
8.33377e-05
0.000129283
0.00042609
4.20018e-05
2.25767e-05
0.000127533
3.28913e-05
1.09143e-05
1.87588e-05
1.77423e-05
0.000103582
2.2036e-05
1.79273e-05
8.27173e-05
5.57559e-05
1.78469e-05
4.43766e-05
3.58154e-05
1.76798e-05
3.33112e-05
1.98661e-05
2.84512e-05
1.99761e-05
1.68405e-05
5.50708e-05
1.78024e-05
8.85819e-05
2.06614e-05
0.000111488
4.53839e-05
2.33993e-05
0.00915125
2.28164e-05
0.00818492
0.00565746
1.60112e-05
1.83421e-05
1.79353e-05
5.28193e-05
1.79383e-05
5.14653e-05
1.85595e-05
0.00880989
1.86523e-05
0.00596336
0.000187066
0.00228919
3.9013e-05
1.79901e-05
4.46444e-05
3.02019e-05
4.22868e-05
5.17747e-05
2.95617e-05
3.67341e-05
0.00784327
1.63507e-05
0.00058337
5.74621e-05
1.72636e-05
2.28753e-05
4.99314e-05
0.00976695
1.78887e-05
5.93374e-05
2.18284e-05
1.77599e-05
6.01456e-05
0.0114387
2.08075e-05
3.14486e-05
3.93882e-05
0.000384328
0.00603566
9.33699e-05
9.53112e-05
4.06964e-05
4.56429e-05
8.73333e-05
1.84846e-05
6.06086e-05
7.92693e-05
4.34128e-05
9.41584e-05
1.92798e-05
0.000123947
3.83051e-05
4.27505e-05
1.82885e-05
5.4954e-05
1.79386e-05
5.67044e-05
1.82665e-05
1.45981e-05
2.2224e-05
2.55396e-05
1.87079e-05
0.000135905
1.78864e-05
6.75781e-05
1.18714e-05
5.40689e-05
2.9495e-05
0.00153675
1.8044e-05
2.6187e-05
1.70053e-05
6.94041e-05
2.04064e-05
0.000152832
1.77328e-05
0.00014502
2.07405e-05
1.81601e-05
8.16587e-05
4.62121e-05
2.35737e-05
1.70893e-05
1.80794e-05
1.79809e-05
0.000169583
2.81381e-05
4.4928e-05
2.09564e-05
2.05289e-05
1.78354e-05
1.7766e-05
5.20644e-05
2.69008e-05
5.06697e-05
5.77437e-05
2.78808e-05
1.80546e-05
3.71723e-05
2.07063e-05
2.03314e-05
2.09254e-05
1.83767e-05
5.98164e-05
1.7829e-05
1.77629e-05
1.82993e-05
3.41831e-05
0.000168814
2.20313e-05
7.77163e-05
1.95626e-05
1.98127e-05
1.92773e-05
1.81918e-05
2.8931e-05
2.32616e-05
1.71928e-05
2.26299e-05
1.68127e-05
7.2134e-05
1.97027e-05
3.70487e-05
2.82547e-05
5.92447e-05
3.07447e-05
0.000151035
1.81853e-05
1.45243e-05
3.22339e-05
0.000152113
1.81967e-05
1.7993e-05
1.76248e-05
1.83625e-05
5.01743e-05
0.000158932
2.56787e-05
6.30813e-05
0.00656389
0.0113214
0.010776
0.000302309
0.000712029
1.71891e-05
1.17984e-05
1.95383e-05
8.14678e-05
2.04523e-05
0.000589557
3.74683e-05
1.61877e-05
8.50793e-05
0.00018526
1.89913e-05
5.99963e-05
7.68176e-05
1.15628e-05
2.12376e-05
4.06785e-05
1.79043e-05
1.97476e-05
0.00167937
1.79132e-05
0.000677731
0.00266966
7.23842e-05
4.6308e-05
1.82059e-05
1.97076e-05
2.02849e-05
0.000107258
1.78123e-05
9.96796e-05
6.33662e-05
0.00107275
0.000100052
1.77575e-05
1.28451e-05
1.86913e-05
2.58879e-05
2.68588e-05
3.55483e-05
1.74424e-05
1.73428e-05
0.000266794
1.84918e-05
1.82264e-05
1.46641e-05
2.15327e-05
1.52747e-05
3.48839e-05
1.56974e-05
7.67821e-05
4.65596e-05
1.85017e-05
5.4957e-05
5.9817e-05
0.000106792
1.99734e-05
1.79326e-05
1.69954e-05
0.000105834
0.00110813
6.0565e-05
4.18916e-05
1.88689e-05
6.05063e-05
5.95202e-05
3.4779e-05
4.90859e-05
2.40077e-05
2.13471e-05
0.000242605
1.71042e-05
4.10578e-05
4.73596e-05
1.82053e-05
5.47717e-05
9.38439e-05
2.2697e-05
2.09364e-05
0.000113995
2.89678e-05
1.83321e-05
6.28694e-05
2.20224e-05
3.78866e-05
0.00853316
4.52297e-05
1.73552e-05
4.11173e-05
0.00195968
5.11681e-05
2.58444e-05
8.09374e-05
1.8533e-05
0.00190252
2.70447e-05
1.79005e-05
1.80294e-05
2.39891e-05
1.82331e-05
3.09041e-05
8.98349e-05
2.40071e-05
2.73627e-05
2.38958e-05
9.20787e-05
0.000152951
1.8001e-05
7.55409e-05
2.21001e-05
1.88823e-05
1.95274e-05
1.9964e-05
0.000114965
2.41716e-05
1.78464e-05
1.80976e-05
0.00141169
1.80476e-05
1.78711e-05
1.78403e-05
7.31347e-05
0.0197779
1.78085e-05
0.00122818
2.29161e-05
1.93127e-05
0.000545025
2.04259e-05
0.00212262
0.0189297
2.26344e-05
3.89965e-05
0.0212739
0.00019319
0.0206903
7.59186e-05
2.03507e-05
1.81763e-05
1.81383e-05
3.87081e-05
0.0002487
1.77813e-05
0.000108598
1.8077e-05
1.97441e-05
9.86354e-05
2.10356e-05
2.05832e-05
1.78581e-05
5.06716e-05
0.00219771
2.19227e-05
9.67777e-05
7.18428e-05
2.88713e-05
7.50086e-05
3.31915e-05
5.37892e-05
6.02335e-05
4.12971e-05
2.44785e-05
0.000123484
1.93439e-05
2.80375e-05
1.83911e-05
2.78417e-05
1.63095e-05
1.94023e-05
1.86841e-05
1.79702e-05
3.67116e-05
2.18474e-05
3.54625e-05
2.2689e-05
1.78378e-05
3.22703e-05
5.78905e-05
6.46953e-05
1.78185e-05
1.62123e-05
0.00188405
3.32745e-05
0.000701336
0.000135082
1.84405e-05
1.94359e-05
1.55636e-05
1.80994e-05
0.0145761
1.91295e-05
3.78203e-05
3.39651e-05
0.000108428
2.77646e-05
1.77516e-05
3.06785e-05
0.00170575
1.77069e-05
0.000303126
3.78716e-05
0.000115211
0.00012387
2.40365e-05
2.05911e-05
1.68576e-05
9.33211e-05
7.63052e-05
0.000135217
9.02275e-05
1.81862e-05
1.80735e-05
1.81889e-05
2.04464e-05
3.03112e-05
7.43246e-05
1.9165e-05
6.12214e-05
2.3002e-05
4.76164e-05
3.49818e-05
5.40486e-05
2.8815e-05
2.19906e-05
1.81598e-05
2.57844e-05
4.24742e-05
1.7866e-05
2.95668e-05
1.94564e-05
1.54948e-06
3.10845e-05
1.68237e-05
2.13317e-05
2.47932e-05
5.21669e-05
8.13346e-05
2.19974e-05
2.19415e-05
7.22173e-05
0.00120317
1.80701e-05
2.43119e-05
0.00186581
1.77299e-05
2.43627e-05
1.78552e-05
2.10658e-05
1.86106e-05
1.80769e-05
1.91623e-05
1.56515e-05
0.00333136
1.63985e-05
4.84691e-05
1.87871e-05
1.65685e-05
9.29313e-05
1.7909e-05
4.52891e-05
2.05014e-05
0.00017385
0.00145369
2.85384e-05
4.01376e-05
1.71278e-05
4.49257e-05
0.00937226
1.70139e-05
1.80789e-05
9.81298e-05
5.83347e-05
0.00322163
0.000202613
2.40427e-05
1.76586e-05
5.11311e-05
2.3551e-05
7.95299e-05
1.46602e-05
2.15758e-05
0.000132479
0.00373462
1.6217e-05
0.00357521
7.43809e-05
7.94058e-05
2.41073e-05
8.493e-05
1.94374e-05
0.00320829
9.98376e-05
2.46504e-05
5.18421e-05
1.75751e-05
8.5321e-05
0.00178497
6.48816e-05
1.86689e-05
1.78733e-05
0.000169288
9.21977e-05
4.27113e-05
2.11533e-05
9.29115e-05
6.79432e-05
4.13665e-05
1.69704e-05
2.52512e-05
0.0020532
1.75733e-05
6.19313e-05
1.98926e-05
1.91493e-05
1.74897e-05
1.82708e-05
2.01709e-05
1.85722e-05
2.71147e-05
5.92522e-05
3.24021e-05
4.49867e-05
6.77203e-05
1.81151e-05
1.83559e-05
4.22563e-05
0.000262943
3.43877e-05
1.66634e-05
1.93386e-05
6.48997e-05
5.87752e-05
1.89745e-05
3.43182e-05
3.07342e-05
1.79259e-05
2.66278e-05
1.57055e-05
4.31673e-05
3.41135e-05
0.000126213
1.81325e-05
1.78065e-05
0.000687273
0.00160815
1.81871e-05
4.70672e-05
0.00183412
0.00178129
2.04659e-05
0.00179252
2.239e-05
5.64475e-05
1.24949e-05
0.00153244
1.83672e-05
3.3941e-05
2.03338e-05
3.04883e-05
5.71478e-05
1.79264e-05
6.03576e-05
1.74614e-05
0.00895694
2.83942e-05
1.36055e-05
1.804e-05
3.47071e-05
7.36882e-05
2.73597e-05
1.79166e-05
2.54358e-05
4.38647e-05
3.04348e-05
1.80483e-05
0.0122579
9.624e-05
7.60192e-05
7.38573e-05
1.80662e-05
0.00541111
7.50585e-05
1.8682e-05
1.77189e-05
1.4642e-05
2.25604e-05
1.5495e-05
3.49901e-05
3.51915e-05
6.341e-05
0.0093493
1.96431e-05
1.81449e-05
2.67857e-05
0.000691484
0.00180315
2.01626e-05
5.08389e-05
6.0464e-05
1.63534e-05
7.38677e-05
1.85294e-05
0.000153975
2.26749e-05
2.13095e-05
0.0011495
9.15152e-05
8.04127e-05
8.33267e-05
0.000173538
0.0110554
0.00581499
1.96146e-05
2.95124e-05
1.77909e-05
1.72818e-05
0.000161132
2.03123e-05
4.15577e-05
1.795e-05
1.77497e-05
1.67469e-05
0.00598298
0.012654
1.80296e-05
1.88302e-05
1.64607e-05
4.22719e-05
0.00517864
0.0102647
3.06534e-05
4.83384e-05
1.77571e-05
3.19334e-05
2.4303e-05
5.33251e-05
3.70119e-05
1.83856e-05
2.97328e-05
3.47567e-05
3.46314e-05
2.17402e-05
1.70413e-05
3.35401e-05
3.66639e-05
2.90914e-05
3.20178e-05
1.80373e-05
4.88242e-05
4.59955e-05
3.75399e-05
4.2656e-05
3.32481e-05
1.55677e-05
0.000118053
3.35833e-05
0.000125561
5.18885e-05
5.20958e-05
2.22526e-05
0.000110278
6.1752e-05
9.63122e-05
6.77406e-05
0.00249219
0.000145049
2.2679e-05
3.59914e-05
2.71527e-05
7.58463e-05
7.67491e-05
0.00180906
1.75764e-05
2.47687e-05
2.80214e-05
4.85131e-05
9.70505e-05
1.82451e-05
2.46288e-05
1.68982e-05
3.9155e-05
2.03131e-05
9.43043e-05
5.34392e-05
1.65035e-05
1.77718e-05
5.08989e-05
2.09988e-05
0.000171169
0.000128831
2.93226e-05
1.77458e-05
1.79171e-05
1.07878e-05
1.84293e-05
3.30843e-05
1.87482e-05
2.01695e-05
2.21022e-05
1.85279e-05
0.00029938
1.85242e-05
2.00477e-05
1.74224e-05
2.54977e-05
3.95777e-05
3.24353e-05
4.59944e-05
4.12692e-05
1.83034e-05
2.31576e-05
3.53794e-05
1.79078e-05
1.37125e-05
4.68496e-05
2.02261e-05
1.84138e-05
2.00032e-05
2.16291e-05
1.97216e-05
1.87798e-05
0.00270841
1.7913e-05
1.78193e-05
2.32058e-05
0.000199473
9.37034e-05
3.06362e-05
0.000105944
2.84131e-05
9.96722e-05
2.9648e-05
1.81706e-05
1.76925e-05
8.12904e-05
1.71606e-05
1.62283e-05
1.77372e-05
1.79235e-05
2.26561e-05
0.00106169
0.000103044
1.78497e-05
5.61353e-05
0.00359486
1.76848e-05
3.64715e-05
1.77245e-05
2.60688e-05
1.76943e-05
6.11902e-05
2.14616e-05
1.65647e-05
0.00673233
4.47556e-05
5.44658e-05
3.96474e-05
1.86043e-05
5.30081e-05
7.71708e-05
2.49763e-05
1.79332e-05
0.0051969
6.21233e-05
2.45198e-05
1.86626e-05
4.16264e-05
1.77843e-05
1.80697e-05
6.65298e-05
1.96579e-05
0.000210428
1.83754e-05
3.50539e-05
0.00151253
3.1408e-05
3.5921e-05
5.93807e-05
0.00381433
1.77258e-05
0.00241685
1.77888e-05
0.00261428
3.75236e-05
1.76883e-05
1.7783e-05
7.85558e-05
3.32426e-05
2.53424e-05
5.31275e-05
2.10754e-05
1.85899e-05
1.73366e-05
2.32512e-05
1.80301e-05
3.37765e-05
3.43713e-05
2.14728e-05
2.50215e-05
6.77685e-05
2.24109e-05
1.87576e-05
0.00194335
2.06466e-05
6.96766e-05
7.10058e-05
1.88525e-05
1.90335e-05
3.30642e-05
4.12541e-05
0.0122179
4.03834e-05
2.41063e-05
0.0146327
0.0130266
1.78771e-05
3.78837e-05
4.54602e-05
1.93885e-05
1.79155e-05
3.60093e-05
2.10834e-05
4.47724e-05
2.46961e-05
0.00545352
4.58076e-05
1.8553e-05
5.25011e-05
1.82613e-05
2.01057e-05
1.85258e-05
0.0175301
0.00724611
2.12355e-05
2.03113e-05
3.63946e-05
1.60859e-05
1.81652e-05
3.1865e-05
0.000655182
1.798e-05
0.00293355
2.04911e-05
1.93307e-05
4.69349e-05
2.10748e-05
4.67221e-05
0.000407894
2.70575e-05
0.000119993
1.49956e-05
2.30302e-05
2.99384e-05
2.00722e-05
8.97715e-06
3.3573e-05
1.78855e-05
0.00188592
3.38797e-05
3.41938e-05
2.00709e-05
1.77732e-05
1.85592e-05
7.04859e-05
1.79764e-05
2.0522e-05
3.70219e-05
0.000112166
1.81632e-05
2.61639e-05
0.000999139
6.64182e-05
0.000902758
0.000371728
4.33442e-05
6.50673e-05
0.000137692
2.27513e-05
2.27471e-05
3.00215e-05
0.000269577
4.79806e-05
1.77935e-05
2.17884e-05
2.31682e-05
4.98248e-05
3.30577e-05
9.39483e-05
0.00277898
1.92562e-05
8.0557e-05
0.000384206
1.87501e-05
1.82518e-05
2.46356e-05
0.000110782
0.00248079
1.86594e-05
1.78024e-05
4.08742e-05
1.8024e-05
7.46933e-05
0.00432533
2.44904e-05
4.51449e-05
0.00653002
2.01342e-05
2.7892e-05
1.86535e-05
1.78266e-05
5.13705e-05
0.000118776
5.20965e-05
0.000136912
5.46784e-05
1.54664e-05
1.97043e-05
0.00192888
1.7938e-05
1.79068e-05
0.00179947
2.19653e-05
4.18187e-05
1.87297e-05
0.00166002
1.56774e-05
0.00141456
1.83045e-05
1.79843e-05
7.60475e-05
7.06584e-05
7.01985e-05
4.86332e-05
0.000107068
1.97881e-05
1.79049e-05
0.00193461
0.00155669
0.00078522
1.87457e-05
0.00107197
0.000758819
2.06628e-05
1.72662e-05
1.34266e-05
5.74806e-05
2.74983e-05
1.7456e-05
7.16983e-05
5.74033e-05
0.00128213
0.000988823
0.000555981
0.000115406
1.7459e-05
6.81511e-05
1.46008e-05
6.27411e-05
6.89836e-05
1.78358e-05
1.84925e-05
1.76356e-05
8.01738e-05
1.7856e-05
0.000421754
2.5527e-05
6.61586e-05
1.83244e-05
4.30366e-05
4.46767e-05
1.77675e-05
9.61646e-05
3.67598e-05
0.000154678
2.69868e-05
0.00062689
2.18179e-05
1.86813e-05
1.79266e-05
1.48678e-05
0.000424707
1.84546e-05
1.849e-05
0.000962656
0.000427891
0.000121431
0.00109612
1.85222e-05
2.96785e-05
1.52248e-05
0.000138841
1.98029e-05
6.94386e-05
1.90817e-05
6.81562e-05
1.62899e-05
0.000951119
2.09332e-05
1.71872e-05
1.77474e-05
0.000618965
0.000361227
1.76306e-05
0.00633739
1.78869e-05
1.80591e-05
2.27155e-05
5.14384e-05
2.28295e-05
2.52349e-05
1.81853e-05
0.000217019
4.95089e-05
1.81247e-05
0.000123413
6.22374e-05
4.6234e-05
2.18306e-05
4.00736e-05
4.23062e-05
4.43461e-05
3.31083e-05
0.000283941
5.41171e-05
1.81172e-05
4.95873e-05
3.66308e-05
1.84079e-05
2.25589e-05
1.8079e-05
3.3826e-05
1.80343e-05
4.50665e-05
2.81147e-05
5.88565e-05
1.70563e-05
2.68979e-05
6.45546e-05
1.83701e-05
1.80064e-05
1.68573e-05
4.32647e-05
0.000165989
1.78055e-05
3.89079e-05
1.70334e-05
1.77618e-05
1.87866e-05
6.15226e-05
3.83328e-05
2.2498e-05
1.81915e-05
2.51844e-05
1.76759e-05
1.78083e-05
1.79339e-05
2.3542e-05
8.48671e-05
6.23693e-05
0.000537945
7.85165e-05
2.2955e-05
1.7839e-05
2.64867e-05
0.00120758
0.00106383
5.04907e-05
1.77151e-05
1.77552e-05
1.79877e-05
1.79411e-05
0.000741099
6.8497e-05
2.9576e-05
0.0018474
6.8047e-05
2.86331e-05
1.81333e-05
0.000418343
9.08941e-05
0.000931766
1.61143e-05
0.0163701
5.42094e-05
3.59901e-05
1.7671e-05
0.000850466
5.86968e-05
0.000463808
6.84053e-05
6.5029e-05
7.72926e-05
1.8677e-05
0.000556105
1.78615e-05
0.00648111
0.00797371
0.0105942
1.56371e-05
5.23314e-05
0.000158433
5.22876e-05
1.87156e-05
0.00472563
0.011465
1.77043e-05
5.2408e-05
1.88042e-05
1.57124e-05
1.80656e-05
0.0106005
0.000326026
2.23541e-05
3.42046e-05
3.27015e-05
0.00364291
6.02228e-05
1.85476e-05
0.000750758
0.000110776
3.18433e-05
3.31838e-05
0.000263908
4.54866e-05
2.15297e-05
8.9722e-05
1.82629e-05
1.79822e-05
1.6282e-05
2.41749e-05
1.81542e-05
5.3537e-05
1.97897e-05
2.73979e-05
3.97187e-05
2.78407e-05
0.000126605
6.43935e-05
9.21452e-05
0.00289461
1.74679e-05
2.40607e-05
0.00010531
5.82638e-05
1.90692e-05
2.02794e-05
1.52704e-05
0.00224165
7.22893e-05
2.80996e-05
2.7202e-05
4.51882e-05
6.06511e-05
4.26223e-06
1.82209e-05
0.000977228
0.000103118
0.000122155
0.0123608
4.38164e-05
4.95662e-05
1.89155e-05
9.19259e-05
1.83507e-05
1.7946e-05
9.01538e-05
2.11646e-05
2.81454e-05
2.22559e-05
2.09002e-05
1.82735e-05
2.93341e-05
0.000103007
1.80613e-05
4.61716e-05
0.000101754
0.000140927
2.2889e-05
0.00010974
0.000126701
3.07753e-05
1.57824e-05
1.97971e-05
1.88643e-05
7.43963e-05
8.7596e-05
2.04917e-05
1.86677e-05
1.89151e-05
3.6466e-05
2.0766e-05
0.000120764
1.73359e-05
3.32346e-05
5.74439e-05
3.38767e-05
0.00763033
6.64198e-05
2.99774e-05
1.81136e-05
0.00764693
0.00193504
2.04358e-05
4.89124e-05
4.33866e-05
3.53242e-05
7.83975e-05
1.83378e-05
0.000100208
1.78768e-05
0.000111273
1.83702e-05
2.49279e-05
1.7887e-05
3.64247e-05
4.63544e-05
1.85337e-05
2.79514e-05
1.7588e-05
2.18394e-05
1.78369e-05
1.77439e-05
0.000123859
1.97525e-05
2.23815e-05
1.67825e-05
0.000431787
4.17843e-05
1.80362e-05
2.7999e-05
1.80322e-05
4.50714e-05
5.09147e-05
7.66403e-05
1.21416e-05
2.01743e-05
4.99831e-05
0.000485728
2.57151e-05
2.33808e-05
0.000514165
1.42677e-05
0.000105797
3.20457e-05
1.86095e-05
1.84624e-05
1.54865e-05
0.0096707
2.26511e-05
1.82438e-05
1.75376e-05
1.80158e-05
0.00257735
5.70844e-05
0.000333007
2.18951e-05
3.74789e-05
0.000162178
1.74497e-05
1.79683e-05
0.00241205
7.61061e-05
0.0027436
2.59711e-05
1.30331e-05
0.00138443
0.000240575
3.48723e-05
3.09869e-05
1.734e-05
2.18682e-05
1.77004e-05
7.05704e-05
2.54026e-05
1.93859e-05
2.90023e-05
8.16356e-05
3.0979e-05
5.68895e-05
0.0121061
3.18433e-05
3.08605e-05
1.77679e-05
3.74308e-05
0.0171351
7.931e-05
1.84994e-05
2.15619e-05
2.47155e-05
0.00156854
4.9744e-05
0.000794775
2.73537e-05
1.85504e-05
1.81007e-05
0.000128393
0.000346235
1.78003e-05
1.7783e-05
4.87646e-05
4.25388e-05
2.0505e-05
2.57035e-05
0.000204153
2.97915e-05
2.97377e-05
0.000109838
0.00135849
2.45019e-05
1.77909e-05
8.51053e-05
1.99133e-05
1.78754e-05
0.000135122
1.98429e-05
0.000116622
1.86298e-05
1.67333e-05
1.9299e-05
0.000134976
3.60534e-05
1.78823e-05
6.10371e-05
2.19589e-05
1.78426e-05
1.86276e-05
2.00248e-05
1.8854e-05
3.93543e-05
3.13716e-05
2.42941e-05
3.62359e-05
3.52079e-05
1.99715e-05
0.0035224
5.65497e-05
2.83345e-05
0.000173725
0.0150127
3.5865e-05
4.36628e-05
1.80204e-05
5.53088e-05
2.21021e-05
3.56333e-05
6.34136e-05
0.000202814
6.50636e-05
2.28532e-05
4.45681e-05
9.36184e-05
2.54665e-05
3.12255e-05
1.79022e-05
2.15219e-05
4.40881e-05
0.00531795
3.43481e-05
1.94942e-05
1.83809e-05
7.0317e-05
2.29572e-05
6.57592e-05
0.00628392
3.33133e-05
0.014321
1.81162e-05
0.0115652
4.51358e-05
0.00523463
0.000112882
8.04475e-05
0.0140169
0.00101089
3.20404e-05
9.03016e-05
1.80967e-05
8.21678e-05
1.86289e-05
6.59138e-05
1.53336e-05
0.000139026
0.000319435
3.576e-05
7.8202e-05
1.77477e-05
0.00182224
1.79224e-05
1.79377e-05
2.34934e-05
6.88015e-05
1.86378e-05
1.79117e-05
0.000321907
4.15488e-05
1.50831e-05
1.73908e-05
4.57667e-05
1.79082e-05
3.54637e-05
1.73976e-05
2.03185e-05
1.77345e-05
3.13705e-05
1.64173e-05
4.35781e-05
9.53892e-05
1.85164e-05
0.000215823
0.000216408
5.52334e-05
4.96337e-05
0.00477479
3.46557e-05
0.000290524
2.3974e-05
9.15816e-05
8.44045e-05
1.62195e-05
1.80304e-05
1.74122e-05
0.000182088
1.86464e-05
0.000132048
1.64096e-05
1.99491e-05
1.8049e-05
2.12583e-05
4.03176e-05
9.72697e-05
1.91789e-05
4.56144e-05
1.83109e-05
3.64123e-05
4.05324e-05
1.80065e-05
2.83023e-05
0.000235472
0.000121605
0.00877303
4.10669e-05
0.000157569
4.05351e-05
9.39911e-05
9.77506e-05
0.000169118
2.39062e-05
5.81995e-05
2.27984e-05
0.000545203
7.72322e-05
0.000106742
8.71019e-05
5.22049e-05
3.46688e-05
3.76922e-05
2.65761e-05
1.80292e-05
4.30621e-05
0.000291364
1.88753e-05
7.07534e-05
4.27164e-05
1.3696e-05
2.95051e-05
4.54223e-05
1.63971e-05
7.78344e-05
2.37459e-05
0.000118046
1.77437e-05
0.000183786
3.73536e-05
1.68978e-05
1.47932e-05