/*--------------------------------*- C++ -*----------------------------------*\
| =========                 |                                                 |
| \\      /  F ield         | OpenFOAM: The Open Source CFD Toolbox           |
|  \\    /   O peration     | Version:  v2012                                 |
|   \\  /    A nd           | Website:  www.openfoam.com                      |
|    \\/     M anipulation  |                                                 |
\*---------------------------------------------------------------------------*/
FoamFile
{
    version     2.0;
    format      ascii;
    class       surfaceScalarField;
    location    "0.654544";
    object      phi;
}
// * * * * * * * * * * * * * * * * * * * * * * * * * * * * * * * * * * * * * //

dimensions      [0 3 -1 0 0 0 0];
oriented        oriented;


internalField   nonuniform List<scalar> 
156950
(
-0.00244753
0.00109973
0.000957293
0.000390509
0.000497837
-0.00131464
0.000155667
0.00066114
-0.000399667
0.00075511
-0.000355443
-0.000115176
2.29219e-05
0.00020695
-0.000114696
0.000376364
-0.000410272
3.15552e-05
2.35248e-06
2.45154e-05
-0.000139691
0.000650005
0.000955331
-0.00189783
0.000292494
0.00140778
-0.00139018
-1.76013e-05
0.00057701
-0.000477273
-9.97369e-05
-4.03407e-05
-3.54886e-05
9.54708e-05
-1.96415e-05
5.1946e-05
-0.000617728
0.000565782
-0.00220085
0.00124266
0.0016082
0.00407161
-0.00523684
-0.00364949
0.00481473
0.00055798
0.000577464
-0.00115441
1.8963e-05
2.88521e-05
-0.00143521
0.00140636
-0.00152665
-4.12139e-05
0.00124136
0.000326508
0.000236198
-0.000148658
-0.000118952
3.14118e-05
4.18818e-05
0.000991979
-0.00047588
0.000766958
0.00132243
-0.00208939
0.00083339
-0.000857508
0.000601582
0.000144441
-7.65133e-05
-0.00101265
0.000944719
0.000534494
8.70036e-05
0.000211893
-0.00160188
0.00153896
0.00197269
-0.00190977
-0.00127244
0.000901982
0.000370458
0.000320312
-0.000171032
8.14584e-05
-0.000230738
0.00182845
-0.00140965
-0.000714643
0.000295842
0.000164806
0.000199807
0.000205981
-0.000570594
-0.00053254
0.000397415
2.67977e-05
0.000108327
-0.000412235
0.0020379
0.000202787
-0.000893411
0.000215201
5.46293e-05
0.00062358
-0.000211796
0.000177007
5.11245e-05
-1.63357e-05
-0.000325535
5.79775e-05
0.000858686
-0.000591128
0.00017248
-0.000988302
0.000674668
0.000141154
-0.00109968
5.33155e-05
0.000232731
0.000813634
7.94026e-06
-1.238e-05
-0.000864009
0.000868449
-0.000105215
-3.86961e-05
0.000143911
8.57489e-05
-1.15635e-05
-6.69247e-05
-7.26072e-06
0.000253914
0.00027725
-0.0003382
-0.000192963
0.000233626
-0.000538082
0.000304456
-0.00241773
0.00400745
-0.00408709
0.00249737
7.43821e-05
-0.000729317
0.000719937
-6.50023e-05
-0.00139338
0.00120099
-0.000219839
-0.000476704
-0.00014475
0.000485098
0.000136355
0.000291733
-0.00145178
-0.000249598
0.000514978
0.00804268
-0.00606439
-0.00249327
0.0029005
-0.00143857
-0.00146193
-0.00132005
0.00121025
0.000627562
-0.000517756
-0.000144172
0.00056501
-0.000204151
-0.000216687
0.000146828
0.00118568
0.000491253
-0.00182377
-0.00034683
0.00226936
0.000451698
-0.00237423
-0.00128139
1.54489e-05
0.00156962
-0.000303681
-0.00110165
-0.000718704
0.000179772
0.00126845
-0.00072952
-0.00137797
-0.000133137
0.000792404
-0.00162743
0.00132012
-0.000989528
0.00129683
9.23144e-05
4.06217e-06
-0.00166628
0.00156991
0.000627353
9.84706e-05
0.000329559
-0.00105538
0.00101937
0.000552318
-0.000983443
-0.000588247
0.000270205
0.000749167
-0.00154479
-0.00174815
0.00143651
0.00185643
-0.00110777
6.38345e-05
0.000683987
-0.000517557
-0.000230264
-0.000474795
0.000467454
7.34132e-06
-0.000253434
0.000330035
-2.06494e-05
-5.59525e-05
0.000847318
-0.00103305
0.000677269
-0.000491535
0.00102135
0.000260136
-0.000441431
-0.000637208
4.5588e-05
-0.00230962
0.000526743
0.00023809
0.00298103
-0.00238277
-0.00257281
0.00197455
-0.00191035
-0.000538758
0.000456249
0.00199286
-0.000275937
5.62677e-05
0.000625043
-0.000405374
-0.00152864
-0.00356734
0.00393762
0.00115836
-0.000429598
7.85065e-05
-8.30026e-05
0.000434095
0.00036223
0.00115315
-0.000514773
-0.00100061
-0.000195897
-0.000298105
0.000494002
0.00173587
-0.000775389
-0.00132507
0.000364586
-5.78354e-06
-0.000774282
0.000779033
0.000456311
0.000150808
0.000277907
-0.000885025
-0.000808337
0.00047523
0.000773233
-0.000440126
9.31731e-06
-0.00330001
0.00246276
0.000827935
-0.000367437
0.00030802
0.00218982
-0.00213041
-0.00127742
0.0013469
0.00232169
-0.00239118
-0.000795793
-0.000431731
0.000478153
0.000749371
0.000859574
-0.00194726
-0.000570517
0.00165821
0.000461176
0.00020769
-0.000830532
0.000161666
0.0015223
-0.0010483
0.000211296
-0.000685297
-3.58231e-05
1.22922e-05
1.73053e-05
6.22556e-06
-0.000633859
-0.000440495
0.00107435
-0.000451277
0.00104609
-0.0010068
0.000411989
-0.000540107
0.000884011
-0.000383512
3.96078e-05
3.45472e-05
0.00155848
-0.00159303
0.000163333
-6.26538e-05
0.00153477
-0.00163545
-0.000663141
-0.00117512
0.00440796
-0.0025697
0.000917379
-0.00168921
-0.000960579
0.00173241
-0.000202404
0.000609095
-1.83352e-05
-0.000388356
0.00155463
-0.00174844
0.000193812
7.33297e-05
-4.8207e-05
-0.000227526
-0.00111016
-0.00309855
0.00354557
9.59067e-05
-6.24887e-06
-8.96578e-05
0.00172213
-0.00154342
-0.000178709
-0.00236329
-0.00076288
0.00133508
0.00179109
-7.79234e-05
-0.00018836
0.000266284
3.10713e-05
0.00104385
-0.00107492
6.35728e-05
-0.000643108
-0.000199528
0.000779063
0.000381829
0.000320723
-0.000702553
0.000204729
0.000412641
-0.000390701
-0.000226669
0.000285926
0.00036144
-0.000265537
0.000499143
-0.00149856
0.000664797
0.000334615
0.000557437
0.000202549
-0.000163795
-0.000739119
0.000429206
0.000473709
-0.00161189
-0.00013626
-0.000930743
-0.00150951
0.00131157
0.00112868
-0.00157048
0.0031862
-0.000350029
-0.0012657
-0.000198291
0.000327663
0.0004117
-0.000541073
0.000112782
-2.11889e-05
-9.15932e-05
-0.00185587
-0.000129876
0.00210258
-0.000116834
-0.00096732
0.00213779
0.00248472
-0.00365519
0.00103474
-0.00103754
2.79674e-06
-0.000897471
0.000525614
0.000371857
0.00109232
0.00125028
-0.000138629
-0.00220398
0.000490655
-0.00322726
0.00532726
-0.00633494
0.00423494
-0.00115585
0.00149941
0.000713021
-0.00105658
-0.00015435
0.000219624
8.05569e-06
-0.00241814
0.000312329
0.00210581
-0.000224111
0.00189636
-1.6465e-05
-0.00165579
-0.000543074
-0.00237093
-0.000588805
0.00350281
-0.000734519
0.00211211
-0.00135063
-2.69595e-05
-0.00168972
0.00137928
0.000310438
0.000367979
-0.000117566
-0.000250413
-0.00135257
0.00121943
-0.00274314
0.00287628
0.000129233
-0.00281253
0.00268328
-0.000732773
0.00112021
0.000518363
-0.000905805
0.00062891
-0.000558493
-0.000323284
0.000252867
-0.00187211
0.00194028
0.000286921
-0.000355082
0.00103288
-8.35135e-05
-0.00080493
0.000909736
-0.000670843
-0.000752734
0.000513841
-3.15129e-05
4.45037e-05
-0.000420609
0.000407618
-0.00199877
-7.9525e-05
0.00207356
4.73445e-06
0.000820163
-0.0039587
0.00122818
0.00156006
-0.000614611
-2.92854e-05
-0.00091616
-0.00505973
5.34449e-05
0.00227161
0.00273468
0.00149937
-1.02818e-05
-0.00148908
0.00134263
0.000938722
-0.000721297
-0.00128436
0.000949545
-0.000706682
0.0010415
0.00259994
-0.00252985
0.000231673
-0.00100617
0.00176683
9.83076e-05
-0.000858966
0.000190926
0.000141076
-0.000145702
-0.0001863
-0.00132139
-0.000947193
0.00366471
-0.00139613
-0.000164654
-0.000272427
0.000437081
0.000470981
0.000615005
-0.00114805
6.20594e-05
-0.000558638
0.000548423
1.57026e-06
8.64474e-06
0.00062789
-0.000156592
-0.000486194
1.48957e-05
-0.00169995
0.00172229
0.00156573
-0.00158807
-0.00081341
0.00087911
0.00154134
-0.00160704
0.000270636
-0.000374879
0.00197527
-0.00187103
0.00102254
4.63875e-05
0.000447044
-0.00151597
7.49178e-05
6.2422e-06
-8.116e-05
0.00161216
-0.00161223
7.0359e-08
-0.00414162
-0.00113022
-0.00323978
0.00851162
-0.00167648
0.00173936
-6.28871e-05
-0.000262443
-0.000515364
0.0011342
-0.000356391
8.62816e-05
0.000681184
8.80608e-05
-0.000855526
0.00244251
-0.000767463
-0.000400136
-0.00127491
0.0014539
0.000365574
-0.00117623
-0.000643241
0.00186327
-0.000906592
-0.000339502
-0.000617175
-0.000133634
0.00222658
-0.000256263
-0.00183668
-0.00200886
0.00207978
-2.17049e-05
-4.92155e-05
0.00251274
-0.000665079
-4.93794e-05
-0.00179828
0.00174172
-0.00020183
-0.00153989
0.000226415
0.0013351
-0.000859285
-0.000702235
-0.00119158
0.000489721
0.00135488
-0.00065302
0.00185318
-0.00220054
0.000347351
7.78903e-05
-0.00152607
0.00144818
-0.000255537
0.00210872
0.00023478
9.9838e-05
3.33613e-05
-0.000565387
0.000571183
-5.79605e-06
0.000104475
0.00213887
0.000544441
-0.00278779
-6.99009e-06
-0.00129369
0.00130068
0.00313376
2.66744e-05
-0.00349897
0.000338533
-0.00204091
-1.79178e-05
5.60682e-05
0.00200276
-7.20955e-05
0.000803172
-0.000328591
-0.000402486
-0.000858117
0.000942445
0.00244388
-0.00252821
-7.53974e-06
0.000407393
4.97588e-05
-0.000449612
0.00045976
0.000292517
-0.00039632
-0.000355958
-0.000585395
5.28554e-05
0.000277505
-0.000348163
-0.000160611
0.000231269
1.75278e-05
-0.000459289
-5.69237e-05
0.000498685
-0.00208363
-0.00761659
0.00638605
0.00331417
0.000183837
-0.000846302
0.00215775
-0.00149529
-0.00129833
-0.000194128
0.00112502
-0.000125636
0.001446
-0.00144637
3.7431e-07
9.29453e-05
0.00168935
-0.000224352
-0.00155794
-0.00161965
-5.63475e-07
0.00162022
0.00140178
-0.000491986
0.000127145
-0.00103694
0.000648978
0.00166896
-0.000731182
-0.00158676
0.00140186
-0.00138144
-2.04262e-05
-0.000101282
-0.00141531
0.000675831
0.000840757
0.00127149
1.42255e-05
-0.00147216
0.000186438
-0.00180332
0.00156437
0.00129669
-0.00105774
0.000123661
0.000638964
-0.000439291
-0.000323334
0.00149421
-0.00128031
-0.000213901
0.00204143
0.000577734
-0.00226176
-0.000357408
0.00128532
0.000208892
0.000310269
2.00913e-05
-0.000142554
-0.00160858
0.00156348
0.000187652
0.00121097
-0.00303548
-0.00202175
0.00384626
-0.000468186
-0.00116393
0.00130654
0.000325575
-8.36655e-05
-0.000326844
1.46424e-05
0.000395867
0.00112894
0.00386237
0.000111322
0.000556975
-0.00453066
-0.000303194
0.00187623
-0.00147065
-0.000102382
0.00219965
0.000157158
-0.00125703
-0.00109979
0.000463021
-0.00194769
-0.000289092
0.00177376
-0.000422726
0.000324127
1.49335e-05
-0.0015788
0.00148434
9.4458e-05
0.000372792
0.00168616
-0.00204497
-1.39874e-05
-0.000415869
-7.97131e-05
0.000168738
0.000230059
-0.000108892
-0.000121167
0.00207789
-0.00162163
-0.00210947
0.0016532
-1.95702e-06
8.27524e-06
-6.31821e-06
7.4433e-05
-8.93004e-05
0.00160213
-0.00158726
0.000575378
-0.000114234
-0.000231086
-0.00355421
0.00503137
-0.00491156
0.0034344
-0.000142962
0.000261646
-0.00213077
0.00201208
-0.00186605
0.00194116
-7.51092e-05
0.000142391
-4.98999e-05
-0.000212106
0.000119615
0.000276949
0.00121135
-0.00270524
0.00121693
-0.00276084
0.003643
-0.000643183
-0.000238984
-0.000193553
7.99535e-05
0.000177912
-6.43124e-05
0.0016002
1.35407e-05
-2.2493e-05
-0.00159125
-0.00163197
0.0016799
-0.00238084
0.00233291
-0.00185069
0.000256333
0.00294555
0.00100837
-0.0087958
0.00484188
-0.000896822
0.000173187
-8.12807e-05
0.000804916
-0.000823181
0.00111308
-0.000489508
-0.000633564
9.99667e-06
-0.000820148
-1.9299e-05
5.74113e-05
0.000782036
6.23924e-06
1.43925e-05
-0.000112665
9.20333e-05
-0.00152566
0.000173799
0.00135186
-0.000926277
0.00084366
8.26178e-05
-0.00174057
-0.000300862
0.00054975
0.00149169
0.00261476
0.000201762
1.82206e-05
-0.00283474
0.00270831
-1.35873e-05
0.000288588
-0.00298331
-3.5374e-05
-0.000137218
0.000137827
3.47642e-05
0.00718073
-0.000448089
-0.000833257
-0.00589938
-0.0022115
-3.55896e-05
0.00277001
-0.000522925
0.000183835
0.00065688
-0.000226066
-0.000614648
0.000479633
1.16479e-05
-0.000491281
0.000834193
0.00109418
-0.0010839
-0.000844473
-0.000292295
9.00216e-06
0.000247919
-0.00115205
-0.000162505
0.000130794
0.00118376
-0.0012166
0.00119967
1.69273e-05
0.00137987
-0.000220154
0.000498851
-0.00165856
4.87263e-05
0.000831265
-0.000879991
-4.9059e-05
-0.00182426
0.000998161
0.00087516
0.00128339
0.000178281
-0.00130726
-0.000154416
0.000830325
1.65984e-05
0.00161664
-0.00246356
-0.00116544
-0.000249031
0.00141463
-1.62906e-07
-0.000121689
0.000102501
-0.00114625
-0.000798287
-0.00012799
0.000657831
-0.00133957
-0.00495045
0.00563219
-0.000950211
0.000812902
-0.00173251
0.00186982
0.000323915
1.3965e-05
-0.000329325
-8.55509e-06
1.72655e-05
-0.000580325
0.00050428
5.87788e-05
-0.00169053
0.0010118
-0.000846927
-0.00282631
0.00102977
0.000446102
0.00135045
-0.00244908
0.000610003
0.000259507
0.00157957
0.00186392
-0.00212886
-0.00053718
0.000802122
0.00157281
-0.00313273
-0.00126639
0.00126246
-0.00202586
0.000763405
-0.000634013
0.000569961
-0.00121883
0.00128288
0.000919377
-0.00100511
8.5734e-05
0.00108747
0.00123073
-0.00128844
-0.000131667
-0.000536669
0.000725422
-5.70859e-05
-0.000655649
-0.00156107
0.00221672
-0.000273438
-0.0011595
0.00156614
-0.000133209
0.00124773
-0.00286401
0.00253116
-0.000914882
0.000305114
1.88011e-05
-0.00177582
0.000520341
0.00137357
-0.000118093
0.0019788
-0.00277346
-0.00063497
0.00142963
-0.0021565
-0.000763871
0.00162204
-4.27579e-06
-0.00109589
0.00110016
7.97592e-05
-0.000815066
0.000735307
-0.000221492
6.3922e-05
2.0352e-05
0.00025319
-7.73306e-05
-0.000186496
0.0031891
-0.00262899
-0.000224077
-0.000336039
-0.000227701
0.000358732
0.000982045
-0.000494051
-0.000540693
0.000424087
0.000610658
-0.000496265
0.000576024
0.000453996
-0.000681793
9.58199e-08
0.00204016
-0.000747438
-0.00129273
0.000313537
0.000588364
-0.00213686
0.00123496
-0.000651649
0.000189163
-0.000136313
0.000598799
-0.000981026
0.00246739
-0.000957875
-0.000528489
0.00039486
-0.000292549
0.0012114
-0.00131371
0.00212624
0.000107214
-0.00249094
0.000257479
1.28189e-05
-0.000677674
0.000462924
0.00195459
-0.00173984
-4.71484e-05
0.000194776
-0.000129678
-1.79497e-05
4.33903e-05
0.00164871
-0.00160798
-8.41241e-05
0.00257334
6.12325e-05
-0.00253954
-9.50313e-05
1.94987e-05
-5.10366e-06
8.07717e-05
-9.51667e-05
-8.96665e-05
6.86204e-05
4.05447e-05
0.0022125
0.000928546
-0.00110088
0.00155685
-0.000206144
0.000370793
0.00181373
-0.00197838
-0.00241536
0.00246205
-4.66838e-05
0.000231226
0.00119454
-0.00142577
0.00123562
-0.0011917
-1.59545e-05
-2.79632e-05
1.54329e-05
-0.00111477
0.00109933
-0.00122773
0.00173649
-0.00181671
0.00130795
5.28742e-05
-0.000160943
-0.000898138
0.00100621
0.00269769
-0.00280464
0.00260984
-0.00250289
0.000655429
-0.000692564
-0.000627505
0.00066464
-0.00257053
-0.00186935
0.00188963
0.00255025
-0.000523557
0.00188721
0.000119159
-0.00148281
0.000700842
-0.00280482
0.000676772
0.00142721
0.001262
-0.00125231
-9.6899e-06
0.0015001
0.000268653
-0.00176875
0.00151943
-0.00105703
-0.00180266
0.00134026
-0.00015924
3.5852e-05
0.000475571
-0.000352183
-0.000152635
-0.0003417
0.000838233
-0.000343898
-9.57541e-07
0.00126296
0.00230994
0.00149617
-0.00310527
0.00208
-0.0012222
-0.000857796
-0.000309556
0.000167567
0.000144614
-2.62496e-06
0.00208364
0.000292303
-0.00179361
-0.000582338
0.000845304
-0.000417585
0.00020481
-0.000632529
0.00140069
-0.00141631
0.000117433
-0.000101807
-7.15447e-05
9.58083e-05
-5.77296e-05
3.3466e-05
-3.72017e-05
0.000343965
0.00119825
-0.00150502
0.00301649
-0.00139069
-0.00177159
0.000145791
0.0020437
-0.00303498
-0.000467663
0.00145894
-0.000290689
0.000215382
-0.000666689
0.000741996
-0.000395182
0.00131456
-0.00133457
0.000617393
8.55759e-05
0.000113158
-0.00179129
0.00167813
-0.000116464
-6.64448e-05
0.000135761
-0.000823804
0.000888662
-0.000765932
0.000701074
0.00334679
-0.00387996
-0.00194946
0.00248263
-9.40581e-05
0.00044815
-0.00162936
0.00127527
0.0002486
3.54871e-06
-1.81902e-05
-0.000233958
-0.00188351
0.00192861
6.80513e-05
0.00052805
-0.000331711
-0.00101649
7.9385e-05
-0.00177599
0.00169661
0.000181046
-0.000205084
2.40383e-05
0.00119108
-0.00125453
6.34419e-05
0.000230679
2.02584e-05
-2.33777e-06
0.000800703
-0.00177349
0.000380475
0.000592308
7.00799e-05
-8.28687e-05
0.00149685
-0.00148406
-0.000251324
0.000216577
3.47461e-05
0.000530526
8.0748e-05
-0.000611309
0.00323292
-0.00101968
-0.00221323
-0.000158237
-0.000936404
0.000426248
0.000668393
0.000579315
-0.000101328
2.1366e-05
-0.000499353
3.96411e-05
0.00272015
-0.00275979
-0.000482377
0.00172703
-0.00151291
0.000268262
-0.000168502
-0.000431154
0.00136038
-0.000760724
0.000184266
-6.55264e-05
-0.00266511
0.00254637
-0.000284444
0.00118486
-0.000586417
-0.000314001
0.00255313
-0.00303971
-0.00168157
0.00216814
0.00128657
1.22241e-05
-8.7829e-05
0.00036918
-0.00109009
0.00327405
-0.000466065
0.000249715
-6.80945e-05
4.44555e-05
0.000366357
-0.0013936
0.00127301
0.00170973
-0.00158915
0.000215024
0.00228761
-6.2992e-05
-0.00243965
-0.000175906
-9.34492e-05
0.00121127
-0.000941914
0.00285795
-0.00282576
2.51774e-05
-5.73698e-05
-0.0012886
0.000748467
0.00054013
-0.0012937
8.08024e-06
0.00128562
-0.00039865
-0.000382978
0.00347156
-0.00268993
-0.00242579
-0.000255732
0.00228287
-0.00216906
0.00122435
-2.7904e-05
0.000972609
-0.00276627
0.00531239
0.000309798
-0.00285592
-0.000149226
0.000138468
0.00184943
-0.00183867
-0.000624115
0.000644677
-0.000528357
0.000507795
0.000791764
0.00178091
-0.00243601
-0.00013667
0.000137373
0.000424197
-0.00056157
-0.000437214
0.000465681
-0.00178377
0.00175531
-0.00177934
0.000734672
0.00167925
-0.000634582
0.0010928
0.000590295
0.00040728
-0.00209038
0.00423674
-0.000851155
-0.00261685
-0.000768733
0.00261278
0.00223548
-0.00117438
-0.00367388
-0.000614556
0.00019474
0.000419816
-0.000207924
-0.000764098
0.000972022
-0.00487665
0.000708398
-0.000403683
0.00457193
-0.000630392
-0.000914872
0.00193918
-0.000393913
0.000724865
1.42966e-05
-0.000739161
0.000464232
7.83359e-06
-0.000692868
0.000220802
-0.000293866
-3.1396e-05
0.000325262
0.000457006
-0.00272087
0.00145483
-0.00145919
4.35665e-06
0.00115127
-0.00129653
0.000145261
-0.00154295
0.00192358
-0.000321181
-5.94482e-05
-0.000612662
-0.0011701
0.00164033
0.000142431
-0.000131996
0.00164996
8.22389e-05
-0.00198844
0.00152082
0.000578506
-0.000110886
6.56242e-05
0.00146704
-0.00153305
0.00190651
-0.00184355
0.000434501
-0.00049746
0.000129746
-9.11928e-05
0.000584416
-0.000622969
0.00269374
-0.000297133
-0.000683936
-0.00171267
0.00241411
-0.0023958
-0.000211148
0.000192841
-0.000554924
0.000451931
0.000161506
-5.85128e-05
-0.0013607
-0.000228707
0.00120643
6.41409e-06
-0.000792345
0.00078593
-0.000776938
0.00160708
0.000154605
-0.00098475
-0.000555302
0.00156191
-0.000453787
-0.00055282
-0.00192789
0.00188496
0.000211012
-0.000168085
-0.00144136
4.1411e-05
0.00139995
0.000335788
0.00114485
-0.00183549
0.000354856
-3.0004e-05
0.000256863
6.47924e-05
-0.000291651
0.00183415
-0.000116379
-0.00155773
-0.000160044
-0.00157217
-0.00361407
0.000379734
0.00480651
0.000246344
2.85575e-05
-0.000274902
-0.00111994
0.0011185
1.44088e-06
-0.000729894
0.00333455
3.79385e-05
0.000207659
-0.000245598
-7.56111e-05
0.000402824
-0.000357216
0.000124706
5.19949e-05
8.01621e-05
0.00202075
-0.000186594
-0.00107019
0.00159757
-0.000246158
-0.000281224
-0.000658193
-0.00120468
0.00186288
9.28572e-05
-0.00174738
0.00223049
-0.00252745
0.00204435
-0.000164637
0.000670232
0.000298071
-0.000803667
0.00131142
0.00204301
-0.00237612
-0.00097831
-0.0028629
-0.00113532
0.00280347
0.00119475
0.00261292
2.74883e-05
-0.00264078
3.8059e-07
-0.0011979
-0.000392753
0.00130201
0.000288647
-0.000114611
7.49674e-05
-0.00227038
0.00231002
0.00207276
-0.00237157
0.000131566
0.000167237
-0.00167643
0.00362432
0.0008508
-0.00279869
2.02842e-05
0.00117004
-0.00119032
-0.000656955
0.00228377
-0.00162682
0.000614863
0.000758412
-0.00100444
-0.000368837
0.0010014
0.000675103
-0.000402448
-0.00127405
-0.000585535
0.00030452
2.19275e-05
-0.00128534
0.00126342
0.000319945
-1.16782e-05
-0.00031168
3.41325e-06
0.000502303
-0.00172363
-0.00153275
0.00275407
-0.00192501
0.0011207
5.75831e-05
0.000746722
-0.000318809
-0.00173239
0.00171231
0.000338883
0.00137434
-0.00145669
-0.000915709
0.000998067
0.000346477
-2.65319e-05
0.00135463
-0.00167344
0.000200484
0.00204593
-0.000543487
-0.00170293
-0.0043371
-0.000397634
0.000237436
0.0044973
0.0014405
-8.58716e-05
-0.000270767
8.6909e-05
0.000183858
-0.00290041
0.000439119
0.000927915
0.00153338
0.000103146
0.000276981
-0.000380128
0.000119778
0.00117342
3.50284e-05
-0.00132822
2.11431e-05
0.00138072
-0.000321772
0.00340904
-0.000238232
-0.00284904
0.0003152
-0.000279668
-4.721e-05
-0.00022774
0.000250733
8.01536e-05
0.00256864
-0.00246585
0.00040772
-0.000510509
0.00126298
0.000346061
-0.00190704
0.000297997
0.00418497
-0.00079484
-0.00121812
-0.002172
0.000986427
-0.000544994
0.00074628
-0.00118771
0.000104658
0.000441956
-0.000474955
-7.1659e-05
2.04223e-05
-2.05442e-05
0.000359749
-0.000359627
-0.00014676
-0.00111996
0.000227375
0.00103935
-0.00152734
-0.00154614
0.00211316
0.000960332
5.91627e-05
-0.00289972
0.00290614
-6.55846e-05
-3.56537e-05
-0.00064644
0.000682093
-0.00141358
-0.000204346
0.0011511
0.000466824
-0.00154557
-0.000593799
-0.000294508
-0.00108844
0.00197674
0.000152031
-0.000401029
0.000248998
0.00170262
-0.0016984
-4.22225e-06
-0.00141175
0.000101098
-7.67269e-05
0.00138737
-0.00186836
0.000562877
0.00130549
0.0015972
0.00029142
-0.00242719
0.000538569
-0.000468801
-3.31968e-05
0.00052242
-0.000460483
-8.31741e-06
-0.000966719
0.00021398
0.000721226
3.15131e-05
6.93177e-07
-8.59545e-05
0.000114122
8.25274e-07
-2.8993e-05
0.00130434
-0.000202879
8.16944e-06
-0.00110963
0.000428466
-0.000760884
-0.000375067
0.000270601
-0.00205901
0.00216348
0.000288388
-0.000837325
0.000549407
-4.69443e-07
0.000263567
2.15967e-05
-0.00177387
0.0014887
0.00164118
0.00030432
-0.0019455
0.000957443
-0.0022418
-0.00146915
0.000249196
0.00153759
-0.00031763
0.00234111
-0.00147575
0.00173356
-0.00259891
0.000769757
-0.000535294
0.00185738
-0.00209185
0.000978253
-0.00241149
8.97297e-05
0.0013435
0.00101354
-0.000538452
0.000243247
-0.000718338
0.00143965
-7.15508e-05
-0.0013681
-2.58253e-07
-0.00179776
0.00179802
-0.00233595
0.00214193
0.00117227
-0.000265016
0.000464524
-0.000199507
-0.000677499
0.000594599
0.000768069
-0.000685169
0.00102861
-0.00143723
-0.000430825
0.00083944
0.000754486
0.000166831
0.00141083
-0.00233214
-0.00234618
0.00135351
-0.000859887
0.00185256
0.00102724
-0.00161211
0.00140265
-0.000817781
0.00050305
-0.000438091
-0.000605724
0.000540765
-0.000836636
-0.000779315
0.00161595
0.00161013
-0.00265202
0.00246269
-0.0014208
-0.000301338
2.91646e-05
0.000108829
0.000163344
-0.00117819
-0.000626024
0.00180422
0.000228167
0.000369553
0.000286789
-0.000884509
-0.00103514
0.000508493
0.000526643
-0.00227526
0.00190719
-0.00224009
0.00260816
-0.000101634
0.000288824
-5.10511e-05
-0.000136139
-0.000155317
-0.000193622
0.000250876
9.80626e-05
-3.78666e-05
-0.000127083
0.000162443
2.50654e-06
0.00101411
0.000361748
-0.00100915
-0.000366713
-0.00121786
0.00364151
-0.00037522
-0.00204843
-0.000293196
-8.14153e-06
2.0616e-05
0.000605031
-8.03625e-05
-0.000545284
-0.000464516
0.000175576
-0.000238069
0.000107894
0.00114429
-0.00052334
-0.000511796
-0.00354343
0.00345219
-0.000502742
0.00059398
0.00134396
-0.000382137
-0.00128542
0.000323603
0.00107852
0.000487396
-0.00290032
0.00133441
-0.00186075
0.00166141
0.00019934
0.000869998
-0.000902564
-0.000379877
0.000412442
-0.000469112
0.00316437
-0.000324213
-0.00237105
-0.000628739
0.00121552
-0.000419218
-0.00118646
0.000218124
0.000957675
1.06619e-05
2.99995e-05
9.80368e-05
-0.000128036
-0.000828536
-0.00245744
0.00299329
0.000292691
-0.000483554
-0.00143563
0.00192284
-3.65903e-06
0.00105875
-0.00109309
-0.000306179
0.00034052
-0.000404146
0.000257446
-0.000221591
0.000368291
0.000981312
-0.00052618
-3.38947e-05
-0.000421237
4.38022e-05
-0.00269039
0.00271523
-6.86387e-05
0.00047886
-0.000502569
0.00109773
-0.00110564
7.90873e-06
0.00220687
-0.000835356
-0.00175742
0.000385902
-0.00153262
0.000715928
0.000352181
0.000905064
0.000138005
-0.00104307
-0.00172066
0.00183074
0.00310527
-0.00321536
0.000987449
-0.000569514
-0.000116715
-0.000301219
0.000353752
0.000228274
-0.00231512
0.00173309
0.000621523
0.000630038
-0.000986107
-0.000265454
-0.00122277
-0.000329885
0.00155266
0.00095548
4.38177e-05
0.00116288
-0.00216218
-0.0014331
0.000210323
0.000955456
0.000262197
0.000558614
-0.00173681
-0.00146376
0.00141313
0.00027757
-0.00022694
0.00226874
0.00194864
-0.000106241
-0.00411114
-0.00149773
0.00194621
-0.00193541
0.00148693
0.000475832
0.00827162
-0.00775279
-0.000994663
0.00282759
0.000395393
-0.00157041
-0.00165258
-0.00148243
0.000442278
0.00142084
-0.00038069
0.000547453
0.000405802
-1.8579e-05
-0.000934675
-0.00284925
0.00224119
0.000608059
-0.00107152
0.00273722
-0.000710249
-0.00084604
0.000402451
-0.000234842
0.000678431
0.00066563
0.00213767
-0.000454929
-0.00234837
0.00182079
-0.000125012
-0.00169578
-0.000225569
0.00210584
3.99652e-05
-0.00192024
0.00138594
8.07023e-05
-0.00146664
0.000215641
0.000857301
-0.000596309
-0.000476633
-0.000880931
0.00144453
-0.000854763
0.000291166
-0.000640815
-0.000675794
0.000245093
-0.000196155
7.02929e-05
0.000132102
0.00354579
0.000472605
-0.00201615
-0.00200225
-0.000146763
-0.00122888
0.00115008
0.000268422
0.00116689
-0.00143531
-0.000896732
0.00123427
-0.000337539
-0.000690367
0.000175728
-0.000318382
0.000833021
0.00051576
-0.00215749
-0.000500067
-0.000710262
3.95326e-05
-0.00179247
0.00175293
0.000258053
-2.08734e-05
-0.00023718
0.00041917
-0.000440285
1.40334e-05
7.08179e-06
-0.00242772
0.0002542
-0.00233283
0.00450635
0.000172851
0.00050696
-0.000572576
-0.000107235
0.000416355
2.18048e-05
-1.89898e-05
-0.00646456
0.00355117
0.0109215
-0.00800807
0.0031232
0.000377207
0.000106058
-0.00360647
-0.000118819
-0.00137007
-0.00141152
1.53156e-05
-8.11993e-05
6.58837e-05
-0.00164861
-0.000171575
-0.000122545
-0.000547953
0.000542921
0.000127577
0.000208226
-0.000330614
0.000122388
0.000611877
-0.000641391
-0.000120126
0.00014964
0.00164001
-0.00551178
-0.00259279
-0.000505418
6.32586e-06
-0.00032063
0.000819722
-0.00128484
0.00163968
0.000301726
-0.000656567
0.0005845
0.000343491
-0.000388119
-0.000539871
-8.09188e-05
-0.000890289
-0.00026793
0.00123914
-0.000963082
-7.14236e-05
-0.00037664
0.00141114
-0.000125519
0.000126411
-0.000148059
0.000147167
0.000699387
-0.000194462
0.000177377
-0.000682302
-3.36117e-06
-8.9771e-05
6.53399e-06
8.65982e-05
-0.00106925
0.000848453
-0.00136003
0.00158083
-0.00259163
0.00037637
0.00255348
-0.000338222
-0.000328743
-0.000145379
0.000474122
-0.00104259
0.000626513
-0.000105615
0.000521696
-4.28334e-05
1.36552e-05
2.5817e-05
0.000648227
-0.000324553
0.000476549
-0.000800223
0.000393755
-0.000483206
-0.00106579
0.00115524
-0.000131835
0.000504887
-0.000373052
-8.13605e-05
-0.000949157
0.0019479
-0.000434165
-0.000708167
0.000617961
0.000524371
8.59421e-05
3.59333e-06
-9.6502e-05
6.96662e-06
-0.000174142
0.000474203
0.000280463
-0.000580524
-0.000523099
-0.000674613
0.000528883
0.000668829
-0.000460978
0.000108581
-0.00131617
0.00166856
0.000706481
0.00140323
-0.00150245
-0.000607257
-3.00316e-05
-0.000745707
0.0007119
6.38379e-05
0.00215631
-0.00175329
0.0010043
-0.00140732
0.000241333
-0.000289319
-0.00089283
0.000940816
-0.000292172
-0.000696275
0.000988447
-0.00034208
-7.83348e-06
0.000349914
-0.000663929
-0.000933301
0.00159723
0.00127172
-0.00116496
-0.000154001
4.72339e-05
0.000100785
-0.000334798
0.000186939
4.7074e-05
0.00134898
-0.00313367
0.00178469
-0.000478778
0.000318749
0.000606102
-0.000446073
0.000351278
0.000283349
-0.000267158
-0.00036747
0.000225059
-0.00238386
0.0024401
-0.000281292
-0.000102891
0.0015761
-0.00149258
1.9368e-05
0.000274959
-0.000299309
0.00196833
-0.00194398
-0.00028119
-0.000474848
0.00027235
0.000483689
-0.000623661
-0.00022825
0.000559739
1.69703e-05
0.000782746
-0.000105493
-0.000694223
0.00022056
0.00110681
-0.00123796
-8.94131e-05
0.00112876
-0.0015256
0.000109091
0.000287752
0.000888254
9.94042e-06
-0.000140189
-0.000758005
0.00188577
-0.00169663
-0.000395639
0.0002065
-8.61727e-05
5.70591e-05
-1.37199e-05
0.002845
0.0001529
-0.00197439
-0.00102351
-0.000153695
0.00134408
0.000159929
-0.00135031
-0.00127345
0.000609524
-1.78515e-05
-0.00100594
0.00036721
0.000656586
-3.82896e-06
4.35395e-05
-0.00115129
-6.99323e-05
0.00117768
0.000915236
-0.000871697
6.36647e-05
0.000851572
0.00153879
0.00159523
-0.00175199
-0.00138202
-6.69424e-06
-0.00147046
0.00147715
-0.000126261
0.00010542
-0.000120565
0.000141407
-8.81807e-05
5.60132e-06
-0.00171552
0.00198382
0.000542433
-0.000810726
2.45872e-05
0.00104509
-0.000871091
-0.00162395
0.00122159
-0.00198892
0.000774886
0.000342944
0.00088387
-0.00215013
0.00156257
-0.000296305
0.000525784
0.00269109
-0.000543077
-0.0026738
-0.00176193
0.00317251
-0.00595099
0.00454042
-0.0016235
0.00214929
-0.00222737
0.00119792
-9.94658e-05
0.00112892
7.65964e-05
-0.00106453
0.0012085
-0.00245865
-0.000151567
0.00253328
7.69418e-05
6.80152e-05
-0.00233071
0.00118061
0.00108209
-0.00168176
0.00168046
-7.68857e-05
7.81847e-05
0.00086937
0.00303931
-0.00266095
-0.000512746
-1.23616e-05
0.000135822
0.000389286
-0.00203579
0.00113646
0.000967341
0.000469586
-0.00134826
-0.00115712
0.00048002
0.000256797
-0.000736743
-7.37847e-08
0.000227327
0.000696779
-0.00052485
-0.000399256
0.000105343
-0.000280996
-0.000209606
0.00038526
0.000370194
-0.000820497
-0.000209533
0.000659836
2.78261e-06
0.000965653
-0.00130132
0.000332882
-0.000962817
0.00102648
-0.00110153
0.000925151
0.00131284
0.00163652
-0.00192652
0.00170412
-0.00141412
-0.000813349
-0.00104778
0.00135682
0.000396784
-0.0017536
0.00171345
-0.00186811
0.000154663
0.00143542
-1.41703e-05
7.80551e-06
-0.00142905
-0.000880884
-0.000981927
0.00104774
-0.000238873
-0.000635333
0.000112671
-0.000207758
0.00185989
-0.00176481
0.000867487
0.000145199
0.000223082
-0.00123577
-5.68302e-05
0.00053685
-0.0016474
0.0013402
6.24627e-05
0.000244739
-0.00110367
0.00121634
0.00062584
-0.00068267
0.00255917
-0.000437221
-0.000363266
-0.00175869
-0.000234759
0.000250469
0.000717352
-0.000733063
0.00118499
0.000322559
-0.00150755
-0.00208729
-0.000248531
0.0025083
-0.000172476
-0.00018606
-0.000459508
6.38564e-05
0.000581712
-0.000183974
0.0003474
-0.000163426
0.000641797
-0.00050392
-0.000137877
0.00196441