/*--------------------------------*- C++ -*----------------------------------*\
| =========                 |                                                 |
| \\      /  F ield         | OpenFOAM: The Open Source CFD Toolbox           |
|  \\    /   O peration     | Version:  v2012                                 |
|   \\  /    A nd           | Website:  www.openfoam.com                      |
|    \\/     M anipulation  |                                                 |
\*---------------------------------------------------------------------------*/
FoamFile
{
    version     2.0;
    format      ascii;
    class       volVectorField;
    location    "0.654544";
    object      U;
}
// * * * * * * * * * * * * * * * * * * * * * * * * * * * * * * * * * * * * * //

dimensions      [0 1 -1 0 0 0 0];


internalField   nonuniform List<vector> 
83563
(
(0.0230336 0.349721 -1.6279e-05)
(-0.0529561 0.0671064 0.00045181)
(-0.10908 0.0698523 -3.15267e-05)
(0.036682 0.0591598 0.00104794)
(-0.000358921 -0.174385 -0.00100465)
(-0.0246874 0.0273082 0.00200292)
(0.399354 -0.0339715 -0.00013056)
(0.356628 -0.00270323 -0.000225103)
(0.023648 -0.118325 0.000772801)
(-0.00944402 -0.0509249 0.00308704)
(0.142473 -0.115533 -0.00118304)
(0.372857 -0.0624971 -0.000366869)
(1.08699 0.404526 -0.00711105)
(0.120836 0.0412831 -0.000286321)
(0.339653 0.00217162 -0.000761591)
(0.173954 -0.260426 -0.00157536)
(0.061683 -0.0216173 -0.00113957)
(0.115587 0.0241241 -0.000264798)
(0.28357 0.0516998 -0.000235808)
(0.124758 0.0410646 -0.000550345)
(0.169089 0.00912825 -0.000497479)
(0.121773 0.0435504 -0.000575451)
(0.412687 0.103788 0.00148876)
(0.254672 -0.107982 0.00347986)
(0.078127 -0.0153425 -0.00140125)
(0.266814 0.0209301 -0.000409034)
(-0.0280816 -0.0761219 -0.000700919)
(-0.0012142 -0.204187 0.00558786)
(0.265025 0.0192397 -0.000479809)
(0.0637066 -0.0680003 0.000534656)
(-0.0430381 0.0114478 0.0012488)
(-0.0361358 -0.174119 -0.00068592)
(-0.0491285 -0.125695 -0.000695799)
(0.141549 -0.0479878 -7.86627e-06)
(0.131468 0.133884 0.00022591)
(-0.000158287 -0.0939162 0.00752807)
(0.0124565 -0.0189345 -0.00115471)
(0.064684 -0.0400514 -0.00180906)
(0.0837352 -0.0452591 -0.00133587)
(-0.389876 0.350409 1.90914e-05)
(0.150831 -0.0141985 -0.000707135)
(0.258877 0.022929 -0.000424051)
(0.014911 -0.11107 -0.000868339)
(0.259963 0.0146348 -0.000521461)
(1.25402 0.0736026 -0.00533891)
(0.435714 0.253827 -0.000411109)
(0.128779 -0.281177 -0.0019166)
(0.176544 -0.0421454 -0.00101725)
(0.325663 -0.00363611 -0.000498751)
(-0.0786073 -0.372236 -0.000158532)
(-0.0791875 -0.337169 -0.00677311)
(0.254888 0.0191551 -0.000543651)
(-0.0895536 0.385229 -0.000417392)
(-0.333011 0.432272 0.0261599)
(0.271143 0.17802 -0.000107639)
(-0.177246 -0.865508 0.0065728)
(0.181817 -0.0616498 -0.000955119)
(0.0504496 0.422213 0.0165654)
(-0.195878 0.576117 0.0275342)
(0.332082 0.196975 -0.000200559)
(-0.510905 0.470907 0.0713022)
(0.040509 0.168857 0.000655608)
(0.144629 -0.001452 -0.00095004)
(0.0208591 -0.0696279 0.00140062)
(-0.432581 0.0344241 0.00925167)
(0.606585 0.572007 -0.0373154)
(-0.370542 -0.250783 0.0133427)
(0.332514 0.197282 -0.000156182)
(1.96439 -0.339921 0.0671016)
(0.13135 -0.42737 -0.00546751)
(0.0721398 -0.0938243 0.001756)
(0.968061 0.49357 -0.0108991)
(0.0985643 -0.0254034 -0.000664735)
(-0.750659 0.138947 0.00471567)
(0.0910513 0.0369776 -0.000235915)
(-0.428868 -0.0558783 -0.00257491)
(0.168826 0.0371028 0.00789127)
(0.113657 -0.0145661 -0.00102241)
(0.0455712 -0.150926 -0.00123244)
(0.116564 0.672939 -0.0244252)
(-0.0998158 0.317632 0.000256095)
(0.450928 -0.0259348 3.4762e-05)
(0.166512 0.0558983 -7.03417e-05)
(-0.157967 -0.403497 0.00236007)
(0.000487298 0.238702 -0.000236934)
(0.0934101 -0.22725 -0.00117777)
(-0.00233067 0.00319867 0.000613161)
(-0.136483 0.27468 0.00796167)
(0.114917 -0.148824 -0.00113608)
(0.00353146 0.217254 -0.000260242)
(0.382286 0.00902519 1.18061e-05)
(0.344715 0.000612645 -0.000421019)
(0.802673 0.522562 0.00224519)
(0.169934 -0.0799303 0.00446438)
(0.119133 0.18821 0.00466215)
(0.411446 0.0419035 -5.14653e-05)
(0.171505 0.294985 -0.00804353)
(0.79842 0.466421 0.00232538)
(-0.00615089 -0.0215585 -0.00100939)
(0.391865 -0.038087 0.000116483)
(0.419553 0.245079 -0.000296335)
(0.0144587 -0.0551311 -0.000664365)
(0.21744 -0.131373 -0.000192222)
(0.0286062 -0.130516 -0.0011662)
(0.0705552 -0.148659 -0.00187983)
(0.0612709 -0.134319 -0.0015489)
(0.0607495 -0.13268 -0.00164875)
(0.295662 0.0455631 -0.000419825)
(-0.442107 0.621488 0.0276987)
(0.0875542 0.00894467 0.000389199)
(0.333521 0.186119 -0.000132937)
(0.308076 0.163075 -0.000115854)
(0.410741 -0.0174671 -0.00081892)
(0.0661198 0.112056 0.00219475)
(0.0011023 -0.0369824 -0.00167835)
(0.363279 0.0229484 -0.000109212)
(0.58108 0.36282 -0.00105045)
(0.359586 -0.00348365 -0.00030669)
(0.118885 -0.148883 -0.00198226)
(0.439433 0.0242016 8.57706e-05)
(0.0603553 -0.132332 -0.00165459)
(0.930544 0.0501433 0.00201728)
(0.323601 0.171052 -0.000160842)
(-0.165579 -0.205509 0.00329593)
(0.540637 0.0680541 -0.000644331)
(0.334298 0.00892107 -0.000376336)
(0.495652 0.11679 0.000360024)
(0.233023 -0.128973 -0.000248983)
(0.393327 0.0762965 -0.000319315)
(-0.00557089 0.0694632 0.000909177)
(0.245977 -0.412387 -0.00248289)
(0.614857 -0.0358403 -0.000705029)
(0.204127 -0.122644 0.00128103)
(0.0165066 0.000817026 -0.0304419)
(0.352599 0.022296 -9.58844e-05)
(0.174857 -0.00427266 -0.000479563)
(-0.0599409 0.431015 -0.0017297)
(-0.0670807 0.0210027 0.00119825)
(0.360087 0.0344878 -0.000372359)
(0.39323 -0.388651 -0.000644947)
(0.217116 -0.237218 -0.000279151)
(0.699435 -0.204602 -0.000932436)
(0.335968 0.00281238 -0.000182114)
(0.219706 -0.230062 -0.000396759)
(0.271242 -0.301563 0.0041671)
(0.609945 0.886447 0.0561753)
(0.350313 0.0564309 -0.000613959)
(0.0650383 0.0354312 1.74982e-05)
(0.359773 0.0588571 -0.00034947)
(0.0713332 0.0536347 -0.00211298)
(-0.0669471 -0.233494 -0.000767652)
(0.111098 0.00880564 -0.00109808)
(0.108794 -0.0602846 -0.000829813)
(0.413205 0.0133288 -1.38134e-05)
(0.272494 0.031841 -0.000588821)
(0.313025 0.0285791 -0.000382201)
(0.331794 -0.00671487 -0.000696342)
(0.0189448 -0.00211166 0.00057782)
(0.449994 0.000889938 -4.39815e-05)
(1.53884 0.734931 0.00873893)
(0.406614 0.0163667 0.000290574)
(0.151057 0.0492806 -0.000247086)
(0.165765 -0.0149981 -0.000637276)
(0.34691 0.00379917 -0.000561721)
(0.411498 0.0318616 -4.47176e-05)
(0.0836125 0.269357 -0.00107111)
(0.370374 0.149551 8.19532e-05)
(0.246121 0.206448 0.00736453)
(0.415571 0.0317262 5.38078e-05)
(0.407582 0.046905 0.000454902)
(0.340703 -0.000806618 -0.000915628)
(0.335861 0.00574428 -0.00114722)
(0.493935 0.0708025 -0.000866666)
(0.356638 0.0238295 -0.00294005)
(0.465541 0.0478799 0.00168738)
(0.016149 0.0612499 0.00138637)
(0.139596 -0.00243941 -7.58125e-05)
(0.423643 0.05051 -0.000215742)
(0.215897 0.139969 9.17785e-05)
(0.40529 0.0572338 5.46032e-05)
(0.302982 -0.0060052 -0.00111137)
(0.0967054 -0.0674735 -0.000136731)
(0.411488 0.107463 -0.0001697)
(0.00967092 -0.188169 -0.00144971)
(0.103343 -0.0345016 0.00395584)
(0.0293041 -0.355772 0.00516633)
(0.0188001 0.134158 0.00172241)
(0.135536 -0.0155394 -0.000318343)
(-0.0982646 1.23132 -0.00280143)
(-0.135158 0.380031 -5.49634e-07)
(-0.063954 0.269492 -0.000159818)
(0.0971065 -0.492202 0.0165548)
(0.463395 -0.00190399 0.000266376)
(0.220527 -0.0508448 -0.000256823)
(0.389796 -0.0105524 0.000611981)
(0.24629 -0.0932055 0.000348755)
(0.305959 0.0442052 -0.000462607)
(0.389022 0.00394132 0.000110985)
(0.183496 0.0100101 -0.000721904)
(0.325703 0.0369571 -0.000379894)
(-0.283139 0.280678 0.000761494)
(0.137301 0.00869017 0.00214599)
(-0.224869 0.335985 0.00152704)
(0.354169 0.0259712 -4.43186e-06)
(-0.25318 0.343266 0.000771756)
(-0.111286 0.0773226 0.00269025)
(0.312385 0.0458151 -0.000498831)
(0.355035 0.317932 0.00229939)
(0.228695 -0.0372001 -0.000882054)
(0.182135 -0.00357656 -0.000369824)
(0.328481 0.0389373 -0.000466587)
(0.123626 0.992686 0.00590081)
(0.264299 0.147274 -0.000324131)
(0.352465 0.00628578 -0.000264856)
(0.382347 0.0526601 -0.000118144)
(0.183385 0.00213117 -0.000285008)
(0.344661 0.0147836 -9.06503e-05)
(0.401991 -0.021939 -9.24341e-05)
(0.173676 -0.00222158 -0.000559258)
(-0.107465 0.00646615 0.00103087)
(0.353887 0.000151161 -0.000132868)
(-0.0128789 -0.00623118 -0.00178545)
(0.325326 0.0265491 -0.000443692)
(-0.12539 -0.0872792 0.00128338)
(-0.374002 0.908475 0.00776943)
(0.353532 -0.00560877 -0.000213355)
(-0.295473 0.543257 0.00044697)
(0.0400623 0.00139552 -0.000543102)
(0.360039 0.0543926 -0.000233097)
(0.0551213 0.786517 0.00220042)
(0.0419454 -0.022819 -0.000899175)
(0.324583 0.0224605 -0.000474686)
(0.341754 0.0139843 -0.000291646)
(0.305656 0.0445597 -0.000454759)
(1.39812 -0.179543 0.00857968)
(0.152636 -0.0154615 -0.000616407)
(0.32438 0.033835 -0.000171062)
(0.1489 -0.105649 0.00130625)
(0.130692 -0.0772765 -0.000471184)
(-0.0147331 -0.00745893 0.00141583)
(0.385592 0.0392377 2.5191e-05)
(0.219325 0.0110094 -0.000455843)
(0.328617 -0.00789381 -0.000676745)
(0.376355 0.0192226 -0.000152522)
(0.483552 0.149262 0.000667574)
(-0.0254755 0.0543617 -0.00048453)
(0.91033 0.328372 0.00291318)
(0.467553 0.0258581 6.78261e-05)
(0.0469624 0.364257 -0.00266703)
(0.128421 0.00352813 -0.000678631)
(0.289148 0.113761 0.000109936)
(0.00252376 0.0810372 -0.00049804)
(0.0308773 0.249604 0.000576824)
(0.386551 0.00245556 -0.000451223)
(0.0125442 0.250342 -0.000193371)
(0.160275 0.0076999 -0.000370946)
(0.343189 0.00583802 -0.000577517)
(0.387957 -0.0395032 0.000249707)
(0.289371 -0.0540583 -0.000344874)
(0.0261568 0.260099 0.000412449)
(0.0242413 0.253323 0.000675911)
(0.213789 0.00603229 -0.000586108)
(0.699346 0.354212 -0.000627674)
(0.383373 0.0614926 -0.000179776)
(0.00645661 0.113561 -0.00042003)
(0.19113 -0.0122152 0.000876856)
(0.38645 0.0361801 3.11283e-05)
(0.374388 0.289447 -0.000673371)
(0.430433 0.0306102 -8.82724e-05)
(0.359185 0.0119471 -0.000117295)
(0.377035 0.280377 -0.000417091)
(0.378621 0.296383 -0.000633636)
(0.147415 -0.264241 -0.000374012)
(0.143253 0.0974635 0.00192648)
(0.360327 0.287277 -0.000766353)
(0.189213 -0.0284044 0.000918831)
(0.355333 0.352051 -0.00147867)
(0.34063 -0.0155349 -0.000461154)
(-0.367388 0.144899 0.000502953)
(0.000752021 0.0884511 -0.000620929)
(0.397883 0.0784816 0.000171822)
(-0.234718 0.417329 0.00118572)
(-0.0537533 0.287851 -6.6198e-05)
(-0.147711 0.297304 0.00137475)
(0.136282 -0.137008 0.00413632)
(-0.0220026 0.0502832 -0.000513464)
(0.00178799 0.0351829 0.00351926)
(0.404842 0.302431 0.000267506)
(0.138275 -0.087206 0.00029781)
(0.0337103 -0.0769184 -0.00157484)
(0.0954644 -0.0604315 0.00485162)
(0.0801155 -0.0907282 -0.000263552)
(0.373183 0.311984 -0.000349745)
(0.336195 0.0302711 -0.000567875)
(0.0331802 -0.114883 -0.00116408)
(-0.328548 0.24135 0.00164224)
(0.30637 -0.0144507 -0.000696567)
(0.487191 0.0305826 0.000349207)
(0.001061 0.0838258 -0.00075572)
(0.357322 -0.00908875 -0.000326286)
(-0.0612569 0.00915113 -0.000621426)
(0.290685 -0.0147232 -0.000538384)
(0.380777 0.0179112 -3.17145e-05)
(-0.00741005 0.0168207 0.000338114)
(-0.000160036 0.0192925 0.000302679)
(0.363792 0.324505 -0.000499736)
(0.363881 0.340688 -0.00130532)
(-0.571827 0.659092 -0.0125153)
(0.39775 0.00308835 0.000253617)
(0.37045 -0.0639887 -0.00178859)
(0.165822 0.332681 -0.000441572)
(0.367958 0.00121207 -0.000878804)
(-0.0278439 0.744743 -0.0188896)
(0.183641 -0.14326 -0.000123797)
(0.188042 0.631564 0.00208111)
(0.0350069 0.0912838 0.00032267)
(0.64501 0.423472 -0.00108931)
(0.156215 0.390183 -0.000473107)
(0.174297 0.371538 -0.000783129)
(0.335727 -0.00101407 -0.000666169)
(0.488211 0.0712452 0.000416746)
(0.143313 0.348945 -0.000496755)
(0.0543797 -0.0981014 -0.000797071)
(0.176085 -0.0287343 -0.000665016)
(0.337608 0.000887652 -0.000666783)
(0.181574 0.3674 -9.85952e-05)
(0.424037 0.19512 -0.000505083)
(-0.714956 -0.0603218 0.00336067)
(0.358254 0.036685 -5.22734e-05)
(-0.0966737 0.121531 -0.00439004)
(0.410381 0.0277426 -4.8496e-05)
(-0.0205832 0.0273254 0.00136292)
(0.379047 0.0478702 -0.00013032)
(0.815093 0.153871 -0.00418675)
(-0.0379247 0.369227 -5.07264e-05)
(0.111649 -0.0665718 -0.00022777)
(0.143296 0.15676 0.00161602)
(-2.08237 1.83661 -0.101288)
(0.398707 0.0251222 -0.000116224)
(-0.0292192 0.0231086 -0.000638578)
(-0.274286 0.294391 -0.00879558)
(1.0256 0.70268 0.0377113)
(0.21089 0.247664 -0.000118835)
(0.000964293 0.0873251 0.000178126)
(0.409568 0.0213267 -7.78753e-05)
(0.143069 -0.0792452 -0.000241571)
(0.414824 0.0190466 0.000130039)
(0.0784832 -0.00585969 0.000650791)
(0.365341 0.014468 -0.00019064)
(-0.00412909 0.0929118 0.00015402)
(0.339237 0.0208232 -0.000357153)
(0.403078 -0.0268476 -0.00166173)
(0.0555532 -0.0534525 -0.000879919)
(0.018028 -0.274731 0.000691056)
(0.746974 0.157068 -0.000946206)
(0.103691 0.0536633 0.000395386)
(-0.147604 0.0432344 0.00308902)
(0.378314 0.0825675 5.48909e-05)
(0.369721 0.00193084 -0.000106473)
(-0.312754 0.208845 0.00836306)
(0.700478 0.366068 0.00108179)
(-0.228576 0.181787 0.00366664)
(0.727378 0.185549 0.00177524)
(0.413517 0.251213 0.00186936)
(0.690591 0.181024 0.00151846)
(-0.156259 -0.146881 0.00856137)
(-0.102131 -0.22765 0.00483976)
(0.36658 -0.00575853 0.000179916)
(0.428379 0.0712686 -0.000457297)
(0.18784 -0.0122948 -0.000718914)
(0.368318 0.0068078 -0.000229235)
(0.264542 0.0248161 -0.000802874)
(0.347754 -0.00104573 -0.000264117)
(0.222132 -1.11257 0.0357812)
(0.107106 -0.875126 0.0161996)
(0.328676 0.0107082 -0.00107429)
(0.676117 0.0560584 0.000505505)
(0.331518 0.0346156 -0.00042294)
(0.141311 0.0160828 -0.000513154)
(0.410722 0.0142959 2.4577e-05)
(0.0221538 -0.113115 -0.0013891)
(0.270148 0.156789 0.000154731)
(-0.0831585 0.356996 -0.000688495)
(-0.0244038 -0.220898 -0.00134115)
(0.663962 0.0504531 0.00277039)
(0.71923 0.276219 0.00280018)
(0.155435 -0.00530689 0.00242035)
(0.0423757 0.210462 0.000530406)
(0.674232 0.250996 0.00261957)
(0.351373 0.102957 0.000684613)
(0.00387084 0.246048 0.000746129)
(0.0965439 0.00641517 0.000842839)
(0.0753926 0.0394602 0.000398944)
(0.710054 0.287104 0.00116556)
(0.443789 0.00250672 -0.00223477)
(0.367114 0.041713 2.75237e-05)
(0.405595 0.0503606 0.0002255)
(0.350868 0.00294477 -0.000353163)
(0.33049 0.0223884 -0.000281965)
(0.369176 0.0113081 -0.000225128)
(0.384615 0.0943775 0.00239786)
(0.299944 0.0138998 -0.000683228)
(0.133637 0.00145386 -0.00102222)
(0.407176 -0.147796 -0.00264161)
(0.656729 0.0525238 0.000554112)
(0.134027 0.0198303 -0.000142703)
(0.150203 -0.706072 0.0147391)
(0.167923 0.0100814 -0.00174824)
(0.0250394 0.202623 8.72301e-05)
(0.340975 0.0010009 -0.0014854)
(-0.0344311 0.678716 -0.0120589)
(0.334283 -0.00875117 -0.00134015)
(0.398212 0.29881 0.00068703)
(0.0681365 0.00335223 0.000473774)
(0.047087 0.499705 -0.00727247)
(-0.373907 0.481285 0.000177408)
(0.0518759 -0.00369237 0.00185419)
(0.00278324 0.229535 0.000403264)
(0.670533 0.249318 0.00392912)
(0.0340319 0.0945923 0.00123493)
(0.0571162 0.0846185 0.000112473)
(0.023379 -0.019308 0.00202803)
(0.223103 0.862997 -0.0384498)
(0.326871 -0.00965867 -0.000450321)
(0.402848 0.103685 0.000976741)
(0.0498472 0.844574 -0.00870818)
(0.37087 0.0980418 0.000958578)
(0.115938 0.00832289 -0.000780213)
(0.429692 -0.0764516 -0.000921157)
(0.445854 0.0284255 0.000152661)
(0.359759 0.00116231 0.000119733)
(0.250501 -0.137225 5.07697e-05)
(0.393523 0.0219091 1.20259e-05)
(0.347589 0.0294108 -0.000178275)
(0.518767 0.424792 0.00264116)
(0.318031 -0.00413051 -0.000496611)
(0.356486 0.132631 0.00110253)
(0.237741 0.123068 -2.40688e-05)
(0.363154 -0.0120637 -5.76636e-05)
(0.00314007 0.222407 -0.00297872)
(0.373987 -0.00968944 -0.00123892)
(0.00726898 -0.13558 -0.000507998)
(0.495575 0.135165 -0.00107333)
(0.355113 0.00249647 -0.00011708)
(0.361171 -0.134485 0.00027457)
(0.337032 -0.0247712 -0.000293283)
(0.0154725 -0.129374 -0.000547801)
(0.345535 -0.0960662 0.00032887)
(0.487259 -0.00384354 0.00157346)
(0.0882782 -1.08821 0.198354)
(0.330504 -0.0715962 0.0015576)
(0.061396 -0.0239817 0.000564763)
(0.362377 -0.00101356 -0.000104062)
(0.0846499 -0.0120037 0.000648951)
(0.406112 0.0599468 8.10242e-05)
(0.386966 0.00114028 -0.000351375)
(0.503338 -0.100027 0.000793943)
(0.0171588 -0.114866 -0.000634365)
(0.0399224 -0.0277511 0.00055293)
(0.422299 -0.100485 0.000589665)
(-0.0396315 0.291476 0.00106089)
(0.705168 -0.0288747 0.0232135)
(0.168429 -0.0803835 -0.000895636)
(0.0765824 -0.0191859 0.00038583)
(0.00309818 0.22386 -0.000212334)
(0.202467 -0.04884 -0.000857267)
(0.267688 0.142499 -4.42029e-05)
(0.328667 -0.0155877 1.57749e-05)
(0.161344 0.00860714 -0.000490641)
(0.318964 0.0255491 -0.000338055)
(0.316728 0.0264874 -0.000295382)
(0.363413 0.0101009 -0.000237971)
(0.0767402 0.0265848 0.000164696)
(0.358794 -0.00328901 6.86059e-06)
(0.324362 0.0243153 -0.000318354)
(0.414668 0.12765 -0.000204237)
(0.323737 0.0347863 -0.000417199)
(0.00177819 0.248189 -0.000165617)
(0.000911842 0.242964 -0.000131058)
(0.185546 -0.0316372 0.000960143)
(-2.62193e-06 0.240951 -0.000166995)
(0.00729289 0.0434094 0.000154902)
(0.333296 0.0560301 0.000156551)
(0.000972482 0.221938 -0.000256808)
(0.372474 0.0189221 -8.32969e-05)
(0.00250595 -0.103543 0.000563042)
(0.360359 -0.0448292 -2.7417e-05)
(0.380843 0.0495009 1.32866e-05)
(0.361085 -0.269879 -0.00329737)
(0.339217 -0.0286777 -0.000430877)
(0.346094 0.0150919 -0.000148869)
(0.265258 0.149621 -0.000347853)
(0.270483 0.155357 -0.000380344)
(0.513226 0.183781 -0.0126926)
(0.444721 0.0179317 -0.00019056)
(0.457647 3.73802e-05 -2.85257e-05)
(0.262993 0.145348 -0.000241633)
(0.0473707 -0.0978598 -0.00109787)
(0.0446174 0.17801 7.38596e-05)
(0.26419 0.147528 -0.00012784)
(0.334099 -0.0344308 -0.000534084)
(0.377479 0.0794103 0.000101194)
(0.430919 0.00547122 -0.00212945)
(0.123977 -0.0858252 5.60053e-05)
(0.186782 0.247101 -0.000321005)
(0.380484 0.0751027 0.000123432)
(9.90336e-05 0.0694449 0.000176196)
(0.342119 0.0964607 -0.000412417)
(-0.164295 -0.0488727 0.00156393)
(0.152133 0.188392 -0.000226959)
(0.365204 0.101702 -0.00169788)
(0.00344937 0.0633725 0.000262354)
(0.00380467 0.037576 0.000393064)
(0.0318738 0.00265961 0.000476843)
(0.148935 0.138758 -0.000227874)
(0.454756 0.0187343 -9.04283e-05)
(0.00205909 0.0689684 0.00027442)
(-0.329817 -0.122322 -0.00212149)
(0.231297 0.0158509 0.000835248)
(0.152889 0.16288 -0.000360783)
(0.140497 0.178424 -0.000312218)
(0.551694 0.389935 0.00186639)
(0.300244 0.0434274 -0.000597083)
(0.404988 0.0409597 0.000142519)
(0.387317 0.0608504 -0.000149632)
(0.133145 0.046621 -0.000429275)
(0.500245 0.0575814 0.000254111)
(-0.547298 -0.34829 0.00396032)
(0.181752 0.128513 0.000698455)
(0.0279457 0.0240254 0.000465678)
(0.460593 0.029613 -0.000109433)
(-0.12503 0.282067 0.000246167)
(0.0787504 0.199172 0.000303293)
(0.0530694 0.113731 0.000492867)
(0.202397 -0.0176517 -0.000490075)
(0.355828 0.00827986 -0.000104432)
(-0.387585 -0.00336397 -0.0132056)
(0.39956 -0.000752182 -0.00063012)
(0.524415 0.0623454 0.000382953)
(0.610728 0.126054 -0.00217722)
(0.0273958 0.213119 0.000612755)
(0.530443 0.0498774 0.000368798)
(0.437039 0.2398 0.00374798)
(0.301518 -0.0786098 -0.000498975)
(0.196825 -0.0758143 0.000771103)
(0.253765 -0.14044 0.00212226)
(0.130901 0.221757 0.000439473)
(0.273758 -0.157157 0.00257617)
(-0.431225 0.290563 0.0212636)
(0.339554 0.0909305 -0.00023626)
(0.34257 0.0524747 -0.000259176)
(0.468005 0.145735 0.000949678)
(0.344905 0.0508361 -0.000457872)
(0.971304 1.13323 0.00674145)
(0.350404 0.0426585 -0.000325579)
(0.3643 0.05207 -0.000224263)
(0.0194173 -0.184214 -0.00332442)
(0.7109 0.250317 -0.000975323)
(0.267168 0.419274 -0.00185983)
(0.139592 0.00150882 -0.00081194)
(0.390879 0.117443 0.000397245)
(0.033768 -0.473578 0.00385198)
(0.356074 0.00279769 -0.000714604)
(0.349879 -0.0121467 -0.000369564)
(-0.140727 0.0507976 0.000840645)
(0.207249 -0.000884336 -0.000544241)
(0.307569 0.291549 -0.00418787)
(-0.033215 0.0206471 0.00210243)
(0.373157 -0.0883332 -0.00167275)
(0.339968 0.00450302 -0.000643479)
(0.354145 -0.0859504 -0.00108786)
(0.173245 0.221063 -3.94815e-05)
(0.157066 -0.0371881 -0.000775197)
(0.271553 0.155361 -0.000437759)
(0.141691 0.436488 -0.00533799)
(0.411373 0.00882469 -5.36042e-05)
(0.0573615 0.0385607 0.000579825)
(0.183914 -0.0224344 -0.000422228)
(0.457102 0.469075 -0.00107902)
(0.118648 0.0284115 0.000857582)
(0.182505 -0.0105253 -0.000715415)
(1.91122 -0.768388 0.112437)
(0.568685 -0.00810004 -0.00264749)
(0.359166 -0.00750593 -7.39573e-05)
(0.0278731 0.0055286 0.000631052)
(0.260234 0.144612 -0.000143728)
(0.132635 0.0173441 -0.000456066)
(0.0943751 -0.0577983 -0.00118901)
(0.132739 0.0394901 -0.000456136)
(1.40284 -1.65423 0.225966)
(0.0939607 -0.0438396 -0.00103474)
(0.36804 0.073484 -0.000581126)
(0.0595354 -0.0929761 -0.00122451)
(0.0533317 0.19437 0.000633527)
(0.24089 0.0586234 -0.00105694)
(0.0325863 -0.0152956 0.00064823)
(0.0955413 -0.0831862 -0.0010754)
(0.000236811 -0.0361029 -0.00132514)
(0.0864741 0.139661 0.000581091)
(0.283756 0.232734 0.000230173)
(-0.000736744 0.107277 0.00335095)
(0.174535 0.0368151 -0.000665789)
(-0.00639416 -0.0104579 -0.00139392)
(0.149798 -0.0743986 -0.00102289)
(0.196642 -0.0896853 -0.000521407)
(0.11201 0.0337345 -0.000283648)
(0.303981 0.16316 -0.00168743)
(0.119977 -0.0872044 -0.00151611)
(0.0048876 -0.0444691 -0.0013769)
(0.0669918 -0.0581642 0.00179801)
(0.149946 0.00382773 -0.000463688)
(0.337245 -0.00268255 -0.000409824)
(0.359269 -0.0122806 -0.000249599)
(0.166764 0.000440834 -0.000397252)
(0.521726 0.229098 0.0022825)
(0.0582606 0.224432 0.000523797)
(0.0579426 0.190453 0.000514484)
(0.17951 -0.000103593 -0.000348579)
(0.161207 0.288581 -0.000306468)
(0.357181 -0.0652016 -0.00124041)
(-0.0272615 -0.110407 0.00403775)
(0.608052 -0.0057956 0.00702555)
(0.0673322 0.189004 0.000482367)
(0.106417 -0.0568257 -0.000292164)
(0.389671 0.00562983 9.25759e-06)
(0.268008 0.0955806 0.000574636)
(0.368138 0.0626559 -2.80688e-05)
(0.153408 0.0500042 -0.000476217)
(0.0583236 0.177416 0.000524008)
(0.144174 -0.00881859 -0.000627095)
(0.286976 0.00478095 -0.00102733)
(0.336825 0.146666 -0.000162605)
(0.0773261 -0.0971844 0.00140934)
(0.356108 -0.0213502 -0.000153212)
(0.00753838 -0.0227999 -0.00158721)
(0.474965 0.103395 0.00204932)
(-0.0521052 0.264159 0.000502453)
(0.147038 0.271196 -0.000369719)
(0.16603 -0.0795473 -0.0011164)
(0.00564086 -0.0384068 -0.00130208)
(-0.0149283 0.274078 0.000667721)
(-0.00478964 0.287658 0.000594259)
(-0.0139048 0.294432 0.00070725)
(0.11485 -0.239652 -0.00117014)
(0.318918 -0.0064833 -0.000585231)
(0.0186659 0.0162653 0.000636364)
(0.00228872 -0.0385493 -0.00139885)
(0.107816 -0.298682 -0.000723653)
(1.45159 -0.967353 0.0366972)
(0.15185 0.265969 -0.000365638)
(0.157362 0.270496 -0.00030196)
(0.199633 0.403091 -0.000736291)
(0.52966 0.131878 0.000506659)
(-0.599549 0.705891 -0.00628635)
(0.52478 0.123215 0.00031959)
(0.344839 -0.0078475 -0.000437842)
(0.33532 0.0126245 -0.00100174)
(0.372554 0.062075 -0.000145909)
(0.248398 -0.221881 -0.000158288)
(0.327465 0.0115314 -0.000249184)
(-0.381517 0.136046 -0.000116127)
(-0.0652804 0.00397117 -0.00172343)
(0.253551 -0.210159 -8.24604e-05)
(0.247816 -0.223758 -0.000151134)
(-0.186773 0.356867 0.0157826)
(0.035158 0.0950103 0.000401909)
(0.0328202 -0.141925 -0.00115514)
(0.135585 -0.0478978 -0.000794262)
(0.170112 0.0051769 0.00086963)
(-0.00860987 0.323047 0.000409162)
(0.257602 -0.197254 2.41139e-05)
(0.351234 0.016446 -0.000168993)
(0.249867 -0.235511 -0.000149103)
(0.2476 -0.232907 5.60193e-05)
(0.426182 0.0326526 -3.90627e-05)
(0.330254 0.191944 -0.0002746)
(0.146445 -0.110371 0.00200743)
(0.331786 0.190657 -0.000218589)
(0.391778 0.0365006 5.62847e-05)
(-0.00532562 -0.122257 0.000530325)
(-0.172599 0.270577 0.0232953)
(0.272797 0.138796 -0.000631913)
(0.399767 0.0321883 6.50209e-05)
(-0.291134 0.222278 0.0332744)
(0.323261 -0.00479091 -0.000494177)
(0.042436 -0.0966224 0.00102189)
(0.446105 -0.0903482 0.00088421)
(0.462712 -0.048881 0.00172184)
(0.0406024 0.0769415 -0.00110546)
(0.0479361 0.0797708 0.000307154)
(0.146486 -0.0322673 -0.000698356)
(0.410517 0.0120447 0.000818451)
(0.0111453 0.152822 0.000118098)
(0.39108 -0.0211552 -0.000287866)
(-0.502131 0.32042 -0.00170329)
(-0.219441 0.326552 0.00202532)
(0.342682 0.0239974 -0.000912263)
(0.487578 0.0699323 0.000179241)
(0.0773656 -0.0615727 0.000832269)
(0.0839916 -0.0588316 0.000920822)
(0.313229 0.0463176 -0.000431211)
(0.00159513 0.236367 0.000620782)
(0.0858579 -0.0126739 -0.000702342)
(-0.00313873 0.270184 0.000525842)
(0.167556 0.211568 -0.00192687)
(0.360527 -0.0415908 -0.000173378)
(0.351243 0.00689587 -0.000162695)
(0.172929 0.0105263 -0.000686463)
(0.274645 0.107324 5.17367e-05)
(-0.00286208 0.259128 0.000547178)
(0.155616 0.0115077 -0.000502885)
(-0.00133966 0.266222 0.000635682)
(0.0734192 0.142454 0.000361705)
(-0.00124524 -0.0317417 -0.00177182)
(-0.00349051 0.270762 0.00062325)
(0.428938 0.0396988 4.04797e-06)
(0.131335 -0.0435696 -0.00106508)
(-0.0100559 -0.0136872 -0.00171639)
(0.351271 -0.0494829 -0.00115055)
(0.31141 -0.429987 0.000252758)
(-0.000990693 0.0338727 0.000198778)
(0.317452 0.439716 -0.00139908)
(0.0101623 -0.201305 -0.000351706)
(0.0666924 0.229409 0.00493043)
(0.362028 -0.00595414 -0.000725907)
(0.431976 0.00580248 0.00011442)
(-0.393516 -0.0162021 0.00463588)
(-1.00209 -0.306326 0.0865003)
(0.124033 -0.0287811 -0.00109571)
(0.0826892 -0.686061 0.0126164)
(0.398558 0.0746337 -0.000122972)
(0.0299667 0.0395698 0.000383899)
(0.0385044 0.0477977 0.00034771)
(0.361812 -0.0544491 -0.00292762)
(-0.973374 0.846066 -0.0385747)
(0.367579 -0.0389661 -0.000124518)
(0.137654 0.00338697 -0.000523785)
(0.0901816 -0.105315 0.00166163)
(-0.0299368 1.09854 0.0627413)
(0.396832 0.0774471 -0.000314211)
(0.1306 -0.0236437 -0.000923438)
(1.49613 0.573786 0.00358088)
(0.310212 -0.0107998 -0.00047209)
(0.658313 0.175473 0.000709763)
(-0.0692429 0.236136 -0.000467919)
(0.104979 -0.14774 -0.000937074)
(0.369399 0.0474776 0.000168802)
(0.456259 0.062268 0.000814188)
(-0.301674 1.09106 0.00180286)
(0.121791 -0.0427997 -0.000843766)
(0.146802 0.0156226 -0.000546672)
(0.141581 0.0121159 -0.000427496)
(0.108081 0.0622263 0.000339039)
(-0.3556 -0.957697 -0.0176745)
(0.339218 0.128078 -0.000341483)
(0.371403 0.00160684 -0.000526404)
(0.100213 0.035823 -0.000422998)
(0.496331 0.0102749 -3.75459e-05)
(0.495113 0.066404 -3.42003e-05)
(0.0977655 0.0176535 -0.00223536)
(0.0839731 0.00297072 -0.00202578)
(0.130852 -0.00666833 -0.00178702)
(0.0792984 -1.33185 0.0424107)
(0.373133 0.0641658 -0.000346874)
(0.220381 0.175582 0.000462579)
(0.0931049 -0.154413 -0.00134344)
(0.189691 -0.0467256 -0.000812274)
(0.13229 0.00483355 -0.0002018)
(0.413476 0.228509 -0.000429765)
(0.274835 -0.00811409 0.00105265)
(0.15386 -0.0118693 -0.000490653)
(0.151194 0.00219299 -0.000649477)
(0.344315 -0.000385977 -0.000300363)
(0.115946 0.0113567 -3.07261e-06)
(0.0507861 -0.0221084 -0.000490084)
(0.111167 -0.00292845 -0.00011197)
(0.151823 0.0163335 -0.000337774)
(-0.366251 0.364044 -0.0079265)
(0.121793 0.0111538 -0.000309143)
(0.25789 0.137741 0.000575931)
(0.275732 0.138186 0.000525136)
(-0.0455468 -0.380817 0.00121012)
(-0.48401 1.91534e-05 -0.00123601)
(-0.533911 -0.129388 0.00348292)
(-0.00858384 -0.0791806 -0.00134008)
(-0.0356704 -0.306474 -0.00146105)
(0.349116 0.00932305 -0.000370406)
(0.377552 0.015107 -0.000164311)
(0.15478 -0.026615 -0.000831668)
(0.13116 0.157033 6.4828e-05)
(-0.288107 -0.0949284 0.00436074)
(-0.0241796 0.327773 -0.000443546)
(0.186548 0.200781 0.000540786)
(-0.461326 0.2443 -0.00111839)
(0.323703 -0.0413865 -0.00125693)
(0.170278 0.178554 0.00100285)
(0.208922 0.0877973 -0.0015797)
(0.0807157 -0.0967446 0.000173128)
(0.0706372 -0.033909 0.000479199)
(0.173327 0.185526 0.000894633)
(0.370672 0.014801 -0.000244822)
(0.366267 0.0678362 -0.000466734)
(0.354124 0.324018 0.000978014)
(0.28344 0.0206271 -0.000788643)
(0.423973 0.0727687 -2.76178e-05)
(0.172562 0.015483 -0.000485107)
(0.439835 0.00419863 1.73972e-05)
(0.693449 -0.130744 -0.0324836)
(-0.0932814 0.423238 0.00919313)
(0.362401 0.0213081 -0.000508646)
(0.380416 0.0666624 -0.000514445)
(0.339437 0.000558252 -0.000745528)
(-0.2109 0.267623 0.00657696)
(0.350403 -0.292481 -0.0104398)
(0.194711 -0.427141 -0.00946038)
(0.334382 0.105898 -0.00723591)
(0.0561452 -0.0205239 -0.000347396)
(0.132653 0.1355 -0.0138328)
(0.27165 0.208787 0.000491461)
(0.370163 0.0824397 -0.000179608)
(2.89114 0.332134 0.0298302)
(0.131251 0.161538 7.5197e-05)
(0.585284 -0.200246 0.0021235)
(0.292222 -0.110074 0.000562562)
(0.375842 0.122322 -0.000211845)
(0.389389 0.155834 -0.000229969)
(-0.20581 -0.0737365 0.00203356)
(-0.173104 -0.021909 0.00192615)
(1.99205 -0.334878 0.105868)
(0.117848 -0.132827 -0.00156622)
(0.3629 0.00844861 -6.29602e-05)
(0.0383799 0.283608 -0.000602347)
(0.364106 0.0157994 -0.00014151)
(0.348444 -0.0763046 0.00278723)
(0.166726 0.00749134 -0.000302348)
(0.172244 0.0160344 -0.000577655)
(0.0504765 0.108607 0.000461627)
(0.105367 0.00490843 -0.000146575)
(0.100152 0.0475056 0.000407278)
(0.365103 0.130141 -0.000177426)
(1.63434 -0.079844 0.0309673)
(1.65315 0.499931 0.11412)
(0.0636328 -0.0142555 -0.00125963)
(0.039849 0.145355 0.000551031)
(0.0227768 -0.122327 -0.000898987)
(1.38703 -0.784195 -0.276269)
(0.386406 -0.021497 0.00137927)
(0.330674 -0.0597959 0.0013056)
(0.368202 0.0191635 0.0011843)
(0.489107 0.010018 -0.0165901)
(0.345852 -0.0273953 0.000915498)
(0.399825 0.0557258 -0.000322431)
(0.404324 0.111115 -2.32319e-05)
(0.108663 0.00119102 -0.00170822)
(0.105659 0.0662539 -8.80189e-05)
(2.03232 0.0678798 0.00821157)
(0.00696444 -0.0279557 -0.00194676)
(0.327233 -0.0104314 0.00144588)
(-0.0146653 0.251126 0.000876446)
(0.33883 0.0624481 -0.000230176)
(0.122587 0.23781 0.000541937)
(0.809422 0.050866 -4.87826e-05)
(0.00535177 0.230573 0.000522358)
(0.375024 0.0704929 -0.000369625)
(0.358335 0.0364691 0.000299051)
(0.00345048 0.129361 0.000106742)
(0.397754 0.0308336 7.9786e-05)
(-8.81001e-05 0.13337 0.000204813)
(0.318317 0.0623474 0.000383797)
(0.414219 0.00515059 -0.000127687)
(0.376042 0.0236593 -4.04786e-05)