/*--------------------------------*- C++ -*----------------------------------*\
| =========                 |                                                 |
| \\      /  F ield         | OpenFOAM: The Open Source CFD Toolbox           |
|  \\    /   O peration     | Version:  v2012                                 |
|   \\  /    A nd           | Website:  www.openfoam.com                      |
|    \\/     M anipulation  |                                                 |
\*---------------------------------------------------------------------------*/
FoamFile
{
    version     2.0;
    format      ascii;
    class       volScalarField;
    location    "1.3940496";
    object      alphat;
}
// * * * * * * * * * * * * * * * * * * * * * * * * * * * * * * * * * * * * * //

dimensions      [0 2 -1 0 0 0 0];


internalField   nonuniform List<scalar> 
83563
(
1.92595e-05
3.9823e-05
3.89475e-05
3.37717e-05
0.000200132
5.30159e-05
0.00038653
0.000408934
0.000110122
0.000749598
6.21499e-05
0.000833065
0.00181327
2.09934e-05
0.000359102
0.00754969
2.46441e-05
2.09923e-05
0.000817111
2.09996e-05
2.08628e-05
2.09361e-05
0.000540511
0.00117818
2.36803e-05
4.62331e-05
2.24613e-05
0.000884226
4.85835e-05
2.55427e-05
5.84301e-05
1.65621e-05
0.000422165
2.30984e-05
2.07595e-05
0.000103745
3.48795e-05
4.4502e-05
4.1417e-05
0.000149384
2.79078e-05
9.57751e-05
5.07246e-05
7.92276e-05
2.76648e-05
0.000296376
0.00329366
0.000178435
8.54711e-05
0.00807904
0.00789987
0.000106843
0.0018429
0.00231036
9.21028e-05
0.00249149
3.58069e-05
0.00166256
0.00224837
0.000151085
0.00218237
0.00108438
6.69029e-05
4.13445e-05
0.00319051
0.00185766
0.00319206
6.12307e-05
1.22869e-05
0.00708669
0.000118571
0.00413601
3.02439e-05
0.00464018
3.76579e-05
0.0112848
0.00261918
2.82191e-05
2.76281e-05
0.00243521
2.00691e-05
4.08977e-05
7.58844e-05
0.00408403
0.000202737
2.02818e-05
2.67817e-05
0.00238404
2.37758e-05
5.08714e-05
0.000224975
1.61595e-05
0.000374389
0.000265933
0.000795701
0.000337789
0.00164182
0.000368568
5.61555e-05
0.00017662
9.39003e-05
2.99876e-05
0.000110352
2.80339e-05
8.21547e-05
5.95133e-05
7.26235e-05
1.7702e-05
0.00051555
2.16894e-05
0.000263294
0.000111011
0.00137148
0.000124741
3.06591e-05
2.09352e-05
0.0040611
0.000420646
6.57104e-05
1.68706e-05
0.000142603
0.000133689
0.000144247
0.00144095
0.000229481
3.31652e-05
0.0019961
0.000286705
0.00024929
6.26829e-05
0.00587921
0.00217679
0.000163753
0.00276834
6.08958e-05
2.13131e-05
0.000135581
4.47958e-05
5.24262e-05
0.00516106
0.000511645
0.00179662
6.96132e-05
0.000313626
0.0121076
0.00215662
0.000101659
2.80979e-05
9.05262e-05
3.3988e-05
0.00271546
2.70369e-05
3.78526e-05
0.000176625
1.88757e-05
1.57593e-05
1.66091e-05
5.02797e-05
8.57584e-05
0.000161327
0.000177221
2.09691e-05
3.28544e-05
2.69974e-05
0.000303849
0.000925398
1.42762e-05
0.00679094
1.99933e-05
0.000320794
2.17678e-05
2.96152e-05
0.0163343
0.0025767
0.0159696
5.82232e-05
6.29372e-05
9.97529e-05
0.000105227
1.43145e-05
8.93646e-05
2.05463e-05
0.000168476
0.000778305
0.000518395
0.000878405
0.000478977
0.000275492
8.27027e-05
1.94242e-05
1.95754e-05
0.00062271
0.00151809
0.00115886
0.00049866
0.00261716
7.09811e-05
0.000320843
2.08799e-05
0.000164364
0.000158446
7.75356e-05
0.000282415
1.49051e-05
0.000365128
0.000399345
5.31861e-05
0.00593596
2.06144e-05
8.33743e-05
0.000209265
0.000588346
1.9233e-05
1.77949e-05
0.000128447
0.000257797
0.000119969
1.6236e-05
3.79161e-05
9.47621e-05
2.98565e-05
5.42309e-05
9.4077e-05
0.000105029
0.000239841
1.75166e-05
0.000474961
2.29491e-05
4.23469e-05
0.000279583
2.44263e-05
6.11693e-05
1.52557e-05
5.01468e-05
0.00585937
2.14037e-05
0.000186006
5.17236e-05
4.31235e-05
2.95715e-05
0.000212054
0.000118926
7.38206e-05
1.76415e-05
0.000117906
2.85817e-05
0.000250072
2.04792e-05
0.00255234
6.13178e-05
0.000127765
4.63812e-05
3.98376e-05
0.00083966
5.69923e-05
5.77547e-05
1.69292e-05
0.000305233
2.90067e-05
4.54577e-05
4.14455e-05
9.65797e-05
0.00155483
0.000206458
5.56153e-05
0.000122365
0.000165923
8.36284e-05
1.76559e-05
1.43761e-05
8.86214e-05
0.00013503
0.00152909
6.90367e-05
0.000125003
6.17866e-05
0.000279621
0.000301368
2.56244e-05
5.17966e-05
0.000405153
2.31792e-05
1.88993e-05
0.000339105
0.00112182
2.88579e-05
0.00214018
2.8182e-05
2.5209e-05
6.34237e-05
0.00171179
2.29772e-05
0.000286946
2.63803e-05
3.28124e-05
7.91502e-05
0.000109975
0.000317714
4.79409e-05
3.79109e-05
3.76399e-05
6.85286e-05
9.88097e-05
2.59693e-05
2.2299e-05
0.000217242
0.000276102
0.00477937
0.000197211
0.000687958
9.02715e-05
0.000218752
0.00151315
0.00141767
0.000153315
0.000160725
0.00421694
0.000107707
1.77818e-05
5.91587e-05
0.000618846
0.000110926
2.48973e-05
4.22327e-05
6.08495e-05
1.65885e-05
0.000438988
0.00404003
0.000102477
0.00353698
0.000100058
4.14853e-05
1.56127e-05
0.00331568
1.80119e-05
2.26711e-05
7.68235e-05
0.00286307
0.000233924
3.09783e-05
0.0051702
0.00147519
2.54031e-05
2.71543e-05
8.22664e-05
0.000132487
0.000245305
5.16032e-05
0.000313038
2.56359e-05
1.58085e-05
0.000205317
3.4969e-05
0.000697654
0.000900556
2.08525e-05
0.000339829
0.000135669
9.23142e-05
0.000765847
0.00460344
0.000668186
0.000487373
0.00649095
0.000648507
0.000627684
0.000807487
0.000260271
0.0133301
2.10065e-05
6.45443e-05
0.000112008
0.000282535
0.000139233
0.000341111
0.000196186
0.00124494
8.44678e-05
3.01524e-05
6.1441e-05
4.54887e-05
0.000419476
3.24843e-05
0.000646152
0.00102241
0.000546935
7.25984e-05
7.45568e-05
0.00177339
8.94596e-05
0.000308884
2.65153e-05
4.13011e-05
0.00106359
0.000332849
0.000328227
0.000166418
0.000226943
5.846e-05
1.60983e-05
0.00166461
1.93581e-05
3.14249e-05
0.0131392
0.00096006
5.64308e-05
0.000373309
0.000149613
2.17131e-05
0.000156035
0.00382499
0.00036391
2.40124e-05
3.63547e-05
0.00226709
2.09133e-05
6.13853e-05
8.49875e-05
0.00117386
5.82551e-05
2.58681e-05
3.92096e-05
0.0034385
2.74052e-05
0.000529905
0.00415775
8.43903e-05
0.000293648
0.00210706
9.85426e-05
9.40318e-05
0.00107138
0.000130698
5.63114e-05
0.00132482
0.000295624
0.0131737
2.22639e-05
0.000166314
0.000876599
0.000472717
0.00011277
0.00977219
3.3547e-05
0.00235421
0.000140156
0.000101326
0.00342076
0.00382196
0.00740792
0.00309402
3.22536e-05
9.98918e-05
4.19209e-05
0.000232725
0.000370798
0.00888963
2.38886e-05
3.50648e-05
0.00254598
1.9499e-05
0.00163392
3.8022e-05
2.59331e-05
4.11497e-05
5.04623e-05
2.43883e-05
5.86713e-05
6.42838e-05
0.000121997
0.000137215
0.000112874
3.30176e-05
0.000248007
0.000125275
0.000293973
9.21968e-05
8.94991e-05
9.95865e-05
0.000157999
9.96701e-05
2.8017e-05
8.41057e-05
8.28426e-05
1.97324e-05
0.000275909
0.000122852
0.000244654
0.0123965
1.58245e-05
1.68645e-05
5.78124e-05
8.15927e-05
0.00187301
0.000469766
8.67832e-05
5.04539e-05
4.79e-05
4.27463e-05
3.529e-05
1.67918e-05
0.000106392
0.000132023
2.34577e-05
7.47186e-05
1.82793e-05
5.34279e-05
9.94425e-05
8.60031e-05
7.54196e-05
2.17686e-05
2.69215e-05
2.26439e-05
2.15919e-05
3.00684e-05
3.07898e-05
5.70419e-05
0.00423949
0.00472188
3.16108e-05
6.03356e-05
0.000223448
0.000119726
0.00013098
0.000184353
3.02936e-05
0.00012508
0.00364755
2.59073e-05
2.92762e-05
3.5801e-05
2.05919e-05
6.85817e-05
3.5581e-05
3.5796e-05
4.85092e-05
0.00331808
0.000712044
0.000182349
0.0034501
7.24315e-05
2.09587e-05
0.00130944
0.000329412
0.00164734
0.00152022
3.77877e-05
0.00180129
0.000829691
9.02115e-05
8.67875e-05
0.000181726
0.000131195
8.7075e-05
1.60136e-05
0.000144632
0.0014984
0.001853
0.000921638
2.18892e-05
0.000149583
0.00277184
5.31291e-05
0.000227934
0.000634721
3.08739e-05
0.000730724
2.5754e-05
2.10037e-05
0.000209506
0.0057366
0.000142317
3.43979e-05
8.74975e-05
0.000938912
0.000195827
3.05562e-05
3.09325e-05
3.404e-05
3.62894e-05
3.36024e-05
3.72363e-05
0.0136145
0.0001171
2.51449e-05
4.23171e-05
2.43251e-05
7.1959e-05
2.08266e-05
3.75443e-05
2.21243e-05
3.2479e-05
2.21342e-05
3.46157e-05
6.77258e-05
2.30096e-05
2.63043e-05
2.9968e-05
2.10344e-05
1.53612e-05
6.51269e-05
2.18494e-05
2.61136e-05
2.16629e-05
5.13918e-05
4.53182e-05
0.000854881
3.16738e-05
3.03954e-05
2.84724e-05
3.58726e-05
3.20764e-05
1.69011e-05
6.13066e-05
0.00286142
4.27031e-05
7.26376e-05
0.000114952
0.000169031
0.000207473
0.000352367
0.00439686
6.64121e-05
8.25424e-05
1.76017e-05
6.75907e-05
0.000134663
2.94682e-05
5.32943e-05
2.16861e-05
0.000214083
5.22502e-05
4.5961e-05
0.000196062
2.70801e-05
0.00193924
0.000114354
9.71572e-05
2.15696e-05
3.12177e-05
6.24137e-05
0.000452481
0.000532127
0.000270657
7.34021e-05
2.25417e-05
2.53216e-05
0.0016829
0.00240372
7.43408e-05
6.42715e-05
9.93743e-05
0.000265292
0.000150915
0.000374195
8.52031e-05
0.000702178
2.03986e-05
0.000437564
8.66278e-05
2.65963e-05
0.00275229
0.000572302
0.0011508
0.00159536
2.09962e-05
0.000338316
2.59927e-05
2.21178e-05
0.000491631
0.000550062
0.000103534
0.000810194
0.00310347
0.000312576
7.78779e-05
0.00140797
7.01929e-05
9.14761e-05
0.000834607
0.00191266
0.000102245
0.000369908
0.00150552
1.64398e-05
0.000648032
0.0102753
0.00594375
0.000987384
3.80258e-05
5.87201e-05
0.00228344
3.49139e-05
0.000424654
0.000205265
0.00165034
0.00013941
0.000686797
0.000104838
5.41181e-05
9.58447e-05
6.69345e-05
2.20721e-05
0.000188368
0.000952377
0.000236734
1.53936e-05
6.56142e-05
7.76786e-05
0.000218184
2.10471e-05
0.000164295
2.09723e-05
4.36094e-05
0.00019188
1.48581e-05
2.6834e-05
4.1206e-05
0.00016721
0.0120501
2.30454e-05
0.00149084
3.55235e-05
0.000145005
3.35336e-05
0.000112235
0.00298914
0.00116752
4.05175e-05
0.00418709
1.47571e-05
2.22972e-05
2.46942e-05
0.0154017
0.00180959
0.000232375
2.95667e-05
4.78153e-05
0.00149801
1.55688e-05
4.09492e-05
0.000115419
1.79652e-05
0.000175086
8.59188e-05
4.38719e-05
0.000156584
0.00180873
0.00196758
3.5064e-05
4.65766e-05
5.62088e-05
2.08513e-05
0.00427801
0.00013462
0.000319662
2.07972e-05
2.63691e-05
0.000364011
8.26875e-05
4.83557e-05
2.97931e-05
7.47898e-06
1.71925e-05
0.000129875
4.40645e-05
2.08211e-05
4.29675e-05
0.000138208
0.00535489
4.77566e-05
2.35159e-05
1.37776e-05
0.000164623
3.15714e-05
0.000109951
3.2708e-05
0.000691869
2.62703e-05
5.37999e-05
7.60293e-05
0.00646483
0.00362593
0.00282853
2.92757e-05
0.00175987
5.57709e-05
0.000282435
3.18717e-05
6.85709e-05
0.000169318
0.00121921
4.67054e-05
0.003183
0.000126697
9.3158e-05
0.000594826
0.000230723
2.92227e-05
3.85587e-05
0.000214045
3.46068e-05
0.000200001
2.00431e-05
2.34096e-05
2.75846e-05
0.000150251
0.0012829
0.00104608
0.000202899
2.8935e-05
8.44359e-05
0.00168799
0.00125701
0.00110443
0.000897485
2.48969e-05
0.00073303
2.40673e-05
1.71524e-05
0.00043332
3.8947e-05
0.00160885
0.00150278
7.2849e-05
0.00017794
0.000215504
0.000205989
2.54662e-06
4.09991e-05
1.54315e-05
0.00816476
8.2009e-05
0.00314576
5.77232e-05
2.12489e-05
2.12836e-05
5.48195e-05
4.14098e-05
0.000128303
3.54945e-06
1.87788e-05
3.68652e-05
2.14349e-05
7.4996e-05
3.18163e-06
0.00251489
0.000497553
0.00165143
0.00386424
0.00199525
2.07285e-05
1.51093e-05
2.56237e-05
3.14423e-05
1.28044e-05
4.33167e-05
0.00167263
0.00016948
9.53663e-05
2.20585e-05
6.90124e-05
3.11654e-05
1.79649e-05
0.000282925
5.45519e-05
0.000704446
5.8289e-05
7.12454e-05
1.75643e-05
0.000158911
0.000464193
0.000615201
4.69266e-05
5.09677e-05
0.0014484
0.0071194
1.47254e-05
2.83323e-05
3.037e-05
2.14499e-05
5.05694e-05
6.58867e-05
1.72557e-05
1.67073e-05
0.00418843
0.000230727
5.55337e-05
0.00154877
0.00194262
7.11147e-05
0.000542808
2.21726e-05
3.03787e-05
2.18274e-05
2.02146e-05
0.000226465
1.58461e-05
0.000308233
0.000288781
5.10205e-05
1.46934e-05
7.87308e-05
0.00024261
2.32069e-05
8.49075e-05
6.10529e-05
4.3285e-05
3.72308e-05
0.000331724
2.83046e-05
3.58894e-05
1.44335e-05
5.81598e-05
7.23356e-05
0.00276056
0.00145952
1.36976e-05
0.00156952
2.15138e-05
0.000135149
0.000321736
0.00013461
0.000410228
0.000269203
3.85063e-05
0.000145087
6.45412e-05
0.000956812
5.90872e-05
0.00266122
0.000281346
0.00027502
0.000134539
0.00169913
0.000139764
0.00111501
4.70854e-05
0.000202105
0.00143909
0.000158099
8.15359e-05
0.00023214
5.30215e-05
2.32813e-05
2.13145e-05
9.65954e-05
0.000610973
8.94005e-05
0.000297259
4.31824e-05
4.21808e-05
3.33079e-05
2.5078e-05
2.24843e-05
0.000163128
0.00127093
1.78811e-05
2.04822e-05
2.12104e-05
0.00016509
2.1571e-05
5.51239e-05
2.05972e-05
0.000178492
0.000296596
7.85601e-05
1.69392e-05
0.00103911
6.09003e-05
0.00022913
6.10856e-05
3.88991e-05
3.70341e-05
5.48015e-05
0.000249999
1.85476e-05
7.75709e-05
2.37716e-05
6.71862e-05
3.15408e-05
0.000113524
4.51916e-05
2.50189e-05
3.58715e-05
8.26188e-05
0.000234224
0.000273382
3.24349e-05
0.000179357
0.00127499
0.000150536
1.76543e-05
3.45523e-05
2.9474e-05
0.000603787
0.000296833
0.000113609
0.000190864
0.00137015
0.000866966
2.00573e-05
2.07923e-05
3.65792e-05
0.00123082
3.99615e-05
0.00053815
0.000467011
0.000663189
5.09559e-05
4.44257e-05
2.88198e-05
8.26976e-05
2.25725e-05
5.64105e-05
0.00748259
6.07906e-05
0.000167414
0.000648035
0.0155186
0.00022266
3.92373e-05
0.000886852
0.000290927
0.000179558
2.28468e-05
2.10349e-05
0.000286336
3.75097e-05
1.6321e-05
0.000273433
0.00121444
7.41294e-05
5.62101e-05
5.66213e-05
2.08435e-05
0.000245373
2.67673e-05
5.74721e-05
3.54879e-05
0.000501512
0.000223929
2.2226e-05
0.000311245
2.56085e-05
0.00025288
5.82914e-05
3.74251e-05
0.00364252
3.63459e-05
0.00450963
0.00248965
2.01681e-05
2.33442e-05
2.45389e-05
0.000180333
1.80145e-05
0.000119133
1.9337e-05
0.00233688
2.40001e-05
0.00179884
0.000245771
0.0019532
8.79518e-05
1.47092e-05
0.000284568
6.78997e-05
8.8264e-05
0.000419656
9.94749e-05
0.000145003
0.00291132
4.29085e-05
0.00304321
7.07061e-05
5.35361e-05
9.41236e-05
0.000945154
0.00787212
2.23097e-05
0.000720836
0.00162353
2.07882e-05
0.000130439
0.00723858
3.84285e-05
0.000252989
4.63548e-05
0.000884499
6.16534e-05
0.000258862
0.00102164
0.000108742
0.000151934
0.000282437
2.66445e-05
0.000200142
0.000201726
8.61867e-05
0.000269729
2.59917e-05
0.000258438
0.000106806
0.000106548
2.65045e-05
6.93293e-05
1.84513e-05
0.00014898
2.51345e-05
2.37099e-05
2.6711e-05
6.08547e-05
2.18473e-05
0.000412502
5.14926e-05
0.000170915
0.000254761
0.000187733
0.000145599
0.00279763
2.28688e-05
3.72023e-05
1.49717e-05
0.000182276
7.37464e-05
0.000894635
2.08068e-05
0.000163877
3.64116e-05
1.95683e-05
0.000222955
5.42809e-05
3.61499e-05
1.92894e-05
2.39859e-05
2.04484e-05
0.000631834
3.60084e-05
5.63493e-05
6.4206e-05
4.96612e-05
1.53321e-05
2.33722e-05
0.000113286
7.19942e-05
7.52263e-05
0.000272033
5.79183e-05
2.31299e-05
6.30309e-05
3.13465e-05
2.87563e-05
2.52323e-05
2.017e-05
0.000125391
1.61009e-05
2.14805e-05
0.000638424
3.95992e-05
0.000374708
3.05256e-05
0.00110004
3.12343e-05
2.79867e-05
2.71195e-05
5.02246e-05
5.08737e-05
6.98008e-05
5.34233e-05
2.353e-05
7.16841e-05
0.000286854
7.91345e-05
6.86954e-05
0.000132897
0.000284769
4.39266e-05
0.000295696
1.78225e-05
0.000291339
3.55681e-05
0.000479243
2.06741e-05
2.44076e-05
2.15459e-05
2.41799e-05
0.000129486
0.00077806
4.72331e-05
0.00452732
0.00867914
0.00138369
0.00400315
0.000761082
0.011363
2.58321e-05
2.69212e-05
4.29173e-05
0.000263508
7.0957e-05
0.00368555
5.03483e-05
1.72145e-05
0.000156966
0.000299948
5.58855e-05
0.000229946
0.000169513
4.40315e-05
4.43394e-05
0.000117042
1.54327e-05
3.14941e-05
6.54411e-05
2.10087e-05
5.21855e-05
0.00197069
0.000186414
8.85798e-05
2.08606e-05
4.42645e-05
5.29758e-05
0.000323987
1.74596e-05
0.000346549
0.000107239
6.08792e-05
0.0135369
4.0441e-05
2.14724e-05
2.35793e-05
0.000505261
4.14978e-05
8.08566e-05
1.50932e-05
2.39023e-06
0.000544135
3.70443e-05
2.33099e-05
3.07759e-06
3.43226e-05
2.21035e-05
0.000128738
2.05668e-05
0.000261223
2.44556e-06
2.46804e-05
5.40957e-05
0.000784235
0.0159412
7.79329e-05
1.68393e-05
2.10143e-05
0.000907025
0.0013703
0.00040041
7.17919e-05
3.01628e-05
8.25297e-05
0.000441122
7.30823e-05
0.00237763
7.52187e-05
7.63406e-05
0.000289873
2.12828e-05
5.07639e-05
6.38472e-05
2.82267e-05
0.000198774
0.00012796
4.83224e-05
2.94243e-05
0.000504709
0.000381638
3.01862e-05
0.00333272
0.0126473
0.000241936
0.00534531
0.000486733
2.07445e-05
9.60492e-05
0.00371801
0.00249412
9.29195e-05
0.000274376
2.57947e-05
0.00401425
0.000100662
1.68014e-05
2.36803e-05
6.48131e-05
2.1565e-05
0.000655173
0.000184848
0.000101009
7.27452e-05
6.24931e-05
0.000444118
0.00033151
1.91498e-05
0.000174061
9.002e-05
2.08538e-05
2.97026e-05
4.58026e-05
0.000312234
6.25107e-05
2.11313e-05
2.37134e-05
0.00173856
1.63718e-05
1.46998e-05
1.61109e-05
0.000167022
0.00736279
2.13122e-05
0.00163027
3.71218e-05
2.72584e-05
0.00459282
7.25254e-05
0.0033257
0.00611248
0.000123861
8.3312e-05
0.0089792
3.05588e-05
0.00761322
0.000120646
6.85744e-05
1.80183e-05
1.84319e-05
6.29238e-05
0.00138354
2.0663e-05
0.000229729
1.61376e-05
2.6295e-05
0.000212503
2.88756e-05
8.96189e-05
1.50459e-05
0.000237843
0.0122054
5.8055e-05
0.000316962
0.000282381
7.25014e-05
0.000367366
7.50806e-05
0.000126342
0.000568642
0.000123542
3.76402e-05
0.00401197
3.26425e-05
9.97891e-05
2.66765e-05
3.96428e-05
4.08694e-05
5.85015e-05
2.42944e-05
1.80211e-05
5.5343e-05
4.1571e-05
3.99329e-05
3.14135e-05
2.05753e-05
5.63408e-05
0.0187479
0.000226507
2.08327e-05
6.59087e-05
0.00255202
4.62381e-05
0.010248
0.000338901
2.31088e-05
3.04348e-05
2.53335e-05
2.69926e-05
0.00642593
3.98171e-05
9.81227e-05
6.77442e-05
0.000338134
3.50106e-05
1.50428e-05
7.47625e-05
0.00322105
2.22019e-05
0.0142406
0.00105788
0.000333162
0.00025304
2.9083e-05
3.31861e-05
6.39385e-05
0.00253887
0.000211009
0.00027129
0.000221285
2.60001e-05
1.84188e-05
2.45119e-05
6.77409e-05
7.02057e-05
0.00021694
2.48819e-05
0.000178003
3.91248e-05
0.000100203
5.46748e-05
7.97139e-05
5.61027e-05
4.03927e-05
2.34287e-05
3.47199e-05
8.82336e-05
2.53771e-05
5.7926e-05
4.5468e-05
2.02882e-06
7.80775e-05
1.648e-05
5.76493e-05
6.38003e-05
0.000131399
0.000270836
9.92647e-05
5.69707e-05
0.000201185
0.011914
1.98564e-05
4.34579e-05
0.00310815
2.48157e-05
0.000262535
2.09076e-05
3.43557e-05
2.35824e-05
1.97432e-05
3.17242e-05
7.83385e-05
0.00526652
7.73662e-05
7.21505e-05
4.44243e-05
6.34759e-05
0.000409621
2.03e-05
0.00178089
9.07541e-05
0.000298741
0.00279486
4.34181e-05
5.38065e-05
2.58953e-05
6.62167e-05
0.000165328
1.54581e-05
2.03629e-05
0.000296164
6.40078e-05
0.00536882
0.00059175
9.8146e-05
2.07e-05
0.000175365
9.30078e-05
0.00558912
2.71154e-05
3.13246e-05
0.000344661
0.00251014
2.91816e-05
0.00620606
0.000181664
0.000291492
0.000932875
0.000263472
4.21433e-05
0.00574862
0.000725233
7.63239e-05
0.000190187
0.000391595
0.000259721
0.00343681
0.00021444
2.36737e-05
1.65086e-05
0.000641984
0.000281157
5.11557e-05
2.9407e-05
0.000299351
0.000169106
4.99867e-05
1.92891e-05
5.45546e-05
0.00340108
1.5887e-05
0.000151585
3.36656e-05
5.46016e-05
1.80571e-05
2.6489e-05
2.54174e-05
2.61565e-05
4.38824e-05
0.000265969
6.02013e-05
9.08585e-05
0.0145139
3.89437e-05
1.59981e-05
0.000124031
0.00116411
5.0275e-05
0.00252256
8.31051e-05
0.000327633
0.000131582
3.02641e-05
5.34675e-05
4.92958e-05
1.64157e-05
5.49838e-05
3.2886e-05
5.42259e-05
0.000104475
0.000345554
1.72617e-05
2.10598e-05
0.0019246
0.0030747
2.10182e-05
0.000151271
0.00320436
0.00265218
9.30941e-05
0.00233026
2.78558e-05
0.000152539
4.16014e-05
0.00215783
7.07401e-05
8.43568e-05
2.88146e-05
3.79287e-05
0.000103257
2.55711e-05
0.000124162
2.00194e-05
0.00451126
5.98133e-05
4.29083e-05
5.57045e-05
4.39487e-05
0.000211211
5.20171e-05
3.20904e-05
4.38347e-05
0.000107944
3.77297e-05
2.09668e-05
0.00445597
0.000301256
0.0120777
0.000351432
1.9184e-05
0.00699289
0.000200144
2.37845e-05
2.12877e-05
5.24688e-05
7.01722e-05
3.34985e-05
0.000106908
0.000113023
0.00018395
0.00258726
2.49494e-05
2.28601e-05
9.03075e-05
0.0107898
0.0149394
2.8967e-05
0.0175534
0.0131973
0.00184076
0.0179638
2.71535e-05
0.0195885
4.02929e-05
3.0706e-05
0.0150606
0.000213529
0.00018201
0.00545822
0.000395317
0.00410334
0.00389396
4.32551e-05
6.65197e-05
2.02312e-05
2.22819e-05
0.000343789
3.41725e-05
0.00464583
1.63272e-05
1.92204e-05
1.98905e-05
0.00487966
0.00543496
1.63828e-05
2.75037e-05
2.04039e-05
5.28224e-05
0.00371551
0.00492324
8.34692e-05
8.92229e-05
2.07623e-05
0.000264978
2.8144e-05
9.80558e-05
4.54225e-05
2.15653e-05
6.71079e-05
3.99467e-05
0.000102663
3.01892e-05
4.21133e-05
4.41469e-05
7.88356e-05
6.23945e-05
0.00177424
2.20747e-05
8.77724e-05
5.94749e-05
0.000124671
0.00018053
0.000103792
2.70881e-05
0.00030562
0.00224602
0.00222646
0.00015422
0.000112034
0.0013713
0.000217423
0.000175215
0.000407996
0.000108054
0.00220499
0.00231998
5.67383e-05
0.000348895
0.000121269
0.00187627
0.000259223
0.00215384
1.51711e-05
6.07362e-05
0.00083092
0.000104335
0.000146494
2.39751e-05
6.2711e-05
6.42234e-05
8.12374e-05
4.86319e-05
0.000391478
0.000110225
5.67661e-05
6.74972e-05
7.69244e-05
4.17592e-05
0.000325754
0.000305584
5.56029e-05
2.05459e-05
2.91587e-05
0.000762522
9.09065e-05
7.19872e-05
1.94066e-05
2.39426e-05
3.93788e-05
2.45424e-05
0.000538751
2.15301e-05
3.46931e-05
1.53383e-05
8.78571e-05
0.000193002
9.83655e-05
5.20374e-06
0.000149831
2.00814e-05
3.16696e-05
4.23843e-05
1.51746e-05
2.34945e-05
0.00943769
3.07473e-05
2.49779e-05
8.34513e-05
3.15004e-05
2.99995e-05
0.0094905
0.00271334
2.50534e-05
2.21002e-05
4.06317e-05
0.000356296
0.0160344
9.55364e-05
0.000223848
3.73497e-05
0.000349728
5.13858e-05
2.49016e-05
2.10546e-05
0.000394437
5.51952e-05
1.84087e-05
2.14917e-05
1.97887e-05
2.49424e-05
0.00350965
0.000359444
2.22543e-05
7.24108e-05
0.00556917
2.12134e-05
6.35194e-05
2.13993e-05
4.10246e-05
1.50836e-05
6.29461e-05
2.92652e-05
1.85383e-05
0.0103023
7.57211e-05
0.000357839
5.87053e-05
2.48733e-05
0.00198227
0.0103621
3.74934e-05
2.54987e-05
0.00861424
0.000183898
5.54024e-05
3.42382e-05
9.02869e-05
2.06409e-05
1.81131e-05
8.03028e-05
2.49935e-05
0.000853246
2.66669e-05
8.18265e-05
0.00415374
5.22728e-05
4.66407e-05
9.09139e-05
0.00714642
2.26205e-05
0.00341858
2.3849e-05
0.00441039
6.82315e-05
5.21371e-05
1.85052e-05
0.000195883
0.000133285
5.85269e-05
8.69271e-05
3.20172e-05
2.42301e-05
1.93823e-05
3.35831e-05
2.17256e-05
6.82588e-05
6.87512e-05
2.75353e-05
6.29153e-05
0.000219534
5.73082e-05
2.36757e-05
0.0045801
3.10061e-05
0.000117333
0.000391998
2.519e-05
2.21836e-05
4.73783e-05
0.000156615
0.00244964
5.45121e-05
4.67882e-05
0.000413366
0.000329712
1.9843e-05
6.67347e-05
5.05017e-05
3.07035e-05
1.8977e-05
6.41689e-05
3.77217e-05
7.39827e-05
3.18775e-05
0.00448696
7.08562e-05
2.82151e-05
9.88505e-05
1.99907e-05
3.79287e-05
2.59033e-05
0.00061714
0.0123836
4.23375e-05
3.32965e-05
6.49779e-05
2.19022e-05
1.81812e-05
0.000124565
0.00172536
1.70522e-05
0.00280619
2.72875e-05
2.9979e-05
7.80141e-05
3.90865e-05
0.000124532
0.00322974
0.000122015
0.000420396
2.19179e-05
0.000679453
0.000119641
3.83382e-05
0.000910649
6.29715e-05
2.10973e-05
0.00327898
0.000118128
5.64953e-05
6.27508e-05
2.0858e-05
2.02387e-05
0.000145531
2.13158e-05
3.53099e-05
6.47484e-05
0.000312711
2.28297e-05
3.33925e-05
0.00289714
0.000175102
0.0021597
0.000531525
6.35773e-05
0.000146495
0.00100157
7.47042e-05
7.67805e-05
8.07559e-05
0.000393295
0.000112345
1.96524e-05
4.36699e-05
4.12727e-05
0.000124778
5.61936e-05
0.000133154
0.00152275
3.78475e-05
0.000351557
0.00406485
2.53304e-05
2.40732e-05
0.000186623
0.000308853
0.00318607
2.11063e-05
2.05921e-05
8.89239e-05
2.15931e-05
0.000203872
0.00243739
7.96718e-05
5.79046e-05
0.00336859
4.45363e-05
5.29159e-05
2.82321e-05
1.90281e-05
0.00410297
0.000287884
0.000114361
0.000213299
5.33729e-05
2.18291e-05
3.56829e-05
0.00941967
2.11623e-05
2.11029e-05
0.00229181
3.71814e-05
5.54827e-05
2.65952e-05
0.00192724
3.88919e-05
0.00307529
2.60492e-05
1.49265e-05
0.000364497
0.00157464
0.000228708
8.27801e-05
0.000125333
2.80828e-05
2.0664e-05
0.00259136
0.00224806
0.000803289
2.58133e-05
0.0016504
0.00089875
2.81584e-05
1.85993e-05
2.29834e-05
0.000214964
9.46799e-05
2.24442e-05
0.000201976
7.9643e-05
0.00162734
0.00126388
0.00135315
0.000806942
2.01167e-05
0.000300637
4.01962e-05
0.000163213
0.0101965
1.62554e-05
2.18363e-05
6.06415e-05
0.000204548
1.83573e-05
0.000500504
0.00050685
0.000244506
2.7993e-05
9.67077e-05
0.000124234
2.25171e-05
0.000311374
7.10185e-05
0.000355344
8.78323e-05
0.00139596
6.94186e-05
2.25837e-05
1.71936e-05
4.589e-05
0.000503515
2.88831e-05
4.64373e-05
0.00122292
0.000969169
0.000316503
0.0014019
2.10675e-05
4.38806e-05
2.14718e-05
0.000356381
4.03139e-05
0.000194889
2.50974e-05
0.000201458
2.40573e-05
0.00125051
5.50531e-05
2.06254e-05
2.26053e-05
0.00318494
0.000703195
1.56547e-05
0.000295839
2.09397e-05
2.54592e-05
6.03255e-05
0.000131243
7.44685e-05
5.88717e-05
2.30239e-05
0.00053426
0.00014136
4.20236e-05
0.00544937
0.00763573
0.000136048
5.17991e-05
0.000134743
9.32411e-05
0.000134119
6.88621e-05
0.000438562
7.55009e-05
1.69788e-05
0.000108228
5.46686e-05
3.97698e-05
3.56137e-05
1.68113e-05
0.000155143
1.4511e-05
5.27092e-05
3.91411e-05
0.000180091
2.06317e-05
0.000149429
0.000135799
0.000272807
1.6032e-05
2.51939e-05
0.000118156
0.00056727
2.80704e-05
4.37367e-05
6.74036e-05
2.18297e-05
3.34909e-05
0.000157386
4.3229e-05
2.94813e-05
2.13544e-05
4.03971e-05
2.09866e-05
2.34822e-05
2.42055e-05
0.000116994
0.000236767
0.00015352
0.00110717
0.000253756
4.363e-05
2.29073e-05
5.13093e-05
0.00196084
5.75339e-05
0.000129343
2.10656e-05
2.1033e-05
8.98977e-05
1.72455e-05
0.0013692
0.000170663
0.000118906
0.00288198
8.34002e-05
7.08088e-05
1.64414e-05
0.00386089
0.00023191
0.00131352
2.65818e-05
0.000507318
0.000148766
0.000201744
1.59579e-05
0.00153178
0.000165134
0.00037767
0.000177163
0.000236975
0.000173279
2.98604e-05
0.0010664
1.86136e-05
0.00460378
0.00566689
0.00577539
8.28076e-05
0.00394757
0.0004183
0.000157167
1.82965e-05
0.0040962
0.00628138
2.39165e-05
0.000133137
1.78084e-05
2.13388e-05
1.88479e-05
0.0066193
0.00386517
4.09977e-05
7.54018e-05
0.000879311
0.00678987
0.000112023
2.72158e-05
0.003067
0.000350349
8.27581e-05
0.0142434
0.00385357
0.000131813
3.05345e-05
0.000266909
0.000135978
1.621e-05
4.50964e-05
3.31918e-05
1.7014e-05
0.000112492
3.35917e-05
6.37024e-05
4.47336e-05
4.35039e-05
0.000509267
2.72899e-06
0.00322072
0.00376493
1.57997e-05
5.13582e-05
4.73413e-06
9.03821e-05
1.92276e-05
0.00039526
4.66716e-05
0.00180167
0.000167496
1.89693e-05
9.19947e-05
0.000186062
9.06709e-05
2.84494e-06
1.90933e-05
0.0013727
0.000310262
0.000269596
0.0035537
8.72567e-05
0.000116431
2.2149e-05
0.000180107
2.35653e-05
2.04417e-05
0.000149684
0.000392259
6.25983e-05
3.59332e-05
5.1688e-05
1.50535e-05
6.82203e-05
0.00036224
1.71051e-05
0.000152506
0.000259677
0.000331268
5.63915e-05
0.00693697
6.8966e-06
4.90164e-05
2.04192e-05
3.79616e-05
2.24558e-05
0.000229257
0.000250946
8.03857e-05
7.11213e-05
7.58471e-05
7.61093e-05
2.98918e-05
0.000375535
2.08076e-05
7.00995e-05
0.000168953
7.16258e-05
0.00933357
0.000153985
0.000214921
2.11653e-05
0.00839021
0.00211542
2.7236e-05
0.000120485
5.37649e-05
6.24415e-05
0.00019268
1.89901e-05
0.000259849
2.11268e-05
0.0020136
4.64593e-05
6.27973e-05
1.64855e-05
7.14419e-05
9.29258e-05
2.39733e-05
6.95747e-05
2.64474e-05
3.30035e-05
2.40879e-05
2.08946e-05
0.000401991
3.72505e-05
2.9772e-05
5.59595e-05
0.00193133
4.41186e-05
1.8498e-05
3.75085e-05
1.86851e-05
0.000347218
9.56333e-05
0.000167719
0.00017655
3.47509e-05
0.000689374
0.000891388
7.94992e-05
4.38909e-05
0.00199675
4.61099e-05
0.000594677
6.9825e-05
2.30002e-05
5.01818e-05
2.9076e-05
0.0056814
6.43591e-05
1.49566e-05
1.41665e-05
2.31355e-05
0.00502389
0.00089973
0.000584008
6.1387e-05
0.000134389
0.000498302
1.832e-05
2.26997e-05
0.0042321
0.000517107
0.00367652
3.39559e-05
3.43768e-05
0.00212398
0.000418156
0.000103085
5.38297e-05
8.94954e-05
0.000603244
2.10065e-05
0.000162156
0.000146545
0.000116503
6.81564e-05
0.000194841
2.7102e-05
0.00385802
0.00536188
0.000174461
0.000378443
2.14432e-05
5.90659e-05
0.00517597
0.000217867
2.69872e-05
6.63569e-05
4.34136e-05
0.00235889
0.000117659
0.00120513
4.61395e-05
2.32223e-05
2.51294e-05
0.000487321
0.000590446
2.0996e-05
2.19014e-05
6.12313e-05
0.000111668
3.50006e-05
7.24607e-05
0.000805625
9.4797e-05
6.88821e-05
0.000305918
0.00267821
9.7595e-05
2.11394e-05
0.000218382
3.95273e-05
1.55807e-05
0.000392997
2.40415e-05
0.000344949
1.44042e-05
6.1118e-05
3.65035e-05
0.000372837
8.0101e-05
2.24286e-05
0.000214279
3.36082e-05
2.20354e-05
7.01813e-05
2.89494e-05
2.38991e-05
0.000126774
4.38658e-05
3.1683e-05
0.000207744
7.48332e-05
3.31459e-05
0.00733575
0.000172819
9.11929e-05
0.000736195
0.00211734
2.8292e-05
8.57978e-05
2.11432e-05
0.000104515
5.82283e-05
0.000190064
0.000185405
0.0100003
0.000201818
4.40436e-05
6.41261e-05
0.000282981
3.09418e-05
7.13624e-05
2.53275e-05
3.07249e-05
8.67461e-05
0.00438741
9.52754e-05
2.67834e-05
2.28733e-05
7.95006e-05
2.81194e-05
0.000104152
0.00475781
8.04833e-05
0.00824707
2.52274e-05
0.00633671
0.000105077
0.0041706
0.000319907
0.000152596
0.00765352
0.00332265
5.52341e-05
0.000364516
2.19703e-05
0.000279819
5.11818e-05
0.000166484
5.18168e-05
0.00045796
0.00839666
7.09394e-05
0.000197294
1.48799e-05
0.0025248
2.55327e-05
2.11106e-05
3.33586e-05
0.000143728
2.34216e-05
1.9751e-05
0.00138879
0.000641867
2.55779e-05
2.8533e-05
7.77845e-05
2.09169e-05
5.90529e-05
2.95207e-05
2.47773e-05
2.13211e-05
5.93938e-05
1.59784e-05
0.000243973
0.0172174
1.92803e-05
0.000940494
0.000430389
0.000253549
0.000222572
0.00290858
5.53187e-05
3.68702e-05
5.28986e-05
0.000288944
0.000269581
3.14731e-05
1.62915e-05
3.3365e-05
0.000340696
2.41031e-05
0.00246691
4.50901e-05
8.44802e-05
2.04374e-05
3.22099e-05
7.98985e-05
0.000184645
3.49556e-05
9.46172e-05
2.65376e-05
0.000138221
0.00011313
1.83894e-05
6.1696e-05
0.000674292
0.000358292
0.000616645
0.000140478
0.00713064
0.000109385
0.000267933
0.000278985
0.000457593
2.55592e-05
0.000176727
2.96432e-05
0.00092738
0.000220111
0.000284165
0.000273861
0.000122051
8.7977e-05
0.00109763
5.08774e-05
1.48495e-05
0.00010532
0.00095974
2.54872e-05
0.00256464
0.000106071
7.81449e-05
4.35825e-05
5.6714e-05
6.66421e-05
0.000134752
9.2004e-05
0.000547
2.17306e-05
0.00189197
8.82446e-05
2.38026e-05
2.77102e-05
0.000150112
0.00012706
0.000159288
0.000460305
6.40582e-05
0.000177764
0.000288022
4.72491e-05
2.1315e-05
8.12105e-05
0.000153842
4.22771e-05
0.00868601
1.71224e-05
8.43072e-05