/*--------------------------------*- C++ -*----------------------------------*\
| =========                 |                                                 |
| \\      /  F ield         | OpenFOAM: The Open Source CFD Toolbox           |
|  \\    /   O peration     | Version:  v2012                                 |
|   \\  /    A nd           | Website:  www.openfoam.com                      |
|    \\/     M anipulation  |                                                 |
\*---------------------------------------------------------------------------*/
FoamFile
{
    version     2.0;
    format      ascii;
    class       volScalarField;
    location    "1.3940496";
    object      epsilon;
}
// * * * * * * * * * * * * * * * * * * * * * * * * * * * * * * * * * * * * * //

dimensions      [0 2 -3 0 0 0 0];


internalField   nonuniform List<scalar> 
83563
(
4.01719e-05
2.95679e-05
0.000112171
0.000121668
0.0106943
0.000190911
0.0102744
0.0192681
0.00172196
0.0920809
0.000544036
0.0230944
1.34841
1.95132e-05
0.0137066
0.226666
2.90189e-05
1.94695e-05
0.0304389
1.94026e-05
1.89864e-05
1.91503e-05
0.0250645
0.0289255
2.61382e-05
0.000654015
0.000104116
0.106777
0.00056814
8.89667e-05
0.000655559
8.1894e-05
0.00310096
2.74851e-05
2.49247e-05
0.00131619
5.13054e-05
0.000164052
0.000123248
0.00743826
8.48097e-05
0.00134413
0.00023961
0.00148024
0.0295629
0.024718
0.236562
0.00827204
2.19722e-05
0.198048
0.271796
0.0018934
0.328513
0.678309
0.00192493
0.393113
0.000139278
0.626315
0.738368
0.00674858
0.842777
0.0662659
3.71886e-05
0.000111053
1.66873
3.07003
0.881848
0.00158733
0.0545055
0.28032
0.00161778
2.46873
8.62664e-05
1.70805
9.56475e-05
1.50287
1.55476
5.16962e-05
9.70059e-05
0.756252
3.02612e-05
0.00213376
0.00131718
0.373374
0.000962715
3.82407e-05
3.38026e-05
0.0784908
4.28704e-05
9.47264e-05
0.00919501
0.000103712
0.0523613
0.0101284
0.205788
0.0176324
0.295724
0.0560162
1.31785e-05
0.00733492
0.00298841
4.84834e-05
0.00188509
6.53085e-05
0.000827931
0.00083574
0.00105725
3.15873e-05
0.231636
2.123e-05
0.0160667
0.00334232
0.126963
0.00394859
3.26278e-05
0.000193494
0.143794
0.031189
0.000463087
0.000164922
0.00365128
0.00276381
0.00730859
0.182582
0.0154793
0.000456625
0.17996
0.00322579
0.0124034
3.51828e-05
0.531693
0.823881
0.00293628
0.212149
0.00113658
2.00845e-05
0.00670472
3.79143e-05
0.000856589
0.400508
0.0101562
0.247899
2.9637e-05
0.00655655
1.42921
0.898456
0.00266577
4.19178e-05
0.0024332
6.76127e-05
0.147917
2.49115e-05
0.000116286
0.0065176
3.40391e-05
6.1208e-05
5.19644e-05
1.39925e-05
0.000134131
0.0205596
0.00720134
3.07987e-05
0.000105137
0.000434969
0.01875
0.0384089
8.96921e-05
0.219903
0.000113453
0.0181279
0.000188912
0.000447626
1.43877
0.25154
1.43191
3.1589e-05
0.000383755
0.00232393
0.00224551
6.21851e-05
0.00209245
6.0563e-05
0.0078377
0.113816
0.0425504
0.119287
0.0248262
0.00481428
0.00683356
6.64366e-05
3.23743e-05
0.0602659
0.18802
0.0294328
0.0113529
0.0897988
0.00153938
0.0182345
1.92089e-05
0.00549547
0.0045827
0.000816578
0.0198308
5.28025e-05
0.0322839
0.0331341
0.000964463
0.314768
2.07947e-05
0.00146073
0.0085639
0.116238
6.78533e-05
0.000170689
0.00373225
0.00690699
0.00378727
0.0001643
0.00036721
0.000219616
0.000106092
1.53619e-05
0.00247578
0.00139505
0.0317032
0.000153128
0.10276
2.22156e-05
0.00054617
0.0295401
2.81646e-05
0.000711349
5.1897e-05
0.000705941
2.8836
2.02305e-05
0.00800222
0.000587734
0.00041992
4.00827e-05
0.0103527
0.00169193
2.7711e-05
0.000147897
0.00347862
2.59317e-05
0.0212363
0.000177092
0.465991
0.000258847
0.00490856
5.08352e-05
0.000267375
0.0708397
0.000530897
0.00048938
3.24277e-05
0.0209876
0.000231777
0.000401287
0.000302404
0.00118131
0.0382097
0.0084996
0.000126354
0.00214163
0.00622337
0.00256314
0.000152721
7.30631e-05
0.00320542
0.00895961
0.0249114
0.000560298
0.0062704
0.000472723
0.0249063
0.0125472
5.3184e-05
7.61502e-05
0.0202791
0.000210577
3.55794e-05
0.0135183
0.0223796
2.52954e-05
1.42487
0.000355044
0.000207738
3.68964e-05
0.0420074
0.000195689
0.0301531
0.000194009
8.4925e-05
0.00233187
0.00233875
0.0123442
6.05316e-05
3.74194e-05
3.04988e-05
0.00108
0.00163177
2.34428e-05
2.10885e-05
0.0170741
0.0248369
3.16506
0.00709064
0.0993341
0.00202237
0.00402427
1.30857
0.0310069
0.0200749
0.00201857
0.81165
0.00299922
0.000110617
3.57197e-05
0.0698551
0.00370455
3.04318e-05
0.000193629
3.88995e-05
5.38743e-05
0.0431916
0.822885
0.00291121
0.191085
0.00351336
6.20298e-05
9.61308e-05
0.732539
4.81946e-05
3.21904e-05
0.000674373
1.87947
0.00950884
3.48115e-05
2.91139
1.2909
0.000237168
2.1382e-05
0.00179166
0.00156488
0.0118867
0.000158809
0.0191473
2.11298e-05
3.49547e-05
0.0126458
7.54045e-05
0.505157
0.361674
1.90341e-05
0.00916363
0.00433139
0.00135253
0.0942989
0.714321
0.0675041
0.0720215
0.263929
0.0819559
0.0597018
0.0589415
0.0108416
0.749017
3.16795e-05
0.00114249
0.00223342
0.0121993
0.12527
0.122604
0.00573692
0.0652363
0.00209555
8.55838e-05
0.00119214
0.000184105
0.00761736
0.000290855
0.00455573
0.0998278
0.0234292
0.000552984
0.000801908
0.0494698
0.00233989
0.00983706
0.000146284
0.000113939
0.031388
0.0101587
0.0198672
0.00655601
0.00853352
0.0006712
4.01124e-05
0.63571
0.000100223
2.69565e-05
2.07876
0.0983202
0.000271778
0.0643526
0.00228763
2.44293e-05
0.00711558
2.04501
0.00466262
0.000264466
0.000101336
0.861762
8.96802e-05
0.0003598
1.57316e-05
0.0894975
0.000279512
3.30238e-05
0.00010078
2.38114
0.00033895
0.0340103
2.77745
0.00240264
0.0273617
0.0323247
0.00300972
0.00245648
0.0195342
0.00352375
0.000909996
0.0820146
0.0127241
0.694158
2.98388e-05
0.00693998
0.132121
0.0309053
0.000936456
0.285736
0.000621206
0.0708117
0.00388831
0.000787215
0.175037
5.02984
14.4759
0.165467
5.61967e-05
0.00196234
0.000115735
0.0103643
0.0227937
0.218484
9.56954e-05
7.75069e-05
0.140921
0.000117484
0.375766
0.000221533
3.40246e-05
0.000159284
0.000342892
0.000149229
0.000984833
0.000377492
0.00250308
0.00345994
0.00362723
6.16983e-05
0.00832914
0.00372167
0.0193087
0.00172691
0.000912077
0.000992959
0.00316224
0.000993942
3.96216e-05
0.00186475
0.000173037
0.000188135
0.00327849
0.00305567
0.0117747
2.52784
5.41789e-05
0.000107113
0.000746153
0.00112788
0.137319
0.0505493
9.57298e-05
0.000520754
0.000123198
0.000223138
0.000253227
3.57059e-05
0.00275095
0.00570979
2.65863e-05
0.00105637
8.30182e-05
1.90699e-05
0.00433272
0.00123832
0.000782914
0.000163606
3.15107e-05
2.15117e-05
2.06234e-05
0.00010764
0.000633771
1.79653e-05
0.54741
0.895314
0.000111814
0.000456091
0.0138646
0.0023756
0.00503579
0.00840497
8.88506e-05
0.00630148
0.972582
8.51819e-05
4.49525e-05
0.000578924
2.84233e-05
0.000642754
0.000148063
0.000197823
0.000918569
0.671718
0.0620515
0.00782536
0.49148
0.000714333
0.000450619
0.470148
0.00985495
0.0532114
0.0513451
0.000331372
0.0645546
0.318511
0.00384707
0.00210059
0.00460019
0.00468924
0.00809368
0.000104243
0.00470261
0.0326869
0.632523
0.188991
2.14258e-05
0.00670056
0.179977
0.000898665
0.00908322
0.0170099
0.000151821
0.0738332
3.43513e-05
0.000325799
0.00737987
0.491872
0.00359403
0.000130594
0.001419
0.136621
0.0100179
4.87133e-05
0.00014109
0.000823003
0.000113888
0.00011333
0.0748632
0.53627
0.00279106
2.96645e-05
0.000425152
4.8861e-05
0.000598325
2.01709e-05
0.0597316
2.21819e-05
0.000546996
2.24708e-05
0.000214885
0.00080957
2.41894e-05
4.68545e-05
4.55239e-05
2.05262e-05
6.49275e-05
0.000400799
2.1781e-05
3.26709e-05
2.84483e-05
0.000394396
0.000146458
0.0461153
0.000182506
5.19778e-05
5.03586e-05
0.000104589
0.000390371
4.71149e-05
0.000291119
0.701463
0.000325065
0.000669873
0.0015078
0.00615003
0.0098864
0.00794902
0.278057
0.000654606
0.001101
6.19835e-05
0.00111227
0.00336459
7.9408e-05
0.000483687
3.82802e-05
0.00240238
0.000726706
0.000390473
0.00497662
3.59244e-05
0.142527
0.0018111
0.00243057
2.23786e-05
4.80562e-05
0.000829185
0.0172417
0.0230027
0.00210929
3.05902e-05
2.29639e-05
3.04588e-05
0.0162275
1.51757
0.00126518
0.00101945
0.0031481
0.017299
0.0093869
0.0321107
0.00166879
0.0498132
0.000225661
0.00735702
0.00209111
4.76907e-05
0.413841
0.0120501
0.0270672
0.344169
1.92844e-05
0.00590184
4.02826e-05
6.62304e-05
0.0263277
0.018505
0.00270061
0.0147861
0.107257
0.0181541
0.00221795
0.0287754
0.00234921
0.00240489
0.0142336
0.377481
0.00164145
0.0353509
0.602281
4.21283e-05
0.0125652
1.06286
0.151972
0.0580107
9.58516e-05
0.000509384
0.665582
9.43104e-05
0.0294653
0.0188327
0.221419
0.0038832
0.0837524
0.00166289
0.000665726
0.00262944
0.000768035
2.25346e-05
0.00291174
0.0299333
0.00869602
0.000174456
0.000588592
0.00160155
0.007231
2.191e-05
0.00574019
1.94905e-05
4.5851e-05
0.00914256
5.81116e-05
5.3197e-05
2.16535e-05
0.00627804
0.592213
2.37372e-05
0.0871366
8.94802e-05
0.00236818
0.000585475
4.55239e-05
3.27259
1.66886
0.000123953
1.65781
8.8344e-05
2.28458e-05
2.9532e-05
1.84096
3.0286
0.0104232
2.07199e-05
0.000120389
1.72357
0.000140275
0.000144175
0.00716807
7.96248e-05
0.0111136
0.00118889
0.000201178
0.0038919
0.225623
0.43414
9.59441e-05
0.000176365
0.00026028
1.91416e-05
1.36547
0.00378246
0.0165847
1.88079e-05
0.0001326
0.0279595
0.000573418
0.00023373
6.80591e-05
0.0299238
8.43013e-05
0.00328479
0.000274865
1.9978e-05
0.000291781
0.00558195
0.553051
0.000255685
3.76744e-05
9.52497e-05
0.0031308
5.21971e-05
0.00142305
0.000147643
0.0453808
5.84243e-05
0.000556471
0.00124975
0.206346
0.65786
1.57257
4.48307e-05
0.992905
0.000931302
0.0108122
7.53485e-05
0.000921795
0.00365346
0.0836473
0.00041364
0.509496
0.00387283
0.0012768
0.0192687
0.00350534
4.38501e-05
0.00029332
0.00625992
0.000532888
0.0105739
0.00012819
0.000351243
6.21487e-05
0.00722676
0.751588
0.207735
0.0120762
0.000564538
0.000351826
0.453581
0.190526
0.0767614
0.156644
2.95221e-05
0.0467917
0.000298855
4.20814e-05
0.00622406
0.000256863
0.411676
0.0447036
0.00206581
0.00827191
0.00401404
0.000512388
0.00771089
0.000159418
4.24889e-05
1.03053
0.0012824
0.255121
0.00037753
2.07988e-05
1.98662e-05
1.79983e-05
0.000132512
0.00458491
0.00625328
0.060662
7.81417e-05
2.37371e-05
0.000504013
0.00594198
0.315427
0.0186164
0.174387
2.07962
0.102796
0.000198442
9.96287e-05
2.98648e-05
6.66864e-05
0.0348041
8.84352e-05
0.156212
0.00337619
0.00224559
9.29787e-05
0.00111703
0.000164963
0.000105588
0.014374
6.64243e-05
0.0453481
0.000121887
0.00102554
0.000106955
0.00522254
0.0883913
0.0313948
6.36631e-05
0.000194316
0.0734421
0.226185
4.50153e-05
3.7763e-05
4.61909e-05
2.03273e-05
1.50659e-05
0.00113804
0.000213187
4.41904e-05
0.128815
0.01825
0.00126621
0.125112
0.555214
0.0013921
0.071335
0.000173612
4.93958e-05
3.07325e-05
2.2548e-05
0.0063952
3.68146e-05
0.0111487
0.0200367
0.00081688
0.00014297
0.00110744
0.0118784
0.00020331
0.00197616
0.000850091
0.000473412
8.28161e-05
0.0108258
0.000199938
0.000201583
9.86189e-05
0.000694311
0.00151297
0.509612
0.700793
6.00872e-05
0.208471
2.05057e-05
0.000508667
0.0145108
0.00445854
0.0381986
0.00435737
0.000307835
0.00387405
0.000961502
0.851562
0.000590864
0.0846803
0.00714816
0.0132794
0.00314916
0.988686
0.0051884
0.0539314
0.000161314
0.00805546
0.197315
0.00466537
0.00172879
0.0170578
1.45567e-05
2.85196e-05
2.30142e-05
0.00208465
0.0130035
0.00174291
0.00472834
0.000429126
0.000389632
0.000491858
3.71415e-05
2.28285e-05
0.00350831
0.25175
6.33482e-05
1.81306e-05
2.11899e-05
0.00590763
2.05597e-05
0.000446251
3.17574e-05
0.00743358
0.0183508
0.000922831
4.75078e-05
0.0849354
0.000945185
0.00111224
0.000518139
7.61634e-05
9.56127e-05
0.000423165
0.0135747
0.000322337
0.00148132
2.86221e-05
0.000699126
5.91124e-05
0.0044034
0.000190558
5.82373e-05
4.84878e-05
0.000994208
0.00974569
0.0125648
3.03199e-05
0.00294285
0.208705
0.00735593
6.07144e-05
0.000126289
5.313e-05
0.0138048
0.0146311
0.00258902
0.0105741
0.0502884
0.0199582
3.21877e-05
1.88122e-05
0.000124143
0.098214
0.000230616
0.0290344
0.0336021
0.0541594
0.000274151
0.000199273
4.22932e-05
0.0016004
0.000350843
0.000605033
0.174886
0.00110125
0.00564232
0.0410787
1.24402
0.00369137
0.000212395
0.0864068
0.0170783
0.0019042
6.21255e-05
1.99957e-05
0.0175673
1.75207e-05
3.45377e-05
0.0228593
0.0705031
0.00190153
2.43345e-05
5.50272e-05
1.89285e-05
0.0104953
6.04426e-05
0.0010073
0.00032747
0.0137444
0.0103996
0.000130026
0.0210841
7.29308e-05
0.0195626
1.7762e-05
0.000131785
0.65056
9.49354e-05
2.35005
1.24113
0.000281999
1.95769e-05
2.73386e-05
0.00681078
5.83054e-05
0.00488841
3.54313e-05
0.437594
2.49264e-05
0.746079
0.0016895
0.200826
0.00271012
8.30831e-05
0.00608321
0.00118249
0.001454
0.0128017
0.00368185
0.00367873
1.90493
0.000646419
0.231385
2.48057e-05
0.000828064
0.00253134
0.046833
2.21666
2.25229e-05
0.034144
0.0439818
2.15388e-05
0.0056534
5.60493
0.000236808
0.00360793
2.37695e-05
0.0469332
0.0198201
0.0132473
0.0727457
0.0013953
0.0038821
0.0114297
7.076e-05
0.0118614
0.0115523
0.00165218
0.0187135
4.03786e-05
0.0240329
0.00561671
0.00335626
0.000277
0.000134788
2.95132e-05
0.00713092
3.14821e-05
0.000361205
3.4588e-05
0.000619524
7.43133e-05
0.0161861
0.00110797
0.00919519
0.0030653
0.00581857
0.00472743
0.609516
2.62124e-05
9.26843e-05
0.00010153
0.0024318
0.00177159
0.118054
1.88073e-05
0.00610082
2.71567e-05
2.91603e-05
0.0087253
1.84767e-05
0.000112256
9.74957e-05
3.25607e-05
2.29283e-05
0.0387468
3.61847e-05
1.99954e-05
0.00156013
0.000614367
5.08561e-05
2.58425e-05
0.00324853
0.00123945
4.40623e-05
0.0157196
0.000971971
3.86176e-05
0.000834496
7.62088e-05
2.20711e-05
2.96138e-05
2.29675e-05
0.00199573
3.57116e-05
2.06784e-05
0.00949188
4.13429e-05
0.0261716
2.307e-05
0.0142236
3.9572e-05
6.66111e-05
3.60216e-05
0.000673877
0.00028766
0.00121855
0.00126012
0.000173496
0.0015974
0.018323
0.00228144
0.000588218
0.00481337
0.0147601
0.000149914
0.0238473
0.000114599
0.00413218
1.81783e-05
0.0270182
7.73401e-05
2.2871e-05
0.000136092
0.000174896
0.00561175
0.0665511
0.000165638
0.360133
0.402004
0.0921906
0.49694
0.146517
1.80483
0.000235396
0.000584726
0.000522872
0.0167032
0.00139887
0.652123
3.94823e-05
0.000165975
0.00332053
0.0339962
0.000628543
0.00855141
0.00610113
0.000371379
0.000253965
0.00299748
3.49174e-05
0.000210271
0.342983
1.99672e-05
0.0456892
0.374617
0.00617941
0.00154225
2.26089e-05
0.000345161
0.000600213
0.0170328
4.77785e-05
0.0144255
0.00243072
0.193117
1.36992
0.000392784
0.000324869
2.87121e-05
0.0150835
4.12535e-05
0.00156702
7.7776e-05
0.00322909
0.440777
0.000109362
2.60786e-05
0.00707986
0.000380001
0.000290823
0.004242
0.000184935
0.00697955
0.00379052
2.61346e-05
0.00177989
0.0244462
1.7982
0.0021915
5.04558e-05
0.000170148
0.0232781
0.263463
0.00978086
0.000698162
0.000155123
0.00142304
0.0263762
0.000763204
0.0796457
0.00154677
0.00133368
0.0223709
0.000146767
3.14414e-05
2.55279e-05
0.000191926
0.0087243
0.00192004
0.000405468
4.75475e-05
0.00966732
0.0262386
6.16875e-05
0.124939
0.727411
0.00978791
0.909225
0.0263988
0.000124039
0.00317424
0.983302
0.154462
0.00221526
0.0114968
3.51572e-05
0.968741
0.00186449
5.27417e-05
3.23557e-05
0.00178917
0.000123126
0.0167713
0.00882234
0.00259568
0.000391866
0.000890775
0.0257267
0.0102744
3.10947e-05
0.00974231
0.00188121
3.18669e-05
1.89629e-05
0.000851749
0.0159108
0.000816763
1.98195e-05
2.61776e-05
2.19629
6.42952e-05
0.000100309
7.90348e-05
0.00724165
2.88872
2.38336e-05
1.8076
0.0001548
2.59372e-05
0.338295
0.00211084
2.49607
0.931542
0.00344862
0.0066707
1.47486
0.0457004
1.23759
0.00615744
0.00173307
3.65997e-05
2.65831e-05
0.000525285
0.0832578
2.10876e-05
0.0129459
3.47165e-05
3.48422e-05
0.00979829
9.53242e-05
0.000984694
5.38265e-05
0.00610564
4.09937
0.000786801
0.0108823
0.00922116
0.00145003
0.0343954
0.00120701
0.00361092
0.0376901
0.00546984
8.14622e-05
0.0387971
7.09256e-05
0.00337697
9.26228e-05
0.000267226
0.000728016
0.000803458
2.57026e-05
2.76537e-05
0.000529058
0.000175314
5.24636e-05
4.51715e-05
2.29704e-05
0.000508697
1.48626
0.00510216
2.08805e-05
0.00109938
0.523127
9.43843e-05
0.338025
0.0226908
5.49454e-05
0.000125077
0.000345959
3.42614e-05
1.89796
0.000203382
0.00328468
0.000493475
0.0219111
0.000357426
5.86574e-05
8.67206e-05
0.70569
2.11533e-05
1.04257
0.0288434
0.0223602
0.0149443
2.78145e-05
0.000132572
0.000897983
0.263755
0.00756547
0.0431885
0.00967315
2.56778e-05
3.74577e-05
2.39848e-05
0.00119493
0.000478805
0.00758696
4.60528e-05
0.00777025
0.000191502
0.000957544
0.000361032
0.000686883
0.000829382
0.000365768
2.70384e-05
3.28259e-05
0.000652857
0.000200804
0.000246347
0.000495654
0.00257084
0.000481308
0.000124979
0.000719317
0.00169674
0.00417793
0.0130357
0.00680604
0.0010427
0.00806935
1.89849
0.000173684
0.000164373
1.43919
2.91707e-05
0.00610512
2.62202e-05
0.000174387
1.95364e-05
2.40403e-05
9.36306e-05
0.00156913
4.05012
0.00149618
0.000885121
0.00072794
0.00112239
0.0196283
3.30842e-05
0.116634
0.00267843
0.0604395
0.963722
0.000292442
0.000302557
0.000237874
0.000635687
0.0428801
0.000136898
3.03528e-05
0.0171493
1.02162e-05
1.4061
0.0466834
0.00230661
1.86083e-05
0.00619512
0.00339414
5.08217
0.000472454
0.000159189
0.0259745
2.7626
0.000404663
5.94258
0.00961673
0.0146318
0.0220433
0.0134658
0.000409149
4.20941
0.057445
0.000494953
0.00846715
0.0053898
0.0300027
1.20216
0.0109863
7.70392e-05
7.36989e-05
0.0568351
0.0188741
2.10226e-05
0.000167236
0.0207087
0.011297
1.95911e-05
0.000208017
0.000594908
0.89304
7.69916e-05
0.018473
9.68096e-05
0.000712221
0.00013366
3.52514e-05
2.77868e-05
3.37429e-05
0.000291999
0.0129647
0.000335781
0.000923181
1.19554
0.000411263
5.42649e-05
0.00249543
0.0633169
0.000352378
0.0225156
0.00193627
0.0234809
0.00390508
7.82732e-05
0.000368193
0.000256719
3.46776e-05
0.00019981
0.000510208
0.000424378
0.00314541
0.0213094
9.49087e-05
2.0371e-05
0.204427
0.471959
3.29223e-05
0.00592505
0.748525
0.30186
0.00177684
0.435191
3.87616e-05
0.00766999
0.000429777
1.35193
0.00178948
0.000622474
9.46781e-05
8.34619e-05
0.000349371
3.62471e-05
0.00060642
0.000193809
0.16239
0.000765706
0.000885393
0.00107198
2.30465e-05
0.0136105
0.000190237
0.000340487
0.000153766
0.000498829
5.81118e-05
2.23503e-05
0.241671
0.0160724
0.918361
0.0219304
5.12268e-05
0.264887
0.0114364
4.63457e-05
1.99451e-05
0.00116489
0.00133337
0.000482051
0.00328484
0.00388244
0.00942167
1.17937
3.31996e-05
2.39739e-05
0.00671594
0.29461
1.1618
7.11174e-05
1.45168
1.36037
0.114514
1.29608
3.76772e-05
1.93813
0.00016794
5.47954e-05
1.33403
0.0096558
0.00792458
0.059125
0.0487159
2.68616
0.698617
0.000129841
0.00108187
0.000138739
0.000191597
0.047247
0.000109843
0.216731
4.35693e-05
0.000247772
0.000267915
3.25817
4.82298
5.81009e-05
3.33955e-05
0.000248412
2.57592e-05
0.421592
3.11954
0.000789969
0.000420246
2.02425e-05
0.00716371
8.08459e-05
0.000557185
2.63025e-05
3.87069e-05
0.000498405
2.45802e-05
0.003057
2.17881e-05
0.000428185
2.96691e-05
0.0027612
0.000794347
0.127058
2.17655e-05
0.00154115
2.15826e-05
0.00350702
0.00282159
0.00261532
0.000333488
0.0166682
0.130195
0.25391
0.00467288
0.00171065
0.102913
0.00884644
0.00554453
0.019888
0.00222494
0.419263
0.526914
0.000604646
0.0162093
0.00220764
0.349237
0.0141178
1.10055
0.000101135
0.00098542
0.0190178
0.00287527
0.00538884
3.98209e-05
5.41302e-05
0.00104829
5.12298e-05
0.00040858
0.017928
0.00342098
0.000813201
0.00144989
0.0012377
4.09419e-05
0.0274842
0.0359956
1.6719e-05
2.16093e-05
0.000222939
0.0093228
0.0021219
0.000524978
4.29255e-05
2.5914e-05
4.93955e-05
2.81428e-05
0.0756018
3.54214e-05
6.45124e-05
6.58868e-05
0.00194989
0.00665827
0.00321814
0.0103628
0.00379816
2.52274e-05
8.55935e-05
2.25564e-05
6.27262e-05
0.00031456
0.238369
7.01701e-05
3.03325e-05
0.00147289
1.9557e-05
3.59694e-05
0.222873
0.246632
2.18591e-05
2.07655e-05
0.000120588
0.0407373
2.15694
0.00274874
0.0100751
9.13417e-05
0.0114553
0.000649561
4.83385e-05
1.93867e-05
0.0178823
0.000986826
0.000181888
2.04391e-05
3.42176e-05
0.000146608
1.59481
0.0053794
2.30321e-05
2.66632e-05
10.2766
1.98379e-05
0.000411573
2.02164e-05
0.000246541
4.58943e-05
0.000451254
5.31532e-05
0.00013042
29.7009
0.000750013
0.0087461
0.00033056
3.0447e-05
0.0724718
0.286727
0.000162944
3.17158e-05
21.2668
0.0121053
0.000635205
0.000138767
0.00162002
2.03707e-05
6.09974e-05
1.51324e-05
2.87507e-05
0.0789846
4.18424e-05
0.00133584
2.48741
1.44064e-05
3.83735e-05
0.00151341
8.06014
2.36191e-05
1.37069
2.64233e-05
1.42965
0.00138408
0.000777241
0.000100757
0.00885996
0.00363722
7.0319e-05
0.00160664
0.000163993
3.50293e-05
0.000124907
0.000206402
2.09082e-05
0.000945327
0.000867833
2.35705e-05
0.000588534
0.0129558
0.000483205
4.52666e-05
2.21991
0.00019031
0.00238801
0.00331803
2.98212e-05
4.78947e-05
0.000250782
0.0025237
0.559039
0.000469321
0.000213862
0.045692
0.0351321
2.64427e-05
0.000519972
1.31984e-05
0.000128106
3.19645e-05
0.000671727
1.69088e-05
0.00105229
5.47665e-05
6.92932
0.000657322
0.000158491
0.00184193
3.04145e-05
0.000226102
8.10934e-05
0.172959
1.27029
0.000256423
0.000163164
0.00061032
0.000209179
4.85949e-05
0.00287445
0.214055
4.56209e-05
1.41299
3.69526e-05
4.76871e-05
0.00110096
9.03568e-05
0.00395665
0.184225
0.00324523
0.0237271
0.000290702
0.0183872
0.0014844
0.000144676
0.023423
0.000721107
1.96932e-05
1.31341
0.00430035
8.42434e-05
0.00106191
3.06153e-05
3.97417e-05
0.00505873
2.2981e-05
0.000185752
0.000504398
0.0145281
2.00195e-05
4.45419e-05
0.634117
0.00505785
0.573411
0.0990862
0.00297597
0.00458641
0.0272839
0.00288419
0.00166205
0.00150128
0.0628191
0.00373578
2.87618e-05
0.000186313
2.30775e-05
0.00296404
0.00271842
0.00369207
4.85752
0.000173785
0.0266692
0.306996
3.58082e-05
3.26138e-05
0.00527299
0.0215353
1.22759
2.28434e-05
0.000139814
0.00197986
2.06121e-05
0.00873248
9.72518
0.0015883
0.000308713
10.6759
0.000358948
0.000248218
4.027e-05
2.53965e-05
0.116318
0.0154456
0.00239507
0.00699751
2.95099e-05
0.000269649
0.00024138
0.407743
1.97837e-05
1.97413e-05
1.28704
0.000165039
4.10319e-05
6.05031e-05
2.25688
0.000755152
0.639217
3.72989e-05
5.71486e-05
0.0222596
0.0504136
0.00638565
0.00198755
0.0017299
4.04243e-05
2.14627e-05
0.582638
0.612992
1.05434
7.34329e-05
0.860952
1.47803
4.40673e-05
0.000113918
7.3343e-05
0.0121106
0.00230785
0.000154384
0.0072656
4.62634e-05
0.66903
0.547335
0.216878
0.0783126
0.000105688
0.00958125
0.00104433
0.0076097
1.71416
3.35989e-05
3.38497e-05
0.000983355
0.0146162
3.43634e-05
0.0145783
0.00978952
0.011076
7.21571e-05
0.00210022
0.00387219
2.17346e-05
0.0215801
0.000660999
0.0195833
0.00203507
0.326234
0.00179698
0.000177213
7.56065e-05
0.00102716
0.216034
0.000222268
0.000882499
0.019641
0.0590514
0.0145625
0.147651
2.75907e-05
0.000144669
0.000219022
0.030792
0.00046164
0.00555178
1.95743e-05
0.0145278
0.000249756
0.119351
0.000409241
0.00015367
2.31898e-05
0.392199
0.162329
9.30469e-05
0.0756064
2.12556e-05
9.06729e-05
0.00198378
0.00379327
0.000897453
0.000576192
3.08497e-05
0.0318791
0.00550768
0.000384079
0.325467
0.606566
0.00464677
0.000409309
0.00165931
0.00149613
0.00467362
0.000414442
0.0745772
0.00080288
5.59897e-05
0.00247976
0.000856854
0.000289777
0.000143587
3.57689e-05
0.00526308
6.39524e-05
1.53222e-05
2.01371e-05
0.00575806
0.000186801
0.00449571
0.005154
0.0137265
5.75457e-05
0.00030037
0.0040287
0.0892819
0.000301455
1.84878e-05
0.0014856
1.9159e-05
2.65967e-05
0.00749475
1.78467e-05
2.14929e-05
2.01397e-05
0.000308854
1.90532e-05
2.44888e-05
2.76583e-05
0.00350208
0.0160975
0.00528318
0.325747
0.0102401
0.000161553
2.39068e-05
2.40674e-05
0.918451
0.0502424
0.0035834
1.94247e-05
1.96953e-05
0.00156015
3.20283e-05
0.188019
0.00702092
0.00253669
0.296228
1.66288e-05
0.000371567
6.48074e-05
0.336124
0.0132114
0.400901
0.000373265
0.252569
0.00670035
0.00713604
0.000111597
0.431523
0.00624615
0.0234894
0.00716726
0.00716958
0.00846216
6.90126e-05
0.108939
5.61632e-05
0.82685
1.97435
2.20766
0.00231286
0.216544
0.0211146
0.00556619
6.29348e-05
0.557763
2.9882
2.66512e-05
0.00574726
6.03491e-05
0.000249163
0.000150994
2.90432
0.175064
0.000246337
0.00111193
0.0140398
0.645529
0.000962067
2.44601e-05
0.145799
0.0490809
0.000570638
0.816414
0.281709
0.00447773
8.01887e-05
0.0171564
0.00270589
3.76713e-05
0.000902366
6.28411e-05
6.34735e-05
0.000997874
0.000128444
0.000644804
0.000211727
0.00014062
0.0332471
0.00680841
1.93668
0.604845
9.12933e-05
0.000569883
0.00878848
0.000980862
0.000189039
0.00732223
0.00146546
0.412014
0.004988
0.0191082
0.00194253
0.00616635
3.1373e-05
0.00383385
4.51416e-05
0.187267
0.0303479
0.0138657
0.155572
0.00140812
0.00268457
0.000244819
0.00566425
2.5419e-05
0.00064037
0.00511737
0.00845446
0.000680484
0.000118637
0.000453026
8.31009e-05
0.00082091
0.0147073
7.11191e-05
0.0074659
0.0127397
0.022501
0.000513236
0.656767
0.00774729
0.000169652
0.000236575
0.000116191
2.25782e-05
0.00918877
0.0113727
0.00148274
0.00113533
0.00136854
0.000361081
8.92285e-05
0.0193893
0.000194084
0.000362461
0.00644515
0.00143873
1.53761
0.00591234
0.00634429
2.27102e-05
1.45039
0.232509
6.64028e-05
0.00228687
1.50568e-05
0.000200121
0.00733853
3.3421e-05
0.00620177
2.01654e-05
0.0652211
0.00133795
0.00048556
8.48109e-05
0.000701077
0.00184738
6.58572e-05
0.00104489
0.000238447
0.000128927
2.70815e-05
1.90191e-05
0.0303008
0.000482797
9.98103e-05
0.00151275
0.332926
3.09721e-05
4.54911e-05
8.56536e-05
6.40359e-05
0.0280092
0.000952706
0.007782
0.00229782
7.03457e-05
0.0259329
0.749337
0.00101594
0.0001985
0.209209
0.000867524
0.0167045
0.00123015
2.5251e-05
0.00130775
0.000553895
0.856769
0.00081359
7.04135e-05
6.88229e-05
0.000103371
6.29004
0.0392789
0.159251
0.000824913
0.00289171
0.0713834
0.000120465
2.45651e-05
4.00643
0.0221825
2.04618
8.31986e-05
0.00093042
1.22479
0.0773704
0.00274438
0.000210724
0.0013209
0.0197106
1.95274e-05
0.00447773
0.00284525
0.00238635
0.000459618
0.00485381
0.000111021
0.474798
1.09545
0.00383985
0.0120021
2.03842e-05
0.000315429
0.195026
0.0174712
8.45256e-05
0.00070954
0.000166332
1.14842
0.002203
0.319686
0.000213555
5.04798e-05
5.92778e-05
0.0305927
0.478867
2.30692e-05
2.13398e-05
1.93227e-05
0.00600984
0.000178009
0.00118574
0.092661
0.00260548
0.0011365
0.0205041
0.486739
0.00214049
1.9632e-05
0.0103605
0.000246521
4.51208e-05
0.021114
2.62521e-05
0.0225712
5.80193e-05
0.0010283
0.000435041
0.0195859
0.00163574
2.3243e-05
0.00749007
0.000135706
2.18023e-05
0.00131575
0.000109126
4.22226e-05
0.00163397
0.000202435
8.77484e-05
0.00491982
0.000895776
0.000102874
3.66079
0.00350372
0.00175324
0.0747724
0.500761
0.000118511
0.00111267
2.63495e-05
0.0014809
0.00128296
0.00379514
0.0102811
0.266629
0.00558643
0.000234744
3.50518e-05
0.0150323
0.000262361
0.00126773
9.81167e-05
5.89468e-05
0.00177841
1.18388
0.00251977
4.18389e-05
2.3586e-05
1.10655e-05
3.83386e-05
0.00248708
1.41957
0.00183164
6.38923
3.05942e-05
2.94322
0.00154055
0.910757
0.0198214
0.00696225
4.84889
0.137263
0.000662458
0.0121527
2.1908e-05
0.00910329
0.000535828
0.00707671
0.000975181
0.0207664
0.148176
0.00160317
0.0090448
8.40781e-05
0.445925
0.000244555
1.99832e-05
1.82297e-05
0.0057486
3.03382e-05
2.7828e-05
0.102123
0.0231026
0.000352941
0.000240139
6.56114e-05
2.33667e-05
0.000468757
0.000307861
2.81237e-05
2.07462e-05
9.94343e-05
0.000137823
0.00665913
2.3091
5.54877e-05
0.106079
0.128965
0.00872517
0.00941367
1.17562
0.000424809
0.0685118
0.00132876
0.0154481
0.0170602
0.000339558
4.15641e-05
0.000459405
0.0382821
3.06854e-05
0.0831526
0.000799412
0.00236133
2.26249e-05
2.45264e-05
0.000611592
0.00906766
0.000215345
0.0013436
0.000180677
0.00208964
0.00101533
7.34989e-05
0.000635651
0.194499
0.0387539
0.0473842
0.00518777
0.409186
0.000916761
0.0149813
0.0132526
0.0608328
6.89842e-05
0.00778531
6.18305e-05
0.263807
0.00898598
0.0332753
0.0109807
0.00655799
0.000523282
0.0646471
0.00012199
0.000116752
0.00179233
0.122211
3.16877e-05
0.130178
0.00133175
0.00278205
2.75424e-05
3.36157e-05
0.00155711
0.000811904
0.001746
0.017422
2.10043e-05
0.0620207
0.00228938
0.000271868
0.000471085
0.00123924
0.00246751
0.00134048
0.027525
0.00111104
0.00696787
0.00755816
0.000566778
0.000306131
0.00142251
0.00348441
0.000105086
2.88597
6.57476e-05
0.00165621
3.33641e-05
0.00202799
0.000112529
0.0140437
0.00600941
0.0246248
3.61661e-05
2.34954e-05
0.000225834
0.0996228
0.00524867
0.388604
0.00408773
0.0377327
0.253255
0.000229219
0.134686
9.50999e-05
3.43558e-05
4.4392e-05
0.000698241
5.13806e-05
0.00398688
0.00597899
0.000447801
0.00162314
0.00335259
0.118708
6.06369e-05
9.96437e-05
0.000118387
0.00103012
0.000479827
0.0185857
8.10879e-05
0.00182633
0.387128
0.033142
2.03001e-05
0.0705549
1.94427e-05
0.000224275
0.000281749
0.000633644
0.00862536
0.0182141
0.00793784
0.000785432
0.00509275
8.49617e-05
0.00126097
0.00320567
1.98287e-05
0.005399
0.00212634
7.88779e-05
2.27629e-05
0.000170234
0.152035
0.00144781
0.202049
0.00038297
0.00200769
0.00876018
6.42862e-05
0.00227343
0.000559376
2.23168e-05
2.93221e-05
0.0516754
0.000792617
0.000528742
0.000108168
2.20137e-05
0.000462915
1.82116e-05
1.95946e-05
2.51327e-05
5.73251e-05
2.09698e-05
6.67967e-05
0.00450774
0.00157866
2.46797e-05
0.0150395
0.00131065
2.07092e-05
0.00020453
0.000984304
0.0667654
0.0224043
0.507706
0.00292309
0.000424859
0.180635
0.0055276
0.0155917
0.00607304
0.0235375
0.000114104
1.90749e-05
0.195675
7.14621e-05
0.000767153
0.000293112
1.84391e-05
0.0460493
2.00841e-05
3.77179e-05
1.44903e-05
0.00193083
2.14114e-05
2.09773e-05
0.00019723
0.00779551
4.7545e-05
8.73307e-05
0.000442801
0.632823
0.00611223
0.100168
0.212312
7.53201e-05
0.0677097
3.6417e-05
0.00301431
0.0174949
6.31298e-05
0.000168936
0.00232833
0.638962
2.28944
3.43796e-05
0.0023077
0.778484
0.00229166
0.00289166
0.00836097
0.0103781
0.0138785
0.00198077
0.312846
0.00158439
2.01677e-05
0.000133969
2.28605e-05
0.000376043
0.758965
0.00141284
0.00184515
1.42534
1.98101e-05
0.00049195
5.1268e-05
0.00115353
5.26097e-05
0.00242115
0.00480209
0.00163114
0.00894583
0.562157
3.60207e-05
5.3812e-05
0.0872746
0.0049172
0.000540655
0.0066157
0.000813701
0.000135985
6.65001e-05
3.10738e-05
4.56906e-05
0.0339804
0.405027
0.000146231
0.00181636
0.00354647
0.0332307
4.50272e-05
0.0115709
0.0142071
0.00727035
0.00032864
0.010852
0.000464986
0.00665707
2.78077e-05
0.000498375
6.07296e-05
0.00690636
5.48812e-05
0.000333989
0.00191323
0.00123804