/*--------------------------------*- C++ -*----------------------------------*\
| =========                 |                                                 |
| \\      /  F ield         | OpenFOAM: The Open Source CFD Toolbox           |
|  \\    /   O peration     | Version:  v2012                                 |
|   \\  /    A nd           | Website:  www.openfoam.com                      |
|    \\/     M anipulation  |                                                 |
\*---------------------------------------------------------------------------*/
FoamFile
{
    version     2.0;
    format      ascii;
    class       volScalarField;
    location    "1.3940496";
    object      k;
}
// * * * * * * * * * * * * * * * * * * * * * * * * * * * * * * * * * * * * * //

dimensions      [0 2 -2 0 0 0 0];


internalField   nonuniform List<scalar> 
83563
(
8.54714e-05
0.000105521
0.000203196
0.0001971
0.00452343
0.000309299
0.00615374
0.00863947
0.00134113
0.0255537
0.000565037
0.0135197
0.151785
6.22002e-05
0.00682319
0.127387
8.2217e-05
6.21289e-05
0.0153811
6.20345e-05
6.11643e-05
6.15365e-05
0.0113279
0.0179386
7.64766e-05
0.000534924
0.000148529
0.0298878
0.000511066
0.000146559
0.000602641
0.000113296
0.00352528
7.74318e-05
6.98995e-05
0.00113663
0.000130093
0.000262779
0.00021971
0.00324234
0.00014957
0.00110331
0.000339088
0.00105339
0.00278171
0.00832729
0.0858753
0.00373559
0.0001332
0.122906
0.142396
0.001383
0.0756136
0.121649
0.00129499
0.096011
0.00021712
0.099151
0.125204
0.0031063
0.131795
0.0260535
0.000153389
0.000208372
0.224192
0.232071
0.163001
0.000959248
0.0025207
0.137042
0.00134602
0.310326
0.000157053
0.27348
0.000184512
0.399545
0.196195
0.000117415
0.00015921
0.132004
7.57114e-05
0.000917645
0.00097854
0.120237
0.00135962
8.55849e-05
9.25095e-05
0.0421152
9.81298e-05
0.000213489
0.00442465
0.000125878
0.0136221
0.00504746
0.0393518
0.00750928
0.0677452
0.0139808
8.3598e-05
0.00350089
0.00162986
0.000117232
0.00140279
0.000131513
0.000802499
0.000687454
0.00085423
7.26341e-05
0.0335876
6.59528e-05
0.0063269
0.00187773
0.0407293
0.0021609
9.72047e-05
0.000195842
0.0739507
0.0111452
0.00053622
0.00016223
0.00222436
0.00187161
0.00315882
0.0498783
0.00579945
0.000378815
0.0582906
0.00296625
0.00541003
0.000144379
0.171778
0.130211
0.00213585
0.0744753
0.000809329
6.35864e-05
0.00293287
0.000126752
0.000652579
0.139803
0.0070677
0.0648732
0.000139621
0.00444193
0.404701
0.135267
0.0016019
0.000105501
0.00144339
0.000147352
0.0616534
7.97947e-05
0.00020398
0.00330113
7.78805e-05
9.5435e-05
9.02606e-05
8.15064e-05
0.000329753
0.00560636
0.00347502
7.80942e-05
0.000180693
0.000333492
0.00734496
0.01833
0.000109997
0.118394
0.000146476
0.00741939
0.000197226
0.000354673
0.471559
0.0790378
0.46527
0.000131841
0.000477864
0.00148192
0.00149487
9.1684e-05
0.0013313
0.000108397
0.00353564
0.0291377
0.0144513
0.0314908
0.0106144
0.00355035
0.00231299
0.000110403
7.73444e-05
0.0188477
0.051975
0.0179484
0.00739119
0.0471617
0.00101699
0.0074439
6.15469e-05
0.00292356
0.00262141
0.000773674
0.00727957
8.62022e-05
0.01056
0.0111934
0.00069685
0.13238
6.36218e-05
0.00107419
0.00411746
0.0254403
0.00011104
0.00016959
0.0021312
0.00410603
0.00207404
0.000158893
0.00036307
0.000443633
0.000173019
8.87048e-05
0.00148564
0.00117856
0.0084826
0.00015927
0.0214873
6.94058e-05
0.000467777
0.00884163
8.06321e-05
0.000641944
8.64513e-05
0.000578828
0.399976
6.39544e-05
0.00375324
0.000539088
0.000414848
0.000105878
0.00455773
0.00137905
0.000139028
0.000157103
0.0019711
8.36931e-05
0.00706422
0.00018527
0.105957
0.000387304
0.00243646
0.000149288
0.000317396
0.0237319
0.000534791
0.000516974
7.19583e-05
0.00778876
0.000252211
0.000415387
0.000344251
0.00103848
0.0235777
0.00407593
0.000257808
0.00157563
0.00312583
0.00142392
0.000159721
9.96082e-05
0.00163927
0.00338276
0.0190647
0.000604717
0.00272257
0.000525554
0.00811468
0.00598546
0.000113453
0.000193123
0.00882219
0.000214848
7.96731e-05
0.00658864
0.0154632
8.30627e-05
0.169844
0.000307728
0.000223323
0.000149185
0.0261434
0.000206703
0.00904515
0.000220064
0.000162344
0.00132101
0.00155974
0.00609831
0.000165627
0.000115746
0.000104163
0.000836989
0.00123543
7.58641e-05
6.66561e-05
0.00592224
0.00805228
0.378252
0.00364003
0.0254334
0.00131408
0.00288757
0.136747
0.0204036
0.00537143
0.00175259
0.179183
0.00174755
0.00013635
0.000141299
0.0202264
0.00197135
8.4611e-05
0.000278028
0.00014954
9.1859e-05
0.0133991
0.177235
0.00168001
0.079928
0.0018248
0.000155982
0.00011913
0.151549
9.05377e-05
8.30025e-05
0.000699777
0.225267
0.00458867
0.000100976
0.377008
0.134106
0.000238745
7.4063e-05
0.00118158
0.00140556
0.00525223
0.000278258
0.00753156
7.15364e-05
7.21975e-05
0.00496427
0.000157817
0.0576811
0.055378
6.12264e-05
0.00543538
0.00235764
0.00108749
0.0261266
0.17576
0.020648
0.0181328
0.126834
0.0223007
0.0188329
0.0212313
0.00516916
0.307032
7.92769e-05
0.000835744
0.00153853
0.0057107
0.0127879
0.0198835
0.00326941
0.0275316
0.0012952
0.000156167
0.000832996
0.000281315
0.00551102
0.000298923
0.00528401
0.0308573
0.0109346
0.00061608
0.000751637
0.0286269
0.00140671
0.00535911
0.000191522
0.000210857
0.0176546
0.00566083
0.00785741
0.00321457
0.00428194
0.000609594
7.80609e-05
0.100143
0.000135433
8.94997e-05
0.507119
0.029923
0.000380865
0.0150767
0.00180365
7.07791e-05
0.00324514
0.271823
0.00401234
0.000245226
0.000186687
0.135868
0.000133096
0.000457351
0.000112369
0.031341
0.00039228
8.98484e-05
0.000193362
0.278118
0.000296493
0.0130949
0.330281
0.00138469
0.00871606
0.0255898
0.00167562
0.00148193
0.0140977
0.00208832
0.000696547
0.0318846
0.00596883
0.293492
7.92075e-05
0.00330473
0.0330903
0.0117671
0.000998512
0.162117
0.000444358
0.0397461
0.00227193
0.000867876
0.075317
0.426184
1.0057
0.0697
0.000130868
0.00136302
0.000214087
0.00477651
0.00894602
0.135777
0.000146996
0.000160314
0.0588393
0.000147192
0.076169
0.000282173
9.13028e-05
0.0002491
0.00040454
0.000185522
0.000739641
0.000478887
0.00169973
0.00211921
0.0019683
0.000138747
0.00442153
0.00210273
0.00732892
0.00122778
0.000879311
0.000967491
0.00218192
0.000968452
0.00010239
0.00121816
0.000368278
0.000187408
0.00292715
0.00188575
0.00521908
0.544547
8.99675e-05
0.0001307
0.000638801
0.000932903
0.0492646
0.0149876
0.000280264
0.000498456
0.000236066
0.000300204
0.000290744
7.52093e-05
0.00166397
0.00269755
7.67443e-05
0.000863984
0.000119754
9.80922e-05
0.00201978
0.00100517
0.00074684
0.000183517
8.95107e-05
6.78396e-05
6.48557e-05
0.000174851
0.000429833
9.83729e-05
0.148065
0.19988
0.000182718
0.000509948
0.00541426
0.00163975
0.00249879
0.00382908
0.000159477
0.00273273
0.183041
0.000144412
0.000111524
0.000443034
7.43336e-05
0.000645636
0.00022316
0.000258729
0.000649786
0.145079
0.0204605
0.00367673
0.126595
0.000699209
0.000299076
0.0762873
0.0055605
0.0288244
0.0272246
0.000344122
0.033199
0.0499651
0.00181296
0.00131359
0.00281986
0.00241249
0.00258321
0.000125614
0.00253718
0.0215238
0.104848
0.0405652
6.65628e-05
0.00307991
0.0685588
0.000672489
0.00442805
0.010098
0.000210505
0.0225831
9.14309e-05
0.000255031
0.00382469
0.163258
0.00220124
0.000206069
0.00108356
0.0348251
0.00431013
0.000118587
0.000203286
0.000514923
0.000197679
0.000189777
0.00510834
0.262491
0.00176015
8.39356e-05
0.000412455
0.000105986
0.000637992
6.29861e-05
0.00456838
6.80881e-05
0.000410133
6.85441e-05
0.00026523
0.000720003
7.2516e-05
0.000107912
0.00011357
6.38567e-05
9.70503e-05
0.000496803
6.70418e-05
8.98113e-05
7.62907e-05
0.000437893
0.000250397
0.0193031
0.000233695
0.00012218
0.000116396
0.000188291
0.000344435
8.66946e-05
0.000410884
0.13784
0.000362321
0.000678112
0.00128024
0.00313534
0.00440547
0.00514752
0.107476
0.000641138
0.000929134
0.000101521
0.00084369
0.00207208
0.000148715
0.000493756
8.85598e-05
0.00221059
0.000598998
0.00041181
0.00303999
9.59007e-05
0.0511698
0.00140036
0.00149439
6.75185e-05
0.000119047
0.000700322
0.00859241
0.0107629
0.0023387
0.000145654
6.99333e-05
8.53927e-05
0.0161396
0.185538
0.000943122
0.000787227
0.00172052
0.00659195
0.00366062
0.0106682
0.00116112
0.0182176
0.000208745
0.00557152
0.00130941
0.000109452
0.103731
0.00814861
0.0173059
0.0720205
6.184e-05
0.00436997
9.94715e-05
0.000117624
0.0110636
0.00990273
0.00162688
0.0107386
0.056412
0.00732885
0.00127862
0.0195781
0.0012494
0.00144407
0.0105904
0.0825853
0.0012596
0.0111289
0.0925266
8.08436e-05
0.00879725
0.322602
0.0928199
0.0232892
0.000185523
0.000531726
0.120966
0.000176402
0.0108789
0.00604646
0.0587542
0.00226505
0.0233333
0.00128652
0.000584335
0.00154484
0.000697921
6.85454e-05
0.00227981
0.0163862
0.00441277
0.000159413
0.000604142
0.00108475
0.00386627
6.59928e-05
0.00298711
6.21336e-05
0.000137574
0.00407409
9.02885e-05
0.000116141
9.18925e-05
0.00315255
0.259312
7.18903e-05
0.0350506
0.000173354
0.00180203
0.000431439
0.00021985
0.304064
0.135746
0.000217814
0.256004
0.000110978
6.93655e-05
8.29847e-05
0.518807
0.227504
0.00478562
7.6072e-05
0.00023324
0.156127
0.000143653
0.000236176
0.00280077
0.000116265
0.00429219
0.000982807
0.000288744
0.00240134
0.0622396
0.089819
0.000178288
0.000278581
0.000371775
6.13982e-05
0.234855
0.00219469
0.00708176
6.07806e-05
0.000181853
0.00981198
0.000669639
0.000326986
0.000138447
0.0014549
0.000117039
0.00200868
0.000338171
6.26759e-05
0.000344457
0.00270254
0.167657
0.000339685
9.14875e-05
0.000111363
0.00220779
0.000124789
0.00121677
0.0002137
0.0172193
0.000120448
0.000532036
0.000947479
0.112162
0.150078
0.204925
0.000111372
0.12846
0.000701354
0.00537711
0.000150596
0.000773021
0.00242266
0.0310353
0.000427471
0.12375
0.00215428
0.00106003
0.0104345
0.00277404
0.000110015
0.000326957
0.0035618
0.000417892
0.00447365
0.000155857
0.000279055
0.000127267
0.00320634
0.0954088
0.0453446
0.00481615
0.000393099
0.000530338
0.0850881
0.0476362
0.0283407
0.0364855
8.33306e-05
0.0180249
0.000260875
8.25354e-05
0.00505095
0.000307608
0.0791961
0.0252637
0.00119346
0.00373247
0.0028639
0.000999394
0.000430778
0.000248533
7.86529e-05
0.280981
0.000998228
0.0871852
0.000453824
6.46097e-05
6.31947e-05
9.65339e-05
0.000227767
0.00235962
0.000458122
0.00327563
0.000165128
6.93193e-05
0.000598072
0.00042264
0.0868265
0.00940199
0.0524235
0.275387
0.0441449
0.000197371
0.00011927
8.50566e-05
0.000140764
0.00204912
0.000190465
0.0499237
0.00232633
0.00142329
0.000139226
0.00085481
0.000220499
0.000133914
0.00620304
0.000185032
0.0173892
0.000259084
0.000831419
0.000133267
0.00280448
0.0196921
0.0135218
0.000167996
0.000305982
0.0320991
0.123923
7.90566e-05
0.000100515
0.000115117
6.41779e-05
8.48314e-05
0.000842415
0.000186595
8.3482e-05
0.0713543
0.0063123
0.000815912
0.0427846
0.100907
0.000972151
0.0191422
0.000190844
0.00011908
7.95807e-05
6.56031e-05
0.00370455
7.41897e-05
0.00570355
0.00739737
0.000628564
0.000140961
0.000910469
0.00522056
0.000211302
0.0012611
0.000700255
0.000442599
0.000170627
0.0058309
0.000231753
0.000261702
0.000115994
0.000619052
0.00101847
0.115208
0.0982843
8.8132e-05
0.0555843
6.45541e-05
0.000806994
0.00664869
0.00238345
0.0121888
0.00333058
0.000334785
0.00230581
0.000766596
0.0877197
0.000574671
0.0462249
0.00435584
0.00588216
0.0020006
0.125939
0.00261983
0.0238351
0.000267956
0.00392716
0.0517826
0.00263968
0.00115565
0.00612128
8.53789e-05
7.91891e-05
6.80673e-05
0.00138041
0.00870305
0.00121487
0.00365901
0.000420176
0.000395451
0.000393673
9.38054e-05
6.96444e-05
0.00232726
0.0549606
0.000103428
5.92214e-05
6.51534e-05
0.00303819
6.47247e-05
0.000482377
7.85948e-05
0.0035428
0.00717992
0.000827726
8.71578e-05
0.0289084
0.000737692
0.00155172
0.000546915
0.000167317
0.000182921
0.00046822
0.00566828
0.000237839
0.0010432
8.01747e-05
0.000666367
0.000132728
0.00217595
0.000285117
0.000117332
0.000128246
0.00088098
0.00464642
0.00570132
9.63582e-05
0.00223616
0.0502299
0.00323672
0.000100626
0.00020307
0.000121659
0.00888104
0.00640902
0.00166775
0.00437014
0.0255475
0.0128435
7.80799e-05
6.07817e-05
0.000207184
0.0337952
0.000295168
0.0121589
0.0121906
0.0184312
0.000363319
0.00028923
0.00010732
0.00111883
0.000273804
0.000568274
0.111163
0.000795765
0.00298837
0.015867
0.426601
0.00279109
0.00028063
0.0269519
0.00686633
0.00179448
0.000115797
6.30297e-05
0.00689864
7.88231e-05
7.29241e-05
0.00769231
0.0284247
0.00115603
0.000113676
0.000171571
6.10443e-05
0.00495545
0.000123595
0.000740037
0.000331451
0.00811071
0.00469701
0.000165269
0.00787867
0.000132892
0.00684147
9.88864e-05
0.000215886
0.149445
0.000180577
0.316024
0.170974
0.000232123
6.57088e-05
7.9616e-05
0.00340947
9.96023e-05
0.00234717
8.04115e-05
0.0981921
7.51755e-05
0.11268
0.00198132
0.0608386
0.00150142
0.00010747
0.0040538
0.000871597
0.001102
0.00717286
0.00186215
0.0022479
0.228628
0.00051248
0.0814879
0.000128719
0.000648535
0.00150248
0.0205594
0.405551
6.88979e-05
0.0153411
0.0260283
6.50272e-05
0.00264078
0.618413
0.000293379
0.00293902
0.00010201
0.0198096
0.00338951
0.0056977
0.0266408
0.00119707
0.00236371
0.00552682
0.00013351
0.00474036
0.00469632
0.0011596
0.00691232
9.9574e-05
0.00766598
0.00238294
0.00183922
0.000263564
0.000297
7.16943e-05
0.00317198
8.64724e-05
0.000284625
9.34122e-05
0.0005972
0.000123861
0.00792664
0.000734922
0.00385793
0.0027265
0.00321578
0.00256273
0.126931
7.52508e-05
0.000180473
0.000119842
0.00204625
0.00111219
0.0316386
6.07934e-05
0.00306216
9.66778e-05
7.33955e-05
0.00429153
9.7323e-05
0.000195795
0.000133319
8.59036e-05
6.65328e-05
0.0152255
0.000110936
0.000103158
0.000975315
0.000537225
8.57958e-05
7.55398e-05
0.00186703
0.000918685
0.00017697
0.00636858
0.000729726
9.18691e-05
0.000705288
0.000150242
7.74372e-05
8.40082e-05
6.61305e-05
0.00153845
7.36519e-05
6.47734e-05
0.00767116
0.00012434
0.00963777
8.15678e-05
0.0121642
0.000108095
0.000132724
9.61109e-05
0.000565987
0.000371867
0.000897052
0.000799074
0.000196467
0.00104142
0.00706706
0.00130902
0.000617943
0.00246492
0.00632243
0.000249418
0.00816771
0.000139197
0.00338168
7.8137e-05
0.0110692
0.000122925
7.26299e-05
0.000166554
0.000200345
0.00262252
0.0221467
0.000272042
0.124976
0.18109
0.0346377
0.136688
0.032476
0.439282
0.000239868
0.000385999
0.00046082
0.00645632
0.000970014
0.150734
0.000137013
0.000164373
0.00221913
0.00981813
0.000578101
0.0043159
0.00312777
0.000392089
0.00032632
0.00182165
7.12943e-05
0.000250265
0.0144759
6.29448e-05
0.00473571
0.0834506
0.00330053
0.00113651
6.67353e-05
0.00038023
0.00054888
0.0072233
8.87592e-05
0.00687747
0.00157026
0.0104892
0.419632
0.000387794
0.000256941
7.99742e-05
0.00851066
0.000127197
0.0010947
0.000105319
0.000269911
0.0476378
0.000195873
7.57793e-05
0.000453533
0.000351086
0.000246601
0.00227453
0.000189678
0.00415472
0.000295732
7.80679e-05
0.000953836
0.0134839
0.519954
0.00127238
8.95725e-05
0.000183959
0.0141997
0.0583857
0.00608314
0.000688078
0.000210749
0.00105339
0.0105609
0.000726272
0.0426333
0.00104939
0.000986753
0.00782631
0.000171845
0.000122778
0.000124131
0.000226386
0.00405506
0.00152355
0.000430639
0.000114936
0.00679776
0.00981098
0.000132657
0.0631432
0.29538
0.00474093
0.214182
0.0110477
0.000155971
0.00169825
0.185789
0.061065
0.00139586
0.00546276
9.25786e-05
0.191642
0.00133336
9.1482e-05
8.50896e-05
0.00104789
0.000158464
0.0102639
0.0039278
0.001576
0.000519025
0.000725718
0.0104034
0.00566952
7.49748e-05
0.00400668
0.00126649
7.92148e-05
7.29515e-05
0.000607538
0.00685462
0.000695809
6.2893e-05
7.65795e-05
0.189864
9.97058e-05
0.000118052
0.000109687
0.00338418
0.447781
6.92653e-05
0.166811
0.000232987
8.17463e-05
0.121246
0.00120424
0.280013
0.231607
0.00201225
0.00229353
0.353167
0.00362419
0.297925
0.00264971
0.00106011
7.88964e-05
6.79861e-05
0.000558874
0.0330184
6.41491e-05
0.00530342
7.2699e-05
9.30247e-05
0.00443761
0.000161264
0.000913577
8.74463e-05
0.00370785
0.686181
0.000657458
0.00571427
0.00496504
0.000997193
0.0109621
0.000925748
0.0020775
0.0142973
0.00252971
0.000170205
0.0383655
0.000147907
0.00178783
0.000152845
0.000316618
0.000530498
0.000667075
7.68057e-05
6.85691e-05
0.000526002
0.000262488
0.000140756
0.000115783
6.68046e-05
0.000520495
0.513009
0.00330785
6.40961e-05
0.000828803
0.112276
0.000203041
0.180552
0.00852857
0.000109522
0.000189735
0.00028796
9.34947e-05
0.339648
0.000276751
0.00174708
0.000561925
0.00837488
0.000343755
9.12686e-05
0.000247591
0.146557
6.66109e-05
0.374109
0.0170375
0.00839749
0.00597991
8.74112e-05
0.000203822
0.000737736
0.0803465
0.00388581
0.0105323
0.0044992
7.94351e-05
8.06991e-05
7.45407e-05
0.000875491
0.000563909
0.00394647
0.000104053
0.00361938
0.000266118
0.000952285
0.000431878
0.000719376
0.000663239
0.000373701
7.73678e-05
0.000103755
0.000737915
0.000219571
0.000367226
0.000461959
0.000221962
0.000596077
0.000139542
0.000626552
0.00101218
0.00227907
0.005786
0.00253251
0.00075013
0.00392014
0.46137
0.000180655
0.000259816
0.205525
8.27145e-05
0.00389947
7.19533e-05
0.000237983
6.59673e-05
6.69394e-05
0.000167579
0.00108007
0.448842
0.00104792
0.000776995
0.000553258
0.000822193
0.00872815
7.9643e-05
0.0447921
0.00151701
0.0130826
0.159482
0.00034637
0.000392126
0.000241492
0.000630654
0.00818165
0.000141484
7.63963e-05
0.00693332
7.85797e-05
0.267015
0.0161696
0.00146505
6.03162e-05
0.00320685
0.00175451
0.518247
0.000348123
0.00021713
0.00920569
0.255785
0.000334156
0.590203
0.00406552
0.00636088
0.0139685
0.00579999
0.000403835
0.478082
0.0199875
0.00059868
0.00390529
0.0045231
0.00859074
0.197524
0.00472322
0.000131041
0.000107201
0.0185844
0.00708799
0.00010079
0.000215725
0.00765918
0.00425247
9.61864e-05
0.00019488
0.000554021
0.169456
0.000107506
0.00514708
0.000175701
0.000606628
0.000151111
9.39439e-05
8.16672e-05
9.13245e-05
0.000348031
0.00571665
0.00043704
0.000890528
0.404496
0.000391554
9.04905e-05
0.0017115
0.0264444
0.00040909
0.0232327
0.00123495
0.00853974
0.00220604
0.00014963
0.000431334
0.000345832
7.32902e-05
0.000322295
0.000398508
0.000466162
0.00176365
0.00834637
0.00012438
6.36569e-05
0.0610118
0.117209
8.08416e-05
0.00291306
0.150618
0.0869552
0.00125252
0.097839
0.000101008
0.00332824
0.000411138
0.166006
0.00110189
0.000704715
0.000160553
0.000172896
0.000583863
9.3598e-05
0.000843586
0.000191682
0.0832041
0.000658072
0.000599868
0.000758137
9.77966e-05
0.00521741
0.000305847
0.000321647
0.000252428
0.000713581
0.000143893
6.65253e-05
0.100453
0.00677023
0.3231
0.00858833
9.63352e-05
0.132179
0.00465589
0.000102053
6.33289e-05
0.000761614
0.000941126
0.00039104
0.00182352
0.00203861
0.00405113
0.169332
8.84564e-05
7.19582e-05
0.00239633
0.172991
0.404417
0.000139555
0.490486
0.412147
0.0447234
0.468876
9.83272e-05
0.598637
0.000252922
0.000126069
0.435107
0.00441726
0.00369462
0.0552573
0.0135012
0.322028
0.160118
0.000230521
0.000825227
0.000162921
0.000200957
0.0123986
0.000188377
0.0981678
8.19465e-05
0.000212311
0.000224554
0.387354
0.496802
9.48088e-05
9.31626e-05
0.000219126
0.000113379
0.121496
0.380346
0.000789903
0.000595344
6.30023e-05
0.00424404
0.000146624
0.000718692
0.000106208
8.87836e-05
0.000562681
9.62949e-05
0.00172365
7.88356e-05
0.000413022
0.000111218
0.00143488
0.000684666
0.0462833
6.73721e-05
0.00113098
0.000110131
0.00203553
0.00219707
0.00160257
0.00029248
0.00694258
0.0526789
0.0731856
0.00261161
0.00134641
0.0366307
0.00426493
0.00303222
0.00876895
0.00150686
0.0933395
0.107574
0.000570423
0.00738588
0.00159801
0.0787758
0.00588538
0.149582
0.000120442
0.000752581
0.0122667
0.00168528
0.00273442
9.49781e-05
0.000179197
0.00079907
0.00019832
0.000434271
0.00815482
0.00188892
0.000661691
0.00096323
0.000948577
0.000127154
0.00920555
0.0102033
9.37335e-05
6.47525e-05
0.000248041
0.00823158
0.00135227
0.000597731
8.86858e-05
7.65626e-05
0.000135605
8.0783e-05
0.0196325
8.48638e-05
0.000145462
9.7697e-05
0.00127354
0.00350199
0.00173085
0.000712245
0.00232668
6.91556e-05
0.000160049
9.50288e-05
9.48126e-05
0.000264424
0.145863
0.000142793
8.46079e-05
0.00107891
7.62935e-05
0.000100986
0.141735
0.0794552
7.19454e-05
6.58442e-05
0.000215241
0.0117131
0.572782
0.00157653
0.00461784
0.000179479
0.00615729
0.000561157
0.000106662
6.20922e-05
0.00817414
0.000718423
0.000178014
6.44163e-05
7.99606e-05
0.000185856
0.230112
0.00427788
6.95835e-05
0.000135048
0.735295
6.30478e-05
0.000497043
6.39238e-05
0.000309144
8.08279e-05
0.000517973
0.000121225
0.00015117
1.7002
0.000732593
0.00547059
0.000428193
8.45866e-05
0.0370522
0.167522
0.000240264
8.74299e-05
1.31557
0.00459008
0.000576786
0.000211971
0.00117603
6.30136e-05
0.000102158
0.000107128
8.24028e-05
0.0252638
0.000102692
0.00101668
0.312499
8.43515e-05
0.000130029
0.0011403
0.737712
7.10448e-05
0.210473
7.71725e-05
0.244136
0.000945087
0.000620015
0.000132762
0.00405163
0.00214458
0.000197549
0.00114916
0.000222781
8.95352e-05
0.000151283
0.000255905
6.55059e-05
0.0007809
0.000751
7.83071e-05
0.000591826
0.00518887
0.000511948
0.00010062
0.309933
0.000236153
0.00162704
0.00351232
8.42561e-05
0.000100173
0.000335023
0.00193651
0.113835
0.000491678
0.00030789
0.0133028
0.0103934
7.03848e-05
0.000572411
7.93375e-05
0.000192846
7.56767e-05
0.000638303
7.76614e-05
0.000857887
0.000128415
0.541566
0.000663308
0.000205595
0.00131198
7.57633e-05
0.000284768
0.000140888
0.0315507
0.384717
0.000320432
0.000226651
0.000612326
0.000208127
9.13482e-05
0.00184122
0.0590648
8.57015e-05
0.19349
9.7633e-05
0.000116225
0.000901003
0.000182699
0.00215874
0.0749707
0.00193828
0.00971588
0.000245588
0.010908
0.00129684
0.000228974
0.0142339
0.000654895
6.26438e-05
0.201676
0.00219221
0.000212059
0.000794719
7.76627e-05
8.71545e-05
0.00263834
6.80183e-05
0.000249466
0.000555828
0.00655886
6.57099e-05
0.000118526
0.131775
0.00289493
0.108215
0.0223103
0.00133737
0.00252123
0.01609
0.0014283
0.00109913
0.00107118
0.0152817
0.00199293
7.30548e-05
0.000277354
9.48778e-05
0.00187059
0.00120187
0.00215604
0.263976
0.000249411
0.00942616
0.108666
9.25733e-05
8.61265e-05
0.00306433
0.00793314
0.19214
6.74707e-05
0.000165033
0.00129117
6.48375e-05
0.00410681
0.472553
0.00109453
0.000411132
0.582025
0.000388876
0.000352404
0.000103681
6.75287e-05
0.0673251
0.00648757
0.00160888
0.0037548
0.000121898
0.000235989
0.0002855
0.190278
6.28847e-05
6.27287e-05
0.166888
0.000240855
0.000146618
0.000123329
0.202656
0.000527359
0.136242
9.58334e-05
8.97363e-05
0.00878427
0.0274316
0.00371895
0.00124778
0.00143269
0.000103558
6.47161e-05
0.119454
0.114083
0.0894274
0.000133839
0.115992
0.111991
0.000108258
0.000141522
0.000126219
0.00498276
0.00143841
0.000181062
0.00372745
0.000186631
0.101436
0.0808293
0.0526839
0.0245198
0.00014176
0.00522465
0.000630556
0.0034287
0.406674
7.17742e-05
8.35514e-05
0.000751601
0.00532054
7.71651e-05
0.00829633
0.00684383
0.00506129
0.000138193
0.00138586
0.00213403
6.79986e-05
0.00797625
0.000666186
0.00811545
0.00130072
0.065625
0.00108677
0.000195393
0.000110835
0.000668334
0.0320537
0.000248606
0.000622734
0.015063
0.0232643
0.0066022
0.0442195
7.40714e-05
0.000244778
0.000210947
0.0101945
0.00041949
0.00320179
6.81235e-05
0.00526453
0.000238419
0.0375478
0.000461882
0.000173136
7.0376e-05
0.108643
0.0328733
0.000117341
0.0144954
6.48341e-05
0.000147767
0.00106419
0.00217006
0.000794553
0.000566577
8.1921e-05
0.0126894
0.0027142
0.000391238
0.128741
0.20835
0.00244586
0.000447685
0.00145482
0.0011491
0.00243589
0.000519472
0.0175811
0.000756633
9.47566e-05
0.00159306
0.000665111
0.000330429
0.000219844
7.53244e-05
0.00278175
9.36056e-05
8.73448e-05
8.62887e-05
0.00313269
0.000190938
0.00252308
0.002573
0.00598873
9.33373e-05
0.000267683
0.00212265
0.0219
0.00028297
8.73816e-05
0.000976168
6.28574e-05
9.17925e-05
0.00334128
8.53548e-05
7.73669e-05
6.37328e-05
0.000343305
6.14562e-05
7.37173e-05
7.954e-05
0.00196981
0.00600889
0.00276987
0.0583905
0.00495967
0.000258142
7.1928e-05
0.000108058
0.130402
0.0052274
0.00209393
6.2169e-05
6.255e-05
0.00115548
7.21804e-05
0.0492991
0.00336697
0.00168987
0.0898105
0.000114452
0.000499524
0.000100288
0.110829
0.00538526
0.0705459
0.000306545
0.0346793
0.00307267
0.00369403
0.000129773
0.0790509
0.00312639
0.00915322
0.00347
0.00401001
0.00372659
0.000139602
0.0331174
9.93645e-05
0.18949
0.32472
0.346684
0.00135767
0.0906341
0.00914263
0.00287862
0.000104281
0.146811
0.420572
7.76132e-05
0.00269114
0.000100748
0.000224291
0.000164141
0.425633
0.079446
0.00030905
0.00089045
0.0108189
0.202664
0.00100883
7.93278e-05
0.0645917
0.0127598
0.00066822
0.331555
0.101282
0.00236239
0.000152098
0.00659206
0.0018745
7.59017e-05
0.000620792
0.000140362
0.000100998
0.00102989
0.000201951
0.000623325
0.000299035
0.000240411
0.0126675
0.000418824
0.243181
0.146629
0.000116755
0.000525969
0.00062686
0.000915243
0.000185541
0.00525192
0.000804857
0.0836951
0.00281054
0.00185234
0.00130064
0.00329562
0.000164005
0.00032094
9.02178e-05
0.0492791
0.00944302
0.00595089
0.0720476
0.00107761
0.0017187
0.000226788
0.00310461
7.52216e-05
0.000353374
0.00269119
0.00563266
0.000634533
0.000200734
0.000470702
0.00010864
0.000727536
0.00710319
0.000107199
0.00328301
0.00559361
0.00839594
0.000523061
0.208664
0.000710793
0.000280476
0.000213827
0.000204318
6.91992e-05
0.00446683
0.00519927
0.0010627
0.000874741
0.000991677
0.000509926
0.000158743
0.00830077
0.000195466
0.000490541
0.00320987
0.000987264
0.367396
0.00293505
0.0035944
6.73753e-05
0.338418
0.0681218
0.000130708
0.00161454
8.74371e-05
0.00034378
0.00365837
7.74093e-05
0.0039031
6.3433e-05
0.0352556
0.000766946
0.0005379
0.000114935
0.000688046
0.00127406
0.00012215
0.000829142
0.000244341
0.000200537
7.85164e-05
6.12648e-05
0.0107376
0.00041247
0.000167614
0.000895335
0.0779784
0.00011356
8.91423e-05
0.000174228
0.000106318
0.0096079
0.000928042
0.00351407
0.001959
0.000152067
0.0129965
0.0794384
0.000874413
0.000286928
0.0628506
0.000615637
0.00970259
0.000901374
7.40631e-05
0.000788326
0.000390526
0.214325
0.000703678
9.97267e-05
9.59628e-05
0.000150359
0.546528
0.0184795
0.0296683
0.000693064
0.00191866
0.0183483
0.000144454
7.25809e-05
0.400272
0.0105245
0.266552
0.000163352
0.000550413
0.156775
0.0174935
0.00163599
0.000327349
0.0010709
0.0107359
6.22434e-05
0.00262589
0.00199465
0.00162396
0.0005442
0.00299473
0.00016866
0.131627
0.23475
0.00252026
0.00663324
6.42536e-05
0.000419516
0.097397
0.0060009
0.000146841
0.000667497
0.000261239
0.159991
0.0015657
0.0603368
0.000305143
0.000105237
0.00011865
0.0118829
0.0517187
6.76331e-05
6.64451e-05
0.000105726
0.00252178
0.000242724
0.000901609
0.0265833
0.00152872
0.000860538
0.00770523
0.110933
0.00140597
6.26079e-05
0.0046293
0.000303743
8.1457e-05
0.00886013
7.7208e-05
0.00858408
8.88085e-05
0.000771743
0.000387539
0.00831178
0.00111329
7.01799e-05
0.00389805
0.000207622
6.73659e-05
0.00093606
0.000172877
9.76137e-05
0.00140018
0.000289608
0.000162064
0.00311221
0.000796379
0.000179519
0.503515
0.00239363
0.00123057
0.0228423
0.0999267
0.000178027
0.000950266
7.25338e-05
0.00120991
0.000841073
0.00261357
0.00425179
0.158465
0.003266
0.000312678
0.000145742
0.00634634
0.000277175
0.000925537
0.000153276
0.000130793
0.00120847
0.221362
0.00150773
0.000102896
7.13808e-05
9.11446e-05
0.000100909
0.00156551
0.252428
0.00118076
0.704904
8.53975e-05
0.419356
0.00123754
0.189319
0.00774855
0.00317031
0.591541
0.065591
0.000588211
0.00647464
6.7426e-05
0.00490765
0.000511508
0.00333867
0.000692034
0.009485
0.108393
0.00103714
0.00410903
0.00010874
0.103072
0.000243205
6.31201e-05
7.57941e-05
0.00279643
8.19264e-05
7.20407e-05
0.0366413
0.0118876
0.000292304
0.00025468
0.000219654
6.79399e-05
0.000511521
0.000293267
8.1145e-05
6.46375e-05
0.000236352
0.000144335
0.0039462
0.612552
0.000100525
0.0307433
0.0229095
0.00457902
0.00445341
0.17963
0.000471263
0.0048835
0.000815682
0.00650017
0.00659839
0.000318055
7.99415e-05
0.000380895
0.0111046
8.35957e-05
0.0440509
0.000584034
0.00137435
6.60758e-05
8.63932e-05
0.000679643
0.00397928
0.000266819
0.00109591
0.000212901
0.00165362
0.00104252
0.000113003
0.000609069
0.0352354
0.0114636
0.0165515
0.00262662
0.165488
0.000974157
0.00616223
0.0059142
0.0162327
0.000129061
0.00360924
0.00013156
0.0481223
0.00432759
0.0094624
0.00533277
0.00275155
0.000660179
0.0262148
0.000242348
0.000128006
0.00133654
0.0333319
8.7351e-05
0.0561949
0.00115604
0.00143671
0.000106491
0.000134208
0.000991601
0.00101683
0.00123389
0.00949043
6.56637e-05
0.0333424
0.00138234
0.000247633
0.000351591
0.00132626
0.00172117
0.00142056
0.0109541
0.000821192
0.00342434
0.00456098
0.000503442
0.000248509
0.00104639
0.00225103
0.000204974
0.484687
0.000103121
0.00114897
0.000119123
0.00135696
0.000199837
0.00643319
0.0032792
0.00950097
8.01474e-05
6.65665e-05
0.000205098
0.0416401
0.00267538
0.0892453
0.00249573
0.0218062
0.117727
0.000209917
0.0319438
0.000126281
0.000150292
9.49092e-05
0.000670336
0.000186027
0.00226824
0.00297826
0.000375852
0.00119103
0.00179988
0.0817212
0.000138072
0.000202489
0.000214376
0.000891864
0.000580426
0.00702508
0.000142565
0.00134124
0.190837
0.00397988
7.70005e-05
0.0205232
6.22331e-05
0.000206281
0.000329153
0.000621072
0.00380776
0.0163696
0.00357761
0.000699235
0.00357779
0.000131037
0.000858066
0.00190292
6.3054e-05
0.00279471
0.00119469
0.00021786
6.96209e-05
0.00016523
0.0351172
0.0010211
0.0958762
0.000272928
0.00123773
0.00375174
0.000190002
0.00132625
0.000577935
6.46159e-05
9.38661e-05
0.0253624
0.000690886
0.000642497
0.000133651
7.6401e-05
0.000431778
0.000112465
6.20608e-05
8.81559e-05
0.000112762
6.56137e-05
0.000148904
0.00252673
0.00102747
8.70747e-05
0.00868103
0.00107034
6.53428e-05
0.000199936
0.000745897
0.0182099
0.0130993
0.0853534
0.00178127
0.000440733
0.0626779
0.00279343
0.00551201
0.00304676
0.00860797
0.000165225
6.14248e-05
0.0878567
0.000156794
0.000644416
0.000379882
6.03469e-05
0.0144832
6.36492e-05
0.000129008
8.58649e-05
0.00124978
7.41844e-05
6.56759e-05
0.000187458
0.00356718
0.000104703
0.000159025
0.00054808
0.120568
0.00269609
0.0436091
0.0740698
0.000157533
0.0392903
9.74202e-05
0.00181064
0.00791508
0.000143465
0.000271015
0.00134988
0.0876379
0.265791
7.35109e-05
0.0013674
0.144326
0.00154435
0.00169949
0.00442495
0.00410456
0.00656685
0.00130803
0.0788333
0.00115321
6.38576e-05
0.00015589