/*--------------------------------*- C++ -*----------------------------------*\
| =========                 |                                                 |
| \\      /  F ield         | OpenFOAM: The Open Source CFD Toolbox           |
|  \\    /   O peration     | Version:  v2012                                 |
|   \\  /    A nd           | Website:  www.openfoam.com                      |
|    \\/     M anipulation  |                                                 |
\*---------------------------------------------------------------------------*/
FoamFile
{
    version     2.0;
    format      ascii;
    class       volScalarField;
    location    "1.3940496";
    object      nut;
}
// * * * * * * * * * * * * * * * * * * * * * * * * * * * * * * * * * * * * * //

dimensions      [0 2 -1 0 0 0 0];


internalField   nonuniform List<scalar> 
83563
(
1.63667e-05
3.38922e-05
3.31277e-05
2.87367e-05
0.000172197
4.50992e-05
0.000331716
0.000348641
9.40068e-05
0.000638233
5.28165e-05
0.000712307
0.00153772
1.78442e-05
0.000305694
0.00644325
2.09645e-05
1.78433e-05
0.000699499
1.78504e-05
1.77336e-05
1.77964e-05
0.000460768
0.00100124
2.01383e-05
3.93767e-05
1.90698e-05
0.000752928
4.13754e-05
2.17291e-05
4.98595e-05
1.41066e-05
0.000360689
1.96328e-05
1.76425e-05
8.83404e-05
2.96885e-05
3.78826e-05
3.52502e-05
0.0001272
2.37404e-05
8.15074e-05
4.31879e-05
6.74664e-05
2.3557e-05
0.000252485
0.00280565
0.000151826
7.26736e-05
0.00686466
0.00671418
9.09164e-05
0.00156635
0.0019635
7.84078e-05
0.00211041
3.04623e-05
0.00141268
0.00191077
0.000128682
0.00185492
0.000921901
5.69401e-05
3.51878e-05
0.00271079
0.00157885
0.00271162
5.21719e-05
1.04917e-05
0.00602966
0.000100792
0.0035108
2.57333e-05
0.0039409
3.20344e-05
0.00955991
0.0022282
2.40012e-05
2.35171e-05
0.00207373
1.70482e-05
3.55178e-05
6.54269e-05
0.00348479
0.000172815
1.7239e-05
2.27858e-05
0.00203377
2.02156e-05
4.33036e-05
0.000191623
1.37504e-05
0.000318947
0.000226386
0.000677256
0.000287825
0.00139673
0.000314047
4.77276e-05
0.000150385
8.00021e-05
2.5512e-05
9.39492e-05
2.38347e-05
7.00063e-05
5.08931e-05
6.21178e-05
1.50318e-05
0.000438323
1.84399e-05
0.000224233
9.49426e-05
0.00117592
0.000106431
2.60633e-05
1.78397e-05
0.00342283
0.000358442
5.58812e-05
1.43624e-05
0.000121957
0.000114068
0.000122874
0.00122633
0.000195553
2.82837e-05
0.00169927
0.000245483
0.000212375
5.33237e-05
0.0049948
0.00185213
0.000139826
0.00235302
5.18675e-05
1.8118e-05
0.000115465
3.81372e-05
4.47441e-05
0.00439202
0.000442657
0.00152791
5.91982e-05
0.000270839
0.0103137
0.00183285
8.6635e-05
2.38976e-05
7.70603e-05
2.89018e-05
0.0023128
2.30034e-05
3.22028e-05
0.000150481
1.6037e-05
1.33921e-05
1.41102e-05
4.27297e-05
7.29614e-05
0.000137591
0.000150919
1.78216e-05
2.79491e-05
2.3012e-05
0.000258953
0.000787291
1.21409e-05
0.0057368
1.702e-05
0.000273295
1.85315e-05
2.5292e-05
0.0139099
0.00223514
0.0136061
4.95229e-05
5.35545e-05
8.5049e-05
8.95639e-05
1.21659e-05
7.62317e-05
1.7461e-05
0.000143546
0.000671352
0.000441726
0.000748197
0.000408436
0.000235643
7.046e-05
1.65119e-05
1.66303e-05
0.000530501
0.00129308
0.000985055
0.000433078
0.00222921
6.04691e-05
0.000273495
1.77481e-05
0.000139978
0.000134956
6.59721e-05
0.000240499
1.26656e-05
0.000310875
0.000340326
4.53143e-05
0.00501067
1.75187e-05
7.10939e-05
0.000178168
0.000501118
1.63542e-05
1.51648e-05
0.000109526
0.000219684
0.000102223
1.38297e-05
3.23079e-05
8.06538e-05
2.5395e-05
4.60992e-05
8.02345e-05
8.96094e-05
0.000204266
1.49093e-05
0.000404373
1.95154e-05
3.60573e-05
0.000238174
2.07757e-05
5.21379e-05
1.29611e-05
4.27144e-05
0.00499316
1.8196e-05
0.000158432
4.45023e-05
3.68853e-05
2.5171e-05
0.000180587
0.000101163
6.27758e-05
1.50194e-05
0.00010052
2.43103e-05
0.000211492
1.74444e-05
0.00216833
5.2156e-05
0.000108845
3.94574e-05
3.39097e-05
0.000715535
4.84843e-05
4.91511e-05
1.4371e-05
0.000260146
2.47001e-05
3.86984e-05
3.527e-05
8.21621e-05
0.00130939
0.000175913
4.73421e-05
0.000104329
0.000141302
7.11933e-05
1.50339e-05
1.22218e-05
7.54497e-05
0.000114946
0.00131311
5.87392e-05
0.000106391
5.25861e-05
0.000237944
0.000256974
2.17818e-05
4.40796e-05
0.000345419
1.97286e-05
1.60571e-05
0.00028901
0.000961587
2.45478e-05
0.00182208
2.40046e-05
2.16069e-05
5.42887e-05
0.00146433
1.96504e-05
0.000244198
2.24657e-05
2.79305e-05
6.73515e-05
9.36191e-05
0.000271143
4.0787e-05
3.22223e-05
3.20176e-05
5.83792e-05
8.41824e-05
2.20956e-05
1.89617e-05
0.000184874
0.000234954
0.0040684
0.000168177
0.000586076
7.68472e-05
0.000186475
0.00128612
0.00120837
0.000129351
0.000136949
0.00356012
9.16418e-05
1.51263e-05
5.03052e-05
0.000527088
9.44136e-05
2.11724e-05
3.59295e-05
5.17387e-05
1.40963e-05
0.000374105
0.00343561
8.72553e-05
0.00300893
8.53004e-05
3.53014e-05
1.3287e-05
0.00282175
1.53075e-05
1.92619e-05
6.53525e-05
0.00242997
0.000199291
2.63608e-05
0.00439384
0.00125385
2.163e-05
2.30885e-05
7.01313e-05
0.000113622
0.000208866
4.38795e-05
0.000266627
2.17973e-05
1.34209e-05
0.00017539
2.97272e-05
0.000592766
0.000763132
1.77251e-05
0.000290159
0.000115497
7.86951e-05
0.000651479
0.00389216
0.000568417
0.000410877
0.00548565
0.000546135
0.000534677
0.000688298
0.000221815
0.0113271
1.78549e-05
5.50222e-05
9.53858e-05
0.000240596
0.000117488
0.000290217
0.000167688
0.00104572
7.20476e-05
2.56465e-05
5.23842e-05
3.86868e-05
0.000358841
2.76493e-05
0.000551585
0.000858432
0.000459294
6.17739e-05
6.34066e-05
0.0014909
7.61127e-05
0.000262762
2.25674e-05
3.51192e-05
0.000893703
0.000283899
0.000279682
0.000141856
0.000193373
4.98278e-05
1.3672e-05
0.00141979
1.6471e-05
2.67437e-05
0.0111341
0.000819613
4.80363e-05
0.0003179
0.000127985
1.84562e-05
0.000133198
0.00325178
0.000310747
2.04647e-05
3.09534e-05
0.00192792
1.77778e-05
5.23215e-05
7.22374e-05
0.000987773
4.95491e-05
2.20007e-05
3.33893e-05
0.00292359
2.33418e-05
0.000453774
0.00353479
7.18225e-05
0.000249884
0.00182323
8.39592e-05
8.04613e-05
0.000915678
0.000111387
4.79848e-05
0.00111561
0.000251996
0.0111681
1.89232e-05
0.00014163
0.000745882
0.000403228
9.58212e-05
0.00827819
2.8607e-05
0.00200783
0.000119473
8.61122e-05
0.00291675
0.00325
0.00628838
0.00264239
2.74282e-05
8.52067e-05
3.56417e-05
0.000198118
0.000316001
0.00759407
2.03218e-05
2.98431e-05
0.00221106
1.65972e-05
0.00138957
3.23471e-05
2.20505e-05
3.50605e-05
4.29544e-05
2.07577e-05
4.99944e-05
5.46764e-05
0.000103878
0.000116821
9.61283e-05
2.80813e-05
0.000211245
0.000106923
0.000250363
7.85621e-05
7.6295e-05
8.48409e-05
0.000135495
8.49255e-05
2.38135e-05
7.16195e-05
7.05429e-05
1.68016e-05
0.000235211
0.000104738
0.0002082
0.0105576
1.34457e-05
1.43533e-05
4.92205e-05
6.94471e-05
0.00159067
0.000399939
7.38466e-05
4.29402e-05
4.07104e-05
3.63499e-05
3.00437e-05
1.42575e-05
9.05833e-05
0.0001147
1.99378e-05
6.3597e-05
1.55471e-05
4.54111e-05
8.474e-05
7.34318e-05
6.41186e-05
1.85266e-05
2.28841e-05
1.92546e-05
1.8356e-05
2.55624e-05
2.62368e-05
4.84797e-05
0.00360443
0.0040161
2.68726e-05
5.13149e-05
0.000190288
0.000101865
0.000111592
0.000156998
2.5762e-05
0.000106658
0.00310038
2.20344e-05
2.49017e-05
3.05137e-05
1.7496e-05
5.83677e-05
3.02711e-05
3.04549e-05
4.13686e-05
0.0028201
0.000607185
0.000155476
0.00293475
6.15966e-05
1.78647e-05
0.00111407
0.000282369
0.00140526
0.00129917
3.21626e-05
0.00153661
0.000705426
7.68937e-05
7.39295e-05
0.000155569
0.000111705
7.42022e-05
1.36231e-05
0.000123199
0.00127558
0.00156418
0.000783628
1.8611e-05
0.000127411
0.00235045
4.52913e-05
0.00019428
0.000539523
2.62685e-05
0.000621666
2.19021e-05
1.79671e-05
0.000178397
0.00487685
0.000121338
2.92648e-05
7.44678e-05
0.00079893
0.000166897
2.59818e-05
2.6361e-05
2.89951e-05
3.08805e-05
2.86013e-05
3.13714e-05
0.0115634
9.99022e-05
2.13746e-05
3.60124e-05
2.06907e-05
6.1226e-05
1.77014e-05
3.14458e-05
1.88099e-05
2.76764e-05
1.88176e-05
2.94633e-05
5.7631e-05
1.95653e-05
2.23681e-05
2.54994e-05
1.78792e-05
1.30559e-05
5.54223e-05
1.85719e-05
2.222e-05
1.84132e-05
4.37568e-05
3.85289e-05
0.0007272
2.69318e-05
2.5848e-05
2.42128e-05
3.05081e-05
2.73514e-05
1.43572e-05
5.21928e-05
0.00243773
3.63462e-05
6.17806e-05
9.7832e-05
0.000143858
0.00017668
0.000300002
0.00373881
5.65153e-05
7.05683e-05
1.4965e-05
5.75966e-05
0.000114848
2.50662e-05
4.53632e-05
1.84392e-05
0.000183071
4.44359e-05
3.90881e-05
0.00016713
2.30407e-05
0.00165337
9.745e-05
8.26913e-05
1.83339e-05
2.65415e-05
5.32337e-05
0.000385383
0.00045323
0.000233375
6.24176e-05
1.91675e-05
2.15462e-05
0.0014447
0.00204154
6.3274e-05
5.47113e-05
8.46279e-05
0.000226074
0.000128478
0.000318986
7.27102e-05
0.000599624
1.73787e-05
0.000379741
7.37927e-05
2.26078e-05
0.00234007
0.000495929
0.000995832
0.00135639
1.78474e-05
0.000291214
2.21066e-05
1.88008e-05
0.000418427
0.000476938
8.82044e-05
0.000701917
0.00267031
0.000266281
6.63399e-05
0.00119884
5.98029e-05
7.80415e-05
0.000709169
0.00162612
8.69928e-05
0.000315314
0.00127931
1.39624e-05
0.000554329
0.00881251
0.00510223
0.000841482
3.23176e-05
4.99544e-05
0.00197866
2.96955e-05
0.000361496
0.000174716
0.00140316
0.000118907
0.000585058
8.95794e-05
4.61606e-05
8.16861e-05
5.70787e-05
1.8765e-05
0.000160652
0.000807319
0.000201532
1.311e-05
5.58092e-05
6.6124e-05
0.000186049
1.78893e-05
0.0001399
1.78267e-05
3.71505e-05
0.000163394
1.26254e-05
2.28204e-05
3.50974e-05
0.000142476
0.0102191
1.95954e-05
0.00126891
3.02261e-05
0.00012341
2.86137e-05
9.55557e-05
0.00254261
0.000993756
3.44475e-05
0.00355798
1.25469e-05
1.8955e-05
2.09868e-05
0.0131586
0.00153808
0.00019775
2.51364e-05
4.06689e-05
0.00127282
1.32401e-05
3.48197e-05
9.84907e-05
1.5279e-05
0.000149192
7.312e-05
3.72981e-05
0.000133348
0.00154523
0.00167243
2.98173e-05
3.96034e-05
4.77927e-05
1.77246e-05
0.00363547
0.000114608
0.000272156
1.7678e-05
2.2446e-05
0.000309903
7.03805e-05
4.11706e-05
2.53468e-05
6.36639e-06
1.46242e-05
0.000110549
3.74452e-05
1.76967e-05
3.65979e-05
0.000117761
0.00457426
4.06152e-05
1.99949e-05
1.17182e-05
0.000140122
2.68504e-05
9.36362e-05
2.7838e-05
0.000588029
2.23486e-05
4.57807e-05
6.46485e-05
0.00548705
0.00308137
0.00240336
2.49011e-05
0.00149578
4.75364e-05
0.000240672
2.7089e-05
5.83432e-05
0.000144585
0.00103634
3.97588e-05
0.00270517
0.00010785
7.92058e-05
0.000508554
0.000197577
2.48415e-05
3.28005e-05
0.000182394
2.94941e-05
0.000170346
1.70546e-05
1.99533e-05
2.34554e-05
0.000128032
0.00109003
0.00089081
0.000172867
2.4635e-05
7.19481e-05
0.00143657
0.00107192
0.000941715
0.00076484
2.11692e-05
0.000624913
2.04949e-05
1.45691e-05
0.000368906
3.3154e-05
0.00137118
0.00128498
6.2054e-05
0.000151576
0.000183898
0.000175435
2.16593e-06
3.48718e-05
1.31038e-05
0.00689502
6.99326e-05
0.00268153
4.90982e-05
1.80634e-05
1.80921e-05
4.65984e-05
3.52347e-05
0.000109294
3.02062e-06
1.5919e-05
3.1405e-05
1.82189e-05
6.38716e-05
2.70553e-06
0.00215104
0.000427353
0.00141834
0.00328205
0.00170619
1.76674e-05
1.28505e-05
2.18021e-05
2.67417e-05
1.08579e-05
3.69187e-05
0.00143596
0.000144264
8.11888e-05
1.8763e-05
5.88733e-05
2.65259e-05
1.52856e-05
0.00024092
4.63884e-05
0.000600126
4.9564e-05
6.06639e-05
1.49445e-05
0.000135539
0.000394836
0.000524147
3.98979e-05
4.33636e-05
0.00126265
0.00611061
1.24957e-05
2.40789e-05
2.58205e-05
1.82361e-05
4.29894e-05
5.61227e-05
1.46988e-05
1.41939e-05
0.00355727
0.000196496
4.73178e-05
0.00131679
0.00165053
6.10999e-05
0.000462301
1.88809e-05
2.58362e-05
1.85464e-05
1.71784e-05
0.000193134
1.34558e-05
0.000262607
0.000245793
4.35295e-05
1.25082e-05
6.73676e-05
0.0002065
1.97648e-05
7.24304e-05
5.19146e-05
3.72413e-05
3.1639e-05
0.000282653
2.41767e-05
3.05775e-05
1.22788e-05
4.96756e-05
6.17033e-05
0.00234405
0.00124057
1.1634e-05
0.00133384
1.82901e-05
0.000115226
0.000274171
0.000114673
0.000350039
0.000229117
3.27684e-05
0.000123516
5.50079e-05
0.000813245
5.03029e-05
0.00227098
0.000238887
0.000234497
0.000114385
0.00144379
0.000119058
0.000948053
4.00587e-05
0.000172309
0.00122307
0.000134418
6.95273e-05
0.000197699
4.50694e-05
1.97893e-05
1.81185e-05
8.22663e-05
0.000524233
7.62129e-05
0.000254836
3.70271e-05
3.61221e-05
2.8358e-05
2.13226e-05
1.91222e-05
0.000138942
0.00107988
1.5198e-05
1.74095e-05
1.80296e-05
0.000140624
1.83386e-05
4.69285e-05
1.75059e-05
0.000151963
0.000252829
6.6818e-05
1.4391e-05
0.000885527
5.18175e-05
0.000194836
5.19561e-05
3.30806e-05
3.14957e-05
4.66265e-05
0.000213018
1.57942e-05
6.61188e-05
2.02123e-05
5.71629e-05
2.68218e-05
9.67727e-05
3.83939e-05
2.12751e-05
3.05279e-05
7.02582e-05
0.000199373
0.00023283
2.75608e-05
0.000152926
0.00108801
0.000128178
1.50096e-05
2.9388e-05
2.50721e-05
0.000514211
0.000252667
9.66866e-05
0.000162551
0.00116808
0.000743855
1.70463e-05
1.76745e-05
3.11195e-05
0.0010466
3.4001e-05
0.000458264
0.000398039
0.000564514
4.33339e-05
3.77815e-05
2.45096e-05
7.03944e-05
1.92313e-05
4.80374e-05
0.00635921
5.17519e-05
0.000142447
0.000551587
0.0131661
0.000189934
3.33707e-05
0.000756614
0.000248455
0.000152197
1.94253e-05
1.78812e-05
0.000243817
3.19152e-05
1.38577e-05
0.000232966
0.0010314
6.3252e-05
4.77919e-05
4.81454e-05
1.77181e-05
0.00021058
2.27457e-05
4.89317e-05
3.01933e-05
0.000430758
0.000190928
1.89059e-05
0.000264968
2.17937e-05
0.000215335
4.95478e-05
3.18291e-05
0.00308973
3.09129e-05
0.00382477
0.00211977
1.71962e-05
1.98493e-05
2.08674e-05
0.00015361
1.53134e-05
0.000101429
1.64245e-05
0.00198301
2.04049e-05
0.00153162
0.000209119
0.00165875
7.48618e-05
1.25114e-05
0.000243128
5.78199e-05
7.51696e-05
0.000361709
8.47627e-05
0.000123623
0.00246958
3.65665e-05
0.00258282
6.01146e-05
4.57136e-05
8.0262e-05
0.000812294
0.00667781
1.89683e-05
0.000620353
0.00138631
1.7669e-05
0.000111019
0.00614087
3.27118e-05
0.000215471
3.94012e-05
0.000752511
5.21689e-05
0.000220554
0.000878074
9.24306e-05
0.000129528
0.000240524
2.26715e-05
0.000170502
0.000171827
7.3249e-05
0.000229792
2.20996e-05
0.000220075
9.09884e-05
9.07097e-05
2.25702e-05
5.88985e-05
1.56746e-05
0.000126986
2.13764e-05
2.01853e-05
2.27051e-05
5.18113e-05
1.85799e-05
0.000349365
4.38729e-05
0.000145677
0.000218262
0.000159955
0.000125033
0.002379
1.94427e-05
3.16272e-05
1.27311e-05
0.000154964
6.28401e-05
0.000763127
1.7686e-05
0.000138328
3.09756e-05
1.6626e-05
0.000189971
4.6137e-05
3.0735e-05
1.64074e-05
2.03973e-05
1.73757e-05
0.000538456
3.061e-05
4.7898e-05
5.48747e-05
4.22793e-05
1.30266e-05
1.98728e-05
9.65733e-05
6.12839e-05
6.39695e-05
0.000232212
4.93071e-05
1.96697e-05
5.36477e-05
2.66577e-05
2.44521e-05
2.14482e-05
1.7137e-05
0.000106735
1.3671e-05
1.82608e-05
0.000557973
3.3656e-05
0.000319422
2.59556e-05
0.000936271
2.65745e-05
2.3801e-05
2.30794e-05
4.27834e-05
4.32651e-05
5.94339e-05
4.56043e-05
2.00232e-05
6.11058e-05
0.000245315
6.75967e-05
5.84253e-05
0.000113606
0.000243736
3.7347e-05
0.00025177
1.52167e-05
0.000249074
3.02274e-05
0.000408146
1.75839e-05
2.07582e-05
1.83452e-05
2.06548e-05
0.000110302
0.000663296
4.02119e-05
0.00390332
0.0073418
0.00117126
0.00338374
0.000647856
0.00962262
2.19983e-05
2.29331e-05
3.65518e-05
0.000224602
6.05369e-05
0.00313572
4.27923e-05
1.46508e-05
0.000133475
0.000255194
4.78537e-05
0.000196041
0.000144312
3.72559e-05
3.77359e-05
9.96363e-05
1.31012e-05
2.6808e-05
5.49873e-05
1.78585e-05
4.41772e-05
0.00167307
0.000158658
7.53765e-05
1.77286e-05
3.76975e-05
4.51744e-05
0.000275695
1.48401e-05
0.0002951
9.12952e-05
5.12756e-05
0.0115687
3.4458e-05
1.82894e-05
2.00482e-05
0.000432183
3.52966e-05
6.88271e-05
1.28354e-05
2.0305e-06
0.000463369
3.15739e-05
1.9818e-05
2.61478e-06
2.91933e-05
1.88193e-05
0.000109763
1.75088e-05
0.000222587
2.07654e-06
2.0988e-05
4.60041e-05
0.000669363
0.0135311
6.64863e-05
1.43114e-05
1.79001e-05
0.000779567
0.00116449
0.000340503
6.10326e-05
2.5769e-05
7.01784e-05
0.00038057
6.22015e-05
0.0020539
6.40755e-05
6.57062e-05
0.000246419
1.81088e-05
4.31502e-05
5.43238e-05
2.40329e-05
0.000169632
0.000108804
4.11635e-05
2.50049e-05
0.000430197
0.000330161
2.56747e-05
0.00287209
0.010795
0.000206671
0.00454083
0.000416107
1.76512e-05
8.17723e-05
0.00315932
0.00217273
7.91596e-05
0.000233609
2.19407e-05
0.00341204
8.5818e-05
1.4281e-05
2.01393e-05
5.5236e-05
1.83551e-05
0.000565331
0.000157383
8.61206e-05
6.18702e-05
5.32121e-05
0.000378628
0.000281566
1.62699e-05
0.000148303
7.6738e-05
1.77221e-05
2.52584e-05
3.90012e-05
0.000265777
5.33491e-05
1.7962e-05
2.01622e-05
0.00147719
1.39157e-05
1.25041e-05
1.37005e-05
0.000142335
0.00624694
1.81169e-05
0.00138545
3.15598e-05
2.31876e-05
0.00391095
6.18323e-05
0.00282711
0.00518255
0.000105672
7.09707e-05
0.00761118
2.5867e-05
0.00645476
0.000102622
5.8362e-05
1.53066e-05
1.56487e-05
5.35149e-05
0.0011785
1.75629e-05
0.000195534
1.37014e-05
2.23529e-05
0.00018088
2.45535e-05
7.62837e-05
1.27858e-05
0.000202654
0.0103372
4.9444e-05
0.00027005
0.000240604
6.17198e-05
0.000314432
6.39024e-05
0.000107574
0.000488114
0.000105296
3.20058e-05
0.00341449
2.77598e-05
8.51859e-05
2.27e-05
3.37625e-05
3.47911e-05
4.98459e-05
2.06563e-05
1.53019e-05
4.70668e-05
3.53708e-05
3.39875e-05
2.67098e-05
1.74859e-05
4.79309e-05
0.0159366
0.00019301
1.77078e-05
5.62338e-05
0.00216875
3.93108e-05
0.00867956
0.0002885
1.96478e-05
2.59035e-05
2.15715e-05
2.29621e-05
0.00547033
3.38929e-05
8.36324e-05
5.75883e-05
0.000288095
2.97547e-05
1.27809e-05
6.36194e-05
0.00273931
1.88779e-05
0.0120818
0.000905753
0.000283834
0.000215356
2.47232e-05
2.82029e-05
5.45477e-05
0.00220281
0.000179626
0.000231164
0.000188341
2.21162e-05
1.56472e-05
2.08494e-05
5.77301e-05
5.97724e-05
0.000184753
2.11592e-05
0.000151732
3.32825e-05
8.52349e-05
4.64964e-05
6.78066e-05
4.77339e-05
3.43625e-05
1.99242e-05
2.95149e-05
7.5065e-05
2.16082e-05
4.92676e-05
3.87499e-05
1.72473e-06
6.64392e-05
1.40221e-05
4.91175e-05
5.43428e-05
0.000111891
0.000231134
8.48108e-05
4.85686e-05
0.000171399
0.010091
1.69115e-05
3.69609e-05
0.00264151
2.11085e-05
0.000224161
1.77708e-05
2.92295e-05
2.00473e-05
1.67751e-05
2.69938e-05
6.69097e-05
0.00447675
6.6056e-05
6.1387e-05
3.78444e-05
5.42058e-05
0.000349305
1.72551e-05
0.00154817
7.73283e-05
0.000254863
0.00237526
3.69218e-05
4.57389e-05
2.20649e-05
5.63095e-05
0.000140498
1.31602e-05
1.73057e-05
0.000252277
5.43968e-05
0.00456349
0.000504053
8.37473e-05
1.75956e-05
0.0001494
8.16249e-05
0.00475628
2.3086e-05
2.66544e-05
0.000293635
0.00213144
2.4834e-05
0.00527558
0.000154685
0.000248874
0.000796641
0.000224836
3.58731e-05
0.00488683
0.000625905
6.51731e-05
0.000162111
0.000341618
0.000221382
0.00292094
0.000182754
2.00608e-05
1.4034e-05
0.000546918
0.000239565
4.34904e-05
2.50446e-05
0.00025495
0.000144066
4.25021e-05
1.64315e-05
4.6435e-05
0.00289392
1.35102e-05
0.00012907
2.86993e-05
4.6502e-05
1.53757e-05
2.25322e-05
2.16022e-05
2.22451e-05
3.73334e-05
0.000226862
5.11951e-05
7.73127e-05
0.0123171
3.35511e-05
1.35809e-05
0.000105646
0.000994009
4.27436e-05
0.00215754
7.08886e-05
0.000279523
0.00011216
2.57436e-05
4.54773e-05
4.19291e-05
1.39407e-05
4.67878e-05
2.80137e-05
4.60853e-05
8.89997e-05
0.000294217
1.46703e-05
1.79028e-05
0.00163882
0.00261977
1.78658e-05
0.000128899
0.00272767
0.00225438
7.94629e-05
0.00197964
2.36894e-05
0.00012998
3.53976e-05
0.00183457
6.10646e-05
7.1804e-05
2.45037e-05
3.22349e-05
8.78168e-05
2.17522e-05
0.000105615
1.70621e-05
0.00383684
5.09012e-05
3.65778e-05
4.82562e-05
3.73496e-05
0.000180003
4.42542e-05
2.73465e-05
3.72957e-05
9.18706e-05
3.20668e-05
1.7821e-05
0.00375787
0.000256666
0.0102306
0.000302701
1.63048e-05
0.00593617
0.000170592
2.02249e-05
1.80972e-05
4.48153e-05
5.97845e-05
2.85491e-05
9.1107e-05
9.63394e-05
0.000156771
0.00218812
2.12113e-05
1.94386e-05
7.69536e-05
0.00914205
0.0126698
2.46466e-05
0.014915
0.0112381
0.001572
0.015266
2.30946e-05
0.0166413
3.42816e-05
2.61044e-05
0.0127724
0.000181869
0.000155026
0.00464783
0.000336758
0.00347455
0.00330282
3.68343e-05
5.66522e-05
1.72187e-05
1.89697e-05
0.000292827
2.90755e-05
0.00400184
1.38715e-05
1.63733e-05
1.6939e-05
0.00414461
0.00460569
1.39238e-05
2.33904e-05
1.73964e-05
4.49133e-05
0.00315121
0.00417357
7.10855e-05
7.59058e-05
1.76478e-05
0.000226288
2.39328e-05
8.34311e-05
3.85978e-05
1.83282e-05
5.71721e-05
3.39518e-05
8.74677e-05
2.56724e-05
3.58557e-05
3.75223e-05
6.71081e-05
5.31116e-05
0.00151737
1.87687e-05
7.4697e-05
5.05778e-05
0.000106331
0.000153971
8.83795e-05
2.30863e-05
0.000260252
0.00191832
0.00189851
0.000131363
9.5376e-05
0.00117344
0.000185054
0.000149245
0.000347973
9.18485e-05
0.0018702
0.0019766
4.84323e-05
0.000302887
0.000104106
0.00159922
0.000220813
0.00182973
1.29091e-05
5.17282e-05
0.000712099
8.89016e-05
0.000124876
2.03882e-05
5.33904e-05
5.48191e-05
6.90958e-05
4.1542e-05
0.000333841
9.38682e-05
4.84568e-05
5.75927e-05
6.54295e-05
3.55411e-05
0.000277498
0.000260299
4.72958e-05
1.74628e-05
2.48373e-05
0.000654128
7.75614e-05
6.1251e-05
1.64905e-05
2.03583e-05
3.35049e-05
2.08697e-05
0.000458841
1.82988e-05
2.95187e-05
1.30379e-05
7.48617e-05
0.000165771
8.37828e-05
4.40578e-06
0.000128276
1.70618e-05
2.69344e-05
3.60317e-05
1.28981e-05
2.00051e-05
0.0080331
2.61521e-05
2.12401e-05
7.11281e-05
2.67865e-05
2.5517e-05
0.00811225
0.00230376
2.13116e-05
1.87903e-05
3.45771e-05
0.000303108
0.0136893
8.13792e-05
0.00019049
3.17395e-05
0.000297863
4.36306e-05
2.11821e-05
1.78983e-05
0.000336283
4.70719e-05
1.56799e-05
1.82714e-05
1.68169e-05
2.12049e-05
0.00298821
0.000306172
1.892e-05
6.15611e-05
0.00473497
1.80337e-05
5.40236e-05
1.81913e-05
3.48879e-05
1.28117e-05
5.351e-05
2.48827e-05
1.57699e-05
0.00875935
6.4402e-05
0.000307962
4.99197e-05
2.11496e-05
0.00170491
0.00880882
3.18847e-05
2.16913e-05
0.00732429
0.000156642
4.71365e-05
2.91412e-05
7.68346e-05
1.75431e-05
1.53985e-05
6.82559e-05
2.12558e-05
0.000727275
2.26829e-05
6.96392e-05
0.0035334
4.44501e-05
3.96542e-05
7.73256e-05
0.00607679
1.92329e-05
0.00290869
2.02853e-05
0.00375212
5.80799e-05
4.45135e-05
1.57439e-05
0.000166752
0.000113803
4.99484e-05
7.39748e-05
2.72379e-05
2.05968e-05
1.64906e-05
2.85552e-05
1.84709e-05
5.80565e-05
5.84905e-05
2.3414e-05
5.35622e-05
0.000187035
4.8816e-05
2.01296e-05
0.00389444
2.63734e-05
9.97705e-05
0.000334618
2.1425e-05
1.88563e-05
4.02806e-05
0.000133734
0.00208618
4.63589e-05
3.98933e-05
0.00034857
0.000276727
1.68615e-05
5.67124e-05
4.29217e-05
2.61275e-05
1.6125e-05
5.45888e-05
3.21025e-05
6.29458e-05
2.70992e-05
0.00380938
6.02413e-05
2.40027e-05
8.41059e-05
1.69855e-05
3.2279e-05
2.20296e-05
0.000517983
0.0104863
3.60377e-05
2.83356e-05
5.52904e-05
1.86373e-05
1.54544e-05
0.000106145
0.00146681
1.44896e-05
0.00238463
2.32162e-05
2.54942e-05
6.63624e-05
3.32472e-05
0.000106002
0.00274585
0.000104191
0.000358065
1.86728e-05
0.000582396
0.000101968
3.2615e-05
0.000778481
5.35287e-05
1.79342e-05
0.0027871
0.000100578
4.80419e-05
5.3528e-05
1.77308e-05
1.72019e-05
0.000123841
1.81187e-05
3.01532e-05
5.51252e-05
0.000266497
1.94111e-05
2.83857e-05
0.00246454
0.000149126
0.00183801
0.000452107
5.409e-05
0.000124737
0.000853975
6.36583e-05
6.54176e-05
6.8787e-05
0.000334577
9.56849e-05
1.67003e-05
3.71594e-05
3.51061e-05
0.000106247
4.78234e-05
0.000113314
0.00129109
3.22152e-05
0.000299849
0.00346178
2.15393e-05
2.04698e-05
0.000160272
0.000263016
0.00270661
1.79354e-05
1.75321e-05
7.57829e-05
1.83558e-05
0.000173826
0.00206655
6.78833e-05
4.92776e-05
0.00285576
3.79169e-05
4.50288e-05
2.40247e-05
1.61601e-05
0.0035071
0.000245247
9.72679e-05
0.000181331
4.53176e-05
1.85877e-05
3.03915e-05
0.00799161
1.79897e-05
1.7939e-05
0.0019476
3.1635e-05
4.71513e-05
2.26253e-05
0.00163777
3.31453e-05
0.00261346
2.21605e-05
1.26816e-05
0.000311987
0.00134337
0.00019493
7.0502e-05
0.000106789
2.38761e-05
1.75624e-05
0.00220419
0.00191086
0.00068266
2.19542e-05
0.00140645
0.000763708
2.39359e-05
1.58234e-05
1.95493e-05
0.000184509
8.06864e-05
1.91116e-05
0.000172106
6.776e-05
0.00138415
0.0010743
0.00115182
0.000690949
1.71129e-05
0.00025641
3.4265e-05
0.000139038
0.00868331
1.37992e-05
1.85607e-05
5.1702e-05
0.000174309
1.55951e-05
0.000424921
0.000430605
0.000208153
2.38197e-05
8.23029e-05
0.000105849
1.91465e-05
0.00026533
6.04273e-05
0.000302678
7.48219e-05
0.0011881
5.91529e-05
1.93893e-05
1.46229e-05
3.91374e-05
0.000428033
2.50259e-05
3.95487e-05
0.00103969
0.000824886
0.000269391
0.00119188
1.7897e-05
3.72747e-05
1.82853e-05
0.000303767
3.4307e-05
0.000166186
2.13379e-05
0.000171696
2.04838e-05
0.00106313
4.69164e-05
1.7556e-05
1.92218e-05
0.00270855
0.000599148
1.3318e-05
0.000250117
1.77982e-05
2.16729e-05
5.13787e-05
0.000111731
6.33106e-05
5.01411e-05
1.95786e-05
0.000454589
0.000120381
3.58677e-05
0.00458323
0.00644095
0.000115866
4.40693e-05
0.000114797
7.94307e-05
0.000114263
5.86008e-05
0.000373016
6.41745e-05
1.44329e-05
9.21082e-05
4.64648e-05
3.39105e-05
3.02941e-05
1.42761e-05
0.000132324
1.23307e-05
4.4812e-05
3.32777e-05
0.000153391
1.75649e-05
0.00012744
0.000115605
0.000235154
1.36251e-05
2.14698e-05
0.000100654
0.000483469
2.39057e-05
3.71705e-05
5.77286e-05
1.85602e-05
2.85121e-05
0.000134064
3.67401e-05
2.50645e-05
1.81516e-05
3.43439e-05
1.78404e-05
1.99716e-05
2.05868e-05
9.97163e-05
0.00020187
0.000130697
0.00094199
0.000216194
3.71231e-05
1.94768e-05
4.36641e-05
0.00166631
4.8949e-05
0.000110122
1.79075e-05
1.78786e-05
7.70194e-05
1.46402e-05
0.00116337
0.00014532
0.000101317
0.00245059
7.08971e-05
6.0439e-05
1.39673e-05
0.00328888
0.000197564
0.00111725
2.26577e-05
0.000428552
0.000126817
0.000172102
1.35819e-05
0.00130332
0.000140837
0.000321009
0.000151199
0.000201855
0.000147701
2.54155e-05
0.000906092
1.58217e-05
0.0039083
0.00480657
0.0048998
7.17265e-05
0.00341412
0.00035629
0.000133984
1.5551e-05
0.00347785
0.00532738
2.03421e-05
0.00011341
1.5137e-05
1.81712e-05
1.60589e-05
0.00561396
0.00324481
3.48956e-05
6.41775e-05
0.000750322
0.00572638
9.52083e-05
2.31545e-05
0.00257538
0.000298551
7.04241e-05
0.0121183
0.00327724
0.000112173
2.59644e-05
0.00022796
0.00011687
1.37637e-05
3.84372e-05
2.82162e-05
1.44635e-05
9.56638e-05
2.85772e-05
5.42306e-05
3.80111e-05
3.69917e-05
0.000434383
2.31878e-06
0.00274817
0.00319918
1.34387e-05
4.36896e-05
4.02411e-06
7.68613e-05
1.63897e-05
0.000339027
3.97839e-05
0.00153014
0.000142526
1.61609e-05
7.83766e-05
0.000158521
7.71614e-05
2.41799e-06
1.62274e-05
0.0011671
0.000264445
0.000229861
0.00300296
7.42214e-05
9.90305e-05
1.89077e-05
0.000153149
2.00341e-05
1.75502e-05
0.000127375
0.000337741
5.32517e-05
3.05678e-05
4.4016e-05
1.27825e-05
5.80304e-05
0.000308756
1.45424e-05
0.000129928
0.000221038
0.000281954
4.79767e-05
0.0059666
5.8692e-06
4.17326e-05
1.7394e-05
3.23359e-05
1.90878e-05
0.000195427
0.000213926
6.85485e-05
6.06565e-05
6.46734e-05
6.48113e-05
2.54174e-05
0.000319829
1.77172e-05
5.97491e-05
0.000143875
6.09721e-05
0.00790067
0.000131134
0.000183279
1.79897e-05
0.00710662
0.00179629
2.31557e-05
0.000102588
4.56984e-05
5.31511e-05
0.000164138
1.61365e-05
0.000221078
1.79584e-05
0.00171519
3.95669e-05
5.36293e-05
1.40184e-05
6.0773e-05
7.90795e-05
2.03904e-05
5.92148e-05
2.25343e-05
2.80729e-05
2.04875e-05
1.77613e-05
0.000342454
3.17149e-05
2.53332e-05
4.76921e-05
0.00164378
3.7473e-05
1.57211e-05
3.18957e-05
1.58867e-05
0.000296619
8.13616e-05
0.000142815
0.000150312
2.95854e-05
0.000586198
0.000757925
6.77345e-05
3.73273e-05
0.00169934
3.93197e-05
0.000507207
5.9442e-05
1.9551e-05
4.27689e-05
2.47808e-05
0.00482532
5.47753e-05
1.27119e-05
1.20425e-05
1.96835e-05
0.00427381
0.000782467
0.000497447
5.24059e-05
0.000114574
0.000424461
1.55898e-05
1.93005e-05
0.00359911
0.000449403
0.00312509
2.88651e-05
2.9305e-05
0.00180607
0.000355975
8.77723e-05
4.57668e-05
7.81396e-05
0.000526283
1.78561e-05
0.000138592
0.000125851
9.94619e-05
5.79913e-05
0.000166293
2.306e-05
0.00328416
0.00452756
0.000148875
0.000329941
1.82282e-05
5.02156e-05
0.00437765
0.000185503
2.29589e-05
5.6515e-05
3.6927e-05
0.00200603
0.000100149
0.0010249
3.9241e-05
1.97451e-05
2.1374e-05
0.000415404
0.000502715
1.78455e-05
1.86199e-05
5.20644e-05
9.52348e-05
2.97869e-05
6.17008e-05
0.000686377
8.07254e-05
5.86428e-05
0.000260599
0.00227544
8.31154e-05
1.79696e-05
0.000186162
3.36823e-05
1.3235e-05
0.00033462
2.04363e-05
0.000293816
1.22343e-05
5.21277e-05
3.10701e-05
0.000317459
6.81933e-05
1.90712e-05
0.000182579
2.85884e-05
1.87335e-05
5.99346e-05
2.46483e-05
2.03104e-05
0.000107985
3.72887e-05
2.69387e-05
0.000177187
6.37211e-05
2.8194e-05
0.00623294
0.000147173
7.77347e-05
0.00062803
0.00179463
2.40687e-05
7.30411e-05
1.79702e-05
8.89656e-05
4.96245e-05
0.000161988
0.000158252
0.00847625
0.000171847
3.74838e-05
5.45387e-05
0.000241137
2.63543e-05
6.0814e-05
2.155e-05
2.61186e-05
7.39064e-05
0.00372513
8.11945e-05
2.27752e-05
1.94425e-05
6.75672e-05
2.39036e-05
8.86877e-05
0.00403981
6.85058e-05
0.00699928
2.14533e-05
0.00537756
8.94714e-05
0.00354184
0.000272614
0.000129926
0.00649487
0.00282084
4.70057e-05
0.000310457
1.86765e-05
0.000238117
4.39462e-05
0.000141761
4.4199e-05
0.000389903
0.00713622
6.0386e-05
0.000168005
1.26572e-05
0.0021442
2.17676e-05
1.79437e-05
2.83617e-05
0.00012243
1.99114e-05
1.67848e-05
0.00118322
0.000550515
2.17876e-05
2.43091e-05
6.61823e-05
1.77785e-05
5.02368e-05
2.51429e-05
2.10714e-05
1.81248e-05
5.05622e-05
1.36039e-05
0.000210467
0.0146247
1.63906e-05
0.00080189
0.000366271
0.000216279
0.000189613
0.00247021
4.70517e-05
3.13285e-05
4.50649e-05
0.00024616
0.000229685
2.68123e-05
1.38379e-05
2.84222e-05
0.000289902
2.04965e-05
0.00210027
3.84014e-05
7.19915e-05
1.73676e-05
2.73884e-05
6.79739e-05
0.000157165
2.97537e-05
8.04497e-05
2.25784e-05
0.000117772
9.634e-05
1.56367e-05
5.25238e-05
0.00057449
0.00030519
0.000520333
0.00011969
0.00602361
9.31632e-05
0.000228123
0.000237538
0.000389838
2.17312e-05
0.000150591
2.51933e-05
0.000790039
0.000187573
0.000242171
0.000233087
0.000103903
7.496e-05
0.000956722
4.3331e-05
1.2631e-05
8.96998e-05
0.000818187
2.16714e-05
0.00218323
9.03161e-05
6.67748e-05
3.70569e-05
4.82231e-05
5.68325e-05
0.000114614
7.84781e-05
0.000465282
1.84751e-05
0.00161324
7.51202e-05
2.03003e-05
2.36166e-05
0.000127745
0.000108052
0.000135489
0.000392349
5.46265e-05
0.000151459
0.00024771
4.02466e-05
1.81559e-05
6.92751e-05
0.000130881
3.59827e-05
0.00732611
1.45565e-05
7.17378e-05