/*--------------------------------*- C++ -*----------------------------------*\
| =========                 |                                                 |
| \\      /  F ield         | OpenFOAM: The Open Source CFD Toolbox           |
|  \\    /   O peration     | Version:  v2012                                 |
|   \\  /    A nd           | Website:  www.openfoam.com                      |
|    \\/     M anipulation  |                                                 |
\*---------------------------------------------------------------------------*/
FoamFile
{
    version     2.0;
    format      ascii;
    class       surfaceScalarField;
    location    "1.3940496";
    object      phi;
}
// * * * * * * * * * * * * * * * * * * * * * * * * * * * * * * * * * * * * * //

dimensions      [0 3 -1 0 0 0 0];
oriented        oriented;


internalField   nonuniform List<scalar> 
156950
(
-0.00219415
0.0010372
0.000836035
0.000320919
0.000521853
-0.00139636
0.000173429
0.000701076
-0.000343148
0.000665184
-0.000322036
-0.000213638
0.000125271
0.000340593
-0.000252226
0.000737855
-0.000973409
0.000122689
0.000112865
-6.15218e-05
-0.000152116
0.000536776
0.00136631
-0.00217469
0.0002716
0.00147165
-0.00146453
-7.12405e-06
-0.000364248
-0.00055537
0.000919618
-2.70593e-06
3.77769e-05
-7.95017e-07
-3.42759e-05
7.62076e-05
-0.000359511
0.000283304
-0.0023655
0.000809432
0.00209285
0.00412377
-0.00531014
-0.00326197
0.00444834
0.0007101
0.000265999
-0.0009934
1.73013e-05
-6.06349e-05
-0.00138359
0.00144423
-0.00125535
-0.00121299
0.000966953
0.00150139
0.000140275
-5.11725e-05
-0.000130739
4.16363e-05
4.51074e-05
0.000954633
-0.00028964
0.000718154
0.00165258
-0.00237074
0.000707736
-0.000686434
0.000244697
-4.48196e-05
-6.55174e-05
-0.00068772
0.000798057
0.000557941
6.71544e-05
8.26414e-05
-0.00100332
0.000835342
0.00179415
-0.00162618
-0.000319512
0.000222444
9.70682e-05
0.000395367
-0.000195042
9.45968e-05
-0.000294921
0.00175534
-0.0012362
-0.000694032
0.000174884
0.000386035
-6.98319e-05
-0.000553601
0.000237397
-0.000457305
0.000319016
-3.46006e-05
0.000172889
-0.000362416
0.00191272
0.000205034
-0.000551341
-0.000419809
0.000864276
0.000106873
-0.000667835
0.000366808
-2.01569e-05
0.000321184
-0.000708223
-5.66834e-05
-9.85075e-05
0.000863414
-0.0014407
0.000449071
7.89409e-05
0.000912685
-0.000948798
-8.61936e-05
-0.000215646
0.00125064
0.000235135
-0.000116108
-0.000869562
0.000750534
6.37793e-05
-0.000236228
0.000172448
7.38095e-05
-2.03152e-05
-8.70828e-05
3.35885e-05
0.000345539
0.000247117
-0.000474326
-0.00011833
0.000472671
-0.000512006
3.93344e-05
-0.00224186
0.0037402
-0.00385078
0.00235244
8.6711e-05
-0.000568828
0.000608273
-0.000126156
-0.0012499
0.00109305
-0.000205571
-0.000285915
-0.00026549
0.000274344
0.000277061
0.000330312
-0.00125057
-0.00031594
0.000631961
0.00695943
-0.00536097
-0.00223042
0.00291742
-0.00134021
-0.00157722
-0.00134401
0.00171251
-0.000110514
-0.000257982
-0.000149485
0.000513794
-0.000170651
-0.000193658
0.000151567
0.00113907
0.000479838
-0.00177048
-0.000473692
-2.21466e-05
0.000500845
-5.00628e-06
0.00127465
-0.000413762
-0.00104449
0.000183593
-0.000919588
-0.00066837
0.000218506
0.00126633
-0.000816465
-0.00126172
-0.000223959
0.00081731
-0.00156798
0.00141958
-0.00111004
0.00125844
-0.000114811
8.23437e-05
-0.00102884
0.00106131
0.000389312
0.000260743
0.000293715
-0.000943769
0.00101847
0.000366436
-0.000954732
-0.000430179
0.000291822
0.000726652
-0.00149696
-0.00171229
0.00141252
0.00179673
-0.000969899
8.33472e-05
0.000800146
-0.000693371
-0.000190122
-0.000610234
0.000605046
5.18824e-06
0.000134362
-7.10931e-05
-0.000329276
0.000266007
0.00175993
0.00126266
-0.0036447
0.00062211
0.00203155
0.000180287
0.00199928
0.000211171
-0.000947784
-0.00225173
0.000521356
0.000233421
0.00292856
-0.00242944
-0.00255852
0.0020594
0.000777123
-0.000628869
0.000619453
-0.000767706
-0.000549921
-0.000428525
0.000765561
0.000212884
-0.00154342
-0.00401382
0.004537
0.00102024
-0.000275935
0.000185713
-0.000174977
0.0002652
-0.00098502
0.00218554
-0.00123773
3.72181e-05
-0.000109127
-0.000313371
0.000422498
0.00165978
0.00115586
-0.00140864
-0.00140701
-2.8048e-05
-4.10364e-05
-0.000160167
0.000310519
9.12767e-05
8.46683e-05
-0.000486464
2.64017e-05
0.000158015
0.000166452
-0.000350868
0.000208547
0.000739971
-0.00125569
0.000307171
-0.000255567
0.000309505
0.0019878
-0.00204174
-0.000831154
0.000712434
0.00264559
-0.00252687
-0.000469052
-0.000483193
0.000581051
0.000371194
0.00127323
0.00102756
-0.00298751
0.000686717
0.000379266
0.000182588
-0.000708175
0.000146322
0.00068065
-0.00113121
-8.15324e-05
0.000532091
-7.80504e-05
5.68623e-05
1.37972e-05
7.39087e-06
-0.00101027
0.000223414
0.000786851
-3.58605e-05
0.000585143
-0.000740438
0.000191155
-0.00051729
0.000804889
-0.000336185
4.85861e-05
2.12645e-05
0.00142738
-0.00144865
0.000169335
-6.19565e-05
0.00161113
-0.00171851
-0.000619912
-0.00112539
0.00421037
-0.00246507
0.000716584
-0.00110464
-0.00135003
0.00173808
9.29828e-05
0.000360276
0.000246225
-0.000699484
0.00142565
-0.00161706
0.000191409
0.000238574
-0.000147251
1.65997e-06
-0.0010674
-0.00296397
0.00341146
9.26041e-05
-2.63355e-05
-6.62686e-05
0.00162945
-0.00124956
-0.000379882
-0.00235989
-0.000911106
0.00133697
0.00193403
-0.000121209
-0.000148746
0.000269955
-0.000150658
0.000922161
-0.000771503
0.000225894
0.000153291
3.23968e-05
-0.000411581
-0.000306931
-0.000557376
0.000864307
-0.000381884
-0.000464399
0.000390301
0.000455982
-0.000399753
-8.45788e-05
0.000177401
0.000598603
-0.00149661
0.000593538
0.000304472
0.000621963
-9.37591e-05
0.000452351
-0.000640622
-3.03712e-05
0.000218642
-0.00158836
-0.000123931
-0.000886736
-0.00192881
0.0016681
0.00114745
-0.00211218
0.00473352
-0.00053712
-0.00208422
-0.000211605
0.000273968
0.000411403
-0.000473766
0.000142596
-4.28123e-05
-9.97839e-05
-0.00188516
-0.000133825
0.00212768
-0.000108694
-0.000908905
0.0020345
0.00208163
-0.00320723
0.000992039
-0.000977078
-1.4961e-05
-0.00057093
0.000446295
0.000124635
0.00115219
0.00119878
-0.000145636
-0.00220533
-0.000781638
-0.00312059
0.00516775
-0.00615022
0.00410305
-0.00116118
0.0015086
0.000715288
-0.00106271
4.72331e-05
0.000197249
-5.90799e-06
-0.0024938
0.000378362
0.00211544
-0.000227887
0.00195462
1.7418e-05
-0.00174415
-0.00115616
-0.00145779
-0.000912576
0.00352652
-0.000904197
0.00210324
-0.00116445
-3.45891e-05
-0.00171211
0.00136725
0.000344868
0.000497918
-0.000191018
-0.0003069
-0.002529
0.00228162
-0.00175427
0.00200165
-0.00113475
-0.00327611
0.00417951
-0.000321724
0.000453704
0.00122845
-0.00136043
0.000625176
-0.000647924
-0.000810312
0.00083306
-0.00178644
0.00188728
0.000237789
-0.000338632
0.000835718
-6.65039e-05
-0.000814034
0.000902631
-0.000669443
-0.000666279
0.000433091
1.09814e-05
8.01143e-06
-0.00034897
0.000329977
-0.00181616
-4.33714e-05
0.00191423
-5.47064e-05
0.000367756
-0.00182713
0.00223649
0.00130386
-0.00145967
0.000390959
-0.000235149
-0.00525544
-8.04074e-05
0.000735768
0.00460008
0.00149128
-9.69331e-07
-0.00149031
0.000365081
0.00109809
-0.00015931
0.00104134
0.00195432
-0.00225093
-0.000744726
0.00282784
-0.000714161
-0.00182696
-0.00121395
0.00192415
0.000119468
-0.00082967
8.70518e-05
0.000132171
-5.23622e-05
-0.00016686
-0.00117616
-0.000894394
0.00345357
-0.00138302
-8.99071e-05
-0.000128027
0.000217934
-0.000229726
0.00111831
-0.00108563
0.000197042
-0.000314433
0.000358019
-3.72916e-05
-6.29417e-06
0.000218949
-0.000179528
-5.69374e-05
1.75167e-05
-0.00163255
0.0016279
0.00157171
-0.00156706
-0.000681134
0.000859521
0.00143488
-0.00161327
0.000263181
-0.000411158
0.00194475
-0.00179678
0.00110588
4.84672e-05
0.000488288
-0.00164263
-5.48627e-06
-2.97536e-05
3.52398e-05
0.00159274
-0.00159212
-6.22466e-07
-0.00394081
-0.00107401
-0.00310813
0.00812295
-0.00164495
0.00173506
-9.01053e-05
-0.000199695
-0.000223816
0.000947677
-0.000524166
0.000100865
0.000748957
-0.000151476
-0.000698346
0.00260145
-0.000828702
-0.00046376
-0.00130898
0.00137395
0.000335898
-0.00110048
-0.000609361
0.00170677
-0.000495771
-0.000347309
-0.000863685
-0.000238176
0.00230056
-0.000250607
-0.00181178
-0.00438142
0.00260424
7.22172e-06
0.00176995
0.00229373
-0.000680963
1.66519e-05
-0.00162942
0.00166688
-0.000237376
-0.00142951
0.000334132
0.00128733
-0.000924447
-0.00069702
-0.00126341
0.000615059
0.00145499
-0.000806639
0.00180495
-0.0025008
0.00069585
-8.58201e-05
-0.00228022
0.00236604
-0.000632002
0.00243695
0.000263083
0.000147422
8.74133e-05
-0.000584898
0.000510105
7.47931e-05
0.000177681
0.00197032
0.000514754
-0.00266275
-0.000133675
-0.00129387
0.00142754
0.00306846
1.77539e-05
-0.00332794
0.000241728
-0.00240795
-0.000522311
0.0005155
0.00241476
2.50309e-05
0.000895533
-0.00107358
0.000153016
-0.000857346
0.000860936
0.00248848
-0.00249207
4.21156e-05
0.000464916
0.000177703
-0.000684735
0.000406376
0.000105725
-0.000425978
-8.6123e-05
-0.000600016
0.000142711
-2.26563e-05
-9.41063e-05
-8.97418e-05
0.000206504
0.000549333
-0.000629358
-0.000173865
0.00025389
-0.00194938
-0.00713119
0.00610794
0.00297262
0.000190746
-0.000691616
0.00193648
-0.00143561
-0.00132711
-6.11151e-05
0.00113266
-0.00019364
0.00139877
-0.00136741
-3.1361e-05
-0.000251063
0.000159252
0.000283967
-0.000192155
-0.00286863
-3.52611e-05
0.00289662
0.000372013
7.01456e-05
-0.000629335
0.000187176
0.000549585
0.00163882
-0.000519821
-0.00166858
0.00133408
-0.00126154
-7.25442e-05
-9.15631e-05
-0.00111412
0.00056174
0.000643943
0.00112626
1.39083e-05
-0.00135185
0.000211683
-0.00166755
0.00145061
0.00122136
-0.00100443
0.000146082
0.000705605
-0.000545482
-0.000306205
0.0014417
-0.00123491
-0.00020679
0.00205817
0.000580176
-0.00228018
-0.000358167
0.0012417
0.000200005
0.00033712
-0.000217066
-0.000113237
-0.00138476
0.00130311
0.000194885
0.00132895
-0.00314213
-0.00268861
0.0045018
-0.000609407
-0.000663687
0.000839656
0.000433437
-8.54153e-05
-0.00016267
4.62535e-07
0.000247623
0.00101302
0.00372038
0.000138836
0.000491099
-0.00435031
-0.000243009
0.00158449
-0.00130027
-4.12181e-05
0.00219476
0.000153412
-0.00128479
-0.00106338
0.000452874
-0.00195838
-0.000293962
0.00179947
-0.000390252
0.000298093
6.74364e-06
-0.00157583
0.00151873
5.70945e-05
0.000302417
0.00181843
-0.00215883
3.79788e-05
-0.000269053
-6.54059e-05
0.000171789
0.000334679
-0.000216199
-0.00011848
0.00210364
-0.00161731
-0.00212258
0.00163625
2.96046e-06
-0.000366065
0.000363104
6.78089e-05
-6.65552e-05
0.00162472
-0.00162598
0.000752011
-0.000182605
-0.000234727
-0.00343168
0.0047948
-0.00466228
0.00329916
-0.000137762
0.000262807
-0.00214444
0.0020194
-0.00184318
0.00195824
-0.000115068
3.57889e-05
6.43773e-05
-0.000105179
5.01326e-06
0.000269583
0.00116191
-0.00258625
0.00115475
-0.00266159
0.00345958
-0.000567581
-0.000230411
-2.82685e-06
0.000126533
-6.5662e-05
-5.8044e-05
0.00153406
0.0001043
-2.88322e-05
-0.00160953
-0.00173476
0.00168134
-0.00251061
0.00256403
-0.00160946
0.000238609
0.00323208
0.000813981
-0.00597382
0.00192776
-0.000636914
5.11784e-05
-5.68169e-05
0.000642553
-0.000802268
0.00100397
-0.000781149
-0.000277129
5.43089e-05
-0.000298827
-0.00011407
-0.000500262
0.00091316
-0.000220858
0.000395578
0.000293144
-0.000467864
-0.0014892
0.000161899
0.0013273
-0.000775658
0.000674162
0.000101496
-0.0017058
-0.000299866
0.000533896
0.00147177
0.00254307
0.00023526
-1.16119e-05
-0.00276671
0.00274106
-2.47699e-05
0.000273111
-0.0029894
-2.61932e-05
-0.000164578
0.000171873
1.88984e-05
0.00751362
0.000136827
-0.000884918
-0.00676553
-0.00214972
-3.79075e-05
0.0026508
-0.000463179
0.000184788
0.001398
-0.000371228
-0.00121156
0.000218243
3.52502e-05
-0.000253493
0.000833415
0.0010215
-0.00102611
-0.00082881
-0.000379527
-4.45391e-06
0.000357788
-0.00112954
-7.23188e-05
6.16231e-05
0.00114023
-0.00114925
0.00114273
6.51651e-06
0.00119331
-0.000170925
0.000441597
-0.00146398
0.000156827
0.000636012
-0.000792839
-3.32182e-05
-0.0017621
0.000929858
0.000865459
0.00136043
0.000424934
-0.00138593
-0.000399439
0.000495665
6.84298e-05
0.00179875
-0.00236285
-0.00104475
-0.000238724
0.00128342
5.43531e-08
-5.4756e-05
4.81148e-05
-0.00103811
-0.000573788
-0.000201871
0.000485356
-0.000792652
-0.00349252
0.00379981
-0.000967333
0.00079552
-0.00163875
0.00181057
0.000389685
-8.88307e-06
-0.000333152
-4.76492e-05
3.10635e-05
-0.000648594
0.000757297
-0.000139767
-0.00165982
0.00100125
-0.000830618
-0.0028278
0.00104037
0.000459745
0.00132769
-0.00236426
0.000582774
0.000345631
0.00143586
0.00192796
-0.00212371
-0.000591094
0.000786844
0.0015157
-0.00311782
-0.00122567
0.00126773
-0.00205327
0.000785542
-3.98184e-05
8.20872e-05
-0.00103414
0.000991874
0.000770227
-0.000581673
-0.000188554
0.00108444
0.00125368
-0.00129776
0.000389121
-0.000718113
0.000318784
1.02075e-05
-0.000705137
-0.00151221
0.00221735
-0.000237665
-0.00115456
0.00157176
-0.000179534
0.00118652
-0.00271705
0.00240627
-0.000875734
0.000387154
2.53104e-06
-0.00173181
0.00053843
0.0013397
-0.000146311
0.00184023
-0.002583
-0.000641074
0.00138384
-0.00198231
-0.000803892
0.00145909
2.29884e-05
-0.00104296
0.00101997
-0.000775454
0.000543073
0.000232381
-0.000170084
2.7638e-05
-2.21321e-05
-0.00101956
-0.000544557
0.00121723
0.00322985
-0.00246006
-0.000208425
-0.000561363
0.000225032
-0.000261063
0.00104
4.7033e-05
0.000126915
-0.0002471
7.31511e-05
-3.02275e-05
-0.000745226
0.00108058
-0.000747817
-0.000107731
0.00208561
-0.000764404
-0.00132121
0.000314542
0.00061311
-0.00214497
0.00121732
-0.000218059
0.000435215
-0.000340222
0.000123066
-0.000952483
0.0023679
-0.000909527
-0.000505889
0.000442672
-0.000347468
0.00116143
-0.00125664
0.00210668
6.80168e-05
-0.00242882
0.00025412
7.62615e-06
-0.000703777
0.000402519
0.00212565
-0.00182439
-7.91288e-05
0.000295452
-0.000211497
-4.82583e-06
3.93693e-05
0.00167962
-0.00167992
-3.90681e-05
0.00268087
8.00709e-06
-0.00266086
-2.80102e-05
0.000114939
-6.88196e-05
-1.56772e-05
-3.04426e-05
3.21483e-05
-7.90803e-05
0.000161871
0.00225895
0.000925398
-0.00109873
0.00155381
-0.000606244
0.000379014
0.0021312
-0.00190397
-0.00236481
0.00249942
-0.000134608
3.92235e-05
0.00182803
-0.00186725
0.00117573
-0.0010309
-0.000125383
-1.94553e-05
-1.25562e-06
-0.00107473
0.00107598
-0.00159112
0.00178496
-0.00174595
0.00155212
-0.000687437
0.000774526
-0.000212111
0.000125022
0.00299101
-0.00309219
0.00426238
-0.0041612
-0.000640963
0.000237619
-8.2749e-05
0.000486093
-0.00323929
-0.0011358
0.00133721
0.00303789
-0.000372941
0.00179953
0.000129704
-0.0015563
0.000662459
-0.00265212
0.000634914
0.00135475
0.00129483
-0.00130616
1.1331e-05
0.00148611
0.000187433
-0.00167355
0.00134158
-0.000998158
-0.00161809
0.00127468
0.000420311
-0.000378991
6.25585e-06
-4.75761e-05
-6.59693e-05
-0.000391093
0.000857473
-0.000400411
1.4961e-06
0.00129334
0.00220053
0.00143418
-0.00297226
0.0021258
-0.00128403
-0.000841769
-0.000195963
-0.000175158
9.24048e-05
0.000278716
0.00201622
0.00027918
-0.00172944
-0.000565963
0.000490289
-0.000370008
0.00109941
-0.00121969
0.0013272
-0.00132965
8.59599e-05
-8.35057e-05
-8.88324e-05
0.000163268
-0.000120459
4.6023e-05
-3.33623e-05
0.000367466
0.00116723
-0.00150134
0.00282204
-0.00136748
-0.00159499
0.000140427
0.0019936
-0.00279957
-0.000508764
0.00131474
-0.00071653
0.000499418
-0.000264602
0.000481714
-8.69617e-05
0.000857189
-0.000300447
-0.00149092
0.00152623
0.000116894
-0.00169477
0.00157787
-0.000143958
-0.00012478
0.000189609
-0.00050608
0.00113546
-0.00119017
0.00056079
0.00270903
-0.00259668
-0.00177813
0.00166579
-9.03206e-05
0.000530458
-0.00166601
0.00122587
0.000116826
2.64858e-06
-1.75542e-05
-0.00010192
-0.00175709
0.0018011
7.28756e-05
0.000879206
-0.000182829
-0.000995204
4.96889e-05
-0.00162286
0.00157317
-2.24403e-05
-0.000154077
0.000176517
0.00112071
-0.00117133
5.06142e-05
0.000129403
-1.12501e-05
-1.3273e-06
0.000938231
-0.00182917
0.00029029
0.000600649
5.53643e-05
-3.86659e-05
0.0018682
-0.0018849
0.000140605
5.74555e-05
-0.00019806
0.00121163
-2.13408e-05
-0.00132436
0.00442718
-0.00102369
-0.00340349
-0.000554623
-0.000711591
0.000253539
0.00101268
0.000420681
-3.85338e-05
-0.00025273
-0.000129417
0.000121663
0.00246066
-0.00258232
-0.000508186
0.00169861
-0.00145641
0.000265988
-0.000203779
-9.55377e-05
0.00144969
-0.00115038
-0.000660009
0.00059216
-0.00256289
0.00263074
-0.000114024
0.00125261
-0.00107036
-6.82197e-05
0.00334683
-0.00405713
-0.0021829
0.00289321
0.00157531
-0.000306793
6.04314e-05
0.00036168
-0.00147777
0.00446292
-0.00036077
0.000197914
4.88326e-05
0.000442203
-0.000225301
-0.00127967
0.00118528
0.00161658
-0.00152218
0.00105167
0.00145514
0.00024082
-0.00274764
-0.000119216
-0.000181022
0.000933327
-0.000633089
0.00265906
-0.00262118
9.08264e-05
-0.000128708
-0.00109304
0.000260001
0.000833037
-0.00128367
7.09661e-05
0.00121271
-3.76966e-05
-0.000177144
0.00245255
-0.00223771
-0.0021328
-0.000357711
0.00245282
-0.00238698
0.00130363
-2.60824e-05
0.00110943
-0.00501354
0.00791986
0.000288158
-0.00319448
-0.000126494
0.000135474
0.00177247
-0.00178145
-0.000410258
0.000426711
-0.000450386
0.000433933
0.000742256
0.00162231
-0.00226886
-9.5711e-05
0.000265272
0.000230559
-0.000495831
-0.000476304
1.31564e-05
-0.00132279
0.00178594
-0.00164522
0.000672802
0.00150443
-0.000532011
0.00110227
-0.00171827
0.00115676
-0.000540765
0.00706962
-0.00123851
-0.00343579
-0.00239533
0.00249137
0.00243
-0.00107169
-0.00384969
-0.000610448
0.000537281
7.31671e-05
-0.00027062
-0.000543164
0.000813784
-0.00464231
0.000590717
-0.000365284
0.00441688
-0.000756343
-0.000658209
0.00181748
-0.000402932
0.000592429
4.66509e-05
-0.00063908
0.000939873
-5.98653e-05
-0.00118352
0.00030351
-0.000238026
2.63715e-05
0.000211655
0.000582355
-0.00273329
0.00160262
-0.0016183
1.56738e-05
0.00111444
-0.00125573
0.000141287
-0.00149429
0.00191545
-0.000323772
-9.73945e-05
-0.00056293
-0.00106527
0.00152679
0.000101409
-4.38107e-05
0.00155907
1.88007e-05
-0.00186215
0.00138194
0.000581789
-0.000101578
-0.000631717
0.000527791
-0.000111259
0.00181412
-0.00176844
0.000408635
-0.000454314
5.84245e-05
-8.35475e-05
0.00046233
-0.000437207
0.00590288
-0.000406336
-0.0027455
-0.00275104
0.00236569
-0.00234362
-0.000184733
0.000162662
-0.00068294
0.0006224
3.95185e-05
2.10207e-05
-0.00085806
-0.0001799
0.000860815
-6.87439e-05
-0.000456732
0.000525476
-0.000670735
0.00144116
0.000131252
-0.000901681
-0.000821968
0.00171167
-0.000391992
-0.000497714
-0.00199409
0.0020349
0.00014458
-0.000185386
-0.001876
2.39932e-05
0.00185201
0.000379922
0.00102254
-0.00172615
0.000323683
-3.63051e-05
0.000301303
-0.000161398
-0.0001036
0.00182045
-0.000113856
-0.00148346
-0.000223136
-0.00149189
-0.00335626
0.00044858
0.00439958
0.000384316
0.000245231
-0.000629547
-0.00107788
0.00108061
-2.72548e-06
-0.000809992
0.00360168
-2.47424e-07
0.000173975
-0.000173728
0.000117123
0.00015541
-0.000308838
-3.31841e-06
0.000212355
9.22665e-05
0.00192076
-0.000100313
-0.00113645
0.0016584
-0.000231798
-0.000290143
-0.00110916
-0.000865072
0.00197423
-7.33278e-05
-0.00158491
0.00227203
-0.00277096
0.00208385
-0.000147192
0.000747437
0.000375925
-0.00097617
0.00151617
0.00238913
-0.00301143
-0.000893865
-0.00276581
-0.00113556
0.0027281
0.00117327
0.00298184
0.00017248
-0.0029984
-0.000155917
-0.00117686
-0.000348708
0.00126371
0.000261862
-5.95873e-05
3.44135e-05
-0.00233774
0.00236291
0.00204037
-0.00233014
0.000135438
0.000154339
-0.0021628
0.00280743
0.000655062
-0.00129969
1.90108e-05
0.00120561
-0.00122462
-0.00215008
0.00279123
-0.000641147
0.000401949
0.000507791
-0.000667253
-0.000242487
0.000996162
0.000615136
-0.000327879
-0.00128342
-0.000636804
0.000375756
0.000170227
-0.00144407
0.00127385
9.15168e-05
-4.44014e-05
-6.96695e-05
2.25541e-05
0.00154866
-0.00157626
-0.00201778
0.00204539
-0.00192297
0.0011381
5.8783e-05
0.000726091
-0.000188158
-0.0012902
0.00133493
0.000143428
0.00135238
-0.00140441
-0.00107031
0.00112234
0.000133087
-4.15698e-05
0.00130459
-0.00149275
-0.000915643
0.00751939
-0.00125088
-0.00535287
-0.002038
-0.000848898
-0.00125321
0.00414011
0.00148943
-0.000184836
-0.000165503
0.000198913
-3.341e-05
-0.00296412
0.000455797
0.000920883
0.00158744
0.000251314
0.000215945
-0.000467259
0.000136378
0.00114073
8.76989e-06
-0.00128588
7.88505e-05
0.00125523
0.00165815
0.00285569
-0.00202934
-0.00248449
0.000120292
-0.0001228
-4.18935e-05
-0.00020898
0.000224449
0.000235845
0.00274257
-0.00268306
0.000527886
-0.000587396
0.00111209
0.000338741
-0.00172864
0.00027781
0.00257148
-0.00218024
0.000953112
-0.00134435
0.000571465
-0.000401309
0.000532647
-0.000702804
0.000324921
0.000206174
-0.000478416
-5.26783e-05
1.61286e-05
-9.3565e-06
0.000315892
-0.000322665
-0.000149878
-0.000927181
0.000192582
0.000884476
-0.00143038
-0.00147441
0.0020277
0.000877087
-6.73313e-05
-0.00309568
0.00311228
5.07312e-05
4.81115e-05
-0.000646922
0.00059881
-0.00145736
-0.000133804
0.00117027
0.00042089
-0.00150117
-0.000565586
-0.000291198
-0.00105924
0.00191603
4.56955e-05
-0.000330393
0.000284697
0.00166077
-0.00166517
4.39431e-06
-0.00143731
5.61151e-05
-5.27562e-05
0.00143396
-0.00182507
0.000572293
0.00125278
0.00155262
0.00033062
-0.0024092
0.000525961
-0.000374144
-1.62132e-05
0.000406486
-0.000376872
2.72747e-06
-0.00112966
0.000212257
0.000304568
0.000612831
2.39405e-06
0.000426893
0.000189723
-0.000468457
-0.000148159
0.00125626
-0.000176117
8.71969e-06
-0.00108886
0.000396817
-0.00073152
-0.000385146
0.000255315
-0.00194633
0.00207616
0.000132049
5.11301e-06
-0.000787049
0.000649887
0.000254366
-0.000159852
-0.00178033
0.00168581
0.00158336
0.000294714
-0.00187808
0.0037646
-0.00272326
-0.0016072
0.000227414
0.00165929
-0.0002795
0.0022557
-0.00143542
0.0016718
-0.00249208
0.000759212
-0.000533977
0.00182872
-0.00205395
0.000962535
-0.00240211
7.80432e-05
0.00136153
0.00329612
-0.00286478
0.00140938
-0.00184072
0.00138672
-5.55146e-05
-0.0013312
-9.55241e-07
-0.00179163
0.00179258
-0.00238119
0.00216438
0.00117934
1.68068e-05
-1.96975e-05
2.89069e-06
-0.000469023
0.000431204
0.000646966
-0.000609147
0.00108402
-0.00138238
-0.000464352
0.000762708
0.000651572
0.000150574
0.00157383
-0.00237598
-0.00229157
0.00165737
-0.00117581
0.00181
0.00104539
-0.00185791
0.00196026
-0.00114774
0.000780985
-0.000683168
-0.000239948
0.000142131
-0.000413598
-0.000466881
0.000880479
0.00107996
-0.00244247
0.00243204
-0.00106953
-6.98272e-05
8.36564e-06
2.75936e-05
3.3868e-05
-0.00124589
-0.000757853
0.00200374
-4.4151e-05
0.00100429
-0.000784389
-0.000175746
-0.000597834
0.000261537
0.000336297
-0.00184611
0.00152879
-0.00208204
0.00239936
-2.81047e-05
6.89742e-05
-1.57608e-05
-2.51087e-05
-4.52204e-05
-0.000170516
0.000156198
5.95386e-05
-4.07547e-05
-7.9164e-05
0.000130609
-1.06901e-05
0.000794045
0.000178275
-0.000815921
-0.000156399
-0.0011913
0.00363442
-0.000390995
-0.00205212
-7.15432e-05
1.71595e-06
0.000394751
-8.49055e-05
-4.28569e-05
-0.000266989
-3.25858e-05
0.000231374
-7.21575e-05
6.84681e-05
0.000797734
-0.00039112
-0.000206715
-0.00343612
0.00329378
-0.000422361
0.000564698
0.00127361
-0.000125343
-0.00121292
6.46488e-05
0.00102241
0.000487804
-0.00284423
0.00133402
-0.00175962
0.00160112
0.000158495
0.000583035
-0.000592268
-0.000309935
0.000319168
-0.000459308
0.00304125
-0.000363381
-0.00221856
-0.000408065
0.000633228
-0.000400321
-0.000844853
0.000167294
0.000507226
0.000170333
-9.04459e-05
3.72551e-05
5.31908e-05
-0.000878273
-0.00243561
0.00303069
0.000283194
-0.000542014
-0.00122581
0.00176214
5.68486e-06
0.000896494
-0.000938331
-0.000290649
0.000332486
-0.000237159
0.000290418
-0.000243772
0.000190513
0.000717691
-0.00022184
-2.97072e-05
-0.000466143
6.76279e-05
-0.00274125
0.0028007
-0.000127082
-0.000246219
-0.000246752
0.00098507
-0.00098637
1.30022e-06
0.00210902
-0.000787147
-0.00168986
0.000367985
-0.000983669
0.000627661
0.000323422
0.000684639
0.000180394
-0.000865033
-0.00162999
0.00174431
0.00306207
-0.00317639
0.000694106
-0.000310017
-0.000322664
-6.14248e-05
0.000496458
0.000188025
-0.00291517
0.00223069
0.000870673
0.000815643
-0.00129713
-0.000389188
-0.00123319
8.76607e-05
0.00114553
0.000870677
9.76253e-05
0.00104061
-0.00200891
-0.000821108
-0.000412083
0.00104775
-0.000108018
0.000775304
-0.00202119
-0.00152378
0.00146119
0.000287449
-0.000224865
0.00123695
0.00215957
-0.000128061
-0.00326846
-0.00157153
0.00205397
-0.00192719
0.00144476
0.000463874
0.00793463
-0.00745389
-0.000944614
0.00288607
0.000360067
-0.00152963
-0.00171651
-0.0014504
0.00041814
0.00135864
-0.000326373
0.000513788
0.000653749
-0.000402719
-0.000764818
-0.00322957
0.0030498
0.000179771
-0.00107189
0.00270522
-0.000585585
-0.000541086
0.000140223
-0.000180778
0.00058164
0.000660438
0.00205454
-0.000449539
-0.00226544
0.00133491
-0.000811775
-0.000523134
-0.000155415
0.00213696
5.455e-05
-0.00203609
0.00144207
7.41964e-06
-0.00144949
-0.000425442
-0.000668696
0.000886533
0.000207605
-0.000500968
0.00109859
-0.000833978
0.000236357
-0.000969749
-0.000668853
0.000566713
-0.000602564
0.000120948
0.000260758
0.00451477
0.000612891
-0.00279467
-0.00233299
-7.01472e-05
-0.00126559
0.00118033
-0.000248139
0.000570984
-0.000322845
-0.00104216
0.0011507
-0.000108546
-0.000396526
0.000115949
-0.000201581
0.000482157
0.000457554
-0.00210045
-0.000440237
-0.000839529
3.18349e-05
-0.00176588
0.00173404
1.83556e-05
0.000153722
-0.000172078
0.00018895
-0.000187407
4.85439e-05
-5.00876e-05
-0.0024011
0.000242439
-0.00224691
0.00440557
-7.25855e-05
0.000624946
-0.000696327
0.000143966
0.000309167
3.07519e-05
-0.000150969
-0.00592671
0.00266266
0.00991612
-0.00665207
0.0035833
0.000702576
-0.00144369
-0.00284218
-0.000124163
-0.00144114
-0.00139882
-4.82983e-05
4.29192e-05
5.37906e-06
-0.00176524
-0.000158391
-0.000121759
-0.000454017
0.000502919
7.28568e-05
0.000320579
-0.000361665
4.10854e-05
0.000656001
-0.000480755
-9.51228e-05
-8.01225e-05
0.00105828
-0.0056621
-0.00132289
-0.000379732
-0.000106675
-0.000235386
0.000721792
-0.00113497
0.00183199
0.000108813
-0.000805827
0.000258962
9.4304e-05
-0.00011016
-0.000243106
-0.000173833
-0.000648707
-0.000205721
0.00102826
-0.00114745
-2.48791e-05
0.000113957
0.00105837
-3.03312e-05
0.000157006
-0.000273165
0.00014649
0.000352272
-0.000101568
0.000126395
-0.000377099
-2.57871e-05
-2.15219e-05
2.68351e-05
2.0474e-05
-0.00104544
0.000950697
-0.00127777
0.00137252
-0.0026109
0.000286158
0.00261245
-0.000287704
-0.000255337
-0.000118332
0.000373669
-0.00078052
0.000511864
-0.000112929
0.000381584
0.000129968
5.71077e-05
-0.000212863
0.000324437
-0.000437269
0.000513327
-0.000400495
0.000340287
-0.000453168
-0.000549894
0.000662774
-0.00011048
0.000334042
-0.000223562
-0.000103515
-0.000956244
0.00177634
-0.000727475
-0.000622426
0.000476419
0.000873481
7.23055e-06
3.41233e-07
-3.34734e-05
2.59016e-05
9.0949e-05
0.000587874
-0.000561918
-0.000116905
-0.000332758
-0.000460761
0.000368409
0.000425109
-0.000465391
0.000115752
-0.00138471
0.00173435
0.000700415
0.00140022
-0.0016059
-0.000494737
5.00844e-05
-0.000648219
0.000541512
5.66221e-05
0.00240322
-0.00170203
0.00204799
-0.00274918
0.000291524
-0.000315445
-0.000816439
0.00084036
-0.000331272
-0.000568897
0.000900168
-0.000326561
-9.91461e-06
0.000336475
-0.000569708
-0.000892999
0.00146271
0.00121484
-0.00110895
-0.000466894
0.000361
0.00063711
-6.26066e-05
-0.00048862
-8.58831e-05
0.000608316
-0.00187636
0.00126805
-0.000341027
0.000330568
0.00044838
-0.000437921
0.000457927
0.000594076
-0.000454362
-0.00059764
0.000262258
-0.00245096
0.00248546
-0.000296751
-0.000442352
0.00127625
-0.00121395
0.000380058
0.000225715
-0.000246078
0.00195576
-0.00193539
-0.000248702
-0.000282171
0.000188657
0.000342215
-0.000466206
-0.000264179
0.000399113
0.000166508
0.000484183
-4.59667e-05
-0.000604725
0.000387813
0.0012858
-0.00159686
-7.67462e-05
0.000599267
-0.00137942
0.000188925
0.000591232
0.000491897
-0.000931714
0.000895334
-0.000455517
0.0019359
-0.00190927
-0.000202955
0.000176328
3.84121e-05
8.46321e-05
6.92409e-06
0.00277897
0.000102935
-0.00262132
-0.000260586
-0.00016107
0.00128729
0.000115919
-0.00124214
-0.00120452
0.000634809
4.74911e-06
-0.000761989
0.000620773
0.000136466
-1.42913e-05
-2.71489e-07
-0.00109417
-8.32425e-06
0.00110277
0.000772168
-0.000772439
5.65358e-06
0.000766514
0.00214599
0.000410584
-0.00028748
-0.00226909
2.40238e-06
-0.00145282
0.00145041
7.34422e-05
2.35436e-05
1.59796e-06
-9.85838e-05
3.94139e-05
-6.60524e-07
0.000241013
0.00123132
5.22797e-06
-0.00147756
-0.00504042
0.00179377
-0.000895459
-0.00154697
0.00123791
-0.00175772
0.000573287
0.00028897
0.000777735
-0.00206126
0.00160997
-0.000326443
0.000513426
0.00257195
-0.00053813
-0.00254724
-0.00155873
0.00309864
-0.00578575
0.00424584
-0.00152497
0.00203839
-0.00221269
0.00119533
-9.5251e-05
0.00111261
0.00029592
-0.00115378
0.00124567
-0.00245432
-0.000142708
0.00261037
-1.33437e-05
0.000226132
-0.00207091
0.000246049
0.00159873
-0.0016934
0.0016969
-3.77195e-05
3.42224e-05
0.000814402
0.00286538
-0.00249326
0.00224373
-0.00154526
0.000446944
-0.00114541
-0.00148766
0.000422592
0.0012912
0.000223893
-0.00147819
-0.000233366
0.000317253
0.000121436
-0.000501272
6.25836e-05
0.000186817
0.000353405
-0.000303589
-0.000236632
0.000417949
-0.000780016
-0.000179118
0.000541185
0.000269374
-0.000458756
-0.000128255
0.000317636
-0.000116818
0.000431032
-0.000852886
0.000538672
-0.000859229
0.000864882
-0.00111158
0.000262172
0.001272
0.00175695
-0.00202271
0.00163924
-0.00137349
1.04879e-05
-0.00185751
0.000481
0.00108567
-0.00156667
0.00164973
-0.00179005
0.000140325
0.0013825
-4.75079e-05
4.38865e-05
-0.00137888
0.000449994
-0.000591835
0.000684913
-0.000250777
-0.000618455
0.000119999
-0.000194278
0.0018409
-0.00176662
-0.000193092
3.44509e-06
-0.00080184
0.000991487
-5.93774e-05
0.00037663
-0.00139684
0.00114176
-1.26997e-05
0.000267774
-0.00107702
0.00119701
0.000426631
-0.000486008
0.00242108
-0.000368118
-0.000354667
-0.00169829
-0.000301229
0.000407149
0.000372166
-0.000478086
0.00131965
0.000222727
-0.00154237
-0.00137832
0.0013453
0.000589819
-0.000556792
-0.000523451
-7.65393e-05
-8.88957e-05
0.000688886
-0.00018874
0.000175789