/*--------------------------------*- C++ -*----------------------------------*\
| =========                 |                                                 |
| \\      /  F ield         | OpenFOAM: The Open Source CFD Toolbox           |
|  \\    /   O peration     | Version:  v2012                                 |
|   \\  /    A nd           | Website:  www.openfoam.com                      |
|    \\/     M anipulation  |                                                 |
\*---------------------------------------------------------------------------*/
FoamFile
{
    version     2.0;
    format      ascii;
    class       volScalarField;
    location    "1.3940496";
    object      T;
}
// * * * * * * * * * * * * * * * * * * * * * * * * * * * * * * * * * * * * * //

dimensions      [0 0 0 1 0 0 0];


internalField   nonuniform List<scalar> 
83563
(
300
300
300
300.033
300.562
300.003
302.781
300
300.004
303.435
300
305.393
300.001
300
300
303.325
300
300
302.325
300
300
300
301.275
302.434
300
300
300.002
307.216
300
300.011
300.124
300.006
300.229
300
300
300.082
300
300
300
300
300
300
300
300
300
300
302.596
300.607
300
305.241
304.857
300
322.181
331.489
300
301.41
300
324.819
325.095
300
331.31
310.352
300
300.001
332.685
336.371
329.547
300
300
305.082
300.509
300.007
300
305.043
300
303.167
304.138
300
300
300.114
300
300.021
300.206
314.782
300
300
300
312.577
300
300
300
300
300
303.87
323.99
300
314.791
300
300
300
300
300
300
300
300
300
300
300
332.453
300
300
300.101
304.155
300.611
300
300
302.196
300
300
300
300
300
300
313.057
300
300
314.409
302.997
300
300
303.571
304.554
301.357
307.866
300
300
300
300
300
304.589
300.174
301.655
300
300.085
305.383
338.273
300
300
300
300
301.915
300
300
300
300
300
300
300
300
300
300
300
300
300
300
306.254
300
302.683
300
300
300
300
305.454
300.449
305.167
300
300
300
300
300
300
300.033
300
300.714
304.009
307.262
303.352
301.907
300
300
300
307.841
300
308.561
300.129
313.732
300
300
300
300
300
300.161
300
300
300
302.957
300
302.12
300
300
300
300
300
300
300
300
300
300
300
300.296
300
300
300
301.201
300
300
300
300
300
300
300
300
300
300
308.311
300
300
300.183
300.312
300.016
300
300
300
300
300
300
300.025
300
320.64
300
300
300
300
300
300
300
300
300
300
300
300
300
300.848
300
300
300.864
300
300
300
300
300
300
300.662
300
300
300.007
300
300
300
300
300
300
300
300
306.412
300
305.423
300
300.067
300.003
307.819
300.105
300
300
300
300
300
300
300
300
300
300
300
300
300
300
300
318.616
300
300
300
300
339.491
313.176
300.189
301.321
300.678
300
300
300
300
300
300
300
300
300
300
334.687
300
308.222
300
300
300
319.342
300
300.004
300
305.789
300
300
328.723
337.214
300
300
300
300.997
300
300
300
300
300
300
300
304.368
300.066
300
304.11
300
300
318.752
300.651
316.543
300.056
302.729
300.09
306.032
306.237
300
305.17
300
300
300.001
300
300.018
300.15
300
300.34
300
300
300
300
303.848
300
300.411
300.183
300.224
300
300
300.915
300
300
300.048
300
300.525
300
300
300
300
300
300
303.483
300
300
302.759
300
300
300.141
300.593
300
300
313.813
300
300
300
309.934
300
300
300
300.409
300
300
300
312.079
300
301.416
311.274
300
301.232
301.116
300
300
305.881
300
300
300.451
300
304.992
300
300
303.2
300
300
305.175
300
306.929
300
300
307.58
304.344
307.159
306.147
300
300
300
300
300
304.457
300
300
300.908
300
306.377
300
300
300
300
300
300
300
300
300
300
300
300
300
300
300
300
300
300.431
300
300.003
300
300
300
302.267
300
300
305.733
300
300
300
300
321.083
300
300
300
300
300
300
300
300.018
300.033
300
300.095
300.011
300
300
301.604
300
300.001
300
300
300
300
300
300
331.819
330.674
300
300
300
300
300
300
300
300
336.967
300
300
300
300
300
300
300
300
336.021
300
300
328.355
300
300
331.613
301.263
314.452
309.002
300
310.829
334.258
300
300
301.52
300
300
300
300
304.418
300.136
321.767
300
300
301.478
300
300
305.074
300
316.231
300.004
300.001
300
318.724
300
300
300
323.465
300
300
300
300
300
300
300.001
306.081
300
300
300
300
300
300
300
300
300
300
300
300
300
300
300
300
300
300
300
300
300
300
300
307.109
300.025
300
300.001
300
300
300
300
316.604
300
300
300
300
300
303.116
316.017
300
301.128
300
300
300
300
300
300
300
300.002
300.027
300
300
312.38
300
300
300
300
300
300
300
300.192
300
300
300
301.11
334.054
300
300
300
300
300
300
300
300
300
300.241
300
300
329.563
300.232
300.478
326.53
300
300.349
300
300
300
300.17
300
300.448
301.126
300
300
310.698
300
300
304.903
325.972
300
300
330.919
300
302.755
302.832
302.559
309.381
300
300
300.79
300
300
300
310.739
300
300
300.712
300.326
300
300
300
300
304.483
300
300
300
300
300
300
300
300
300
300
300
300
300
300
305.811
300
313.091
300
300.004
300
300
325.749
302.379
300
317.59
300
300
300
303.802
334.381
300
300
300
338.374
300
300
300
300
300
300
300
300
304.295
323.634
300
300
300
300
326.251
300
300
300
300
300
300
300
300
300
300
300
300.003
300
300
300
302.804
300
300
300
300
300
300
300
310.942
300
300
300
303.435
331.129
337.481
300
337.424
300
300
300
300
300.304
308.506
300.005
330.97
300
300
301.694
300.952
300
300
300
300
300
300
300
300
300
341.223
316.242
300
300
300
316.65
307.287
307.422
305.701
300
303.713
300
300
300
300
306.817
304.029
300
300
301.163
300.926
300
300
300
302.209
300
313.755
300
300
300
300
300
300
300
300.001
300
300
300.001
300
308.603
303.616
304.844
303.603
311.062
300.01
300
300
300
300.001
300
306.047
300
300
300
300
300
300
300
300
300
300
300
300
300
318.345
300
300
300
300.508
303.367
300
300
300
300
300
300
300
300
314.148
300
300
315.987
334.917
300.425
300
300
300
300
300
300
300
300
300
300
300
300.176
300
300
300
300
300.118
300
300
300.221
300.009
300
300.222
300
327.47
330.201
300
318.631
300
300
300
300
300
303.718
300
300
300
336.572
300
307.31
301.752
300
300
331.666
300
310.543
300
300
318.509
300
300
300
300
300
300
300
302.718
300
303.176
300.491
300.482
300
300
300
300
318.89
300
300
300
300
300
300
300
300
300
300
300
300
300
300
300
300
300
300
300
300
300
300
300
300
300
300
300
300
300
300
300
300
300.74
300
300
300
300
300
300
301.531
300
300
313.618
302.522
300
300
300
311.792
300
304.153
300
306.244
300
300
300
300
300
300.003
303.925
300
300
305.345
305.237
300
300
300
300
301.726
300
300
300
300
300
300
301.418
300
300
300
300
300.426
300.003
300
300
304.362
300
300
310.84
300
300
300
300
302.275
300
303.514
303.137
300
300
300
300
300
300
300
301.823
300
302.241
300.996
328.086
300
300
300.683
300
300.017
300.089
300
300
304.299
300
320.528
300
300
300
304.066
303.385
300
302.693
305.845
300
300
303.268
300
302.089
300
300
300.038
300
303.569
300.727
300
300
300
300
300
300.648
300
300
300
300
300
300
300.153
300
300
300
300
300
300
300
304.181
300
300
302.456
300
300.011
322.858
300
300
300
301.463
300
300
300
301.489
300
300
300
300
300
300
300
300
308.173
300
300
300.184
300
300
300
300.001
300
300.001
300
300
300
300
300
300
300
300
300
300
300
300.385
300
300
300
306.813
300
300
300
300
300
300
300.021
300.005
300
300.245
300.038
300
300.081
300.3
300
300.019
300.056
302.673
300
300
300
300
300
300.087
300
302.057
300
301.132
303.31
300.457
301.28
307.204
302.001
300
300
300
300
300
324.891
300
300
300
308.159
300.322
300.56
303.642
300.472
300
300
300
300.022
300
300
300
302.89
300
300
300
300
300.021
300
300
300
300
300.002
303.551
300
300
300
302.146
300
300
300
300
300
300
300
300
300
300
300
300
300
300
300
300.257
301.452
305.062
300
300
300
300.243
321.13
301.273
300
300.007
300.015
300.067
300
300.892
300
300.179
308.457
300
300
300.001
300
300.033
304.149
300.02
300
300
300.114
300
301.235
304.601
300
303.842
300.46
300
300
332.475
300.553
300
300
300
332.271
300
300
300
300
300
300.445
300
300
300
300
300
301.454
300
300
300
300
300
300
300
300
300
300
340.786
300
300
300
300
300.22
300
342.274
300
300
316.835
300
335.702
300.41
300
300
300.844
300.004
300.58
300
300
300
300
300
304.372
300
300
300
300
300
300.004
300
300
300
301.11
300
300
300
300
300.355
300
300
301.924
300
300
302.521
300
300.002
300
300.014
300.048
300
300
300
300
300
300.023
300
300
300
306.592
300
300
300
329.99
300
304.703
300
300
300
300
300
302.202
300
300
300
300
300.008
300
300
327.974
300
306.288
303.286
300
300
300
300.006
300
300.343
300
300
300
300
300
300
300
300
300
300
300
300
300
300
300
300
300
300
300
300
300
300
300
300
300
300
300
300
300
300
300
300
300
302.368
300
300.002
311.694
300
301.003
300
300
300
300
300
300
319.138
300
300
300
300
300
300
300.424
300
301.801
311.848
300
300
300
300
300.004
300
300
300
300
327.748
300
300
300
300
300.033
305.95
300.001
300.015
300
303.423
300.005
322.198
300
300
302.928
300
300
322.224
300.04
300
300
300.223
300
314.685
300
300.006
300
300
300
300
300
300
300
300
300
300
319.4
300
300
300
300
300
300
300
300
300
300
300
300
305.239
300.008
300.007
300
307.493
300
301.687
300
300
300
300
300.006
300
300
300
300
300
300
300
300
300
314.706
314.036
300
300
315.271
327.056
300
329.648
300
300
300.175
332.913
300.445
300
300
300
300
300
300
300
304.527
300
300
300.453
300
300
300
300
300
300
300
300
302.009
300
304.693
300.989
300
304.894
300
300
300
300
300
300
300
300
300
300.641
300
300
300
305.341
305.6
300
306.38
303.779
312.469
306.652
300
306.634
300
300
304.728
300
300
303.415
300
300.985
302.414
300
300
300
300
300
300
301.765
300
300
300
302.112
301.219
300
300
300
300
302.281
301.645
300
300
300
300
300
300
300
300
300
300
300
300
300
300
300
300.001
302.079
300
300
300
300
300.841
300
300
300
313.052
302.712
300
300
301.884
300
300
300
300
320.327
302.882
300
300.035
300.296
302.552
300
330.089
300
300
302.825
300
300.002
300
300
300
300
300
300
300
300
300
300
300
300
300
300
300
300
300.355
300
300
300
300
300
300
307.004
300
300
300
300
300.451
300
300
300.218
300
300.01
300
300
300
304.687
300
300
300
300
300
304.2
321.496
300
300
300
308.16
304.517
300
303.672
300
300.94
300
300
300
300
300
300
300
300
300
316.492
300.943
300
300
331.644
300
300
300
300
300
300
300
300
329.626
300
300.075
300
300
300.586
305.416
300.009
300
330.829
300
300
300
300
300
300
300
300
300
300
300
320.668
300
300
300
329.007
300
335.09
300
333.487
300
300
300
300
300
300
300
300
300
300
300
300
300
300
300
300
300
300
300
323.21
300
300
300
300
300
300
300.207
301.306
300
300
300.087
300.07
300
300
300
300
300
300
300
300
300
302.545
300
300
300
300
300
300
300.055
304.027
300
300
300
300
300
300
310.575
300
331.344
300
300
300
300
300
315.907
300
300
300
305.273
300
300
309.452
300
300
313.973
300
300
300
300
300
300
300
300
300
300
300
300
314.951
300
321.426
300.436
300.116
300
306.994
300
300
300
300.599
300
300
300.001
300
300
300.03
300
300
300
300
319.873
300
300
300.251
300
333.771
300
300
300
300
300
300
300
300
300
300
300
300
300
301.559
300
300
300
300
300
300
305.07
300
300
334.828
300
300
300
338.558
300
328.352
300
300
300.822
314.476
300
300
300.404
300
300
339.056
323.988
346.84
300
343.875
343.76
300
300
300.063
300.364
300
300
300
300
339.794
332.611
321.733
301.416
300
303.931
300
300
303.608
300
300
300
300
300
304.838
300.285
300
300
300
300
300
300
300
300
300
322.173
300
300.145
300
300
336.973
300.011
300
310.633
315.351
300
324.356
300
300
300
300
300
300
300
300
300
324.532
300
300
300
316.231
300
300
300.064
300
300
300
300
300
300
300
300
300
300
301.806
302.615
300
300
300
300
300
300
326.033
300
300
300
300
300
300
300
300
300
300
300
300
300
300
300
301.509
300
300
300
300
300.001
300
300
300
300
300
300
300
300
300
300
300
300
300
300
300
313.604
300
300
300
300
326.101
300
300
300
300
300.063
300
321.652
300
300
312.464
300
300
300.018
310.141
300
328.982
300
300.02
300
300
300
315.048
300.001
301.322
300.022
300
300
300
313.353
300
303.143
303.628
303.691
300.013
301.584
300
300
300
302.784
303.819
300
300
300
300
300
303.598
301.24
300
300
302.444
301.992
300
300
300.872
300
300
305.498
315.643
300
300
300
300.579
300
300
300
300
300
300
300
300
300
300
300
303.32
316.095
300
300.575
300
300
300
302.63
300
303.575
300
300
300
300
300
300
300
318.764
300
300
301.287
300
300
300.039
300
300
300.004
300
300.784
300
300
300
300
300
300
300.007
300
300
300
300
301.887
300
300
300
300
300
300
300
300
300
300
300
300
300
300
300
300
300
302.4
300
300
300
302.419
329.686
300
300
300
300
300
300
300
300
318.349
300
300
300
300
300
300
300
300
300
300
300
300
300
300
300
307.473
300
300
300
300
300.001
300
300
300.415
300
301.928
313.45
300.127
300
305.878
300
300
300
300
300
300
301.883
300
300
300
300
319.77
300.255
300
300
300
300
300
300
325.072
300.115
333.284
300
300
309.079
301.3
300
300
300.045
300.221
300
300.002
300.019
300
300
300.001
300
319.987
300.655
300.004
300.122
300
300
301.889
300
300
300
300
307.762
300
307.156
300
300
300
300
300
300
300
300
300.486
300
300
303.213
300
300
300
334.387
300
300
300
300
300
300
300
300
300
300
300
300
300
300
300
300
300
300
300
300.003
300
300
300
300
300
300
309.054
300
300
300
300.033
300
300
300
300
300
300
300.019
304.989
300
300
300
300
300
300
300
300
300
303.398
300
300
300
300
300
300
303.399
300
303.643
300
303.736
300
303.286
300
300
303.661
314.669
300
300
300
300
300.157
300
300
300
305.45
300
300
300
318.211
300
300
300
300
300
300
313.638
300.129
300
300
300
300
300
300
300
300
300
300
300.691
304.841
300
307.301
306.686
300
300
302.099
300
300
300
300
300
300
300
300
300
300
314.05
300
300
300
300
300
300
300
300
300
300
300
300
300
300
300
300.09
300
302.211
300
300
300
300
300
300
300
300
300
300
300
300
300
300.24
300
300
300
308.112
300
319.788
300
300
300
300
300
300
300
306.158
300
311.497
300
300
300
300
300
300
300
300
300
301.999
300
300
300.019
300
300
301.256
300
300
300
300
300
300
300
308.627
300
300
300
305.099
300
327.765
300
306.17
303.831
300
306.164
300
300
300
300
300
300
300
300
300
300
302.83
300
300
300
300
300
300
300
300
303.398
300
300
300
300
300
300
300
300
300.849
300
300
300.129
300
300
300
300
300
300
300
300
300
300.19
300
301.41
300
300
300
300
300
300
300
300
310.614
300.001
300
300
300
300
300
300
300
300.001
300
300
300
300.003
300
308.654
300.494
300
300.008
300
300
304.8
323.461
300
300
304.77
300
300
300
300
300.002
300
317.218
300
300
300
300
300
300
300
300
300.002
300
300
300
300
300
300
300
327.626
300
308.392
314.563
300
310.207
300
300
300
300
300
300.366
332.029
334.838
300
300.003
330.104
300
300.001
300
300
300
300
319.785
300.007
300
300
300
300.031
338.104
300.204
300
332.235
300
300
300
300
300
300
300
300.001
300
300
300
300
300
300
300
300
300
300
300
300
300
301.338
320.986
300.003
300
300.044
300
300
300
300
300.001
300.004
300
300.001
300
300
300
300
301.282
300
300
300.082
300
300
300.368
300
300
320.747
300
300.54
300
304.061
300
300
300
300
300
300
300
300
300
300
300.198
300
300
300
300
300
300.35
300
300.177
300
300.089
304.176
300.104
302.963
300
300
304.896
304.457
300.454
301.841
300
300
300
300.134
303.532
300
301.548
300
300
300
321.682
300
300
300.014
300
304.89
300.034
300
300.019
300
300.018
300
303.412
300.067
300
300
300
300
300
300
300
300
300
300
300
300
300
300
300
300
300.045
300
300
300
300
300
300
300
300
300
300
335.31
300
300
300
308.812
300
311.406
300
300
300
300
300
300
300
300.247
300
300
300
300
300
305.11
300
318.472
300.001
300
300
300
306.762
300
300
300
317.001
300
300.118
300
300
300
300
300
300.042
300
300
300
300.993
300
300.781
300
300
300
300
300.02
300
300
300
300.019
300.066
301.326
300
300
300
300
300
300
300
300.001
300
312.765
300.568
300
300
300
300
300.84
307.216
308.349
300
300
300
300
325.693
300
300
300
300
316.898
300
306.17
311.302
300
300
300
300
300
300
300
300
300
300
300
300
300
300
300
300
300
300
300.001
300.006
300
300
300
300
300
300
305.217
300
300
300.013
300
300
300
300
300
300
305.79
326.89
300
305.464
300
300
300
300
300
300.011
300
305.118
304.266
300
303.764
304.767
302.086
304.822
305.584
300
300.094
305.091
300.059
308.632
300
301.126
303.652
300
338.38
306.255
300
333.723
300
300
300
300
300.023
300
300
300
300
300
300
300
300
300
300
300
300
300
332.089
300
300
300
300
300
300
300
300
328.132
300
300.171
305.205
300.001
300
300
300
300
300
300
321.715
300
302.399
300
306.447
300
300
300
300
322.977
337.633
300
300
300
300
300
300
301.613
313.51
300
300
300
300
300.01
300
300
300
300.001
319.418
323.751
315.807
311.913
318.145
300
300
312.892
322.203
300
300
300
300
303.722
300
300
300
303.323
300
300
300.019
300
300
300
300
300
300
300
300
300.001
300
306.797
309.272
300
300
300.134
309.684
300
300
315.284
300.012
300
300
300
300
300
300
300
300
300
300
300
300
300
300
300
300
300
330.784
300.003
300
302.549
300
300
300
300.003
300
305.031
300
300
300
300
330.351
300
314.449
327.936
325.061
300
300
300
304.959
300
300
300
300
300
300
300
300
300
300
300
300.074
328.419
300
300
300
300
300.14
300
300
300.006
331.19
300
300
300
300
327.304
300
300
300
300
300.017
300
300
300
300
300
300
325.507
323.683
300
300
300.003
300.002
300.253
300
300
300
300
300
300
300
300
300
300
329.887
300
300
327.733
300
300
330.025
300
300.148
300
300
300
335.388
300
300
300
300
330.042
300
300
300
300
300.001
300
300
300
300
300
300.033
300.928
300
324.096
300
314.771
300
300
300.331
300
300
316.54
300
300
300
300
300
300
300
300.046
300
304.222
300
300
300.708
300
300
308.904
300.171
304.394
300.347
300.008
301.244
302.868
319.21
300
300
300.319
300
300
300
300
324.155
300
300
330.901
316.639
311.25
300
300
304.189
304.426
300
300
300
300
300
300
330.456
300
300
300.001
300
300
313.307
300
300
300
300
322.048
300
300
300
300
317.779
300
300.002
302.252
320.157
309.193
300
300
300
300
300
300
300
300
300
317.492
300
300.017
300
300
300
307.485
300
300
300
300
300
300
300
300
300.218
300
300
300.024
300
300
320.27
300
326.634
300
300.819
300
300
300
300
300.274
301.678
300
300
300
302.035
300
300
327.391
300
300
300
300
300
300
300
300
300
327.104
300
300
300
300
300
300
300
300
300
300
300
300
306.509
300
300
300.003
300
300
319.714
300
300
300
300.019
312.428
300
300
300
300
300
302.049
300
300
300.036
300
300
300
300
301.373
300
300
300
300
315.201
300
300
300
300
300
300
300.098
300
300
300
301.412
300
300
300
300.079
300
300
300
300
300.075
317.157
300.319
300
300
300
300
300
300
300
300
300
300
300
300.014
300
300
300
300.018
313.262
300
300
300
300
300
300
300
300
300
300.009
300
300
306.045
321.452
300
300
300
300
300
300
300
307.186
300
300
300
316.867
300
300
300.141
300
300
300
300
300
300.001
300
305.491
300
300
330.395
301.302
305.441
300
300
305.681
305.005
300
300
300
300
300
300
300
305.662
300
300
300
300
300
300
300
308.612
300
300
300
300
300
300
300
300
300
300
300
300
300
315.845
300
300
302.178
321.405
300
326.906
300
300
300
300
300
301.417
304.71
300
300
300
300
300
300
300
300
300
310.624
300
300
300
300
300
300
300
300
300
300
300
300
300
300.554
300
300
314.131
300
300
300
300
300
300
300.04
300
300.965
305.629
303.515
300
300
300
300
300
300
300
300
327.118
300
300
300
300
300
300
300
300
300
300
300
300.016
326.299
300
321.831
300
300
300
300
300
300
300
300.046
300.006
300
300.686
300
300
315.919
300
300
306.751
300
319.955
300
300
300
302.226
316.83
300.026
300
300
300
300
300
300
300.002
300
300
300
300
300
300
300
300
300
300
300
300
300
300
300
300
300
300
304.779
300
300
303.641
300
303.613
300
300
304.11
300
300
300
300
300
300
300
300
302.696
300
320.42
300
300
300
300
300
300
300.363
300
300
300
300
300
325.883
300
300
300
320.37
300
322.305
300
300
300.008
300
300
300
300
300
300
300
300
301.9
300.18
300
300
300
309.991
302.061
300
300
300
300
335.07
300
300
304.875
300
331.616
300
300.932
300.373
303.419
300.393
300
300
300
300
300
300
300
300
300.011
300
300.001
300
300
300
300
300.11
300
300
300
300
300.069
300
300
300.296
300
300.019
300
330.497
300
300
300
300
300
302.201
300
300
300
300
303.119
300
300
303.641
300.152
300
300
300
300
300
305.212
300
333.311
300
300
300
300
300
300
300
300.028
300
300
300
300
300
300
300.007
300
300
300
300
300
300
304.882
300
325.823
300
300
300
300
300
300.001
311.699
300
300
304.261
300
300
300
300
300
300
300
300
300
300
300
300
300
300
300
303.964
300.025
300
300
300
300
300
300
300
300
300
300
300
300
300
300
300
300
300
300
300
300
300
302.564
300
300.16
300
324.259
300
300
300.976
301.783
301.407
300
300.435
301.333
300
300
300
300
306.581
300
300
300
316.046
300
321.918
300
300
300
300
300.319
300
300.202
300
306.282
300
331.36
300
306.232
300
300
300
320.537
300
300
333.617
320.236
300
300
300
300
300
330.668
300
300
300.289
300
300
303.865
300
300.08
300.066
300
300
300
300
300
300
302.737
300
300.01
300
300
322.126
300.038
315.167
300
300
330.748
300
330.692
300
300
303.772
300
300
300
300
300
300
300
300
300
300
300
300
300
300
300
300
300
300
306.169
316.313
300
300
300
300
300
300
300
300
300
304.399
300.351
313.506
335.886
329.099
300
300
300
300
300
300
300
300
300
300
300
300
307.94
300
300
300.031
330.642
304.044
300
301.334
300
300
300
300.369
303.47
300.617
300
300
314.209
300
300
300
300
300
300
300.072
300
300
300
300
300
300
300
300
300
300
300
300
300
300.001
300
300
300
300
300
300
300
300
300
300
300
300
300
300
300.127
300
300
300
300
300
300
300
300
300
300
300
300
300
300
300
300
300
300.037
300
300
300.297
300
300.387
300
300
300
300
300
300
300
300
300
301.883
300
301.133
324.771
300
301.124
300
301.795
300
301.816
306.787
300
300
300
300
300.003
300
300.091
300
301.772
300
300.002
300
300.042
300
300
301.453
300
302.707
300
303.074
303.428
303.6
304.05
300
300
327.807
300
303.95
300
300
300
300
300
300
300
300
300
300
300
300
300
300
327.118
300
300
300
300
300
300
300
300
300
300
300
300
300
303.963
300
300
300
300
300
300
300
300
300.304
300
300
300
300
300
300
300
300.001
301.754
300
300
309.57
300
300
300
300
300
300
300
300
300
301.616
305.366
304.192
300
300
300
300
304.016
300
300
300
300
300
300
300
300
300
300
300
300
300
300
300
300
300
300.013
300
300.003
300
300
300
300
300
300
300
300
300
311.014
300
319.703
300
300
300
300
300
300
300
300
300
300
300
300
300.001
300.525
300
300
300
313.67
300
300
300
300
300
300
300
300
300
300
304.856
313.854
300
300
300
317.927
300
300
300
304.602
300
300
300
300
300
300
300
300
300
300
300
300
300
300
300
303.805
300
300
300
300.004
300
300
300
300
300
300
300
300
300
300
300
300
300
300
300
304.108
300
300
300
300
300
300
300
300
300
300
300
300
300
300
300.002
300
300
300
300
300
300
300
300
300
300
300
300
300
300
300
300
300
300
300
300
300
300
300
300
300.004
300
300
300
300
300
300
300
300
300
300.947
300
300
300
300
300
300
300
300
300
300
300
300
300
300
301.9
300
300
300
304.863
300
300
300
300
300.001
300
300
300
316.505
300
300
326.621
300
302.752
303.077
300
302.593
303.126
302.038
300
300
300
300
302.258
300
300
300
300
300
300
300
300
300
300
300
300
300
300
300
300
300
300
300
300
300
300
300
300
300
300
300
300
300
300
300
306.374
300
302.792
300
300
304.023
336.979
300
344.002
300
300.001
300
333.106
300
300
300
302.222
300
300
300
300
300
333.068
329.666
300
300
300
300
300
319.783
300
300
300
300.001
300
300
321.042
321.279
336.381
334.136
300
300
311.391
300
300
300
300
328.583
300
300
300
300
300
320.04
300
300
300
326.677
300
314.943
300
300
300
302.855
300
300
300
300.039
300
300
300
300
300
300
327.402
300.002
300
300
300
300
300
301.209
300
300
300
300
300
300
300
300
300
300
300
300
300
300
300
300
300
300
300.408
300
300
300
300
300
300.847
301.356
300
300
300
300
300
300
300
300
300
300
300
300
300
300
300
300
300
300
300
300
300
300
318.593
300
324.963
335.355
300
300
300
300
343.303
300
300
300
300
300
334.474
300
300
300
300
300.002
300
300
300
300
339.546
300
300
300
300
300
300
300
301.349
300
300
300
300
300
300
300.76
300
300
300
300
300
300
300
300
300
300
300
300
300
300
304.657
332.045
300
300
300
300
300
300
300
300
300
300
300
300
300
300
300
300
300
300
300
300
300
300
300
300
300
300
300
300
300
300
300
300
300
300
300
300.001
304.915
300
300
300
300
300
300
302.531
305.511
300
300
300
300.624
300
300
300
300
300
300
300
300
300
300
300
300
300
300
300
300
300
300
300
300
300
300
300
300
300
300
300
300
300
300
300
300
300
300
300
300
300
300
300
300
300
300
300
300
300
300
300.095
300
300
300
300
300
300
300
300
300
300
300
300
300
300
300
300
300
300
300
300
300
300
300
300
303.003
300
300
300
300
300
300
300
300.37
300
300
300
300
300
300.516
300
300
300
302.864
300
300
315.342
300
300
300
300
307.417
300
300
300
300
300
301.747
300
300
300
300
300
300
300
300
300
300
300
300
300
300
301.918
300.616
300
300
300
300.511
300
305.552
300
300
300
300
300
300
300
300
300
331.258
300.265
300
300
300
300
337.738
332.417
303.494
300.019
300
302.125
300
300
300
300
300
305.485
300
305.5
300
302.626
300
300
334.695
312.286
300
300
302.899
300
300.499
303.1
300
303.021
300
300
303.736
308.503
301.686
300
315.071
300.014
300.005
300
300
300
300
303.896
303.894
300.281
303.816
300
300
300
300
300
303.099
302.079
300
300
300
300
300
300
300.32
300
300
301.535
300.001
300
300
300
308.368
300
314.728
326.78
316.521
319.679
300
300
300.292
300
300
305.887
309.052
300
300
300
300.054
300.634
303.429
300
305.938
300
307.887
302.697
300
300
300
300
300
321.189
300
300
312.577
300
300.005
300
300
300
300.013
304.135
300
300
300
300
300
300
300.015
300
300
300
300
300
300
300
300
300
300
300
310.63
300
300
300
300
300
300.013
300
300
300
300
300
300
327.6
300
300.181
300
324.611
300
300
300
300
300
300
300.011
300
300
325.461
308.527
300
305.988
300
300
300
300
300
300.3
306.433
300.059
300
330.121
300
300
300
300
300
300
300.001
300
300
300
300
317.744
300
300
303.128
300
300
300
300
300
300.02
300
300.911
300
306.417
321.839
300
300
300
300
302.078
300
304.266
305.685
320.676
300
300.001
304.794
300
304.893
301.567
300
300
300
300
300
300
300.005
300
300
300.329
300
300
332.595
300
328.995
300.066
300
300.112
300
300
300
300
300
300
300.004
300
300.002
300.401
300
300.148
300
300
300.856
300
300
302.193
300.097
303.079
300
302.802
300
300
300.051
300
300.693
300
300
300
300
300
300
300
300
300
300
300
300
300
300
300
300
300
300
300
301.368
300
300
300
300
300
300
300
300
300
300
300
330.912
300
300
300
320.256
300
336.689
322.726
333.381
300
300
300
317.2
300.037
300
301.916
300.013
302.118
300.294
300
301.295
307.824
300
300
330.512
324.841
300
300
300
322.925
300
300
327.996
300
321.893
300
320.638
300
300
300
300.164
300
300
300.206
300
300
300.119
301.955
300
301.328
300
300.367
300.222
304.331
302.443
300
301.796
300.578
300.205
300.005
300
300
300
300
300
300.001
300.041
300
300
300
300
300.052
300
300
300.002
300.489
300
300
300
327.767
331.754
300
300
300.085
300
302.449
301.431
300.001
300.004
300.003
304.254
300.767
300
300.324
300.004
300
300
308.475
300.004
300.909
306.718
300.002
300
300
300
300
300
300
300
300
300
300
300
300
300.001
310.995
305.345
300.84
319.31
302.211
300
300
300
300
300
300
300
300
300
300
300
308.475
310.462
304.788
303.862
301.74
305.709
305.091
300
300.71
300.052
301.978
301.11
300.029
300
300
305.004
300
300
300.001
311.429
300
300
300.295
300
305.874
300
300
300
300
300
302.16
300
300.015
302.144
300.015
300
300
305.193
300
300.011
300.001
300.048
304.629
300
303.891
300.005
300
307.054
300
300.002
300
300
300
300
300
300
300
300.292
300
300
300
300
300.016
300
300
300
300
301.139
300
300.148
300
300
300
300.055
300
300
300
300
300
300
300
300
300.175
300
300
300
300.085
300
300
300
300
300
303.271
300
300
300
300
300
300
300
300
300
300
300
300
300
300
301.664
300
300
327.978
300
300
300
300
300
300
300
300
300
300
300
300
300
300.649
300
300
300
300
300
300
300
302.605
300
300.003
300
300
301.953
300
300
300
300
300
300
300
302.968
316.709
300
300.025
300
300
300
300
300.127
300
300
300
300
314.106
322.99
300
328.112
300
300
300
300
326.579
311.276
303.359
300
300
321.84
301.616
319.909
300
335.281
302.061
300
301.669
300
300
300
300
300
301.996
317.159
300
310.505
300
300
305.085
300
300
300
304.55
300
300
332.391
306.464
300
300
300
300
300
300
300
300
300
300
300
300
300
300
300
300
300
300
300.212
300
300
300
300.008
305.99
314.611
316.035
300
300.286
300
300
300
300
300
305.025
300.003
300
300
300
300
300
300
310.685
300
300
302.987
300
300.152
327.741
300
307.077
327.151
300.005
300
300
304.551
300
300
300
300.007
315.689
300
300
321.591
300
327.953
302.134
300
300
300
300
300.161
300
300
300
300
300
300
307.361
300
300
300
300
300
304.236
305.6
307.571
300
301.681
300.295
320.094
305.297
300
304.697
300.591
300
310.709
300
300
301.537
321.536
323.116
300
301.52
300.001
304.908
300.09
308.845
300
302.852
300.001
300
305.626
324.548
320.312
300
300
300.688
306.9
332.696
300.328
323.657
309.459
300.016
300
300
300.001
309.482
304.033
310.174
308.454
300.153
302.199
302.937
304.386
301.675
305.009
300
304.207
306.133
303.153
300.001
300.118
300.148
300.001
302.579
302.484
342.026
300
300
300
300
300
323.482
300.001
327.029
317.749
317.698
300
300
302.187
300
300
339.367
300
327.567
300
300
300
300.001
300
300
301.022
300
300
300
300
300
300
300
300
300
300
300
300
300.067
300
300
300
300
300
300
300
300
300
300
300
300
300.002
300
300
300
300
300
300
300
300
300
300
300
300
300
300
300
300
300
300
300
300
300
300
300
300
300
300
300
300
300
300
300
300.036
300
300
300
300
300
300
300
300
300
300
300
300
300
300.302
300.027
300
300
300
300.335
301.114
300
300
300
300
300
302.067
300
300
303.04
300
302.377
300
303.224
300
300
300
300
300
300
315.519
300
300
300
317.352
300
300
300
312.942
300
300
300
300
300
300
300
300
300
300
300
300
300
300
300
300
300
300
300
300.002
300.007
300
315.119
300
300
300
300
300
300
300
300
313.633
300
300
335.862
300
300
300.161
300
300
300
308.677
300.013
327.656
300
300
300
300
300
311.268
300
310.103
300
302.834
300
303.985
300
306.281
300
307.849
306.252
300
300
300.001
300
300
300
300
300
300
300
300
300
300
300
301.356
300
301.316
300
300
300
300
300
300.673
300
300
300
300
300
300.005
300
300
300
300
300
300
301.816
300
300
300
300
300
300
301.244
300
300.517
300.477
305.246
300
303.273
306.229
300
301.647
330.723
300
316.228
328.217
300.002
300
300.038
300
300
321.446
300
300
300
300
305.603
301.316
321.062
300
300
300
300
300
300
300
300
319.148
300
314.368
300
300
300
300
300
300
300
300
300