/*--------------------------------*- C++ -*----------------------------------*\
| =========                 |                                                 |
| \\      /  F ield         | OpenFOAM: The Open Source CFD Toolbox           |
|  \\    /   O peration     | Version:  v2012                                 |
|   \\  /    A nd           | Website:  www.openfoam.com                      |
|    \\/     M anipulation  |                                                 |
\*---------------------------------------------------------------------------*/
FoamFile
{
    version     2.0;
    format      ascii;
    class       volVectorField;
    location    "1.3940496";
    object      U;
}
// * * * * * * * * * * * * * * * * * * * * * * * * * * * * * * * * * * * * * //

dimensions      [0 1 -1 0 0 0 0];


internalField   nonuniform List<vector> 
83563
(
(0.0141841 0.318859 -0.000185346)
(-0.0582691 0.073802 0.000191179)
(-0.0944205 0.0609728 -0.000199588)
(0.056428 0.0443924 0.000172719)
(0.0193127 -0.363545 -0.00149023)
(0.00579072 0.0490564 0.000252269)
(0.480027 0.0104623 -0.000113642)
(0.375349 -0.00194727 -6.80626e-05)
(-0.227482 -0.0154139 -0.00077563)
(0.106112 -0.00243208 0.00323)
(0.067381 -0.0724637 -0.000862469)
(0.428126 0.0203512 0.000451823)
(1.10217 0.281727 -0.00201336)
(0.118538 0.00532 -0.000647696)
(0.338447 -0.0169525 -0.000323925)
(-0.0364265 -0.312378 7.95837e-05)
(0.0181757 -0.0236041 -0.000585037)
(0.11011 -0.000596002 -0.000754293)
(0.337028 0.0586069 -0.0010242)
(0.113843 -0.00134596 -0.000727142)
(0.127271 -0.0135808 -0.00034432)
(0.118171 0.0114209 -0.000469575)
(0.314945 0.176776 0.00100435)
(0.0774 -0.0266319 0.00282652)
(0.100756 -0.0112074 -0.000744153)
(0.251088 0.00559316 -0.000264443)
(-0.0353141 0.0717075 -0.000156287)
(-0.0609794 -0.172721 0.00758489)
(0.247627 0.0160018 -0.000366975)
(-0.0408367 -0.138338 0.000556718)
(-0.146315 -0.034973 0.00148062)
(-0.126793 0.0255726 0.000593236)
(-0.190142 0.170357 0.000674799)
(0.0930475 -0.129462 -0.000129107)
(0.146744 0.0891577 0.000133484)
(0.0202925 -0.107111 0.00361071)
(0.00392374 -0.0157594 -0.000235452)
(0.0982609 -0.0381994 -0.000979784)
(0.0608106 -0.0860235 -0.00141768)
(-0.360647 0.331617 -0.000487721)
(0.122368 -0.0147735 -0.000447378)
(0.229835 0.0166645 -0.000490976)
(0.0294064 -0.0800494 -0.00228012)
(0.230071 -0.007744 -0.000604534)
(1.13066 0.0775822 -0.00645312)
(0.450196 0.236399 -0.000387869)
(0.0232887 -0.340728 -0.00123094)
(0.151832 -0.0401587 -0.00160288)
(0.314753 -0.00321355 -0.000185091)
(-0.110668 0.0272531 -0.000612429)
(0.0117539 0.268213 -0.00595412)
(0.22367 0.0037201 -0.000730541)
(-0.0940188 0.416926 0.00114055)
(-0.289453 0.412288 0.0257322)
(0.283908 0.163556 -0.000304904)
(-0.0800617 -0.557498 -0.00742045)
(0.11771 -0.0950433 -0.000363355)
(0.001126 0.420436 0.0174426)
(-0.201194 0.559109 0.0285299)
(0.324654 0.192156 -0.000351764)
(-0.441702 0.430969 0.0727198)
(0.0316889 0.221872 0.000217599)
(0.183423 0.00642535 -0.000684027)
(-0.0674686 -0.0602673 0.00135129)
(0.278236 0.58988 0.0074361)
(0.583804 1.03294 -0.0310034)
(0.0939657 0.553746 0.0111643)
(0.322879 0.190446 -0.000321656)
(1.88312 -0.330241 0.071205)
(0.167733 0.195051 -0.00379876)
(-0.0630715 -0.0957185 0.00147693)
(1.08951 0.481726 -0.0062902)
(0.0629703 -0.0549451 -3.30755e-05)
(-0.491166 0.389081 0.0160464)
(0.0836501 0.0217874 0.0001152)
(-0.23809 0.415051 -0.0090531)
(0.205708 0.94308 0.0561866)
(0.0620451 -0.0254381 -0.00044989)
(0.00484015 -0.022062 -0.000196042)
(-0.0795092 0.141217 0.0142329)
(-0.0684252 0.29283 9.49424e-05)
(0.426974 -0.148122 0.00168043)
(0.133993 -0.0115012 -8.41146e-05)
(-0.418544 0.235732 -0.00129693)
(-0.000402903 0.201624 -0.00032745)
(-0.0892579 -0.0957769 -0.000385285)
(-0.014699 0.011642 0.000293233)
(-0.219481 0.151087 0.00277445)
(0.025617 -0.1026 -0.000692817)
(-0.00119527 0.201569 -0.000330376)
(0.347967 0.00211239 -0.00032098)
(0.361127 0.00186586 -0.000222708)
(0.764992 0.504151 0.00199547)
(0.12453 0.0553792 0.00428176)
(-0.1009 0.166453 0.00577556)
(0.378016 0.0436287 -3.03914e-05)
(0.0599703 0.275691 -0.00459707)
(0.766969 0.448677 0.00198236)
(-0.0210463 -0.0256191 -0.000685952)
(0.343244 -0.0778245 0.000108639)
(0.437419 0.225747 -0.000317153)
(0.023209 -0.0421453 -0.00111949)
(0.156431 -0.129109 -0.000608746)
(0.00955917 0.0707792 -0.00105889)
(-0.106543 0.119733 -0.00303698)
(-0.0821206 0.209223 -0.0045933)
(-0.0743986 0.127727 -0.0029285)
(0.297628 0.0159477 -0.000223735)
(-0.467447 0.623994 0.0250255)
(0.0538681 -0.0783513 0.000306614)
(0.327268 0.183327 -0.000319676)
(0.321971 0.225631 -0.000271588)
(0.599693 -0.00759144 -0.000110662)
(0.0637594 0.0915619 0.0024593)
(-0.00334781 -0.0476099 -0.00149664)
(0.369519 0.0225213 -0.000402954)
(0.504756 0.334256 0.00190555)
(0.338298 -0.00213201 -0.000105574)
(0.100156 -0.0807708 -0.000901623)
(0.438252 0.0331063 -0.000135945)
(-0.169568 0.30077 -0.007411)
(0.903059 0.0487339 0.00181308)
(0.325944 0.17201 -0.00037485)
(-0.120101 -0.0431902 0.0028249)
(0.550011 0.085008 -0.00061177)
(0.34289 0.00049741 -0.000110138)
(0.382297 0.257086 -0.00299169)
(0.204963 -0.153303 0.000452276)
(0.393855 0.0769912 -0.000283217)
(-0.00209166 0.090496 0.000597477)
(0.461701 -0.172263 -0.00349342)
(0.510949 0.714363 -0.0852177)
(0.0418762 -0.213691 -9.25955e-05)
(-0.181402 0.0270397 -0.0229921)
(0.336701 0.0302139 -7.04184e-05)
(0.157163 -0.0272085 -0.000332892)
(-0.0492547 0.40897 -0.0017202)
(-0.0490227 0.0251283 0.000723252)
(0.321967 0.0178717 -0.000629028)
(0.485084 0.192027 -0.000951817)
(0.041119 -0.274367 -0.000925783)
(0.917079 0.193508 0.00105092)
(0.335507 -0.000980516 -0.000145829)
(0.0571065 -0.260566 -0.00131983)
(0.4194 0.229388 0.0269264)
(-0.0489241 0.948339 0.0447248)
(0.382711 0.0443946 -0.000820814)
(0.0501164 0.0153392 0.000465852)
(0.340111 0.0694116 -0.000572615)
(0.0321789 0.0454631 -0.00220109)
(0.0462863 -0.190374 -0.00207602)
(0.0777404 0.0463773 -0.000671971)
(0.00314921 -0.0445961 -0.000269047)
(0.401216 0.0244846 1.68235e-05)
(0.258732 0.0421562 -0.000402937)
(0.31172 0.0161501 -0.000177119)
(0.365807 -0.00576131 -0.000183016)
(0.000360354 -0.00615486 0.000269949)
(0.444595 0.000432247 -0.00023687)
(1.46862 0.70479 0.00901013)
(0.398346 0.0143305 0.000125136)
(0.118998 -0.00831686 -0.000382482)
(0.153549 0.0134163 -0.000592959)
(0.372504 -0.0117179 -0.000103873)
(0.38679 0.0275805 -2.64456e-05)
(0.0299389 0.261228 -0.00140757)
(0.378464 0.133804 -0.000100507)
(0.116937 0.526486 0.0066914)
(0.393426 0.0125248 -0.000101788)
(0.388149 0.0520498 3.12769e-06)
(0.347804 -0.0159885 -0.000150859)
(0.369384 -0.0124575 -1.21357e-05)
(0.510396 0.154118 -3.3247e-05)
(0.5684 -0.0174444 0.000850158)
(0.519882 0.127671 0.000451122)
(0.00555614 0.0843254 0.000926401)
(0.13629 0.0162017 -0.00101156)
(0.402687 0.0622569 -0.00052704)
(0.237989 0.128671 -0.000173041)
(0.38985 0.0681105 -0.000137987)
(0.363466 -0.110098 0.000300465)
(0.00413196 -0.140403 -0.000321371)
(0.413841 0.0933854 -0.000349042)
(0.0555699 -0.174938 0.00236634)
(-0.0147889 -0.0987666 0.00592103)
(-0.0309013 -0.307219 0.00913793)
(-0.000778713 0.0665829 0.00311683)
(0.0347746 -0.152055 -0.00049123)
(-0.06973 1.16085 -0.00291904)
(-0.106347 0.351112 -0.000121982)
(-0.0423414 0.257179 -0.000246675)
(0.0262081 -0.415122 0.0201493)
(0.442362 0.0042735 4.47942e-05)
(-0.0249929 0.0305357 -0.00148165)
(0.683022 -0.00943905 -0.005495)
(0.098794 0.060368 0.000441916)
(0.302609 0.0117851 -0.000853662)
(0.359109 0.017361 -0.000186629)
(0.146806 -0.0086684 -0.00048497)
(0.294044 0.0380826 -0.000654747)
(-0.260921 0.265371 0.000523046)
(0.156706 0.0304463 0.00231289)
(-0.219222 0.325306 0.00118127)
(0.356078 0.0274284 -0.000228654)
(-0.240243 0.332964 0.000727715)
(-0.138719 -0.109528 0.00396804)
(0.26112 0.0348005 -0.000697589)
(0.41823 0.355415 0.00535807)
(0.15141 -0.0599408 -0.000429288)
(0.110364 0.0116189 -0.000495565)
(0.28939 0.043162 -0.000768427)
(0.108561 0.955982 0.00567653)
(0.224907 0.133634 -0.001008)
(0.352811 0.000619555 -0.000218716)
(0.38664 0.0538602 -0.000342335)
(0.170531 0.00886126 -0.000425726)
(0.348598 0.0106286 -0.000101182)
(0.416575 -0.036242 -3.1362e-05)
(0.101782 0.00605166 -0.000741163)
(-0.150492 -0.0294832 -0.00173311)
(0.354903 0.00010323 -0.000515497)
(-0.0247752 0.0851291 -0.00115105)
(0.331607 0.0183604 -0.000308668)
(-0.161082 -0.0469325 -0.000750517)
(-0.365361 0.865276 0.0080207)
(0.357805 -0.00355915 -0.000132237)
(-0.290726 0.551731 -0.000366493)
(0.00554495 0.0151853 -0.000380304)
(0.34203 0.0554963 -0.000472916)
(0.0451383 0.75466 0.00178529)
(-0.00846935 -0.0305863 -0.000553536)
(0.316364 0.00500982 -0.000270586)
(0.363672 -0.000366946 -0.000246359)
(0.26734 0.0320773 -0.000615792)
(1.0367 -0.666556 -0.0125052)
(0.111036 -0.00527394 -0.000398859)
(0.299584 0.0268318 -0.00080558)
(0.0753094 -0.14867 0.000908782)
(0.0356754 -0.158377 -6.70294e-05)
(-0.108679 -0.0265839 0.000273156)
(0.376238 0.0380166 -0.000481468)
(0.181662 0.00314653 -0.00021292)
(0.324618 -0.00398703 -0.000161475)
(0.36563 0.0293407 -0.000296854)
(0.491896 0.143573 0.000498919)
(-0.0165234 0.060344 -0.000449436)
(1.01903 0.286685 0.0053768)
(0.450317 0.0312925 -0.000146136)
(0.142272 0.54246 0.000797213)
(0.0624278 0.00456104 -0.000329153)
(0.283454 0.0977145 -1.76531e-05)
(0.0015969 0.108126 -0.000475565)
(0.0114194 0.242598 0.000456729)
(0.367467 0.00168859 -5.73816e-05)
(0.0193756 0.218106 -0.000299629)
(0.132021 0.0242019 -0.000414415)
(0.328385 0.0104709 -0.000204699)
(0.378478 -0.100808 0.000269488)
(0.276974 -0.116046 1.7782e-05)
(0.0191071 0.237093 0.000276216)
(0.00775133 0.243491 0.000524735)
(0.170399 -0.0152118 -0.000482408)
(0.500541 0.2311 0.00196108)
(0.372116 0.0543914 -0.000391575)
(0.0119816 0.116199 -0.000390538)
(0.18601 -0.0159516 0.00154932)
(0.376178 0.0395429 -0.00061348)
(0.379266 0.286136 -0.000820603)
(0.414252 0.0511151 -0.000441541)
(0.365658 0.00455287 -0.000448351)
(0.380345 0.270747 -0.000457188)
(0.388313 0.296213 -0.000711042)
(0.0172067 -0.191743 -0.000845107)
(0.115452 0.0307237 0.00121499)
(0.361334 0.289853 -0.000850628)
(0.151337 -0.0915918 0.000559327)
(0.361283 0.340826 -0.00165938)
(0.332297 -0.00306647 -0.000136357)
(-0.350574 0.141768 0.000369788)
(0.00971596 0.109999 -0.000639277)
(0.39213 0.070417 0.000174871)
(-0.216044 0.394614 0.000861562)
(-0.0386793 0.268936 -0.00016595)
(-0.144591 0.278128 0.00124178)
(0.0176371 0.161606 0.00210593)
(0.00250622 0.0393208 -0.000459642)
(-0.0710682 1.22955 0.0294236)
(0.428245 0.275006 7.46189e-05)
(0.0643627 -0.152232 0.00029934)
(0.0939523 0.0187136 0.000405182)
(-0.0150943 0.217684 0.00243776)
(0.01779 -0.157166 -0.000185443)
(0.382289 0.317954 -0.000512909)
(0.339048 0.0269149 -0.000741424)
(0.0600638 0.0105501 -0.00140419)
(-0.314466 0.230454 0.00113598)
(0.288646 -0.000936691 -0.000294244)
(0.48064 0.0213884 0.000245136)
(0.004531 0.106073 -0.000626458)
(0.372114 -0.00208747 -0.000201459)
(-0.102813 0.0102912 -0.000568517)
(0.300383 -0.00917797 -0.00028305)
(0.396586 0.00400442 -0.000278479)
(-0.0298198 -0.0151811 0.000143549)
(-0.0133968 -0.00760486 0.000100854)
(0.373854 0.327257 -0.000549008)
(0.376007 0.339937 -0.00137657)
(-0.766347 0.61195 -0.0176952)
(0.397269 0.0200152 -0.00032834)
(0.522761 -0.00332517 0.000817293)
(0.168814 0.293961 -0.000422816)
(0.354485 0.0030871 -9.61945e-05)
(-0.178545 0.724513 -0.0267494)
(0.16716 0.099553 0.000297502)
(0.428186 0.79126 0.00759023)
(0.10185 -0.0424973 -1.23725e-05)
(0.71898 0.291336 0.00279852)
(0.168446 0.361451 -0.000370904)
(0.167124 0.353191 -0.000913589)
(0.34796 -0.00323176 -0.000134385)
(0.472017 0.0520441 0.0001371)
(0.147114 0.313322 -0.000466044)
(-0.0244771 -0.10926 -0.000875142)
(0.198765 -0.00627607 -0.00117282)
(0.344659 -0.00179263 -0.000128464)
(0.169551 0.353515 -0.00029928)
(0.438384 0.189858 -0.000599447)
(-0.594112 0.0126214 0.0103403)
(0.346289 0.0372819 -4.84837e-05)
(-0.24558 -0.0459391 -0.00233214)
(0.386662 0.0218367 -2.05435e-05)
(-0.0207395 0.054463 0.000897883)
(0.37411 0.0435211 -0.000449084)
(0.726674 0.0945842 -0.00370174)
(-0.0216514 0.34004 -0.000178969)
(0.0394067 -0.137721 -0.000473506)
(0.114401 0.0722675 0.000992918)
(-0.704288 0.229354 -0.0478721)
(0.375447 0.024508 -5.33211e-05)
(-0.0496872 0.0229884 -0.000546392)
(-0.450795 0.208837 -0.0172458)
(0.673906 0.711992 0.0361488)
(0.221104 0.240861 -0.000203351)
(0.00587302 0.0410679 7.44489e-05)
(0.381344 0.0225221 -3.97511e-05)
(0.0389249 -0.154908 0.000780251)
(0.378749 0.012347 -0.000122157)
(0.00605988 -0.0421885 0.000982682)
(0.341711 0.0128144 -0.000307186)
(0.00579517 0.0420418 4.1429e-05)
(0.350451 0.000775361 -0.000243201)
(0.505956 -0.0120468 0.00073831)
(0.0171408 0.0519487 -0.000603385)
(-0.284549 -0.308385 0.0208004)
(0.99423 0.292872 3.85694e-05)
(0.119029 0.000259993 0.000305311)
(-0.0765741 0.0593376 0.00113966)
(0.351685 0.0650236 0.000144615)
(0.36128 0.0038325 -0.000359908)
(-0.105107 0.332159 0.00591767)
(0.738767 0.12611 0.00265958)
(-0.0664428 0.340927 0.000564513)
(0.963682 0.223331 0.00286847)
(0.408497 0.357585 0.00429874)
(0.938534 0.232116 0.00150794)
(-0.0811052 -0.102747 0.0091057)
(-0.0836389 -0.067507 0.00251876)
(0.346771 0.00516298 -0.000176827)
(0.398741 0.265417 0.00150939)
(0.143668 -0.0241826 -0.000590722)
(0.338851 0.0240164 -0.000264204)
(0.225453 -0.0694529 -0.00079644)
(0.333573 0.0151488 -0.000486043)
(0.294004 -0.751023 0.0162832)
(0.217371 -0.743381 0.00668395)
(0.363753 -0.000572044 4.19663e-05)
(1.00126 0.288928 0.00263177)
(0.319964 0.0312949 -0.000351789)
(0.109512 -0.0124808 -0.000329096)
(0.380452 0.0214926 -6.80166e-05)
(0.0530311 -0.0804955 -0.00034811)
(0.244073 0.194915 0.000193262)
(-0.0606669 0.330235 -0.00068124)
(-0.200098 0.048843 -0.00091557)
(1.08862 0.265461 0.00339058)
(0.76887 0.239355 0.00541076)
(0.176787 -0.0811768 0.00167207)
(0.0557677 0.16313 0.000559609)
(0.64031 0.235516 0.0056225)
(0.306641 0.129281 0.000382494)
(0.00991422 0.2029 0.000929538)
(0.222712 0.00178433 0.00045704)
(0.0650081 0.013674 0.000769625)
(0.690923 0.238741 0.00412765)
(0.484014 0.000304367 0.00098659)
(0.354414 0.0321559 -0.000441032)
(0.404668 0.0409113 7.94546e-05)
(0.323907 0.0067047 -0.000177973)
(0.319928 0.00698262 -6.61196e-05)
(0.344776 0.0136069 -0.000288051)
(0.109728 0.882421 0.017297)
(0.283064 0.0156873 -0.000681209)
(0.10924 0.0117834 -0.000645388)
(0.860646 0.0240966 -0.00197286)
(0.644398 0.0466749 0.000246457)
(0.156289 -0.0067552 -0.000691511)
(-0.0447887 -0.49121 0.00697873)
(0.102866 0.0203806 -0.000564395)
(0.0292371 0.181756 -0.000105205)
(0.386514 -0.0393771 0.000303889)
(-0.0104462 0.735944 -0.0149395)
(0.436215 -0.00426898 0.000506633)
(0.37627 0.273597 0.000523644)
(0.0725024 -0.0432748 2.13255e-05)
(0.0394834 0.487777 -0.00967178)
(-0.338797 0.447795 -6.31308e-05)
(0.0956636 -0.0464762 0.0020132)
(0.0110061 0.220114 0.000168826)
(0.745478 0.249525 0.00582272)
(0.0318871 0.0743095 0.000352318)
(0.0543438 0.0495236 -0.000450225)
(0.00784037 -0.0297004 0.00125932)
(0.258431 0.852452 -0.0481128)
(0.339053 -0.00499817 -0.000239022)
(0.3773 0.197255 0.00122562)
(0.0816819 0.814701 -0.0126314)
(0.372392 0.130246 0.000945335)
(0.149964 0.0778271 -0.00241811)
(0.52161 -0.0340281 0.00120894)
(0.430426 0.0328285 0.000129464)
(0.412015 -0.0373804 -0.000134084)
(0.23818 -0.161709 -2.28549e-05)
(0.402478 0.0104412 -0.000243903)
(0.342057 0.0277919 -9.46986e-05)
(0.468181 0.239727 0.00326894)
(0.327573 -0.00341267 -0.000225152)
(0.299161 0.375623 0.00548166)
(0.167322 0.0816331 -0.0002995)
(0.35246 0.00177964 -8.49822e-05)
(0.0191374 0.202775 -0.00545614)
(0.401719 -0.0411936 0.000277794)
(-0.0130811 -0.0429719 -0.000838492)
(0.42097 0.337374 0.00275914)
(0.352891 -0.000768687 -0.000168324)
(0.292324 -0.0773861 0.00105961)
(0.341144 0.00592155 -0.000233117)
(0.0205035 -0.0375203 -0.000873916)
(0.331056 -0.0829108 0.00138801)
(1.66189 0.171648 -0.0185992)
(-0.361416 -0.581991 0.111007)
(0.326898 -0.0930048 0.000505682)
(0.00251512 -0.0484395 0.000738997)
(0.369851 -0.0113004 -1.76342e-05)
(0.0853888 -0.0427842 0.000681806)
(0.38948 0.0594503 -0.000324168)
(0.360751 0.0196842 -0.000101617)
(0.496809 0.142283 0.0019362)
(0.00503125 -0.0411595 -0.00111563)
(0.0391913 -0.0561543 0.000616394)
(0.45126 -0.117392 0.000509259)
(-0.027937 0.263528 0.000722029)
(0.452981 0.411546 0.0253367)
(0.0942802 -0.0683764 -0.000495952)
(0.0272291 -0.0804074 0.000244118)
(0.00175759 0.195681 -0.000269257)
(0.171322 -0.0462752 -0.000541607)
(0.254565 0.135967 -0.000353063)
(0.351829 0.0122224 -0.000174898)
(0.146565 -0.0155891 -0.000563294)
(0.318678 0.0116947 -6.9988e-05)
(0.317119 0.00857609 -3.20509e-05)
(0.350298 0.00755309 -0.000181606)
(0.0740475 0.00155718 0.000680453)
(0.352847 -0.00240865 -9.96847e-05)
(0.332964 0.0126905 -0.000162225)
(0.401747 0.126188 -0.000606959)
(0.321165 0.0284069 -0.000145818)
(0.000511599 0.196535 -0.000222024)
(0.000593298 0.195952 -0.000228235)
(0.118014 -0.121278 0.000181724)
(-0.00229508 0.198085 -0.00020952)
(0.0605022 -0.0366633 -0.000160564)
(0.322882 0.057988 4.0904e-05)
(0.00111027 0.209587 -0.000316067)
(0.355196 0.0143653 -8.79515e-05)
(-0.120552 -0.0627559 -0.000362594)
(0.366659 -0.0869551 0.000259336)
(0.367084 0.0457964 -0.000342647)
(0.755403 0.16682 0.0384321)
(0.365435 -0.0253538 -2.0317e-05)
(0.332385 0.0145917 -0.000188654)
(0.262704 0.143227 -0.000811922)
(0.270625 0.158257 -0.00071195)
(0.17473 0.424899 -0.00466173)
(0.428892 0.0131528 -0.000269488)
(0.455445 0.00245477 -0.000224845)
(0.263193 0.153038 -0.000705166)
(-0.00392199 0.00338436 -0.000829574)
(0.0498308 0.137082 -0.000110466)
(0.253239 0.157627 -0.00042554)
(0.327968 -0.052845 -0.000100037)
(0.340673 0.12141 0.000105322)
(0.533581 -0.0536835 0.00135467)
(0.0404541 -0.118968 -0.00014907)
(0.0986908 0.133252 -0.000958934)
(0.349966 0.128659 1.31875e-05)
(-0.00493889 0.0137474 8.29233e-05)
(0.387168 0.0851395 -0.000669238)
(-0.136368 0.0628046 0.000477053)
(0.0885633 0.107108 -0.000693463)
(0.308131 0.130048 -0.00175564)
(0.00315281 0.013498 0.000123354)
(-0.00693951 0.0216102 0.000366067)
(0.0249818 0.00691826 0.000512334)
(0.117447 0.0861256 -0.000474713)
(0.452078 0.0222845 -0.000489459)
(-0.000469773 0.0169919 0.000163608)
(-0.240867 0.0130384 -0.00176108)
(0.0292984 0.0772344 -0.00411186)
(0.119354 0.104055 -0.000722042)
(0.0961534 0.0911543 -0.000695397)
(0.535509 0.362459 0.00156111)
(0.261304 -0.00868465 -3.3246e-05)
(0.398462 0.0381042 8.29685e-05)
(0.366738 0.0624182 -0.000246366)
(0.0902745 0.00825022 -0.00039892)
(0.480922 0.0453911 0.000177708)
(-0.40673 -0.119394 0.0146408)
(0.13418 0.0584881 0.000418135)
(0.0134272 -0.0273025 0.000676099)
(0.466495 0.017939 -0.000318042)
(-0.0975673 0.263723 9.73743e-05)
(0.0785096 0.168747 0.000333805)
(0.0595121 0.0720081 0.000439762)
(0.139864 -0.0499142 -0.000199653)
(0.364457 0.0189633 -0.000318611)
(-0.165685 0.253309 -0.0143529)
(0.354754 0.00116325 -0.000265736)
(0.500029 0.0607742 0.00026954)
(0.373401 0.162637 -0.00521799)
(0.037285 0.167392 0.000518456)
(0.52105 0.0396761 0.000212586)
(0.202622 0.135626 -0.00419503)
(0.381813 -0.123364 0.000127583)
(0.280759 -0.0738524 0.000435961)
(0.210937 -0.0430934 -0.000923816)
(0.134749 0.202691 0.00033729)
(0.235661 0.00142051 -0.000527724)
(-0.436706 0.275053 0.017718)
(0.402831 0.0818336 -0.000725972)
(0.357477 0.054573 -0.00049767)
(0.397685 0.238157 0.00126441)
(0.34851 0.0673733 -0.000830634)
(0.928564 1.08822 0.00678758)
(0.352182 0.0592039 -0.000614624)
(0.348159 0.0567688 -0.000435123)
(0.0776494 -0.0915849 4.50009e-05)
(0.930234 0.194316 0.00465407)
(0.155315 0.455005 -0.00456364)
(0.108129 -0.0121652 -0.000512488)
(0.375727 0.118274 0.000432666)
(0.167184 -0.268225 0.00145254)
(0.37328 -0.0143674 -8.22083e-05)
(0.351831 -0.00181734 -0.000176784)
(-0.0209805 0.0530012 0.00105825)
(0.144182 -0.0348908 -0.000216965)
(0.191797 0.492089 -0.00504707)
(-0.114006 -0.0172966 -0.000143069)
(0.472822 -0.0811378 0.000455817)
(0.344116 -0.00873205 -7.89524e-05)
(0.0562366 0.0893619 0.00852292)
(0.208413 0.182928 -0.000192825)
(0.0901599 -0.0249635 -0.000517904)
(0.265069 0.156564 -0.000835319)
(0.108552 0.425962 -0.00391697)
(0.40602 0.00734132 -0.000277202)
(0.0470142 -0.0120755 0.000755388)
(0.0780884 0.00272673 -0.00126043)
(0.442385 0.46204 -0.00108872)
(0.13494 -0.0315601 0.000457819)
(0.108181 -0.0304051 -0.00156518)
(1.71983 -0.448924 0.0957653)
(0.577743 0.247467 0.000673172)
(0.370753 -0.0131943 -1.91601e-05)
(-0.00579787 -0.0157361 0.000311928)
(0.255108 0.152902 -0.000609714)
(0.118516 0.00954593 -0.000127406)
(0.12242 -0.0445818 -0.000727404)
(0.123887 0.00544671 -0.000402673)
(1.52855 -1.17725 0.231399)
(0.0681045 -0.0462336 -0.000478257)
(0.368304 0.127454 -0.000971637)
(0.00479495 -0.0323332 -0.000713663)
(0.0631373 0.157459 0.000479102)
(0.210195 -0.0176813 -0.00131719)
(0.0441007 -0.0498184 0.000513139)
(0.0575287 -0.044448 -0.000541294)
(-0.00417602 0.00104399 -0.00124014)
(0.0946304 0.109357 0.000426855)
(0.296397 0.225119 0.000133015)
(-0.00484804 0.0733003 0.0022805)
(0.131092 0.032242 -0.000484883)
(-0.0265857 0.0637886 -0.00106042)
(0.0802671 -0.0723815 -0.000557074)
(0.110121 -0.0881725 -0.00045809)
(0.0648147 0.0224232 0.000136232)
(0.256306 0.166898 -0.00260761)
(0.158912 -0.0310401 -0.00160537)
(-0.00344889 -0.0108999 -0.00116629)
(-0.0387055 -0.137747 0.00113592)
(0.0998493 -0.00222873 -0.000308877)
(0.352428 0.000504233 -0.000151615)
(0.360964 0.00437905 -0.000248322)
(0.130824 -0.00117557 -0.000517852)
(0.62521 0.441271 0.000613844)
(0.0676688 0.209104 0.000481262)
(0.0638471 0.166465 0.000413151)
(0.171246 -0.00182329 -0.00070507)
(0.157718 0.256829 -0.000418078)
(0.382971 -0.130338 4.40577e-05)
(-0.12363 -0.0414349 0.00394578)
(0.371339 0.0455747 0.00475831)
(0.0720278 0.150363 0.000451421)
(0.185777 -0.0908089 3.20161e-05)
(0.400421 0.014284 -0.00029309)
(0.251084 0.0186944 0.000488494)
(0.36662 0.0501534 1.46496e-05)
(0.101558 0.0292916 -0.0002131)
(0.067386 0.137831 0.000467352)
(0.0835673 -0.0532458 -0.000291099)
(0.352187 -0.0103692 0.000185465)
(0.242233 0.181227 -0.000127005)
(-0.0867099 -0.126548 0.000871676)
(0.35845 -0.0587012 8.55837e-05)
(0.00766677 0.041409 -0.0010973)
(0.445442 0.250885 0.00220738)
(-0.0429287 0.247169 0.000170355)
(0.152077 0.249988 -0.00047233)
(0.107203 -0.11343 -0.000349019)
(0.027362 -0.00773664 -0.00135764)
(-0.00285996 0.25615 0.000450258)
(0.00726282 0.249188 0.000392847)
(0.000987818 0.255057 0.000348977)
(-0.123527 -0.234065 -0.000372475)
(0.314437 -0.00483622 -0.000119628)
(-0.0151855 -0.0118177 0.000477714)
(0.00338019 0.0060244 -0.000976986)
(-0.106271 -0.229003 -0.000739054)
(1.05895 0.525807 0.0238446)
(0.16053 0.241764 -0.000476892)
(0.161729 0.239044 -0.000360881)
(0.214134 0.386911 -0.00068569)
(0.505247 0.129774 0.000423748)
(-0.561303 0.687463 -0.00634787)
(0.495722 0.119819 0.000360146)
(0.346336 -0.0115174 -0.000174134)
(0.381209 -0.0310321 0.000540922)
(0.385703 0.0512357 -0.000428884)
(0.0810938 -0.324189 -0.000728137)
(0.330093 0.00664797 -0.000159474)
(-0.360232 0.126464 -0.000127716)
(0.228326 0.471618 0.000142871)
(0.0718954 -0.269417 -0.000616654)
(0.0704404 -0.281545 -0.0011517)
(-0.149536 0.231721 0.0141299)
(0.0357818 0.0466362 0.000382682)
(0.177102 -0.253758 0.00051837)
(0.0813784 -0.0384567 -0.000404047)
(0.118252 -0.0399607 0.000728926)
(0.00863268 0.277647 0.00022561)
(0.105283 -0.271878 -0.000933584)
(0.350951 -0.00323257 -0.000281996)
(0.0850862 -0.339507 -0.000890984)
(0.0737726 -0.280949 -0.00103413)
(0.407737 0.0302395 6.37044e-05)
(0.33139 0.178893 -0.000405622)
(0.0932658 0.138878 0.00135332)
(0.32629 0.18221 -0.000387973)
(0.391046 0.0361431 5.11537e-05)
(-0.0943061 0.105738 0.000855593)
(-0.120311 0.209283 0.0234358)
(0.23629 0.104956 -0.000971365)
(0.392706 0.0365408 4.59525e-05)
(-0.177125 0.0738409 0.0403027)
(0.309821 -0.00483029 -0.00016698)
(-0.000927403 -0.0838706 0.000195506)
(0.485229 -0.0476832 0.000674136)
(0.310308 0.173475 0.00255269)
(0.0162268 0.156589 -0.00173048)
(0.0537573 0.0305003 0.000461736)
(0.118163 -0.0534122 3.62474e-05)
(0.689319 -0.191717 0.000753175)
(0.021389 0.111198 -8.65982e-05)
(0.347724 -0.0327522 0.000119662)
(-0.467733 0.308177 -0.00170729)
(-0.121247 0.327856 0.00179602)
(0.383169 -0.0264423 8.36812e-05)
(0.474957 0.0535096 0.000154998)
(-0.0762124 -0.0456903 0.000548004)
(-0.0518288 -0.0213513 9.32973e-05)
(0.360911 0.0682087 -0.000465439)
(0.00318478 0.212265 0.000535848)
(0.0242921 -0.0226695 -0.000373876)
(-0.00125107 0.236331 0.000470783)
(-0.210736 0.153306 0.00257485)
(0.337156 -0.0745136 0.000169499)
(0.349668 0.00383109 -0.000165284)
(0.159485 -0.0128123 -0.000559869)
(0.265378 0.082178 -8.30061e-05)
(-0.00133599 0.234092 0.000513129)
(0.139226 0.018448 -0.000598245)
(0.00228048 0.235789 0.00055906)
(0.0844801 0.121277 0.00025912)
(-0.00216872 -0.0161443 -0.00114159)
(-0.00306668 0.237014 0.00059693)
(0.408185 0.0432302 -0.00017506)
(0.0770066 -0.046833 -0.000475502)
(-0.026295 0.0610169 -0.00115799)
(0.397739 -0.112054 -2.05636e-05)
(0.437931 0.0259365 -0.000595978)
(-0.0261696 -0.0115681 3.33999e-05)
(0.203039 0.472524 -0.000562722)
(-0.12188 -0.170742 -4.38505e-05)
(-0.0527577 0.150607 0.00147968)
(0.356931 0.00202734 -0.000204006)
(0.448156 0.00456593 -1.72177e-05)
(-0.566059 0.36895 0.00869419)
(-1.36604 -0.754846 0.100449)
(0.0471438 -0.0490377 -0.000714099)
(-0.23613 -0.331804 0.0145518)
(0.387652 0.11592 -0.000351809)
(0.0224519 -0.0126214 0.000234855)
(0.0283721 -0.0114839 0.000263738)
(0.545543 0.0318145 3.79569e-05)
(-0.867427 0.808978 -0.0503916)
(0.340281 -0.0829006 0.000111925)
(0.137243 -0.00132289 -0.000709522)
(0.0267574 -0.0915887 0.00143982)
(0.0640989 1.0467 0.0744728)
(0.386857 0.120572 -0.000520928)
(0.08715 0.0181087 -0.000532967)
(1.42799 0.549405 0.00390213)
(0.296443 -0.0271349 -0.000199107)
(0.625504 0.162647 0.000479455)
(-0.066585 0.207053 -0.000405899)
(0.0798356 -0.0840461 -0.000570961)
(0.349182 0.0224843 -2.1318e-05)
(0.494232 0.125489 0.00104501)
(-0.340618 1.16365 -0.0032541)
(0.0757213 -0.0264829 -0.000433436)
(0.100293 0.0122536 -0.000140007)
(0.0989977 0.00473443 4.81366e-05)
(0.127821 0.00335791 0.000236721)
(-0.528837 -0.824224 -0.0298236)
(0.342005 0.101827 -0.00053291)
(0.339903 0.00244619 -0.000283495)
(0.090431 0.0129561 -0.000176315)
(0.490974 0.00609844 -0.000230569)
(0.483463 0.0377962 -0.000329533)
(0.0783572 0.0193983 -0.00191779)
(0.0902407 0.0101639 -0.00157365)
(0.130687 -0.00829032 -0.00131055)
(0.29482 -1.40161 0.0449332)
(0.355566 0.100097 -0.000607381)
(0.199487 0.180999 0.000616528)
(0.0196334 -0.0826016 -0.000907017)
(0.132188 -0.068295 -0.000322279)
(0.121492 -0.00834142 -0.001091)
(0.43079 0.214547 -0.000467332)
(0.444734 0.0303975 0.00854198)
(0.109367 -0.0328455 -0.000560341)
(0.0992479 -0.012371 -0.00031691)
(0.337465 0.00595366 -0.000188986)
(0.124711 -0.000547302 -0.0015451)
(-0.0062618 -0.0211891 -0.000240875)
(0.124813 0.0124585 -0.00117701)
(0.148975 -0.00632288 -0.000657381)
(-0.19367 0.345029 -0.0077464)
(0.112879 0.0138181 -1.61831e-05)
(0.223089 0.0930626 0.000346645)
(0.238485 0.0873323 0.000274278)
(0.0457577 -0.197402 -0.00037341)
(-0.218069 0.319498 -0.000328038)
(-0.183874 0.208144 0.00254123)
(-0.0145219 -0.0149668 -0.000336011)
(0.110446 0.231824 0.0059583)
(0.340435 0.0240106 -0.000368178)
(0.364763 0.0292392 -0.000300776)
(0.0610791 -0.0497147 -0.000423021)
(0.137866 0.139222 -8.97197e-05)
(-0.328803 0.0647107 0.00578065)
(-0.00546795 0.329598 -0.000827614)
(0.125648 0.149393 0.000359937)
(-0.17849 0.443386 -0.00360056)
(0.290939 -0.126129 -0.000138828)
(0.117672 0.117008 0.000810357)
(0.17861 0.0849985 -0.00167299)
(-0.00162339 -0.224647 0.000103565)
(0.0710206 -0.0391417 -5.13533e-05)
(0.117649 0.104286 0.000608216)
(0.363411 0.0297967 -0.000338749)
(0.372338 0.126066 -0.00074783)
(0.344487 0.318307 0.000668906)
(0.314206 -0.0286497 -0.000814898)
(0.437359 0.0570861 -0.000256637)
(0.11297 0.00118389 -0.00143992)
(0.43976 0.0295833 -0.000473784)
(0.586146 0.453379 -0.00818451)
(-0.115952 0.29652 0.00594822)
(0.371338 -0.0124589 9.61945e-05)
(0.360436 0.10315 -0.000803082)
(0.340148 -0.00409115 -0.000144787)
(-0.246695 0.120259 -0.00131619)
(0.263062 -0.25168 -0.00960054)
(0.12055 -0.311355 -0.00839322)
(0.231534 0.105471 -0.00587531)
(0.0740174 -0.0561499 8.88498e-05)
(0.00776585 0.117891 -0.013785)
(0.289455 0.201485 0.000367891)
(0.350146 0.113376 -0.000457553)
(2.77218 0.313665 0.0327076)
(0.145658 0.147742 -0.000145427)
(0.448201 -0.164858 0.00231514)
(0.2376 -0.129096 0.000385149)
(0.382224 0.116354 -0.000499536)
(0.386831 0.150435 -0.00042083)
(-0.20242 -0.0492307 -0.000937632)
(-0.229089 -0.0371545 0.000857605)
(1.78128 -0.548549 0.0986962)
(0.0699616 -0.0689475 -0.000780124)
(0.370486 0.0084241 -0.000181461)
(0.150749 0.574431 -0.00107552)
(0.341861 0.00909476 -0.000122015)
(0.490352 0.00787274 -0.0010123)
(0.151722 -0.0155982 -0.000383888)
(0.123871 -0.00741701 -0.000547332)
(0.0547503 0.0672083 0.000381347)
(0.100389 -0.00715885 0.000170515)
(0.098825 -0.0232203 0.000313724)
(0.390822 0.139769 -0.000461969)
(1.5351 -0.155246 0.0184441)
(1.48994 0.386516 0.139268)
(0.0497221 -0.0310613 -0.00158845)
(0.0500002 0.111707 0.000495516)
(0.0240762 -0.0871244 -0.0026058)
(1.19171 -0.79622 -0.391195)
(0.539078 0.00802309 0.000404915)
(0.488018 -0.0495806 0.000677866)
(0.520176 0.0141455 0.000887247)
(0.407801 0.13361 -0.00641637)
(0.519039 -0.0226129 0.000395979)
(0.434926 0.108594 -0.00044493)
(0.392295 0.120224 -0.000185483)
(0.121842 0.00933876 -0.000981598)
(0.0767322 0.0393421 -0.000272848)
(1.9715 -0.0183335 -0.00814848)
(-0.0765596 -0.0130099 -0.00141123)
(0.476699 -0.0708806 -0.000380812)
(-0.00161299 0.222015 0.000667836)
(0.337369 0.0476957 -0.000359794)
(0.134859 0.216757 0.000400339)
(0.794564 0.0450421 -0.000212227)
(0.011951 0.205429 0.000449378)
(0.355512 0.103859 -0.000718217)
(0.353483 0.0297158 -3.52009e-05)
(0.00274689 0.0693861 -2.18742e-05)
(0.386049 0.0316197 -0.000365384)
(0.000414724 0.0741251 3.14204e-05)
(0.282318 0.0339341 0.000235738)