/*--------------------------------*- C++ -*----------------------------------*\
| =========                 |                                                 |
| \\      /  F ield         | OpenFOAM: The Open Source CFD Toolbox           |
|  \\    /   O peration     | Version:  v2012                                 |
|   \\  /    A nd           | Website:  www.openfoam.com                      |
|    \\/     M anipulation  |                                                 |
\*---------------------------------------------------------------------------*/
FoamFile
{
    version     2.0;
    format      ascii;
    class       volScalarField;
    location    "3";
    object      alphat;
}
// * * * * * * * * * * * * * * * * * * * * * * * * * * * * * * * * * * * * * //

dimensions      [1 -1 -1 0 0 0 0];


internalField   nonuniform List<scalar> 
108993
(
0.000107955
9.97547e-05
8.62548e-05
0.000110077
0.000109334
5.86547e-05
9.45687e-05
8.66002e-05
0.000109207
0.000100452
0.000115012
0.000113841
9.10118e-05
9.05921e-05
9.6579e-05
8.14828e-05
8.94028e-05
9.76691e-05
9.20152e-05
9.81738e-05
9.46089e-05
0.000106448
8.6611e-05
0.000109627
0.000108663
9.77203e-05
0.000107438
0.000105036
0.000117593
6.88651e-05
0.000120968
0.000112823
0.000129635
0.000111407
0.000129188
0.000109413
9.69937e-05
0.00011477
0.00340069
0.00255295
0.000123714
0.000117051
9.95258e-05
0.000155044
9.8455e-05
0.00189063
0.00012868
0.000121882
0.00012918
0.000107264
0.000111305
0.000146033
0.000101909
0.000106562
0.000112182
0.00011586
0.000106598
0.000102016
8.55118e-05
0.00011845
0.000104731
0.000106966
0.000103229
9.20905e-05
0.000104868
0.000117842
0.000102466
0.000113336
0.000122676
0.000110895
0.000101181
9.8241e-05
0.000107914
0.000105095
9.54922e-05
0.000116168
9.22001e-05
0.000125341
0.000114243
0.000106694
9.86086e-05
9.35621e-05
9.08293e-05
0.000102493
0.000117141
9.74475e-05
0.000117636
9.47167e-05
9.98816e-05
0.00011674
0.000102175
8.77965e-05
0.000114764
8.87923e-05
0.000110649
0.000107523
8.68975e-05
7.54518e-05
8.52062e-05
9.11923e-05
0.000111824
0.000127173
0.00012232
0.000117053
8.15542e-05
0.00011804
0.000116992
0.000164876
0.000116559
0.00239454
9.57465e-05
0.000102641
0.00016001
0.000106436
0.000107888
0.000706398
9.29143e-05
8.66268e-05
0.000127305
0.000104706
0.000102285
9.80308e-05
0.000245926
7.01369e-05
0.000105419
0.000104088
0.000108438
9.39861e-05
9.06192e-05
0.000117533
9.51316e-05
0.000115068
0.000119366
0.0003984
0.000104036
8.74235e-05
9.90598e-05
9.23369e-05
9.20801e-05
9.89097e-05
8.99346e-05
8.54319e-05
0.000125043
0.000101018
0.000111377
0.000107782
8.63027e-05
0.00284392
9.93438e-05
0.000221871
0.000218994
8.49903e-05
8.56003e-05
0.000280401
0.000105706
0.000101402
0.000124541
0.000114032
0.00020422
0.000161165
0.000267447
0.000194269
0.000119199
9.86469e-05
9.98067e-05
0.000115174
0.000100586
8.94745e-05
8.90271e-05
0.000120645
0.000111342
0.000110754
0.000118089
9.36422e-05
0.000106096
9.81484e-05
0.00150608
9.25823e-05
0.00011264
9.39234e-05
9.34613e-05
8.72185e-05
0.0001074
3.15313e-05
0.00012273
0.000106833
0.00010927
0.000106659
0.000106567
3.59422e-05
0.000106527
0.000116682
9.26903e-05
0.000373485
0.000113145
0.000101033
0.000119359
0.000107974
0.000115371
3.96959e-05
0.000112856
0.000148064
0.000102766
9.4035e-05
0.000110656
0.00105029
9.6084e-05
0.000227957
0.000101298
0.00179093
9.47745e-05
0.000108144
0.00109052
0.00173696
0.00423767
7.32852e-05
9.34606e-05
0.000105203
0.00010442
0.000129263
0.000105155
0.000202405
0.000160781
0.000276031
9.42631e-05
8.10387e-05
0.000100319
0.000117264
0.0003009
8.59774e-05
0.00344352
0.000106647
8.8256e-05
8.84615e-05
9.78015e-05
8.42217e-05
0.000110924
9.69929e-05
9.94742e-05
0.000103411
7.45015e-05
0.000112028
6.83699e-05
0.000110567
0.000121742
0.000100597
0.00237022
0.00019592
0.000116067
0.000116363
9.86992e-05
0.000108986
0.0001008
0.000111769
0.000111002
0.000115061
0.000108438
0.000101818
0.000123115
6.78605e-05
0.000104526
9.90815e-05
0.000117632
8.7466e-05
0.000122861
0.000104184
0.000116075
0.000122637
6.74306e-05
0.00010224
7.44711e-05
8.64518e-05
0.00158794
0.00255534
0.00220786
9.80796e-05
0.000112506
0.000488888
0.000115617
0.000103653
0.000111485
0.00184132
0.00174751
9.47349e-05
0.000110927
0.000105775
8.21883e-05
0.000112136
0.000119893
0.00161894
0.000101272
8.7579e-05
0.000116106
0.000110176
0.000106659
8.68125e-05
0.000121319
0.000102406
0.000116628
6.0409e-05
0.000685351
0.000301813
0.00011302
8.18233e-05
0.000108158
8.56175e-05
8.10905e-05
9.09692e-05
7.95059e-05
0.00185795
0.000113709
0.00011367
9.00363e-05
9.90566e-05
0.000115265
0.000162632
8.05235e-05
9.34334e-05
0.0033806
0.000123372
9.81028e-05
7.61528e-05
7.54557e-05
8.08612e-05
8.37841e-05
0.00122726
0.00325833
0.000297591
9.75309e-05
0.000119106
0.000126939
0.000290259
0.00102374
0.000100112
0.00426086
0.00010641
0.000105467
0.000110085
0.000107755
9.53631e-05
0.000101329
0.000225631
9.56414e-05
0.000111214
9.5636e-05
9.95067e-05
9.36638e-05
9.35041e-05
9.21116e-05
8.92566e-05
0.000108714
7.2255e-05
0.000647661
0.000219615
9.96255e-05
0.000103266
9.37121e-05
0.00212817
0.000102129
5.99964e-05
0.000126919
9.46318e-05
8.50817e-05
9.88677e-05
0.000108581
0.000113963
0.000111853
9.39709e-05
0.000104972
0.00222042
8.86071e-05
0.00011206
9.07218e-05
0.000208303
0.000129473
0.00145893
0.00011609
0.000141001
0.00141737
0.00011162
0.00100569
0.000903281
0.000116936
9.17296e-05
9.95976e-05
6.94277e-05
9.53467e-05
0.00491972
9.85534e-05
0.000251824
0.0022952
7.32294e-05
0.00125759
9.04502e-05
0.000797137
0.000145073
0.000652472
0.000105853
9.84425e-05
0.000103025
0.000142056
0.00217219
0.00176184
0.000105647
0.000109647
7.53064e-05
9.38305e-05
6.52078e-05
9.70789e-05
0.00255842
9.62802e-05
9.35878e-05
0.00389292
9.25432e-05
0.000106726
0.000117415
0.000494019
9.67352e-05
0.000395306
9.87171e-05
0.00181179
0.000101117
0.000192463
8.00589e-05
0.000112784
0.00113267
0.000110278
0.000177636
0.00215985
6.87399e-05
0.000768774
0.00311035
0.000726802
0.000101264
9.69133e-05
0.000105241
9.96939e-05
0.000109209
0.000116864
9.36051e-05
9.88569e-05
9.70698e-05
0.000120397
6.99256e-05
0.000135585
0.000116846
9.22126e-05
0.000121075
9.87498e-05
7.60995e-05
0.000101781
0.000104337
0.000113913
0.000135365
0.000126138
0.000102547
0.000102738
9.84938e-05
0.000124456
9.13431e-05
0.00112753
0.000102227
0.00079642
0.000182288
0.000102886
7.85501e-05
9.26308e-05
0.000633593
7.41345e-05
9.12977e-05
0.00013443
0.000110328
0.00011032
9.95378e-05
0.000122457
0.000115862
8.76262e-05
0.00011453
0.000367155
0.000115756
9.34571e-05
0.000122313
0.000117063
0.000111129
0.000159891
9.21281e-05
9.056e-05
8.78259e-05
0.0001021
0.000117974
0.000103738
0.000114166
0.000111106
9.28694e-05
0.000101645
7.09354e-05
0.000153784
0.000111875
7.93165e-05
0.000100909
8.94535e-05
0.000104229
8.16818e-05
0.000104465
0.000113545
0.000298153
9.88661e-05
9.02902e-05
0.00323579
0.000101943
0.000111816
9.73728e-05
0.000112051
0.000118684
0.000103204
0.000103843
8.81002e-05
0.000102835
0.000120362
0.000125065
0.000146345
0.000271001
0.000106604
0.000109882
0.000120398
0.000134527
9.91215e-05
0.00010919
0.000122617
0.000117854
8.86067e-05
9.63714e-05
0.00010739
9.48762e-05
0.000109839
0.000118658
9.54795e-05
0.000109429
0.000114499
0.000669276
9.41714e-05
0.00123049
0.000101601
0.000118661
0.000118026
9.99047e-05
8.25289e-05
0.000115664
0.000116211
8.19295e-05
0.000655969
8.67177e-05
0.00273625
0.000125443
0.000115487
9.51506e-05
0.000113758
0.000120569
0.00204869
8.83066e-05
0.000108097
0.000105012
9.83386e-05
0.000111009
7.67869e-05
0.00235766
0.000109713
8.68377e-05
0.000138355
0.000115405
0.000109574
7.91428e-05
0.000748611
7.79214e-05
0.000377706
0.000104278
0.000122117
0.000115606
0.00268641
0.000114763
0.000118871
9.53061e-05
0.000119908
0.000129509
0.00011001
9.41831e-05
0.00310244
7.82513e-05
0.000116926
7.57398e-05
0.000124257
7.79452e-05
0.000100225
0.000101772
0.00255885
9.48292e-05
0.000128449
8.3988e-05
0.000119841
0.000100025
0.000108255
0.000118072
0.00471522
9.17333e-05
8.91195e-05
7.73247e-05
0.0030676
9.59683e-05
0.000102285
0.000109218
0.000336997
0.000108732
0.000158237
0.000100234
0.00012852
9.89273e-05
0.00011158
9.97117e-05
0.00182644
9.13238e-05
0.000136236
0.000102763
0.000110284
0.00054615
0.000117786
0.000116709
0.000125066
0.000126463
0.00516128
0.000107983
0.000327211
0.000102395
0.000135345
0.000278728
9.99869e-05
8.81459e-05
7.888e-05
0.00361244
0.000101322
0.000114092
9.7993e-05
0.000111995
9.93745e-05
9.30441e-05
8.7645e-05
9.41439e-05
0.000103757
9.57792e-05
9.47257e-05
0.000100248
0.000106886
8.95158e-05
0.00282824
0.00017155
0.000118887
0.000113525
0.000190225
0.000147772
0.000109442
0.000136665
0.000179328
0.000105168
7.95721e-05
0.000100975
9.10425e-05
0.00017408
8.33238e-05
0.000115216
0.00228174
0.000652011
0.000123746
0.000125799
0.000120704
0.000221635
0.000207158
0.00012407
0.000159243
6.91033e-05
0.00010529
0.000967615
9.69481e-05
0.000132297
0.00010293
0.000108195
0.00103521
0.000143539
0.0029024
0.000111175
6.71564e-05
0.00100102
0.000106561
0.000102977
0.000125642
8.42433e-05
0.000115833
0.00201667
0.000136162
0.0021171
8.28181e-05
0.00192478
0.000149257
0.000108445
6.0584e-05
6.72646e-05
0.000130977
7.07181e-05
0.0001097
9.03937e-05
0.000109099
9.18773e-05
0.000107455
0.000241944
0.00369888
0.000115234
0.00272728
8.1514e-05
0.000149902
0.000108091
7.76621e-05
0.000114258
0.000118753
0.000109909
0.000138419
9.1149e-05
9.20266e-05
0.000109575
0.000117989
8.41387e-05
9.35186e-05
0.000110591
0.000102343
0.000105465
8.46678e-05
9.3183e-05
0.000111641
8.34439e-05
0.000122156
8.56774e-05
0.000108942
0.000126404
9.29868e-05
7.88303e-05
0.00363024
0.000249007
0.000114754
0.000118386
0.000124434
0.000136286
0.000111491
0.000149294
0.000113057
7.63717e-05
8.83965e-05
0.000130312
7.89652e-05
9.35527e-05
8.25854e-05
0.000121152
0.000128421
9.49526e-05
0.000106238
0.000100229
0.000133874
0.000100974
7.36788e-05
0.000114111
0.000115791
0.000588179
0.000113421
0.000109292
9.5403e-05
0.000351012
0.000108236
0.000240677
0.000164292
0.000126761
0.000102006
0.00177416
0.00119264
9.53311e-05
7.64263e-05
0.000507424
0.000110503
0.000100675
0.000102607
0.000158234
0.000105877
8.22569e-05
0.00010901
0.000151911
0.000104078
0.000790286
0.000102055
0.000100906
0.00353121
0.000131517
0.00206807
0.000116062
0.00149
0.000114176
9.30196e-05
9.59236e-05
0.000115876
0.000100591
0.000109559
0.000114094
0.000109403
9.9474e-05
8.82532e-05
9.24656e-05
0.000112205
0.000106362
0.000106449
8.02793e-05
8.49517e-05
0.00103654
8.20819e-05
0.000103383
0.000479131
8.241e-05
0.0010663
9.00345e-05
0.00010233
0.000110375
0.00324213
9.69355e-05
8.64962e-05
9.74025e-05
8.46802e-05
0.000127119
0.000106776
0.000179186
0.000109285
0.000131706
9.6545e-05
8.80704e-05
0.000109354
0.00016029
0.0040823
0.000133685
8.37296e-05
0.000119467
9.87964e-05
0.000129659
0.000105229
0.000116193
0.000102491
0.000113843
0.00096672
0.000106218
0.00085429
0.00010746
0.00114113
0.0001117
0.000106967
6.16837e-05
0.00010513
0.000105111
0.000132955
6.29641e-05
7.11431e-05
0.000208258
0.000103339
0.00325007
9.7327e-05
0.00011384
0.00010284
8.79888e-05
0.000115444
0.00011497
8.84198e-05
9.65126e-05
9.10181e-05
0.00321387
9.85743e-05
0.000104893
0.000114178
0.000190032
9.65285e-05
0.000100329
0.000294953
0.00368816
8.76832e-05
0.000106598
0.000109722
0.000830425
9.93188e-05
0.00146332
0.0036263
0.00562651
0.000102115
9.8116e-05
0.000107923
9.47809e-05
0.000129641
9.12933e-05
9.90139e-05
0.000108276
0.00011217
0.000131774
0.000164353
9.82894e-05
9.5389e-05
0.000756083
0.000117964
0.000104855
0.00146785
0.00218315
8.2961e-05
0.000115812
0.000103315
0.000107447
0.000138594
0.00013441
0.00100334
8.55573e-05
0.000868887
0.00011545
0.000123284
0.000109334
8.226e-05
0.000115465
9.59782e-05
0.000117749
0.000136514
0.000118758
8.19992e-05
0.000142086
0.000102892
7.64465e-05
9.47611e-05
8.30963e-05
8.76059e-05
0.000114064
0.000135277
9.02792e-05
9.63335e-05
0.000223458
0.0001114
0.00363521
9.1179e-05
9.62052e-05
9.29998e-05
0.000123261
0.000114023
8.49196e-05
7.56675e-05
0.000421929
0.000117826
0.000116826
0.000106112
0.000110506
0.000106457
0.000591362
9.63118e-05
0.000229584
0.00321693
9.78426e-05
8.43693e-05
0.000109738
9.30888e-05
9.30455e-05
0.00467163
0.000121632
0.000168254
0.000169759
0.000113569
0.000108539
0.000102215
9.76714e-05
0.000132534
0.000214166
7.64585e-05
0.000101991
7.86646e-05
0.000211333
9.72319e-05
0.000109924
0.00011093
0.000240001
9.28424e-05
9.11147e-05
9.41704e-05
8.00576e-05
9.65344e-05
0.000107172
0.000106937
0.000133272
0.000117016
0.000106453
9.10905e-05
0.000115071
0.00358984
8.58717e-05
9.18934e-05
9.55149e-05
9.81218e-05
7.72872e-05
0.00270819
8.27802e-05
0.000123406
8.58164e-05
9.7617e-05
0.000113565
0.000139955
0.000139321
0.000100786
9.11726e-05
0.00112558
9.25193e-05
0.000189191
0.000122285
0.000130154
5.60746e-05
0.000106018
0.000106366
9.29207e-05
0.000105845
0.000105435
7.47011e-05
7.7988e-05
9.56518e-05
0.000101556
0.000225979
0.00011454
0.000117646
0.000154004
9.94053e-05
0.000124525
0.00011048
0.000119269
0.000114568
0.0001117
0.00011358
0.000122668
0.000150678
0.000110509
0.00012862
0.000117147
0.0052428
8.59885e-05
0.000108938
0.000107022
0.000159854
0.000122042
0.000102846
0.00212678
0.000114723
0.000133283
9.45421e-05
0.00258588
9.67072e-05
0.000116369
0.000103932
0.00107378
0.000105495
0.000102276
9.23751e-05
7.4149e-05
0.000124242
0.00257301
0.000113623
0.000101713
0.000124522
0.00013049
0.000126153
9.58487e-05
0.000129868
0.000134471
0.000385661
0.000124978
0.000301579
0.00015761
0.000127496
0.000125885
7.89622e-05
6.63598e-05
9.84084e-05
8.26906e-05
9.49366e-05
0.00010992
0.00279905
8.55603e-05
0.00460486
0.000112475
0.000113641
8.49143e-05
0.000114853
0.000133488
8.58447e-05
0.000102424
0.000115405
0.000111905
7.00098e-05
0.000131671
0.000838295
0.000120633
0.000105617
0.000178027
0.000104871
0.000150423
0.000134926
0.000228403
0.000117331
0.000121823
0.000950416
8.0798e-05
8.86707e-05
0.000114327
8.41775e-05
0.000118416
9.82315e-05
6.54384e-05
0.000234159
0.000120686
0.000141195
7.77318e-05
0.000107442
0.000120251
9.73117e-05
9.53861e-05
0.000102296
6.93167e-05
9.39723e-05
0.000344852
0.000112439
0.000161137
9.28039e-05
0.000110713
0.00267482
0.000102094
0.000100629
9.89336e-05
0.00011005
9.54517e-05
0.000112739
7.14477e-05
0.000105942
0.000121455
0.000127257
0.000111386
0.000113589
0.000112109
7.55716e-05
0.000108988
0.000126748
0.0023906
0.00254093
0.000111116
0.000106713
0.000112937
0.000124599
8.7279e-05
0.000102781
0.000170869
0.000100369
9.02403e-05
6.7201e-05
0.000114489
7.66443e-05
9.0529e-05
0.000124893
0.000113913
0.000161497
9.3826e-05
9.68097e-05
9.81983e-05
0.00142369
0.000120997
9.87671e-05
7.13484e-05
8.48243e-05
0.000166113
0.000113865
0.000136132
7.60765e-05
7.30451e-05
7.50517e-05
0.00175137
0.000111281
9.95419e-05
0.000194823
0.000126003
0.000558892
0.000258021
9.07345e-05
0.00010885
7.8546e-05
9.21287e-05
7.64747e-05
0.000123825
9.68084e-05
0.000175727
0.00201848
0.000135445
0.000102226
9.73648e-05
0.000139727
7.76594e-05
0.000110933
7.03936e-05
8.91658e-05
9.90155e-05
0.000900805
0.000168137
0.00014969
0.000111375
8.82457e-05
0.000106172
9.47157e-05
0.000105459
0.000101626
9.61164e-05
0.000308573
0.000111964
0.000121171
0.000560363
9.455e-05
0.00115319
0.000109203
0.000100539
0.000102296
0.000120417
0.000122873
0.00121825
0.000112947
9.00643e-05
0.000110319
0.00337671
0.00013345
0.000101691
9.66362e-05
0.000132126
0.00016504
0.000640116
0.000131182
0.00012243
0.000105346
9.02154e-05
0.00010294
0.000133018
0.000122798
0.000123433
0.000112206
0.000746614
0.00010891
9.79173e-05
0.00243327
8.89814e-05
0.000110058
0.000115176
0.000113271
0.00191396
0.000111268
0.000101262
7.30024e-05
0.00126495
0.000109487
0.000110492
0.000101121
0.000113484
0.000114933
0.00141357
0.00228651
0.00220665
0.000119612
0.00275038
0.000118364
0.00139109
0.00179123
7.04244e-05
7.7767e-05
9.86621e-05
9.30085e-05
0.00012173
0.000111588
9.21736e-05
8.55695e-05
9.34385e-05
0.000101817
9.7159e-05
0.000125797
0.000120921
0.000126095
0.000401119
0.000125799
0.00031862
0.000235363
0.000105861
0.000107943
0.00158191
0.00032455
0.00211088
0.000102675
0.000108796
9.28758e-05
0.000104805
0.000106007
0.000104221
8.38412e-05
0.00010221
0.000299344
0.000105357
0.000114699
0.000174451
0.000131574
0.000697172
0.000117819
0.00010804
0.000131475
9.91868e-05
0.000107363
0.000117641
0.000104062
8.25837e-05
0.000104517
0.000116101
9.71878e-05
0.00010206
0.000125567
7.99704e-05
0.000100067
0.000103284
0.000199529
0.000137483
0.00019954
0.000200885
0.000109205
0.00054322
0.00010005
0.000114704
0.000108608
8.71358e-05
0.000113115
0.000547647
0.000257279
0.000211681
9.07174e-05
0.00317367
0.000113049
0.000102698
0.000114326
0.000107645
0.000121543
0.000122323
0.000131674
0.000217378
0.000118561
0.000102412
9.23043e-05
0.000113154
0.000108578
0.000192755
0.00016286
0.00402225
0.00350334
0.000124028
0.00010947
0.000185809
9.768e-05
8.21094e-05
0.000113415
0.000119397
0.000103579
0.000107256
9.08004e-05
0.000129028
0.000112306
0.00123772
9.84585e-05
9.6791e-05
0.00016092
0.000160632
9.0694e-05
0.000118205
0.000487032
9.40074e-05
0.000103198
0.000115613
9.76141e-05
8.56255e-05
9.15047e-05
0.000113945
9.67985e-05
9.3755e-05
0.000250233
0.000138739
0.000125105
0.000323521
7.64405e-05
0.000106588
0.000187783
8.08592e-05
0.000101454
8.6623e-05
0.00013644
0.00360965
0.00011742
0.000107955
0.000985148
9.30558e-05
0.001455
8.57982e-05
0.000920515
7.93767e-05
6.46406e-05
0.000687932
9.64181e-05
7.18716e-05
0.00121377
0.00010793
0.000109731
0.000104324
6.86854e-05
0.000113697
0.00012053
0.000369191
0.000104264
9.44628e-05
0.00025679
9.4481e-05
0.000350416
0.00105439
0.000299091
0.000111879
0.00234477
9.12733e-05
0.00187569
0.000122717
9.26109e-05
9.35675e-05
8.86558e-05
9.89226e-05
0.000114897
0.000105708
8.55244e-05
0.000373656
0.000873795
0.000112128
0.000100123
7.95272e-05
9.51719e-05
0.000102339
7.87619e-05
8.98382e-05
0.000118729
0.00334395
0.00018395
0.000120609
9.54546e-05
0.000128621
0.000111484
0.000118843
9.43683e-05
9.26524e-05
9.90074e-05
9.94138e-05
0.000103595
7.87706e-05
0.00348623
9.58788e-05
0.00021432
0.000534969
0.000112065
9.88747e-05
0.00128476
9.31233e-05
9.6438e-05
9.15003e-05
0.000200402
0.00123505
0.000113436
0.00178194
9.84914e-05
0.000113733
0.0026836
0.000101758
0.000168737
0.000107793
8.81292e-05
0.000102128
0.000100272
0.000131726
0.000104702
0.000183386
0.00220709
0.000109941
0.000167618
9.44727e-05
9.85155e-05
9.3164e-05
0.000131338
0.000116493
0.000111563
0.000121927
9.18786e-05
9.97168e-05
0.000105376
0.000132087
0.00012336
0.000109435
0.00140369
0.000180166
0.000322031
0.000116829
0.000119926
0.00210705
0.000531675
0.000114408
0.00115409
9.65904e-05
0.000121114
8.31194e-05
0.000216137
0.00258529
0.000454976
8.86747e-05
0.00207104
0.00370402
0.000426229
0.000102799
0.000155621
0.000107532
7.88741e-05
0.000754301
8.50434e-05
0.00276056
7.98566e-05
0.000151153
0.000171711
0.000827306
0.000143466
8.08284e-05
9.97638e-05
6.41496e-05
9.79587e-05
0.000824065
0.00247341
0.0020859
0.000131211
0.000106736
0.00406237
8.07098e-05
0.000101756
0.000679904
0.00011975
0.00438786
0.000101576
9.23731e-05
0.000104265
6.77387e-05
6.57579e-05
0.000109408
0.000161235
0.00054481
0.000468002
0.00242213
0.000102436
0.000338116
7.13651e-05
0.000106835
7.3597e-05
0.000101563
0.000112327
9.63783e-05
0.000123811
9.90157e-05
0.000102558
9.64229e-05
6.88924e-05
0.000120222
0.00212736
7.56185e-05
0.00016584
0.00122296
7.85929e-05
7.5539e-05
0.000233807
6.61685e-05
9.68954e-05
8.77826e-05
0.000100429
0.000124742
0.000105567
0.000170758
0.000460872
0.000156673
0.00199363
0.00177934
0.000192101
0.000101912
7.92568e-05
0.000189114
0.000100691
0.0018265
0.000131754
0.000167244
0.000110967
0.000196865
0.000111285
9.73318e-05
7.43458e-05
0.000122553
0.000103967
9.87351e-05
0.000135639
0.000109749
7.48103e-05
9.43617e-05
0.00253708
0.000212131
6.81417e-05
0.000194134
0.00307338
0.000293796
0.000171456
0.000326129
5.97369e-05
0.000885738
0.00595795
0.000111658
0.000124978
7.96296e-05
0.000111498
0.000135276
0.0001009
8.03769e-05
0.000307797
0.000707806
0.000104227
0.00358512
0.00145841
7.51589e-05
9.67104e-05
0.00142632
0.000987268
0.000122564
0.00448762
8.24993e-05
0.000102228
0.000107316
0.000101236
0.005084
9.75025e-05
9.86966e-05
0.00010611
9.35972e-05
0.000229979
9.17444e-05
0.000113164
0.000105002
6.79472e-05
8.21399e-05
8.18798e-05
9.81758e-05
9.56632e-05
0.00486964
0.00389868
9.47349e-05
0.00299731
0.00010719
0.0001087
8.86318e-05
0.000288966
0.00135175
0.00015274
0.000122321
0.00128902
0.0013193
0.00356874
0.000313507
8.37028e-05
0.00445546
0.00011631
0.000102523
8.63009e-05
0.00297358
7.43479e-05
0.00426317
0.000175971
0.000117751
0.000572087
0.00155158
6.84578e-05
9.37245e-05
9.80146e-05
7.43242e-05
9.18023e-05
0.000118978
7.4802e-05
0.00010389
8.93734e-05
0.00164414
0.00153991
0.00170457
7.85435e-05
0.00507101
9.16984e-05
0.00469775
0.000133072
0.000944679
0.000151068
0.00072463
8.88709e-05
0.000164473
0.000104658
0.000101064
0.000123975
0.000118854
0.0001842
9.50281e-05
0.000100046
0.003507
9.85805e-05
0.000100389
0.00245516
0.00253141
0.00206327
0.00419649
0.000102935
0.000525675
0.000305427
0.000104581
8.12316e-05
0.000325469
0.00375586
8.28689e-05
9.83491e-05
8.29507e-05
0.000121182
8.57361e-05
0.00154312
0.0014017
0.00155362
0.000224952
0.00011107
0.00284131
0.000118816
9.33251e-05
0.000102203
7.07946e-05
7.25134e-05
0.00236131
0.000139082
8.83457e-05
0.0013451
0.000115518
0.000115991
7.33198e-05
0.000126955
0.000149471
0.000113198
0.000239063
8.8399e-05
0.000106922
0.000276565
0.000182184
0.000273699
9.74721e-05
0.000127392
0.000100103
0.000108434
0.00010391
0.00011323
0.000172539
0.00357602
0.000110814
9.85651e-05
0.00612296
0.000101318
9.90107e-05
9.98004e-05
0.000103011
0.00152908
0.00157964
0.00587901
0.000280242
0.000805151
0.000107834
0.000196479
0.000104924
0.00404254
0.00115347
0.000108398
0.00230161
0.000102132
0.000108638
0.000371814
0.000107911
9.71309e-05
0.00152866
0.0026685
0.00193304
0.00209152
0.000102522
0.000371995
0.00172309
0.00324295
0.000113049
0.000124251
0.000328231
0.00200725
0.000372931
0.00147738
0.000102837
0.000105879
0.000189217
0.00359833
0.000240281
0.000321696
0.000105343
0.00200249
0.000109095
0.000128428
0.00119161
0.000353412
0.000233144
0.000153886
0.00033849
0.000208859
0.00316105
0.000106772
0.000482462
0.000105606
0.000624692
0.000110022
0.00044528
0.000558374
0.000101881
0.00328867
9.80908e-05
0.0014236
0.000621666
9.22046e-05
0.000105895
0.00113853
0.000101838
9.75178e-05
0.000108653
5.77504e-05
0.000986522
0.000105802
0.000826466
0.00104859
0.000127561
8.45559e-05
0.00386147
0.000128036
6.73003e-05
0.00187067
6.5534e-05
8.68094e-05
0.00011737
0.00011386
0.000108082
7.70868e-05
0.00398933
0.000131202
0.000112442
0.00143478
0.000117476
0.000451968
0.0033005
0.00013497
6.68558e-05
0.000130215
0.00016807
0.000702957
8.01363e-05
9.54782e-05
7.39397e-05
0.000290638
0.000111506
0.00279421
0.00387736
0.000110015
9.40298e-05
0.00266127
0.000112532
0.000100332
7.60032e-05
0.000298298
9.27298e-05
0.00172556
0.00369737
0.000101729
0.000106035
0.000109675
7.93245e-05
0.000470579
7.89794e-05
0.000536433
0.000125378
0.000122656
0.000101636
0.000184523
9.76115e-05
0.000123231
9.93098e-05
0.000184928
9.8963e-05
7.62901e-05
9.40025e-05
0.000103697
9.4271e-05
0.00015891
0.00266773
8.67616e-05
9.1221e-05
0.00443397
7.60965e-05
0.000110063
0.000136144
7.41645e-05
0.0046064
0.00645908
0.000114425
0.000113693
0.000113493
0.000108631
0.00519279
9.74593e-05
0.00308837
8.78401e-05
0.00158329
0.000212438
9.36528e-05
0.00215439
0.000625862
0.00324094
0.00445971
0.00585592
9.56079e-05
0.000109208
8.3142e-05
0.000118159
8.66954e-05
0.000102305
0.00231965
0.000103235
0.000109814
0.000100065
0.000423377
0.00261024
0.00127784
0.000111918
9.44643e-05
0.000103022
8.42607e-05
0.000910721
0.000122341
9.1649e-05
9.72673e-05
0.00166497
0.000184434
0.000225118
0.000102504
0.000118236
0.000127473
0.00479638
9.46449e-05
0.00343129
8.31374e-05
9.39341e-05
0.000356005
0.00180171
7.71931e-05
0.000108892
0.00632814
9.78195e-05
0.000112929
0.000118221
0.00455927
9.36983e-05
0.000205563
9.06347e-05
0.00488276
0.00326823
0.000257883
0.000127581
9.41504e-05
0.00105392
0.000148149
8.13993e-05
0.00388102
0.00188396
0.0013852
0.00100892
0.00138621
0.0011873
7.67111e-05
0.00132972
0.00034115
0.00142586
9.21518e-05
0.000201436
0.00329739
8.08084e-05
0.000186921
0.00121659
0.00010432
0.00169371
7.72294e-05
0.00674288
0.00101319
0.000645629
0.000594626
6.53204e-05
0.000101867
8.08534e-05
0.000116035
0.000111425
0.00399007
9.82758e-05
0.000194491
0.000133961
8.87885e-05
9.17242e-05
8.62624e-05
0.000101438
7.00001e-05
0.000123537
0.000209735
0.00010414
0.00174933
0.000102213
0.00419924
8.44282e-05
0.000206487
9.73936e-05
9.93164e-05
0.000122821
7.8007e-05
8.39363e-05
0.000126736
8.44216e-05
7.53837e-05
0.00389681
0.00417029
0.00199706
0.000112484
0.000102815
0.000101601
9.92269e-05
9.14769e-05
0.000118236
9.97422e-05
0.000120073
9.79587e-05
0.000101807
0.00404271
8.97604e-05
0.000104914
0.000101338
0.000107667
0.00012788
0.000126866
9.84936e-05
0.000100936
0.000115118
0.00302287
9.33074e-05
0.00211084
0.000150976
9.84556e-05
0.000166332
0.0002621
0.000129086
0.000118883
0.000116922
0.00011331
0.000109749
9.53711e-05
0.000108537
7.08128e-05
0.000128733
0.000117569
0.000108164
9.31606e-05
0.000272535
0.000119851
0.000106461
0.000110975
7.14043e-05
0.000107549
0.000113346
8.18831e-05
0.000393723
0.000120632
0.000130496
9.07933e-05
9.14159e-05
0.000126182
0.00074653
0.000108936
0.000912325
0.0009305
8.7089e-05
8.84025e-05
9.49894e-05
9.76088e-05
0.000709983
9.75014e-05
0.000121647
0.000121535
0.000110454
0.000837299
9.55777e-05
9.59746e-05
0.000111638
8.56658e-05
0.000140299
8.52575e-05
9.65017e-05
0.000112429
7.27636e-05
0.000124454
8.07852e-05
8.09301e-05
0.000109695
7.7461e-05
0.000105356
0.000298186
0.00012663
0.000146826
0.00225074
0.00161814
0.000107091
6.63781e-05
7.87515e-05
9.62507e-05
0.000102463
0.000109325
0.000117653
0.000145458
0.000136443
9.88152e-05
0.000107709
0.000110589
9.52616e-05
9.72892e-05
0.000113419
9.13701e-05
0.000422877
0.00010115
0.00348522
0.00010202
0.000221433
7.24461e-05
0.000109529
0.000603619
7.22626e-05
9.39637e-05
0.00202064
7.01898e-05
0.00010146
9.06414e-05
7.28144e-05
0.000110827
9.62736e-05
0.00046447
7.32768e-05
0.000509243
0.000103123
0.000104378
0.000363886
0.000105408
0.00032346
0.000114577
0.000135648
7.66142e-05
0.00011413
0.000273651
0.000155307
0.000243887
0.000111725
0.000368872
0.000131877
0.000117658
0.000105
0.000245663
0.000109012
0.00010258
0.000102256
0.000116148
8.59161e-05
0.000127462
0.000111386
8.76351e-05
0.000119116
0.000126852
0.000119134
0.000110351
0.000152414
0.000111571
0.000133467
0.000126491
8.21848e-05
9.64036e-05
0.000103823
0.000104108
0.000104894
0.000105109
0.000113558
0.000106327
7.42373e-05
0.000111988
0.000128092
0.000142403
0.00010333
9.18319e-05
0.000113004
0.000434453
9.15123e-05
0.000111729
0.00228787
7.19797e-05
0.00010444
0.000125704
9.24453e-05
0.00010214
0.00011428
6.25117e-05
9.56877e-05
0.000109019
0.000116993
0.000100449
0.000131304
0.000125639
6.4956e-05
0.000137877
0.000426839
6.27188e-05
9.37479e-05
0.00027818
6.84103e-05
0.000102229
0.00012717
0.000116943
0.000119256
9.80403e-05
9.46592e-05
7.43993e-05
0.000118504
0.00384924
0.000128746
0.000124234
0.000106835
6.54271e-05
0.000110135
0.000111078
0.000130112
0.000100288
0.000101891
0.000103781
0.00094318
7.03702e-05
0.000109614
0.000102381
0.00321492
0.000116034
0.000130587
0.00190314
9.42889e-05
9.47459e-05
0.000100869
0.000100977
0.000138967
9.75482e-05
0.000462056
9.31306e-05
0.000109485
0.000142395
0.00208873
0.000124288
0.000102981
0.0031832
8.94636e-05
0.00356024
0.00012478
9.32896e-05
0.000124002
0.000101693
0.00269589
0.000116836
0.00284937
0.000111774
9.62243e-05
0.00479706
0.000108617
0.000102933
0.000113772
0.00320509
0.000113219
0.00010706
0.00495808
8.78265e-05
0.000106047
0.00270379
0.00120233
9.87367e-05
0.000125789
0.000525326
0.000184722
0.00106287
0.00404458
0.000131196
0.000116313
7.31332e-05
0.000132939
9.21371e-05
7.56915e-05
0.000117683
0.000100965
0.000113328
6.66943e-05
0.000108391
0.00010866
0.000105606
0.000117556
0.000102021
0.000151129
6.8713e-05
0.002428
0.000126278
0.000169475
7.16046e-05
0.00249916
9.51477e-05
0.000105782
0.00508273
0.000157159
0.000106366
0.000112448
0.000101687
0.000101342
6.97132e-05
5.69091e-05
6.27737e-05
0.000100131
7.69292e-05
0.00310303
6.54058e-05
0.000101568
0.00302517
0.000172191
0.000106627
0.000103759
7.60139e-05
0.00011607
0.000106677
0.000113429
0.00010631
9.62746e-05
0.000132687
0.000129052
0.00012211
0.00425409
0.000158693
0.000122594
0.00475444
0.000140855
0.000112818
7.19896e-05
0.000491042
0.000108019
0.000101752
9.30967e-05
0.000103243
8.84001e-05
9.91603e-05
0.0056725
7.48812e-05
8.16847e-05
9.17273e-05
8.39407e-05
0.000162857
9.36429e-05
0.000101383
7.61073e-05
9.4877e-05
0.000104225
9.60354e-05
0.00341719
0.00010724
9.75373e-05
0.00221296
0.000112137
0.000108089
0.00308292
0.000125435
0.0014887
9.83974e-05
0.000338607
0.00565367
0.00364026
0.000103772
9.49518e-05
9.33543e-05
0.00329097
9.67146e-05
0.000237028
0.000115593
0.00222469
0.00115646
0.000100377
7.65326e-05
0.00110252
0.000116403
0.000131562
0.00163321
0.00378186
0.000102623
0.000106828
0.00010633
0.000131406
0.00012502
8.44099e-05
9.54333e-05
0.000111014
8.70754e-05
7.68522e-05
0.000112969
0.0045847
0.000129108
8.9469e-05
0.000104417
0.000118237
9.44983e-05
9.77039e-05
0.000104441
0.000107212
0.00011006
0.000111935
7.75769e-05
0.000121432
0.000111379
0.000127645
6.79873e-05
0.00010164
0.000139359
0.0017021
7.05409e-05
0.00104097
0.000138415
0.0052728
6.7989e-05
9.35775e-05
0.000947101
6.48534e-05
0.000105085
0.00368264
9.20908e-05
0.000131574
7.05554e-05
9.51467e-05
0.000108363
0.000107142
6.61933e-05
0.000112713
9.52682e-05
9.61063e-05
7.73674e-05
0.00242036
6.43316e-05
0.000114193
6.64694e-05
0.000124594
0.000109296
9.414e-05
8.75264e-05
0.00330054
0.00011325
7.717e-05
7.88972e-05
8.67029e-05
8.2783e-05
0.000105713