/*--------------------------------*- C++ -*----------------------------------*\
| =========                 |                                                 |
| \\      /  F ield         | OpenFOAM: The Open Source CFD Toolbox           |
|  \\    /   O peration     | Version:  v2012                                 |
|   \\  /    A nd           | Website:  www.openfoam.com                      |
|    \\/     M anipulation  |                                                 |
\*---------------------------------------------------------------------------*/
FoamFile
{
    version     2.0;
    format      ascii;
    class       volScalarField;
    location    "3";
    object      CH4;
}
// * * * * * * * * * * * * * * * * * * * * * * * * * * * * * * * * * * * * * //

dimensions      [0 0 0 0 0 0 0];


internalField   nonuniform List<scalar> 
108993
(
6.39033e-67
6.73431e-43
6.9594e-55
1.43651e-153
1.36068e-148
7.81384e-133
1.20888e-43
0
3.77124e-118
0
4.88579e-93
6.99731e-99
0
0
6.39757e-111
3.98842e-24
3.62705e-70
2.59052e-107
1.45497e-150
1.40781e-74
6.98663e-150
5.49163e-137
6.82959e-83
0
1.3219e-158
0
3.32973e-137
0
1.47124e-83
0
3.36259e-127
0
4.46431e-136
9.52035e-52
1.34006e-150
0
1.40681e-135
0
0.000215054
4.62649e-05
0
3.69475e-114
0
3.08902e-158
4.87574e-32
1.29049e-07
0
0
0
1.23578e-77
0
1.24546e-13
0
0
3.29229e-101
7.27524e-94
2.68828e-140
3.38804e-132
2.17416e-128
0
8.18719e-127
2.15931e-123
0
3.162e-142
5.97487e-147
0
2.60582e-149
5.85648e-139
0
2.59954e-21
4.03244e-119
1.432e-143
6.08544e-139
2.60677e-142
2.94168e-80
7.06625e-122
0
1.48949e-57
1.12626e-146
0
0
0
0
9.71835e-112
1.84165e-107
2.26556e-105
0
0
6.04469e-144
1.37037e-149
1.50408e-139
2.07809e-129
0
1.85757e-170
0
3.02424e-85
0
1.42601e-109
0
3.17935e-135
3.78918e-134
4.96107e-134
3.35024e-109
3.43518e-84
8.05998e-120
3.34868e-140
4.71093e-103
9.79181e-142
0
8.1411e-06
4.97724e-43
3.68454e-138
1.31783e-34
1.62699e-29
0
5.1281e-24
2.66585e-144
1.39196e-80
3.22976e-21
0
3.39891e-95
0
2.68076e-19
9.25241e-67
3.49632e-139
1.62015e-37
3.86768e-61
1.65745e-78
0
2.62055e-128
1.21947e-78
3.96417e-127
0
0
3.47576e-124
0
3.56384e-122
4.64927e-118
8.48159e-111
9.9602e-97
7.3705e-68
6.07001e-124
7.66767e-26
5.80861e-125
0
8.44184e-138
1.13833e-113
9.11118e-12
1.36356e-65
1.64658e-12
0
0
6.64332e-54
5.92419e-10
0
2.18912e-41
0
5.5593e-141
2.23521e-136
8.99632e-11
2.19884e-10
1.18897e-140
7.75893e-128
1.6357e-125
0
7.87238e-22
1.28838e-145
0
1.98165e-141
0
0
9.4257e-103
0
1.49959e-109
4.69658e-101
1.03151e-96
2.64677e-11
1.36177e-142
5.77486e-99
2.96027e-138
0
0
1.53529e-141
0
4.33981e-91
2.88855e-121
1.16759e-144
0
1.07076e-91
1.18929e-69
0
3.27688e-142
0
1.71987e-13
0
6.60328e-53
1.98954e-62
0
4.0719e-119
5.64248e-71
5.84136e-144
5.13709e-15
2.80459e-141
1.63104e-137
5.50026e-36
8.30597e-19
0
2.32964e-11
2.04855e-102
0
3.94365e-15
0
4.95245e-11
0
0
0
1.62299e-96
5.41352e-94
0
8.90068e-125
7.22284e-95
8.07989e-13
3.63784e-36
4.68377e-15
0
9.98458e-143
5.03287e-142
5.31659e-78
3.97662e-10
2.63548e-98
3.85842e-07
1.26531e-108
1.2734e-141
0
7.98959e-128
0
1.51981e-130
2.16493e-127
3.62795e-21
2.06979e-140
5.27539e-132
2.3909e-93
0
1.27905e-141
2.95758e-134
7.30214e-24
3.40274e-19
3.96003e-17
6.47416e-137
0
0
0
1.03573e-112
5.88723e-120
7.71123e-140
2.41683e-138
4.35151e-138
8.07108e-77
6.268e-120
1.53723e-134
4.38468e-83
0
7.99592e-38
6.18445e-35
3.26158e-152
2.5824e-81
1.58963e-84
7.47659e-93
0
7.6743e-105
2.66818e-159
2.98926e-60
1.18476e-26
0.0001882
1.23135e-12
4.11984e-104
9.33645e-134
9.74518e-17
0
0
2.29952e-66
9.90537e-08
5.64166e-07
0
3.06128e-120
0
3.84416e-150
1.51281e-72
1.83852e-66
2.23507e-20
3.46453e-95
0
0
6.50782e-90
0
7.09136e-82
1.38351e-123
1.55725e-86
0
5.59713e-153
0
2.93138e-16
0
1.14859e-155
4.69642e-112
7.70508e-97
2.85915e-131
3.85062e-75
1.99207e-94
0
0
8.87681e-125
4.41997e-50
4.00202e-128
5.68941e-92
3.95498e-14
4.12248e-146
0
1.23159e-07
0
8.72183e-50
2.7839e-144
1.69742e-96
4.81189e-99
0
1.34155e-06
2.76636e-07
1.53919e-11
3.03941e-124
1.48615e-49
4.66207e-97
6.95435e-11
1.38847e-10
0
7.6675e-12
0
0
3.82964e-125
6.31387e-109
0
0
1.53663e-30
2.7049e-77
8.98782e-102
6.51276e-98
5.8897e-109
0
0
3.17085e-159
2.7761e-71
2.80248e-103
0
0
1.33982e-28
0
5.61554e-108
2.21028e-97
1.87191e-08
1.18019e-105
1.95284e-147
3.72872e-50
0
8.01396e-74
1.24746e-72
1.54828e-83
7.4634e-70
3.76797e-75
0
7.49762e-110
0.00233323
4.01275e-35
4.28352e-57
6.08979e-70
3.24566e-08
1.51823e-67
3.40826e-08
0
0
1.50964e-13
0
0
0
6.45452e-72
6.44605e-19
0
0
8.09624e-63
3.49793e-05
2.12699e-74
8.50075e-14
2.69419e-10
0
1.27644e-09
1.61855e-90
6.76148e-28
6.10123e-68
0.000111138
0
2.458e-35
1.92275e-118
1.21781e-66
4.07182e-18
3.04762e-17
3.67928e-125
3.37714e-101
1.42903e-101
5.24549e-93
2.06526e-116
1.25538e-49
0.000858672
0
1.189e-81
0.00068948
0
6.04439e-95
1.53852e-115
7.91641e-08
2.44261e-28
1.63254e-27
1.12778e-143
0.00481
1.17452e-44
1.71868e-06
0
2.93206e-141
0
1.80168e-132
2.52624e-12
2.48195e-08
1.61223e-161
5.31279e-05
2.12989e-05
0.000148652
1.26953e-131
5.04697e-121
1.61329e-74
1.34926e-116
4.85697e-94
2.5919e-134
0
0
6.828e-82
4.93235e-77
1.31758e-137
1.01619e-11
1.6087e-25
3.3201e-33
2.33473e-20
0
1.13828e-140
0
2.0268e-143
2.2818e-78
2.75871e-52
8.85967e-132
1.46486e-111
0
4.21768e-138
6.58431e-92
0
9.12877e-24
2.51387e-52
8.93432e-22
0
7.76856e-32
2.24573e-61
0
0
7.19574e-60
1.30397e-57
0
1.24809e-140
3.382e-119
0
4.85458e-133
0
0
3.46876e-22
2.34595e-27
3.17335e-20
8.67222e-116
0
6.32535e-110
2.94567e-76
1.57747e-41
6.40801e-66
8.80367e-58
1.93637e-62
6.07102e-22
0
0
1.74834e-74
0
2.31835e-58
1.63759e-28
0
4.40548e-41
4.67068e-92
7.70201e-71
1.92218e-55
1.28224e-134
0
0
8.1359e-66
1.8969e-36
1.87042e-19
0
0
4.64418e-06
2.84529e-71
5.63689e-26
4.95491e-31
9.99411e-112
0
1.63513e-73
2.49818e-136
6.53977e-111
9.2407e-75
2.64215e-72
9.63217e-79
6.31018e-94
1.6921e-95
8.53904e-34
0
1.57101e-79
1.00079e-10
1.1016e-86
0
2.96818e-10
1.14764e-61
0
3.244e-131
6.20214e-13
1.63546e-95
3.5417e-129
0
0
1.21715e-103
9.06122e-49
2.62527e-29
0
8.97326e-22
5.04272e-155
0
0
1.81229e-96
0
0
5.6064e-105
1.1144e-137
3.2555e-18
0
3.35409e-11
8.2954e-113
1.07317e-100
0
0
5.97368e-54
0
0
1.58828e-52
3.70947e-115
8.72853e-66
1.29561e-39
7.06821e-26
1.62956e-09
0
0
7.33924e-59
0
3.88902e-64
0
0.0833283
1.16188e-23
1.57358e-10
9.29494e-46
2.28504e-100
1.3544e-27
4.13165e-08
0
8.62338e-53
0
0
3.11655e-135
4.15104e-93
1.11793e-34
1.04047e-08
9.17802e-22
2.68504e-93
5.96855e-143
0
3.18387e-129
1.47801e-69
8.46323e-73
0.000151038
1.91179e-111
2.65023e-114
0
0
1.04378e-31
4.95782e-68
9.98946e-86
0
5.21938e-53
0
0
0
3.38933e-131
8.11701e-43
4.77516e-68
9.79135e-10
0
3.16047e-14
1.82482e-64
6.77436e-46
1.77446e-76
1.311e-33
0
3.46288e-11
2.4468e-137
7.27099e-19
1.01469e-134
0
3.85941e-11
0
1.00266e-118
2.87351e-106
1.21231e-29
6.00038e-06
1.14962e-36
1.4897e-09
9.46906e-65
2.33462e-24
6.87693e-15
6.02941e-37
4.02099e-117
3.48347e-127
0.000194262
8.15589e-22
4.44254e-27
1.86552e-107
1.6144e-25
0
2.44773e-32
4.15367e-111
0
0
4.229e-23
1.45817e-33
5.35445e-36
0
3.62107e-25
0
0
4.10344e-31
2.73883e-69
7.66865e-10
7.57076e-14
4.70499e-16
1.33635e-12
0
9.39885e-115
0
0
1.03611e-113
9.19344e-68
0
4.03695e-45
1.54941e-22
2.86307e-23
2.07031e-41
2.19688e-47
1.29171e-24
3.47827e-13
4.29513e-12
0
0
2.85127e-45
3.30398e-124
8.42201e-10
0
7.56609e-13
4.67444e-27
2.73736e-39
1.33326e-17
3.84889e-40
1.8277e-06
6.21294e-48
9.7979e-46
1.13843e-06
7.09998e-134
0
0
5.9141e-91
1.30485e-93
4.23526e-06
5.88316e-62
3.61086e-12
0
2.85615e-08
1.89556e-36
1.4403e-102
4.63913e-135
0
7.39568e-32
0
2.18358e-38
1.28169e-69
1.31217e-113
0
4.21447e-31
4.5437e-21
1.60402e-05
1.62156e-80
1.5376e-06
2.37605e-65
1.8962e-33
8.28369e-18
0
0
2.01649e-69
9.65749e-31
8.619e-20
2.96637e-25
0
2.64658e-31
3.39947e-24
0
0
9.55401e-149
7.92519e-26
5.58335e-30
4.28228e-23
1.08312e-27
2.58714e-74
2.761e-152
2.49149e-24
4.24606e-145
0
0
4.71659e-86
2.59882e-26
6.41655e-05
7.93345e-11
3.00671e-41
1.82003e-31
4.16064e-34
2.75286e-34
3.95422e-39
3.08643e-23
0
1.59245e-142
6.2355e-144
0
8.6296e-147
5.72729e-27
8.30056e-142
7.00544e-31
1.68747e-27
0
1.63329e-33
0
4.1327e-41
0
1.0888e-27
0
0
3.2159e-27
0
1.59116e-76
0
1.0149e-08
0
9.23692e-17
0
0
3.38147e-50
0.000470805
8.57338e-13
4.62078e-61
1.17862e-74
1.19525e-12
8.99898e-50
0
9.50551e-38
3.66793e-81
2.78087e-25
6.77733e-169
1.76382e-110
0
0
2.77179e-07
1.74246e-115
1.89689e-85
0.000138155
2.84673e-39
7.24351e-06
1.61531e-62
1.98935e-11
2.67427e-109
6.74429e-28
3.43168e-39
9.67751e-138
7.65735e-58
5.49727e-42
0
3.56073e-87
0
4.01872e-87
7.52874e-88
0
0
2.08707e-140
1.63716e-27
2.69705e-91
6.88633e-09
3.58675e-97
9.72854e-94
5.40706e-08
0
9.12996e-05
2.9692e-74
2.73418e-90
0
0.00184915
1.31654e-21
4.6924e-97
0
0
7.94023e-57
2.62701e-56
2.62646e-13
2.74139e-25
1.30672e-49
3.52963e-22
0
5.73219e-44
0
0.000101379
4.38891e-43
0
1.00227e-47
1.09099e-25
3.31881e-40
7.31006e-93
0
5.11901e-59
0
1.59481e-05
0
9.27687e-05
0
1.38653e-05
0
0
9.15624e-103
1.76458e-17
0
4.99342e-93
3.05951e-104
2.75166e-106
1.88753e-09
2.45914e-45
2.4995e-05
0
1.86923e-116
1.22889e-70
4.77943e-16
0
0
4.85171e-148
2.91307e-79
2.91606e-25
6.96231e-06
0
6.51528e-17
2.64295e-32
1.32668e-14
2.94718e-89
4.29874e-45
1.35253e-13
2.32808e-05
8.26785e-39
2.89386e-28
2.4359e-63
4.04177e-10
4.64092e-138
0
2.29825e-06
4.69871e-05
0
9.88395e-125
3.95654e-20
0
1.59545e-45
2.87699e-113
2.70614e-150
0
1.14496e-23
0
0
2.24644e-28
2.58782e-81
5.4993e-10
9.3954e-123
9.92803e-110
3.23771e-07
8.64368e-05
1.79963e-75
1.44057e-45
3.76039e-173
4.62806e-114
0
0
0
1.15762e-69
2.79787e-09
0
2.70573e-33
1.0206e-65
0
1.641e-33
4.07268e-98
1.96298e-95
4.57907e-145
5.35715e-37
0
0
0
2.44515e-122
3.54975e-32
6.67145e-119
0
1.14324e-36
0
2.81941e-40
4.10537e-109
1.19054e-11
2.33605e-109
1.63247e-06
0
5.24231e-59
8.13365e-136
1.67922e-54
5.00626e-16
0
4.33434e-70
1.78549e-09
7.80765e-26
0
5.0286e-115
1.44857e-44
2.80209e-26
1.21304e-17
0
0
4.45391e-08
4.00199e-42
0
2.31687e-42
0
7.67821e-54
5.90641e-09
1.08979e-20
0
1.45292e-12
2.20872e-52
0
1.48001e-52
2.41387e-41
0
2.31584e-12
0
0
0
3.23217e-09
1.20136e-133
0
0
2.05846e-09
0
4.6214e-57
3.59967e-63
6.62714e-122
0
0
1.42233e-84
1.40215e-22
0
8.77632e-69
0
0
4.12733e-05
0
1.05684e-84
3.03155e-124
0
2.44044e-120
1.48188e-05
1.22649e-18
0
7.61935e-61
0
7.73704e-49
1.10981e-20
3.66137e-33
1.97221e-89
0
4.05505e-25
1.00568e-107
2.56917e-16
0
1.50527e-13
5.99603e-132
0
0
0
0
3.72913e-34
4.63044e-118
1.9603e-135
1.61918e-60
0
1.05094e-11
2.03612e-62
3.90309e-34
0
2.29047e-62
0
9.31446e-14
1.03137e-76
0
6.95023e-63
1.85018e-90
1.74244e-47
0
7.6707e-102
4.37554e-150
7.19567e-113
0.000421545
3.12111e-71
1.73879e-24
2.54832e-118
5.31381e-21
1.61026e-27
0
0
1.11242e-51
7.55394e-32
1.68819e-35
5.82331e-05
6.30972e-47
0
3.21068e-27
8.56464e-10
0
1.08517e-116
2.48639e-108
1.7607e-25
0
0.00026671
1.42884e-15
4.48984e-98
1.14624e-39
1.20576e-67
1.57582e-14
0
4.7586e-15
1.63444e-41
2.44708e-17
8.69012e-40
1.75601e-11
1.89916e-17
0
1.46872e-90
0
1.66702e-143
5.85622e-80
0
1.40102e-147
1.4737e-41
1.91656e-07
3.84532e-90
0.000129827
1.60191e-35
1.94023e-72
0
7.27558e-22
7.56116e-19
0
7.26584e-34
5.28679e-59
2.35758e-60
0
1.70421e-41
0
1.87723e-22
0
0
0
0
4.95996e-61
5.6614e-136
0
0
0.112171
2.44527e-38
1.34196e-150
0
0
3.10177e-77
1.8686e-93
0
2.72468e-55
0
7.33621e-65
0
3.36554e-63
6.93712e-64
0
0
0
0
0
0
0
1.31668e-10
2.53819e-36
4.13592e-45
7.51116e-12
1.54399e-58
4.83818e-152
0
0
1.84904e-103
7.11666e-57
0
6.67544e-52
6.3069e-74
1.91136e-17
9.46443e-75
1.56231e-42
1.98402e-100
2.07231e-99
3.62491e-59
5.99049e-81
0
5.56996e-07
0
1.47502e-105
1.19053e-91
0
2.25077e-47
5.27176e-106
2.02238e-30
0
0
0
4.5195e-117
0
1.97573e-105
9.76321e-31
2.52161e-69
1.79864e-30
4.36737e-43
0
2.93744e-35
4.38678e-14
7.64948e-28
7.61915e-30
4.1396e-94
1.44946e-52
8.27903e-14
1.90771e-156
1.33627e-22
2.23146e-96
7.27259e-99
1.46305e-98
6.00885e-06
2.06221e-18
0
6.95759e-11
1.96046e-122
2.40887e-08
1.73217e-11
5.72816e-95
2.33643e-74
4.36621e-59
0
2.06171e-57
1.70036e-44
1.00413e-144
0
3.94148e-05
6.16212e-17
2.18843e-93
1.09126e-153
4.69873e-17
1.72408e-138
0
1.26609e-135
2.3325e-128
1.74115e-133
9.84187e-07
0
2.2486e-16
1.37088e-101
0
7.72545e-102
3.01887e-26
7.40777e-37
5.33617e-73
0
2.33533e-11
5.05946e-32
3.91335e-12
0
0
2.87878e-08
6.58023e-68
0
1.06177e-48
7.39022e-117
1.00555e-58
0.213687
8.549e-100
0
1.08586e-105
1.60159e-08
1.55923e-81
3.77072e-96
5.20998e-33
1.99365e-47
6.26955e-33
3.46535e-07
7.03307e-98
2.64125e-36
1.0165e-51
0
0
2.35041e-51
2.6231e-123
5.99525e-33
2.80839e-142
4.74011e-25
0
4.73895e-117
7.2363e-13
1.10769e-106
1.13187e-118
0
1.80678e-44
1.00817e-08
3.55814e-84
6.8628e-24
5.05798e-45
7.95071e-06
4.32256e-17
0
0
3.17706e-27
1.37915e-72
7.4777e-23
3.2131e-26
1.08501e-24
0
0
2.52405e-135
6.69604e-25
2.05425e-22
1.42156e-91
3.73619e-93
0
1.05947e-43
4.15687e-70
1.2569e-109
1.08796e-101
0
3.25344e-135
1.43613e-59
0
1.34742e-22
3.62974e-117
1.71429e-68
0
4.63951e-42
0
0
0
0
1.55047e-08
2.99843e-97
2.20326e-09
1.05353e-32
0
1.53058e-76
3.31262e-93
0
7.16088e-104
7.96264e-54
0
0
1.83336e-45
1.98623e-43
3.22976e-116
1.4063e-43
1.21268e-07
2.32599e-45
0
0
4.19334e-24
5.20093e-31
8.43856e-40
0
2.55905e-120
0
6.258e-39
0
5.35709e-130
4.91993e-40
3.58913e-118
0
6.67899e-48
3.63203e-12
5.47962e-42
0
6.41244e-15
2.12611e-112
3.3354e-20
5.78498e-130
0
0
1.78476e-76
6.32838e-101
3.21223e-19
0
3.38381e-11
0
5.60099e-05
0
0
0
0
4.11359e-38
1.45593e-36
0
4.44445e-10
1.72619e-132
0
5.28153e-50
1.30852e-38
0
0
2.82293e-39
6.57081e-05
0.000227584
0
0
1.84447e-26
1.18592e-102
0
2.98212e-24
2.72647e-42
6.65966e-40
2.33582e-95
1.76165e-55
1.10956e-41
6.16437e-40
3.87968e-05
1.245e-29
1.26469e-54
8.04159e-24
4.5815e-12
0
3.45202e-31
0
1.79849e-59
1.55231e-46
2.52659e-51
0
6.00429e-44
2.69124e-135
2.56884e-55
6.9965e-32
1.49627e-34
1.98859e-18
1.09698e-55
4.82372e-53
1.65351e-16
0
7.33995e-118
8.91766e-15
0
1.85495e-132
0
2.25573e-60
3.32229e-05
2.82143e-114
2.64224e-104
3.61522e-09
0
6.903e-09
0
1.0713e-09
0
7.38852e-68
3.76167e-19
6.55964e-35
0
6.2256e-07
0
3.68324e-51
1.60235e-26
8.28626e-131
7.68689e-125
2.1327e-110
2.6799e-10
1.0266e-29
2.87526e-73
2.03134e-23
1.80648e-102
2.70789e-08
9.46645e-11
9.15193e-09
1.20679e-25
9.30497e-06
0
4.07505e-06
0
3.44959e-82
0
0
1.37508e-130
1.72291e-134
2.76608e-111
0
1.75734e-21
1.85716e-19
2.41022e-33
1.77176e-17
0
1.1414e-92
2.11924e-120
0
7.21689e-141
3.52588e-115
9.9741e-07
0
1.95601e-102
4.26537e-85
4.23897e-75
5.68205e-25
0
2.63469e-75
2.44879e-41
2.31698e-79
0
2.03582e-89
1.80244e-35
0.000142485
1.1634e-41
9.54537e-17
5.72632e-09
5.76637e-80
0
9.86836e-19
0
2.98665e-96
2.51191e-101
4.23978e-31
3.32983e-09
1.25441e-17
2.46584e-05
1.32006e-108
1.54435e-139
0.0152043
0
1.69837e-37
1.12595e-67
1.92739e-98
1.13418e-37
3.62182e-106
2.48654e-41
0
1.7933e-39
1.34028e-05
2.32596e-15
4.02727e-39
4.64125e-26
1.44813e-24
1.96494e-141
2.16285e-13
0
6.5712e-102
0
3.37067e-88
3.44663e-123
3.46332e-88
4.09502e-50
4.02909e-125
5.83605e-26
1.47855e-07
4.14139e-19
3.18582e-12
3.97428e-132
6.81081e-92
7.46892e-06
0
1.35739e-102
2.15981e-21
0
7.97448e-98
0
0
5.66458e-09
2.84357e-11
0
1.27237e-05
2.31375e-05
6.68992e-08
5.2208e-94
5.32639e-12
7.76502e-36
0
1.01711e-06
0
0
0
1.60673e-90
5.49945e-40
0
8.83455e-38
6.53301e-64
7.96272e-13
0
1.06364e-85
3.11284e-11
2.16917e-05
0
0
1.42732e-125
0.00140846
0
7.92642e-54
3.75121e-27
0
1.2289e-05
0
8.99423e-70
5.17873e-59
7.14202e-62
2.04862e-67
0
1.94601e-11
8.51937e-07
1.24791e-13
8.6319e-06
3.22066e-94
4.01956e-13
0
0
5.04083e-83
0
1.64453e-60
7.48121e-66
0
1.17498e-56
1.37169e-47
2.00867e-60
0
7.23172e-40
5.01533e-08
0
3.26187e-12
5.88278e-07
4.55362e-23
3.73738e-128
2.84057e-14
2.06465e-69
0
9.71526e-79
0
0
0
4.57678e-14
4.69029e-17
5.77123e-33
2.24621e-08
4.66965e-05
8.2649e-24
0
0
3.09129e-12
2.03171e-25
1.39685e-05
0
0
0
7.41619e-11
1.20562e-57
2.86681e-11
1.78793e-82
0
3.29868e-139
7.06222e-135
1.2874e-11
8.37958e-128
5.0054e-24
0
2.84348e-06
7.9456e-12
0
1.35615e-113
1.35392e-05
1.48569e-09
5.0464e-15
6.92272e-10
0
0
0.00102975
0
6.81957e-75
3.20506e-43
3.02653e-41
7.2604e-25
1.82446e-73
1.01286e-22
7.63134e-10
2.21183e-25
1.71728e-27
2.22325e-05
0
2.98286e-21
0
0
3.04236e-06
6.49741e-23
3.59132e-06
0
1.26909e-25
5.45788e-18
5.27753e-61
6.59998e-06
6.68866e-25
6.44001e-40
0
3.99831e-41
5.90627e-12
0
0
0
2.14269e-38
7.66364e-140
0
3.18341e-41
0
7.85496e-06
4.34277e-06
1.70359e-53
9.26281e-06
5.43603e-39
2.50662e-145
0
3.88681e-09
2.33613e-08
4.32559e-15
7.74211e-16
6.3761e-08
1.1853e-06
0.00670156
1.36613e-13
6.58852e-40
2.73439e-05
2.10422e-67
9.75333e-48
0
0
3.78152e-35
9.72522e-07
2.72417e-13
1.12849e-22
2.20782e-11
1.49208e-06
2.2412e-37
3.74285e-23
8.04409e-48
0
6.33224e-108
4.85746e-39
1.63449e-85
1.28938e-36
0
1.42564e-06
2.68774e-06
0
2.21183e-49
0.000347307
0
2.95383e-06
1.56885e-39
5.19055e-08
5.47075e-14
4.8787e-07
6.25513e-55
0
2.49215e-84
0
0
0
8.86284e-22
0
0
3.51e-06
2.6054e-21
2.16419e-38
1.08379e-05
9.49773e-07
7.05278e-07
1.21906e-06
0
5.06616e-07
2.22646e-29
7.55391e-123
7.26875e-79
1.13898e-09
6.52428e-11
0
5.4718e-107
0
4.36445e-67
0
2.13964e-06
9.74383e-07
3.99487e-06
1.48588e-09
1.12389e-121
5.34631e-10
4.37415e-28
4.19987e-140
0
6.10527e-77
2.80005e-69
7.74519e-06
0
0
6.38478e-05
1.53396e-64
6.21106e-46
0
1.69265e-51
1.06077e-133
2.33202e-87
2.2915e-17
4.55146e-33
9.48796e-53
2.12595e-19
2.18779e-17
1.12816e-15
4.32375e-52
2.68766e-48
0
7.94408e-48
1.61759e-44
2.00329e-54
0
6.21775e-14
5.58577e-55
7.36913e-134
2.27172e-05
1.12422e-45
9.08634e-132
0
5.43738e-44
2.82948e-07
2.86393e-19
4.82509e-06
2.45453e-12
0
0
0
1.2639e-42
4.90516e-23
1.01008e-21
1.57713e-106
3.475e-17
1.87283e-102
1.33659e-90
4.84763e-13
2.19562e-148
2.08741e-42
1.03895e-21
1.48874e-18
7.16955e-20
5.46273e-20
2.60081e-67
1.20058e-11
7.27192e-19
1.69841e-19
7.30604e-70
7.691e-20
8.63718e-23
3.77496e-20
6.7638e-22
1.41014e-05
0
9.60985e-74
2.17127e-20
4.73547e-07
6.34825e-27
3.33075e-10
0
4.63894e-21
2.39301e-106
6.64677e-131
0.0543316
3.52662e-17
9.11753e-13
6.53427e-21
4.03649e-11
4.1861e-09
9.95526e-05
0
3.97976e-20
2.23288e-126
2.43055e-15
4.45561e-69
9.49744e-28
0
1.41603e-81
9.14228e-10
0
5.50446e-26
5.35619e-20
1.00232e-106
1.65971e-66
2.3177e-21
2.50409e-70
4.1032e-75
0
4.80551e-130
5.87929e-30
2.64322e-127
3.52745e-19
7.23379e-07
0
0
1.3323e-05
5.32052e-71
0
3.68478e-20
6.78483e-113
1.03916e-108
0
4.72632e-73
1.00369e-30
1.06796e-28
4.61351e-05
9.44372e-69
0
4.88065e-19
3.29763e-91
2.00402e-08
8.43487e-05
1.36869e-118
0
6.13728e-37
0
3.11308e-07
0
3.13009e-86
6.66378e-156
0
0
1.1132e-05
1.09481e-05
1.33323e-37
0
0.00314521
2.50449e-52
1.41926e-29
9.02527e-160
5.79539e-12
0
7.9503e-06
0
3.37639e-101
0
0
7.62472e-31
8.51543e-19
0
1.35398e-15
2.87653e-32
0
9.48044e-29
0
4.21523e-90
7.00845e-36
0
9.41572e-11
1.02539e-83
4.50258e-166
3.9471e-107
0
0
9.92172e-16
4.46804e-06
3.09316e-162
2.1814e-159
0
7.33926e-145
0
7.67498e-49
0
1.62438e-05
2.15326e-05
1.08849e-22
0
0
1.45353e-27
9.95807e-09
0
1.44383e-11
5.14065e-70
6.39624e-06
1.65365e-26
5.70226e-92
2.32382e-05
8.48508e-19
9.27673e-06
9.41569e-06
8.22958e-10
4.86055e-35
3.04355e-75
7.20936e-116
0
0
3.20161e-18
5.50086e-06
4.28469e-55
2.09346e-12
4.65201e-72
1.34665e-09
9.3298e-16
2.01168e-15
0
0
8.26943e-22
7.50878e-142
2.13049e-07
0
3.275e-120
2.41998e-122
4.35925e-15
2.49253e-16
0
0
0
0
1.96833e-05
5.32888e-30
3.44893e-05
1.57891e-144
0
6.55824e-09
5.22485e-14
0
3.21201e-61
2.46033e-05
1.6611e-56
2.589e-56
0
2.0299e-12
8.75092e-25
0
8.90709e-148
1.45252e-05
9.08168e-05
2.22182e-11
8.97046e-22
4.33859e-65
2.40274e-06
4.68596e-100
1.40226e-18
9.55223e-06
3.24142e-05
7.61804e-06
2.70639e-06
3.4896e-06
1.70623e-06
0
0.0425415
2.14189e-10
2.47555e-21
4.32453e-151
1.26823e-09
7.9242e-05
9.35437e-141
6.73826e-22
4.62247e-06
0
1.56291e-05
4.07365e-149
1.64427e-05
1.44301e-18
8.55129e-13
7.30312e-21
0
4.79795e-94
8.61579e-149
1.33037e-52
0
0.001544
0
7.5689e-09
4.40843e-15
1.8197e-147
1.52786e-151
0
3.97503e-60
2.10938e-55
0
7.04736e-24
0
1.59609e-12
6.96233e-62
2.05411e-06
3.43673e-149
1.12823e-18
0
0
1.15122e-13
0
0
1.22871e-70
2.10858e-44
0
0.000592381
0.000237079
3.29246e-06
0
2.88583e-40
1.49993e-42
0
2.88577e-89
0
1.87052e-36
0
0
3.67874e-30
3.41834e-05
0
8.41395e-41
6.92378e-66
1.57813e-35
7.03072e-26
1.10841e-111
0
0
0
8.59168e-06
2.28746e-80
2.0313e-06
5.15551e-88
2.55241e-64
2.85987e-12
1.04315e-12
2.75587e-103
1.35103e-54
1.63023e-69
0
4.73409e-61
5.30892e-78
0
3.05622e-36
3.62171e-66
7.14712e-71
6.69213e-90
0
2.74767e-12
2.60967e-73
0
2.93842e-73
0
4.10521e-74
0
8.09948e-35
2.94411e-07
0
9.80546e-74
7.54184e-125
0
1.96392e-16
1.90388e-05
1.46951e-104
0
1.57993e-05
0
1.71137e-51
0
1.57329e-29
1.68108e-05
0
1.08726e-67
6.66759e-52
0
2.34473e-05
0
6.86424e-111
5.41952e-81
0
4.15447e-65
5.10797e-109
0
0
8.95285e-105
3.59821e-13
3.34123e-65
9.99606e-108
3.67905e-43
1.7911e-110
7.36172e-50
1.24437e-13
3.42325e-71
0
8.01443e-10
1.44807e-10
0
1.36346e-103
1.44145e-133
0
7.32192e-35
0
2.64571e-71
0
3.7176e-78
1.5386e-57
0
0
0
0
0
5.17617e-23
3.50238e-07
0
1.53559e-10
8.53871e-32
4.50159e-11
1.34709e-101
2.49477e-67
4.69861e-10
3.04325e-103
0
1.04051e-11
1.44707e-99
7.36161e-10
0
1.09761e-101
5.41741e-30
7.17832e-37
1.23616e-15
3.20358e-42
1.09771e-14
7.5914e-56
6.55525e-45
6.50338e-13
6.11119e-106
0
1.81451e-83
1.25396e-41
0
1.81556e-36
3.30792e-12
1.85623e-48
2.45948e-14
3.75174e-29
9.59333e-11
1.72507e-46
0
0
9.61169e-12
1.2037e-39
2.26539e-32
4.76085e-54
7.77592e-105
9.83916e-47
1.37213e-52
0
1.7731e-25
0
3.0667e-101
6.47679e-55
4.66568e-30
2.1298e-16
0
6.57925e-49
8.48361e-45
2.6422e-82
7.43331e-59
1.30806e-82
5.53067e-46
0
3.69114e-56
8.7603e-82
5.58314e-86
3.72519e-92
4.62763e-82
0
5.20103e-74
0
0
0
4.59151e-13
0
1.16436e-13
1.66804e-05
1.92419e-123
5.21521e-65
6.32946e-24
4.55837e-87
1.47283e-97
0
8.43464e-138
4.87355e-88
2.81353e-29
1.17592e-20
6.89892e-48
1.0234e-74
5.80991e-35
3.34336e-140
2.26165e-39
9.67418e-09
2.82686e-139
0
5.35526e-09
4.85134e-139
4.49152e-88
4.56638e-26
7.54826e-93
1.55245e-30
4.14058e-16
1.44036e-61
0
0
0.000303418
8.79572e-19
1.44427e-51
2.33349e-104
1.42268e-136
9.65784e-97
1.11495e-80
0
3.32136e-106
2.89956e-105
5.57434e-67
7.28978e-24
3.00867e-80
0
1.92631e-102
9.86966e-06
3.95478e-17
6.81385e-13
1.42256e-06
4.03492e-18
1.94205e-77
1.59587e-21
2.5614e-63
6.29238e-92
7.51876e-77
0
0
1.08022e-75
2.58628e-30
9.17618e-07
1.36161e-67
3.13624e-72
4.73862e-06
6.56314e-68
1.6818e-05
0
4.78798e-41
0
7.1244e-68
1.30847e-07
8.15622e-72
2.22212e-07
3.06895e-75
0
0
2.21157e-80
0
1.17811e-18
1.5954e-06
0
9.4406e-23
1.03168e-08
1.5901e-93
5.0845e-17
7.59213e-07
1.13037e-23
0
1.56863e-93
8.03252e-24
3.76152e-12
1.29379e-24
4.05795e-06
0
2.97922e-80
4.55256e-49
0
5.99641e-51
3.60037e-21
0
3.95746e-55
0
1.72231e-19
0
2.55518e-50
1.57293e-44
0
2.38854e-36
2.26066e-109
2.4144e-21
4.54038e-05
0
6.20723e-22
2.80581e-18
4.70486e-05
3.31476e-109
3.11154e-63
0.000206876
0
6.99487e-23
8.2377e-43
7.60649e-31
3.02277e-93
2.19174e-19
0
1.1335e-116
0
0
5.80948e-06
1.56231e-49
1.5702e-51
7.05314e-05
4.45355e-10
2.56518e-107
6.13896e-70
1.83519e-48
1.44057e-62
0
0
1.13582e-12
0
3.25567e-21
1.98901e-47
6.14304e-25
0.000127843
1.38637e-49
2.56668e-87
0.000137775
1.1433e-14
0
0
1.73761e-12
9.16916e-36
3.54084e-19
0
5.77913e-20
2.9685e-22
1.62255e-21
1.51226e-06
6.46756e-28
0
8.34268e-22
8.94994e-29
1.11064e-10
4.82958e-97
3.2339e-59
2.83936e-24
1.59067e-42
0
2.1618e-21
0.000160541
0
7.9225e-63
0
3.40279e-49
0
1.21737e-06
2.57772e-76
1.52207e-07
7.31964e-86
1.07517e-09
4.88924e-05
7.08474e-06
2.30553e-116
8.20341e-92
0
0
1.38728e-57
0
5.48654e-49
1.82803e-08
1.3083e-07
0
0
2.13361e-06
0
4.26246e-18
1.68574e-05
3.27556e-06
5.46133e-56
0
1.18848e-77
0
2.45316e-115
1.68452e-98
4.34518e-76
4.8613e-60
4.87935e-97
0
0
0.00155476
1.60614e-53
5.003e-54
1.73087e-98
4.71345e-29
4.36228e-47
7.69881e-94
2.41111e-21
0
6.49849e-75
9.28427e-55
1.77064e-107
2.89665e-49
0
0
1.55924e-76
0
1.09796e-43
1.02492e-05
0
1.53655e-16
1.63819e-25
1.44547e-05
0
0
0
4.05552e-123
0
0.00237346
1.76988e-70
6.05581e-44
4.24388e-121
1.05811e-95
0
2.34302e-64
2.27181e-123
0
1.06867e-43
0
9.53998e-33
1.43755e-05
4.64325e-122
1.12479e-13
3.94254e-120
1.07846e-23
0
0
0
8.14015e-07
0
1.68521e-102
5.89921e-140
0
0
3.66551e-134
0
9.22725e-08
2.21341e-05
5.82781e-123
9.39853e-20
0
9.13966e-132
0
0
0
1.85624e-45
5.69592e-13
6.65297e-63
5.05046e-93
0
8.68156e-106
3.93519e-06
4.02014e-20
1.49655e-79
0
1.73646e-100
1.29899e-10
0
0
1.4947e-78
2.79234e-79
0
0
0
7.37276e-07
4.55308e-105
4.66277e-56
1.34199e-62
7.50307e-06
5.8092e-08
3.68643e-82
2.80804e-25
3.15082e-07
2.15973e-95
3.85879e-28
0.0012081
0
5.46728e-07
1.15691e-24
0
7.21924e-63
1.50636e-92
1.49947e-10
6.6985e-26
6.10698e-102
1.08209e-104
2.37801e-67
1.50471e-90
4.7647e-105
2.73521e-19
2.40335e-07
2.50314e-32
2.2216e-29
0
4.70945e-20
8.88986e-06
0
5.67623e-47
0
0
9.5537e-06
4.88003e-97
6.23835e-78
1.93985e-130
5.25245e-47
0
6.40537e-05
0
0
1.5406e-36
2.82199e-09
6.89062e-143
2.09567e-98
5.72622e-05
1.73499e-97
0
1.91552e-115
2.11099e-101
2.17721e-36
4.1382e-31
0
1.12971e-40
0
3.34773e-83
0
6.48391e-118
1.13109e-06
2.743e-19
3.6127e-126
1.01038e-39
1.00151e-119
0
5.40057e-103
1.13323e-06
0
1.37067e-10
4.02157e-49
1.18196e-116
0
0
7.15307e-13
1.45073e-33
0
3.01281e-75
5.99228e-114
1.88864e-101
7.34783e-06
4.19777e-05
0
0
8.95658e-07
4.00756e-05
6.2634e-08
6.53424e-06
7.66418e-06
4.04133e-45
2.48453e-09
2.0094e-13
0
5.38788e-97
1.13944e-137
5.34035e-81
1.72084e-118
6.47418e-65
0.000529517
1.19607e-05
6.62563e-07
1.42898e-12
3.91102e-06
4.81004e-50
0
0
5.79014e-16
4.17461e-15
1.60994e-05
1.45062e-10
2.62877e-06
6.91168e-07
0
1.76415e-07
8.5644e-07
0
0
1.35984e-05
0
2.3947e-135
6.25514e-05
3.33621e-06
0
7.81489e-112
6.61353e-95
0
0
0
0
6.27645e-12
4.22603e-05
1.58626e-104
2.50291e-42
9.56199e-64
6.17213e-06
1.97455e-07
8.65433e-53
2.73335e-138
1.66037e-126
6.24522e-06
4.48534e-84
2.09692e-78
2.48468e-19
0
1.95927e-49
5.61214e-112
0
4.71008e-10
6.0891e-14
3.09823e-80
8.38875e-176
7.53485e-82
8.05795e-77
0
9.68825e-20
0
3.87784e-27
2.02856e-63
0
3.95399e-46
0
1.47085e-118
0
1.23825e-85
8.16465e-103
1.16284e-77
0
0
9.44811e-79
1.70974e-25
2.91689e-95
2.09529e-07
3.87675e-75
0
1.91635e-93
0
0
2.58943e-73
3.94131e-09
1.20057e-07
0
1.10936e-07
0
5.98784e-07
8.10645e-10
8.66226e-08
1.04072e-07
1.3402e-08
1.03555e-18
5.49035e-65
0
0
1.43712e-62
4.96417e-125
7.17895e-88
3.1851e-49
9.42586e-07
0
1.41302e-07
9.46387e-78
3.91929e-35
1.65208e-75
0
0
0
0
1.49159e-07
0
7.32616e-94
0
2.67777e-34
1.55038e-19
4.58731e-48
2.68412e-39
0.000196564
5.31351e-73
0.000100506
3.40852e-152
4.05724e-138
1.65685e-28
2.90824e-05
0.000354852
0.000236319
2.08182e-05
3.59394e-06
1.48721e-09
1.31497e-06
0
6.90839e-05
5.15864e-107
0
0
0
4.57607e-12
2.58916e-11
3.78695e-09
0
1.49376e-11
1.9943e-12
0
1.20413e-13
1.07728e-10
6.82726e-125
0
1.56006e-116
3.06046e-09
4.33591e-08
4.20069e-39
4.54719e-118
6.75546e-09
1.62327e-05
1.74063e-15
8.37441e-06
2.33737e-11
0
0
4.4656e-133
0
0
9.15143e-19
1.66644e-127
0
0
3.51906e-114
7.77463e-108
0
1.65443e-133
1.38259e-92
4.88352e-06
1.70214e-105
7.25834e-17
2.46397e-07
7.68565e-101
9.20142e-19
1.39934e-11
3.26711e-10
0
1.8653e-10
1.50715e-24
6.07689e-08
0
1.05195e-147
3.73899e-09
0
1.22621e-11
3.65501e-13
6.67729e-43
0
0
7.23783e-17
2.00224e-05
0
9.19533e-53
2.62497e-12
0
1.66682e-08
5.83813e-126
0
5.17711e-125
1.833e-12
8.56833e-84
0
0
4.94674e-77
0
2.9585e-11
1.64408e-10
1.25576e-13
0
1.31766e-10
1.53436e-06
5.06302e-07
0
1.91919e-25
0.00144063
6.97385e-08
8.05567e-07
6.44465e-75
2.06565e-20
1.51186e-97
0
1.05722e-106
5.53825e-103
4.52593e-104
5.99374e-83
9.64795e-107
9.50156e-07
2.98167e-150
6.27046e-43
2.66671e-103
0
8.22381e-108
2.61682e-137
7.44623e-80
3.99895e-10
9.29686e-12
0
0
2.40742e-14
0
1.45192e-07
0
0
2.53039e-12
1.00571e-73
0
0
3.12377e-09
7.02187e-34
1.89768e-108
1.03166e-35
2.21671e-68
1.29526e-93
1.33029e-103
3.88413e-49
0
6.11401e-151
1.54165e-109
8.26819e-150
1.50332e-113
0
0
1.21921e-15
1.39646e-132
1.45628e-48
0
5.40201e-26
1.68478e-100
1.16697e-31
2.85503e-54
7.60788e-17
3.41354e-94
1.22935e-95
1.1184e-97
1.26369e-95
6.77514e-24
7.04484e-64
0
5.24895e-112
0
0
7.28961e-11
9.45056e-103
0
0
4.02964e-91
0
6.80434e-11
1.49079e-113
0
1.74222e-89
0
3.819e-74
3.40657e-91
0
1.88517e-51
0
2.84273e-140
9.27767e-52
1.93667e-12
1.22394e-114
1.59369e-106
0
2.5274e-78
0
1.06495e-75
2.35064e-06
6.88852e-26
1.35741e-83
6.99154e-53
0
2.91676e-17
0
5.27195e-12
2.98223e-23
1.80233e-30
6.12393e-37
1.52285e-118
2.90688e-60
3.68889e-130
3.01318e-94
4.01676e-16
3.04849e-54
4.59574e-142
2.0722e-15
4.93666e-79
4.54215e-148
0
0
5.62848e-68
1.87689e-78
0.000576934
0
5.52721e-139
0
1.65898e-14
8.56738e-17
5.16728e-16
1.78654e-21
6.09821e-09
3.89586e-06
4.87004e-42
0
0
5.48356e-14
0
0
7.55317e-71
1.95654e-58
6.98695e-07
6.67751e-98
0
8.49891e-76
5.3843e-23
3.40895e-24
2.49963e-10
9.89073e-22
5.88037e-131
6.57016e-26
4.52759e-06
0
1.78474e-16
1.66963e-107
3.63928e-78
1.94185e-133
5.78797e-69
0
0
0
7.26117e-06
7.76952e-07
1.58419e-06
1.71706e-09
1.30128e-05
1.0446e-25
8.60526e-126
3.0554e-115
5.60326e-105
6.9891e-99
0
1.71069e-125
1.49719e-128
1.91813e-105
6.00353e-06
0
2.28703e-17
4.86337e-13
6.3967e-90
1.54328e-06
1.05247e-38
4.95607e-15
7.5294e-30
2.30132e-129
1.76096e-14
4.41445e-116
0
0
1.14346e-15
1.11673e-05
3.00992e-06
0
1.42768e-06
1.33141e-82
0
0
1.17046e-21
0
6.39658e-07
2.38301e-38
3.48885e-84
0
2.78763e-09
5.64402e-14
0
3.66951e-19
2.08542e-128
1.19784e-87
3.66991e-05
0
4.9298e-29
1.40042e-130
1.3313e-36
1.02586e-99
0
8.16143e-101
0
1.73018e-25
5.47261e-99
1.8193e-05
6.28626e-87
1.9556e-26
2.39973e-102
5.23823e-69
2.02222e-23
0
5.13319e-101
2.53134e-99
0.00025364
0
5.4326e-17
8.03874e-06
1.43779e-14
3.97449e-135
1.12525e-13
7.22895e-24
1.74586e-102
2.00413e-97
2.87754e-05
2.28406e-27
9.99449e-98
0
2.33095e-06
1.00815e-39
0
4.41434e-48
7.58026e-29
0
0
1.43623e-76
8.96044e-118
2.87537e-06
1.2159e-120
1.81849e-05
9.56298e-66
8.02777e-39
0
0
3.66956e-15
1.3656e-121
5.31252e-92
4.46279e-58
0
0
1.02825e-05
0
3.86981e-06
1.37199e-25
4.11207e-16
0
2.32657e-44
0
0
8.25038e-22
2.67527e-05
1.57631e-07
4.78774e-19