/*--------------------------------*- C++ -*----------------------------------*\
| =========                 |                                                 |
| \\      /  F ield         | OpenFOAM: The Open Source CFD Toolbox           |
|  \\    /   O peration     | Version:  v2012                                 |
|   \\  /    A nd           | Website:  www.openfoam.com                      |
|    \\/     M anipulation  |                                                 |
\*---------------------------------------------------------------------------*/
FoamFile
{
    version     2.0;
    format      ascii;
    class       volScalarField;
    location    "3";
    object      CO2;
}
// * * * * * * * * * * * * * * * * * * * * * * * * * * * * * * * * * * * * * //

dimensions      [0 0 0 0 0 0 0];


internalField   nonuniform List<scalar> 
108993
(
1.47814e-65
2.19643e-41
2.17178e-54
5.04064e-153
1.47534e-147
1.5691e-131
3.38445e-41
0
8.53413e-118
0
5.06766e-93
7.85546e-99
0
0
1.22723e-109
5.53403e-24
9.17534e-69
5.28879e-106
1.30269e-149
2.33267e-73
1.22972e-148
0
1.02739e-81
0
7.00983e-158
0
1.07594e-136
0
3.5362e-82
0
4.07219e-127
0
5.36895e-136
2.53031e-50
6.32223e-150
0
1.69688e-135
0
0.0128399
0.0250468
0
8.52444e-114
0
9.86757e-158
4.88644e-32
5.65785e-05
0
0
0
5.97241e-77
0
3.2509e-11
0
0
8.35332e-100
1.45845e-92
3.48063e-140
2.67042e-131
1.4559e-127
0
8.1823e-126
1.72008e-122
0
1.7213e-141
4.56566e-146
4.30368e-91
2.00476e-148
6.98565e-138
0
1.70214e-17
4.13418e-118
1.66301e-142
5.23091e-138
3.03118e-141
6.83491e-79
9.50866e-122
0
4.1424e-56
1.44458e-146
0
0
0
1.78872e-137
2.36263e-111
3.76137e-106
1.61621e-104
0
0
1.02984e-142
1.05453e-148
1.16735e-138
2.50562e-129
0
1.88025e-169
0
1.5708e-84
0
1.25257e-108
0
3.96369e-135
2.96508e-133
1.11078e-131
5.90586e-108
6.83052e-83
9.10453e-119
2.59765e-139
8.51466e-102
3.58404e-141
0
0.0021159
6.24321e-42
2.88106e-137
0
2.21827e-28
0
3.67488e-22
2.99564e-143
4.33389e-80
8.58392e-20
0
5.87388e-94
0
2.71846e-17
1.53991e-66
3.80993e-138
1.8873e-37
9.35968e-60
3.01484e-77
0
1.14221e-127
3.55468e-78
1.53604e-126
0
0
5.21966e-124
0
1.60467e-121
3.47444e-117
1.72914e-109
8.65169e-96
1.16684e-67
7.72625e-124
3.09721e-24
2.80636e-124
0
5.83174e-137
1.0247e-112
2.23477e-09
2.33346e-65
3.67017e-11
0
0
4.0359e-53
1.43293e-08
0
3.28128e-40
0
7.70663e-141
2.68111e-136
5.8381e-08
5.42443e-09
1.42894e-140
9.3602e-128
2.35391e-124
0
1.16974e-19
1.00862e-144
0
1.26196e-140
0
0
9.7101e-102
0
1.70693e-109
8.1113e-100
2.38365e-95
9.39142e-09
1.07695e-141
1.7107e-98
1.48547e-137
0
4.69105e-127
1.71758e-141
0
1.85027e-89
2.62555e-120
1.96136e-145
0
2.11835e-90
2.03526e-69
0
0
0
0
0
8.20663e-52
5.28576e-61
0
3.23429e-118
9.01232e-71
8.80742e-143
5.65036e-13
4.19319e-140
7.71034e-139
3.58741e-33
3.59898e-17
0
3.28737e-09
1.59152e-101
0
5.16645e-12
0
2.08849e-08
0
0
0
3.14866e-95
5.75552e-93
0
2.46693e-124
1.10905e-93
1.52931e-11
7.94018e-35
1.16625e-12
0
7.90014e-142
5.97258e-142
7.25935e-78
4.92707e-08
2.58494e-97
0.000713693
2.60009e-107
1.0085e-140
7.52637e-94
1.09333e-127
0
2.48209e-130
1.85506e-126
9.19496e-18
1.96871e-140
6.25888e-132
1.86031e-92
0
1.43923e-141
0
1.29186e-23
4.2583e-17
1.86438e-15
8.16297e-137
0
0
3.08703e-144
7.94412e-112
1.48793e-119
9.34234e-140
2.97691e-138
1.94542e-138
1.04766e-76
7.50763e-120
3.08719e-133
5.74732e-83
0
1.05812e-36
8.54176e-35
4.18986e-152
2.99368e-80
1.88835e-84
1.7928e-91
0
5.46794e-104
5.64627e-158
3.88326e-60
3.77866e-25
0.000704519
2.42014e-10
2.46044e-103
1.20628e-133
5.43058e-15
0
0
5.04414e-65
4.78763e-05
0.000299105
0
3.10442e-120
0
3.32577e-149
3.00451e-71
9.49812e-66
2.86885e-18
5.99065e-94
0
0
8.43074e-90
0
9.711e-82
1.68525e-123
2.03152e-86
0
9.22143e-152
0
6.86431e-15
0
1.90111e-154
3.83039e-111
2.73784e-95
6.50355e-131
1.11248e-73
7.07334e-93
0
0
8.88378e-124
1.20341e-48
7.04724e-127
2.19373e-90
8.96804e-13
1.87904e-145
0
2.45211e-05
0
1.65565e-48
1.64568e-143
4.12485e-95
1.15159e-97
0
0
8.61008e-05
5.35615e-10
4.07857e-124
1.9612e-48
1.45018e-96
3.27901e-09
2.15962e-08
0
0
0
0
3.10342e-124
4.09716e-108
0
0
3.3e-29
3.69677e-76
1.58831e-100
1.24037e-96
1.32792e-107
0
0
3.86542e-159
3.84873e-71
3.56803e-103
0
0
1.02194e-26
0
8.70415e-107
2.93977e-96
6.35072e-06
1.25521e-105
9.88014e-147
6.44788e-50
0
1.14379e-73
1.50106e-72
3.58688e-82
1.3661e-68
5.06777e-75
0
1.41465e-108
0.00916791
6.72912e-34
6.34072e-57
7.56554e-70
4.94723e-07
3.12721e-66
6.13016e-06
0
0
0
0
0
0
1.60517e-70
4.84271e-18
0
0
1.67942e-61
0.0177147
4.29248e-73
1.10969e-11
4.87215e-08
0
2.41515e-07
1.40076e-89
2.38104e-26
1.22856e-66
0.000187588
0
3.3081e-35
4.26039e-118
2.35682e-65
5.51732e-16
3.13928e-15
4.68625e-125
4.45375e-100
2.57185e-100
3.01067e-91
2.0224e-115
1.30245e-48
0.00145455
0
1.74283e-81
0.0344059
0
6.13856e-95
2.7095e-115
1.70145e-06
1.21681e-25
1.25515e-25
1.94442e-142
0.00307196
3.74641e-43
2.2565e-06
0
2.15388e-140
5.35364e-08
2.16562e-131
6.36461e-11
3.6571e-06
6.01952e-160
0.000147604
0.00941113
0.000186251
2.11542e-131
7.7987e-121
3.73113e-73
3.1267e-116
9.11578e-93
2.0919e-133
0
0
2.48653e-82
3.5521e-76
2.66929e-136
2.6232e-08
6.82525e-24
1.05886e-31
2.19899e-18
0
2.31453e-139
0
1.55617e-142
5.89868e-78
3.79616e-51
7.22538e-131
3.02903e-110
0
8.33155e-137
2.00017e-91
0
6.53692e-22
3.88057e-52
6.10427e-20
0
3.60831e-29
2.86073e-61
0
0
9.23689e-60
1.62661e-57
0
1.15126e-139
5.24963e-119
0
7.76186e-133
0
0
5.79351e-19
2.39892e-25
5.93432e-19
1.12789e-114
0
1.05608e-109
3.58342e-76
2.69387e-41
1.01878e-65
1.14098e-57
2.45673e-62
8.30498e-20
0
0
2.82073e-73
0
3.17061e-58
1.32142e-27
0
6.667e-41
6.72522e-92
1.09611e-70
5.25016e-54
1.03163e-133
0
0
1.04822e-65
2.48584e-36
3.66891e-18
0
0
0.0229033
3.51594e-71
7.85671e-25
1.81281e-29
1.27248e-111
0
2.18682e-73
2.63525e-137
1.59269e-109
1.11864e-74
2.97651e-71
4.70904e-77
2.00966e-93
5.39157e-95
3.54834e-32
0
3.61493e-78
6.08097e-09
3.90981e-85
0
1.61987e-08
5.3719e-60
0
5.69933e-130
3.70197e-11
5.52898e-93
2.83257e-128
0
0
9.44584e-103
2.52448e-47
2.00721e-27
0
1.02158e-19
5.49366e-154
0
0
1.32742e-95
0
0
3.53028e-104
1.36828e-137
2.92538e-16
0
5.54226e-09
1.37504e-111
2.11372e-99
0
0
1.44987e-52
0
0
2.87908e-51
3.99237e-115
1.14385e-65
4.5184e-38
1.72827e-22
3.64221e-07
0
0
4.89034e-58
0
4.71096e-64
0
0.0639412
3.07058e-20
9.66293e-09
1.91077e-44
4.29037e-99
3.17784e-24
9.47554e-06
0
1.56143e-51
0
0
1.00241e-133
7.76365e-92
0
3.62558e-06
2.57519e-18
1.49245e-92
4.74527e-142
0
4.74587e-128
4.13551e-68
1.41942e-72
0.000786488
1.3323e-110
6.61998e-114
0
0
4.89588e-30
6.96005e-68
1.28262e-85
5.39401e-05
1.83832e-52
0
0
0.000153479
5.34372e-130
1.09696e-41
6.0297e-68
3.34668e-09
0
0
2.2956e-64
2.62066e-44
2.46251e-76
8.92998e-33
0
1.19133e-08
3.26598e-137
2.03317e-17
1.35762e-134
0
6.12455e-09
0
8.30098e-118
7.42935e-106
2.90742e-28
0.00563237
1.17209e-36
6.06992e-08
2.02918e-63
5.55577e-23
1.87062e-13
6.53284e-37
9.35061e-116
5.27749e-126
0.0158689
1.23607e-20
4.9046e-25
4.7217e-106
1.92982e-23
4.79877e-93
2.04648e-31
5.7316e-111
0
0
9.82298e-21
1.78978e-32
8.51915e-36
0
7.93639e-25
0
0
2.36995e-28
7.55941e-68
5.19743e-08
1.60926e-11
7.20454e-13
2.88559e-10
0
1.30557e-113
0
0
9.59994e-113
1.02389e-67
0
4.95188e-45
1.61807e-20
2.60683e-21
1.1044e-40
8.56373e-46
9.54145e-23
7.68707e-11
9.61566e-10
0
0
8.5671e-43
5.75017e-123
1.56945e-07
0
2.78025e-09
5.42564e-25
3.0766e-39
1.81717e-15
5.1475e-40
0.00394965
1.86285e-45
2.49851e-43
4.25417e-06
3.40534e-133
0
0
1.45742e-89
3.44122e-92
0.000674428
2.73266e-60
3.8196e-10
0
0.000871039
2.65681e-36
1.73878e-102
1.17319e-134
0
2.58319e-30
0
9.19117e-38
3.99687e-68
1.78015e-113
0
1.14269e-29
3.54163e-19
0.00405155
3.01624e-79
0.00217009
4.40517e-64
1.94111e-31
3.93239e-16
0
0
5.86163e-68
1.49702e-30
9.43521e-18
5.22038e-25
0
2.82176e-31
2.65947e-22
0
0
9.83408e-148
1.00428e-23
9.24915e-30
6.203e-23
1.42755e-27
4.18536e-74
4.55168e-151
4.23023e-21
2.81001e-144
0
0
5.02931e-86
7.83e-26
0.0135799
4.03803e-09
2.27432e-40
1.08593e-29
5.9174e-33
3.29559e-33
1.07151e-37
9.8097e-22
0
1.2178e-141
3.82821e-143
0
6.38813e-146
0
4.98707e-141
1.73946e-30
2.28125e-26
0
1.20653e-32
0
6.73128e-40
5.47117e-54
3.07553e-25
0
0
1.30176e-25
1.37531e-161
1.04852e-75
0
1.71848e-05
0
2.59799e-15
0
0
4.87324e-49
0.00185426
1.39626e-10
1.29949e-59
2.1709e-74
5.75427e-12
5.28582e-49
0
4.05728e-36
1.47156e-80
1.56984e-23
5.6618e-169
7.90929e-110
0
0
8.62011e-05
1.93813e-115
5.79522e-85
0.0191242
3.2216e-39
0.00335756
7.52387e-61
6.74241e-10
4.73057e-108
2.99539e-26
4.75151e-39
7.62365e-137
9.51686e-58
6.78382e-42
0
7.10695e-86
0
5.04716e-86
0
0
0
2.49508e-140
0
8.01609e-91
1.81299e-07
1.22904e-95
6.26059e-92
0
0
0.000196818
6.74759e-73
1.68801e-88
0
0.024079
5.35488e-20
1.67483e-95
0
0
5.88788e-56
1.86307e-53
2.90719e-11
4.83427e-22
5.69781e-49
8.79039e-21
0
1.81997e-43
0
0.0175046
2.39641e-42
0
6.84374e-47
1.0287e-22
4.54286e-39
2.69578e-91
0
4.9037e-58
0
0.00208985
0
0.00323472
0
0.00207379
0
0
1.08217e-101
2.30329e-16
0
0
3.62392e-103
3.26559e-105
1.67713e-06
6.29339e-44
0.0277565
0
1.00368e-115
1.41875e-70
1.8427e-14
0
0
2.88535e-147
1.91338e-78
5.1447e-25
0.00665778
0
2.25471e-15
2.49871e-31
2.51286e-11
7.97475e-88
4.70615e-42
1.7518e-11
0.0220999
2.91138e-38
4.56918e-28
1.55714e-62
5.96644e-08
3.68087e-137
0
0.000999235
0.00615493
0
6.30317e-124
6.7032e-19
0
1.56715e-45
6.81712e-113
3.18097e-149
0
0
0
0
8.01123e-27
0
9.58128e-09
4.19994e-122
1.17113e-108
1.10528e-05
0.00267184
4.15197e-74
7.50928e-44
3.82461e-172
7.33255e-113
0
0
1.18534e-07
2.32255e-68
0
0
3.93394e-32
2.85119e-64
0
1.54316e-32
4.84131e-97
4.69669e-94
7.33854e-145
5.58837e-36
1.69347e-68
0
0
1.52361e-121
8.33836e-31
6.79004e-118
0
1.43288e-36
0
4.1161e-39
4.56416e-108
6.50149e-10
2.55035e-108
0.00410419
0
1.33537e-57
3.1751e-136
0
1.38535e-13
0
1.21171e-68
8.08175e-09
1.37148e-23
0
8.51524e-114
1.75203e-43
3.92397e-25
2.17433e-15
0
0
8.20291e-06
2.80807e-41
0
2.70974e-41
0
1.30591e-52
2.13723e-06
2.69564e-18
0
6.03681e-11
5.84061e-51
0
1.11399e-51
3.11451e-40
0
5.20072e-11
0
0
0
2.45895e-07
1.47878e-133
0
0
1.5106e-07
0
5.86387e-57
4.00672e-62
1.37674e-120
0
0
3.69435e-83
1.98622e-22
0
9.71217e-69
0
0
0.0140387
0
2.86518e-83
6.28134e-123
0
5.08112e-119
0.0286982
1.34276e-15
0
7.34678e-60
0
8.91914e-48
1.83913e-18
2.75301e-31
8.24118e-89
0
3.48128e-23
1.02943e-107
1.67501e-13
0
2.07503e-10
1.23752e-130
0
0
0
0
1.07502e-32
7.02901e-118
4.05615e-134
1.87032e-59
0
2.96058e-10
1.86616e-61
1.24079e-32
1.62373e-137
3.25959e-61
0
2.12899e-11
3.38356e-75
0
8.20413e-62
2.67147e-90
4.71638e-46
0
6.41695e-101
5.50687e-150
1.32263e-112
0.0208754
4.58988e-71
1.17219e-22
3.70735e-118
1.69823e-19
2.83385e-27
0
0
4.33273e-51
3.06326e-30
9.63984e-34
0.0205721
7.56129e-46
0
1.63026e-25
4.26633e-07
0
2.06813e-115
4.63645e-107
0
0
0.00236073
1.67341e-13
4.58067e-95
1.65109e-38
0
6.42795e-13
0
2.08727e-13
1.50587e-39
1.1424e-15
2.33465e-38
9.90122e-11
1.25321e-15
0
8.24517e-90
0
0
7.63393e-80
0
1.45263e-146
4.10568e-40
0.000207745
8.60323e-89
0.0225388
4.602e-34
1.68175e-71
0
6.39854e-20
1.06397e-18
0
2.09256e-32
1.04816e-57
3.22342e-59
0
1.84884e-40
0
3.56856e-22
0
0
0
0
8.88262e-60
2.36434e-135
0
0
0.0755453
3.1922e-38
1.17658e-149
0
0
2.52729e-77
1.80767e-93
0
7.04265e-54
0
1.40097e-63
0
6.86695e-62
9.57868e-63
0
0
0
0
0
0
0
2.7468e-07
5.303e-35
1.008e-43
1.02475e-09
1.23792e-57
5.0898e-151
0
0
4.90715e-102
7.47124e-56
0
8.26485e-52
2.12434e-73
1.01015e-15
1.37085e-74
1.06512e-40
5.25151e-99
4.96964e-98
3.61415e-58
1.6576e-79
0
0.00012823
0
2.30541e-104
1.56234e-91
0
3.83383e-47
5.61776e-106
1.84049e-28
0
0
0
0
0
6.00822e-104
3.01503e-29
7.03816e-68
1.61229e-28
9.97738e-42
0
7.64436e-34
4.48396e-13
2.71882e-26
2.26225e-28
1.06345e-92
4.82536e-51
1.90287e-12
3.38654e-155
2.25836e-20
7.65337e-95
1.65714e-97
3.44186e-97
0.000580948
2.19835e-16
0
2.24053e-10
5.89675e-121
3.24938e-06
9.24055e-10
2.30929e-93
4.96676e-73
4.07396e-58
0
2.00179e-56
3.68747e-43
6.43285e-144
0
0.0113118
2.3237e-15
3.05932e-93
1.44305e-153
1.47447e-15
3.28336e-137
0
2.41058e-134
4.72339e-127
3.51474e-132
5.89915e-05
0
3.79039e-14
4.61203e-101
0
1.43845e-100
8.20839e-24
1.10014e-35
1.01859e-71
0
1.27439e-09
4.54817e-31
1.01026e-08
0
0
1.62289e-05
7.08382e-67
0
2.81277e-47
6.05285e-116
0
0.059391
1.36257e-99
0
1.8909e-104
4.7342e-06
1.56447e-80
4.64964e-96
2.32768e-31
3.73461e-47
1.37953e-31
4.65547e-05
1.21328e-97
8.74093e-35
2.14212e-50
0
0
6.18039e-50
3.40912e-122
1.33028e-31
3.3956e-142
6.34614e-24
0
0
1.77225e-10
2.4003e-105
2.75074e-118
0
1.15203e-42
7.13113e-08
3.63703e-84
3.14796e-22
4.73707e-44
3.20663e-05
3.48894e-14
0
0
5.68078e-27
2.87994e-71
1.56544e-20
6.98539e-24
2.33927e-22
0
0
4.93358e-135
1.38108e-22
4.27873e-20
2.54974e-90
5.82443e-92
0
2.66628e-42
8.24953e-69
2.49284e-109
1.26626e-101
0
1.95848e-134
1.2439e-58
0
1.27341e-21
3.0024e-116
2.78998e-67
0
1.15887e-40
0
0
0
0
0.000274518
9.72525e-97
3.43997e-07
8.69264e-32
0
6.99369e-75
7.4586e-92
0
7.48909e-104
1.86455e-52
0
0
3.61515e-44
4.87778e-42
7.42201e-116
3.38749e-42
1.20777e-05
5.5535e-44
0
0
1.76163e-22
7.17768e-31
2.44606e-38
0
4.71853e-119
0
1.66731e-37
0
6.3946e-130
3.45976e-39
7.25329e-117
0
2.16893e-47
9.24704e-11
1.90762e-40
0
2.20803e-13
3.74034e-111
8.61842e-19
2.72397e-129
0
0
2.63551e-76
4.11897e-100
4.13427e-17
0
2.62782e-08
0
0.0119845
0
0
0
0
1.04978e-36
3.97744e-35
0
1.28435e-08
4.82536e-132
0
2.64026e-49
3.44857e-37
0
0
4.33614e-39
0.0222945
0.0215378
0
0
3.72947e-25
2.41116e-101
0
5.13003e-24
3.65071e-42
5.27791e-38
1.81487e-95
1.55047e-54
0
1.62693e-38
0.0230682
5.01533e-28
3.42141e-53
2.13479e-22
2.42676e-09
0
2.84041e-30
0
1.72077e-58
1.26592e-45
7.18797e-50
0
7.94021e-44
1.73992e-134
7.23147e-54
1.99769e-30
4.80883e-33
2.71004e-16
3.08015e-54
1.37079e-51
1.19727e-12
0
1.24561e-116
3.95724e-13
0
2.23517e-132
0
2.55538e-60
0.0160404
5.91876e-113
5.26253e-103
5.34637e-05
0
1.99402e-06
0
1.82366e-07
0
8.63365e-68
4.67929e-17
1.97218e-33
0
0.000288637
0
1.71207e-50
4.43731e-26
1.74132e-129
1.33477e-123
2.33748e-109
3.43756e-08
2.79487e-28
7.46512e-72
1.04881e-21
2.52191e-101
2.53838e-05
1.09319e-08
1.66766e-07
9.38127e-25
0.0233548
0
0.000508869
0
7.66093e-81
0
0
7.06843e-130
2.24832e-134
3.07327e-111
0
4.55941e-20
1.43717e-17
3.74049e-32
2.56314e-14
0
1.0626e-91
7.91232e-120
0
1.48088e-139
4.22482e-115
0.00459325
0
4.47932e-101
4.28168e-84
5.17528e-74
2.10321e-23
0
5.73987e-74
2.84094e-39
2.64004e-79
0
4.10195e-88
4.90268e-33
0.0285421
3.64066e-39
1.6574e-14
3.38591e-07
1.26538e-78
0
8.33404e-17
0
5.11714e-95
5.05869e-100
3.81799e-29
6.17377e-07
3.25703e-14
0.00291182
2.75843e-107
2.5997e-138
0.0775111
0
2.97123e-35
1.43005e-67
3.03696e-97
2.78171e-36
5.00292e-105
5.82375e-39
0
4.50713e-37
0.0025842
5.25212e-15
9.94132e-37
1.4819e-24
2.23834e-24
1.01495e-139
1.08013e-10
0
1.7132e-100
0
3.73865e-88
1.40276e-122
2.47732e-87
1.66749e-48
5.13153e-124
2.39531e-24
1.60323e-05
6.24031e-18
1.22944e-10
8.34148e-131
9.41321e-92
0.00146417
0
1.66815e-101
2.57721e-19
0
1.44447e-96
0
0
8.93037e-07
2.61806e-09
0
0.0287272
0.0121482
2.7438e-06
5.27014e-93
1.00397e-09
1.24308e-32
0
0.000245752
1.92837e-94
0
0
5.3949e-90
8.0339e-37
0
1.31095e-34
4.37691e-61
1.24437e-09
0
3.21341e-84
6.10174e-09
0.0086255
0
0
1.917e-125
0.0630733
0
4.66319e-52
5.61833e-26
0
0.00218304
0
2.10835e-68
1.29824e-57
8.12692e-61
2.92543e-66
0
1.98054e-09
0.000193875
4.86546e-12
0.00469942
5.30231e-93
8.1573e-12
0
0
4.89141e-82
0
3.71391e-59
1.79473e-64
0
2.88263e-55
1.79786e-47
4.65483e-59
0
7.9436e-40
6.51084e-06
0
0
0.000150068
4.53946e-22
7.64012e-127
1.08179e-11
4.73776e-68
0
2.70835e-77
0
0
0
4.2328e-12
2.75031e-15
7.71434e-33
7.26675e-06
0.0210714
1.12976e-21
0
0
9.29995e-11
1.31516e-23
0.0244557
0
0
0
1.48627e-09
4.02857e-56
5.58738e-08
1.77092e-81
0
5.71932e-138
3.49533e-134
3.42806e-11
6.62281e-127
1.50104e-20
0
0.0114776
2.26855e-10
0
8.13711e-113
0.0102534
3.60093e-08
9.05583e-13
2.64935e-08
0
0
0.0342806
0
3.60761e-73
4.83943e-42
0
1.92575e-21
2.35229e-73
2.8144e-19
3.13959e-08
1.86523e-23
4.40232e-24
0.00735915
0
8.60231e-18
0
2.50735e-07
1.02855e-05
1.03856e-21
0.00378056
0
6.357e-23
9.85288e-15
5.10023e-60
0.00300442
7.28512e-24
2.58124e-38
0
1.61755e-39
9.20283e-09
0
0
0
4.48023e-38
1.84729e-139
0
1.24275e-39
0
0.00760082
0.0158924
5.58905e-51
0.0024813
1.84667e-37
1.60633e-143
0
0
4.28867e-06
3.62639e-14
6.18459e-15
1.29403e-05
0.000167287
0.0748645
1.89661e-12
1.30736e-39
0.00749327
6.90207e-66
8.39673e-47
0
0
7.70832e-35
0.00555931
8.42589e-13
7.60821e-22
1.07818e-10
0.00120038
5.07341e-37
9.69726e-20
3.97461e-46
0
5.89761e-107
1.43541e-38
3.41732e-84
0
0
0.000210671
2.02432e-05
0
2.85822e-49
0.0534699
0
0.0016832
3.40427e-38
1.97016e-06
1.8705e-13
1.20343e-05
1.29947e-53
0
3.88602e-83
0
0
0
1.41868e-19
0
0
0.00913635
5.80519e-18
2.88554e-38
0.00224562
0.00122235
0.000244012
0.00465938
0
1.12669e-05
9.80164e-28
1.11122e-122
7.54254e-78
8.01266e-08
2.2737e-08
0
3.98183e-106
0
4.36102e-65
0
0.000162075
1.275e-05
0.000289807
1.29293e-07
0
5.79185e-05
6.17933e-28
2.57749e-139
0
7.74725e-77
7.78729e-68
0.00448219
0
0
0.000240703
1.27505e-62
3.17414e-45
0
9.43729e-51
4.18108e-135
4.07306e-86
7.67948e-16
1.66771e-31
1.17677e-51
2.95142e-18
6.2514e-16
1.01232e-13
2.57379e-50
1.14262e-46
0
1.41796e-47
4.39249e-43
4.19982e-53
0
6.39633e-12
1.30301e-53
9.9479e-134
0.0277533
3.01581e-44
4.97599e-131
0
1.45793e-42
0.000194549
3.76388e-17
0.0039892
6.70084e-11
0
0
0
3.42154e-41
2.95349e-21
8.32694e-20
2.40808e-105
3.25697e-15
3.40318e-101
2.4761e-90
6.40697e-11
2.31748e-148
6.47364e-41
1.13795e-19
7.67025e-17
7.31752e-18
6.74416e-18
2.87927e-66
4.79136e-10
1.06353e-16
3.56839e-17
1.67351e-68
2.0613e-17
7.00691e-21
3.65525e-18
6.74115e-20
0.0204148
0
2.42102e-72
5.52229e-19
4.33967e-05
2.40847e-25
2.31802e-08
0
5.54236e-19
3.64026e-105
1.14615e-129
0.0827296
3.89194e-15
9.68051e-11
1.26994e-19
1.98688e-09
4.98829e-09
0.018287
0
2.75344e-18
4.2715e-125
3.05202e-13
1.03683e-67
6.12355e-26
0
2.47567e-80
2.54296e-07
0
4.84792e-24
5.87224e-18
2.51869e-105
3.86074e-65
1.70262e-19
5.4908e-69
5.66277e-75
0
9.87756e-129
2.57026e-28
2.89953e-126
4.10635e-17
0.000356303
0
3.46831e-124
0.0111661
1.21862e-69
0
3.50939e-18
7.78167e-113
1.13964e-108
0
1.43945e-72
2.2879e-27
2.55379e-25
0.0136649
6.20705e-68
0
5.36043e-17
2.74533e-90
3.14209e-05
0.0121901
1.72112e-118
0
1.38834e-36
0
4.16436e-05
0
8.21562e-85
1.03169e-154
0
0
0.00576876
0.00298124
2.44106e-37
0
0.0170618
5.02489e-52
4.3718e-28
9.21574e-159
5.78315e-10
0
0.00199532
0
2.22744e-100
0
0
9.81619e-31
1.22888e-16
0
4.84406e-14
3.44109e-31
0
3.89907e-27
0
5.03318e-90
5.46054e-34
0
1.02481e-08
1.19008e-83
5.05915e-165
6.72461e-106
0
0
7.36225e-14
0.00566146
3.53419e-161
2.58693e-158
0
5.75805e-144
0
2.06239e-47
0
0.0140707
0.0112493
1.30557e-19
0
0
5.92128e-25
3.56702e-06
0
2.68336e-09
5.73988e-70
0.00176248
1.56291e-24
1.07332e-90
0.0163302
9.29843e-17
0.0123813
0.00855921
2.82336e-07
1.13684e-33
4.25173e-75
1.5169e-114
0
0
3.65094e-16
0.00220952
1.04287e-53
3.82114e-10
5.75101e-72
1.09313e-07
1.65981e-13
2.41053e-13
0
0
1.74866e-18
5.93272e-141
8.04372e-05
0
5.83685e-119
4.33689e-121
6.72022e-13
4.27721e-14
0
0
0
0
0.00928166
3.93102e-28
0.021985
1.23863e-143
0
1.08838e-06
5.00763e-12
0
4.65772e-61
0.0271964
2.09153e-56
3.78585e-56
0
6.18501e-10
9.38339e-24
0
1.5591e-146
0.0140555
0.0142887
5.07765e-08
3.45289e-20
5.51537e-64
8.16375e-05
9.77988e-99
2.54747e-15
0.0150819
0.0272751
0.000788453
8.35085e-05
0.000223759
8.60943e-05
0
0.0796595
2.60648e-08
1.67069e-19
7.57904e-150
2.28431e-09
0.00171129
9.88603e-140
3.96882e-20
0.000423157
0
0.00372364
7.11847e-148
0.0129494
1.87869e-16
4.28931e-11
7.29258e-19
0
9.64563e-93
1.50926e-147
3.54579e-51
0
0.0409986
0
3.17876e-06
1.57237e-11
3.69556e-146
3.09286e-150
0
4.49018e-59
9.27298e-54
0
2.21387e-23
0
3.00967e-10
7.65851e-61
0.007109
6.93648e-148
7.81322e-17
0
0
1.63778e-10
0
0
1.14344e-69
3.22214e-44
0
0.0318995
0.0122832
0.00112574
0
1.80906e-39
8.99312e-42
0
2.48179e-88
0
4.28371e-35
0
0
3.51676e-29
0.00187302
0
7.4228e-40
4.2788e-65
9.01866e-34
2.48581e-24
9.24331e-111
0
0
0
0.0005415
9.30087e-78
0.000379906
1.23926e-86
9.29909e-63
8.80444e-12
6.07226e-11
2.71988e-102
4.73676e-54
5.8373e-68
0
1.92312e-59
1.32247e-76
0
7.16873e-35
1.05583e-64
4.22933e-70
1.37724e-88
0
1.2335e-11
4.84079e-72
0
4.25157e-73
0
7.7791e-73
0
2.25907e-33
8.96788e-05
0
3.57291e-72
1.33694e-122
0
4.15135e-14
0.00212977
3.3516e-103
0
0.00231064
0
4.54464e-50
0
6.73315e-27
0.00228767
0
3.58417e-66
5.10227e-49
0
0.00294128
0
1.68334e-110
2.25616e-80
0
7.90355e-64
1.28446e-108
0
0
2.29815e-104
7.16736e-10
5.19613e-65
2.67411e-107
4.18423e-43
0
5.45973e-47
3.6912e-12
6.48446e-70
0
1.74577e-07
2.66406e-08
0
1.60597e-102
3.46377e-133
0
2.27454e-32
0
8.32034e-71
0
1.30859e-76
3.6427e-56
0
0
0
0
0
1.01881e-22
4.63516e-05
0
1.74007e-08
9.0845e-31
1.46311e-09
1.58446e-100
1.86859e-66
1.03954e-07
3.58299e-102
0
1.06923e-09
1.71618e-98
7.02383e-08
1.53829e-114
1.29243e-100
4.68404e-29
7.58776e-34
4.33281e-14
2.89526e-39
3.92326e-13
5.41014e-55
5.85387e-42
2.31739e-11
1.4364e-104
3.85163e-08
3.561e-82
3.44442e-39
0
1.4661e-36
1.28643e-10
1.52292e-45
7.22987e-13
2.20657e-28
4.47372e-09
1.47758e-43
0
0
6.71941e-11
3.05232e-38
5.23324e-32
2.37348e-53
9.49567e-105
7.07946e-44
3.74778e-52
0
7.03571e-24
0
2.37462e-100
9.86217e-55
3.72351e-29
6.81106e-13
0
1.53186e-47
2.40576e-43
3.23442e-82
5.23516e-56
2.23549e-81
2.41558e-45
0
2.14552e-55
8.9459e-82
9.17501e-85
1.26821e-90
7.97201e-81
0
9.01709e-73
0
0
0
2.05608e-11
0
1.22138e-12
0.00459188
3.98408e-122
2.82725e-63
1.80192e-22
5.76126e-86
2.70693e-96
0
6.70549e-137
7.36235e-87
2.2584e-29
0
3.81521e-47
3.16927e-74
1.31126e-33
2.63317e-139
1.39779e-38
5.39422e-06
2.25068e-138
0
7.01122e-06
4.00291e-138
8.00263e-87
6.91565e-26
1.19513e-91
7.79276e-28
4.68513e-13
4.21228e-60
0
0
0.0221513
1.81278e-16
3.18886e-50
3.39074e-103
1.14858e-135
1.24815e-95
1.04823e-79
0
4.64457e-105
3.53266e-105
1.33723e-65
5.61514e-22
6.6464e-79
0
2.96392e-102
0.0072618
8.73965e-14
4.65054e-11
0.000884738
1.83393e-15
4.90538e-76
5.80298e-20
1.04663e-62
1.97303e-91
1.72577e-75
0
0
3.41884e-75
4.28472e-27
0.000635524
4.17968e-67
2.36084e-72
0.00400856
6.88702e-67
0.0166733
0
1.10415e-39
0
2.37961e-66
6.19038e-05
9.20114e-71
0.000104465
4.17779e-75
0
0
5.20933e-79
0
4.5555e-16
0.000791338
5.46379e-73
1.95816e-21
6.11988e-06
1.49063e-93
4.81275e-16
0.000362982
9.9027e-22
0
2.96961e-92
6.20551e-21
1.15351e-11
9.1855e-23
0.00968741
0
6.8464e-79
8.7111e-48
0
1.03863e-49
4.49611e-18
0
2.11191e-53
0
2.23501e-16
0
1.12671e-49
3.49428e-43
0
4.54354e-34
2.89277e-109
4.11057e-18
0.00958516
0
7.55539e-19
3.77976e-15
0.0090828
7.44965e-108
2.75975e-61
0.0218191
0
1.05984e-19
1.01724e-42
1.03826e-28
5.87926e-92
4.19502e-16
0
1.40437e-116
0
0
0.0200174
3.21342e-47
3.94015e-49
0.01784
4.53027e-07
2.05876e-106
1.60721e-68
4.81018e-46
2.97671e-61
0
0
1.47919e-09
0
0
4.22278e-46
3.58444e-24
0.0199906
3.79559e-47
1.73042e-85
0.0216152
4.10344e-11
0
0
1.22377e-10
1.27613e-35
5.35842e-16
0
1.25982e-16
4.10756e-22
1.83804e-18
0.000503224
1.7798e-24
0
3.91804e-21
2.21064e-25
3.44313e-07
5.00743e-96
2.83542e-57
7.54013e-21
3.72967e-41
0
3.47367e-21
0.0168621
0
2.17309e-61
0
2.82281e-48
0
0.00780172
6.02551e-75
6.55198e-05
1.539e-84
8.41185e-08
0.0143856
0.0160575
1.02614e-114
2.03303e-90
0
0
3.15556e-56
0
1.4938e-47
6.87045e-06
5.17831e-05
0
0
0.000137925
0
1.37558e-14
0.00473949
0.00904253
4.82368e-56
0
2.15092e-76
0
1.97103e-114
2.89939e-97
6.27143e-76
1.28333e-58
5.93321e-97
0
0
0.043074
3.12018e-53
6.39841e-53
3.20823e-97
5.13953e-28
2.55016e-46
2.44475e-93
7.0511e-18
0
5.82332e-74
2.54852e-54
4.6965e-106
1.94699e-48
0
0
2.01346e-76
0
2.94404e-42
0.000112392
0
2.50098e-14
1.65088e-22
0.0101231
0
0
0
7.74218e-122
0
0.0529396
2.73571e-69
2.17867e-43
7.86823e-120
1.44629e-94
0
2.64175e-64
4.39462e-122
0
8.39189e-44
0
1.82791e-32
0.00628824
8.97778e-121
2.51272e-11
7.6433e-119
1.08991e-21
0
0
0
0.000220188
0
6.64984e-101
8.50346e-139
0
0
0
0
3.46948e-05
0.0158141
1.11656e-121
0
0
1.08591e-130
0
0
0
7.19974e-44
3.01579e-11
2.52171e-61
1.13837e-91
0
3.55144e-104
0.017367
4.71199e-18
3.71758e-78
0
7.16536e-99
2.4747e-08
0
0
3.18393e-77
5.24347e-78
0
0
0
0.00148092
1.84105e-103
2.47614e-54
1.36433e-60
0.00566765
9.51667e-06
7.31575e-81
7.53717e-22
0.000947591
2.2566e-94
1.00947e-24
0.0203514
0
0.00212621
2.27061e-23
0
1.97076e-61
3.46068e-92
7.55225e-08
1.83615e-22
5.79263e-101
2.67162e-103
5.38562e-66
2.46411e-89
3.85623e-103
1.06136e-17
0.000134599
0
1.46814e-29
0
0
0.00639361
0
8.30749e-46
0
0
0.000457479
6.94069e-96
0
1.3476e-129
2.35058e-45
0
0.0193572
0
0
3.24016e-34
6.51863e-06
5.10468e-142
2.11503e-98
0.0279059
2.86608e-96
0
1.82486e-114
3.32086e-100
9.26214e-35
1.13732e-29
0
3.30503e-39
0
8.97118e-82
0
6.13586e-117
0.000165855
2.93051e-17
7.41965e-125
2.22179e-37
9.44996e-119
0
8.80293e-102
0.000404944
0
7.48175e-08
9.34166e-48
2.25394e-115
0
0
6.15554e-10
4.59873e-32
7.25828e-05
8.56189e-74
5.72332e-113
1.44727e-99
0.00326213
0.0232
0
0
8.85852e-05
0.000532816
0.000193429
0.000120581
0.00216632
2.18975e-41
5.631e-07
4.81711e-12
0
1.3146e-95
1.95802e-136
1.32542e-79
2.01705e-117
1.40325e-63
0.01004
0.00460014
3.21514e-05
1.17e-10
0.000689259
1.3758e-48
0
0
2.40304e-14
1.43163e-12
0.00689364
3.62947e-08
0.0040229
0.00553297
0
0.00107366
0
0
0
0.00616869
0
5.97644e-135
0.0103357
0.000869098
0
7.86076e-111
9.77637e-94
0
0
0
4.94303e-118
1.02193e-08
0.0276854
3.1012e-103
5.31956e-41
2.17424e-62
0.0013391
0.000609227
1.02877e-52
6.7239e-138
1.27743e-125
0.00181122
8.23394e-83
0
1.30203e-17
0
7.07203e-48
4.74897e-111
0
1.30302e-07
4.73757e-11
1.98822e-79
5.33676e-174
4.64801e-81
1.6365e-75
0
1.04113e-16
0
2.47662e-25
7.07785e-62
0
5.54126e-44
0
1.64472e-117
0
5.13744e-85
1.54507e-101
1.83228e-77
0
0
4.71884e-78
1.23638e-23
3.14497e-95
4.17148e-06
1.07267e-73
0
2.16616e-92
0
0
7.18535e-72
1.79023e-05
5.63045e-06
0
6.95964e-06
0
0.00218831
1.8068e-06
9.33473e-07
7.15464e-06
1.30623e-05
1.35388e-16
3.93221e-64
0
0
1.05505e-61
1.6571e-124
1.24285e-86
2.23726e-47
2.34623e-06
0
3.02229e-05
4.5792e-77
1.25024e-33
4.60487e-74
0
0
9.74925e-99
0
4.96883e-05
0
1.66356e-92
0
1.02663e-32
2.80967e-16
2.85922e-46
7.93841e-38
0.0177415
1.47935e-71
0.018881
5.95476e-151
7.11051e-137
1.04271e-26
0.013825
0.0231255
0.0199478
0.0110868
0.0102411
3.05123e-06
0.00050296
0
0.0134578
1.08366e-106
0
0
0
1.2209e-08
2.39157e-09
2.64419e-06
0
1.38121e-09
1.8303e-10
0
1.31908e-11
4.03336e-09
6.37072e-124
0
1.88396e-115
2.39167e-06
4.06341e-06
1.2334e-37
8.10834e-117
4.74937e-06
0.00587637
5.5799e-13
0.00801425
1.09063e-09
0
0
6.42134e-132
0
0
5.47592e-16
6.85045e-127
0
0
6.85974e-113
4.86709e-107
0
2.84646e-132
5.63002e-92
0.00128507
3.94941e-104
1.09443e-14
0.000259707
1.75578e-99
8.5284e-16
9.6174e-10
2.78247e-08
0
1.41367e-08
3.4395e-24
5.51944e-06
0
1.82959e-146
2.90412e-07
0
1.39652e-09
4.53592e-11
3.25527e-41
0
0
2.45101e-13
0.0161859
0
3.68246e-51
4.42746e-10
0
9.16231e-06
7.98411e-125
0
9.27403e-124
3.13677e-10
1.28622e-82
1.67823e-31
0
9.05081e-76
0
2.69784e-09
1.5493e-08
6.25791e-11
0
1.85143e-08
0.000873761
0.000206718
0
1.88579e-23
0.0629932
2.49921e-06
0.000372539
1.63009e-73
1.89547e-18
3.88245e-97
0
1.38999e-105
6.65877e-102
9.02327e-103
2.52853e-82
3.08351e-105
0.000568508
6.11898e-149
3.3598e-41
3.18369e-102
0
1.79601e-106
4.58907e-136
1.75854e-78
2.27546e-07
2.2515e-08
0
0
4.65885e-12
0
7.37812e-05
0
0
2.63085e-10
2.51552e-72
0
0
1.43203e-06
5.29658e-33
0
3.23946e-33
8.22377e-67
4.55438e-92
1.35413e-102
4.31454e-46
0
5.87742e-150
2.23683e-108
9.92945e-150
2.10578e-113
0
0
4.39531e-14
1.36369e-131
7.86933e-47
0
4.35531e-24
2.13841e-99
3.38938e-30
1.75816e-53
0
1.18605e-92
4.27462e-94
3.6269e-96
2.82206e-95
5.90464e-22
1.5177e-62
0
8.28537e-112
0
0
2.19758e-08
1.0197e-101
0
0
1.52971e-89
0
2.03327e-07
2.36037e-113
0
9.96437e-88
0
5.50399e-73
6.90844e-91
0
4.38628e-50
0
6.2795e-140
1.31112e-51
3.42742e-09
2.65778e-113
1.60673e-106
0
2.50411e-78
0
1.12491e-75
0.00170324
2.60972e-24
2.93671e-82
1.7805e-51
0
0
0
4.00483e-09
8.39218e-20
3.48356e-28
1.31479e-35
4.37407e-117
3.41429e-59
6.5004e-129
7.01661e-93
5.9829e-14
1.12838e-53
6.99766e-142
3.22959e-13
4.9941e-79
6.13825e-148
0
0
1.28863e-66
9.11579e-77
0.0142376
0
3.50296e-139
0
2.69826e-12
1.43749e-14
8.93832e-14
2.98116e-19
1.65481e-06
0.0116018
2.45817e-41
0
0
9.29642e-12
0
0
1.43252e-69
1.54455e-57
0.000182134
1.3154e-96
0
2.40674e-74
6.57377e-21
1.55787e-21
3.79059e-07
2.33554e-20
4.51333e-130
1.25332e-24
0.000666513
0
2.33072e-14
4.12839e-107
5.89209e-77
1.4491e-132
2.46473e-68
0
0
0
0.0242041
0.00261006
0.00950452
3.99526e-08
0.0050859
1.07051e-23
6.22416e-125
5.51962e-114
9.68668e-104
8.30744e-98
0
2.4679e-125
2.22196e-128
4.25827e-104
0.000861894
0
3.61214e-14
1.87442e-09
1.15045e-88
0.000219773
1.83248e-37
3.3129e-13
4.315e-28
3.4735e-129
1.55398e-12
2.49757e-115
0
0
6.40723e-14
0.00387994
0.000982057
0
0.000162523
1.28945e-81
0
0
2.76806e-21
0
0.000213439
3.28976e-37
3.10602e-83
0
1.59801e-07
7.83679e-10
0
6.03738e-18
8.64835e-128
8.37995e-87
0.0116221
1.89103e-107
1.59634e-26
1.1741e-130
2.43179e-35
2.47099e-99
0
2.05846e-100
0
1.32965e-23
1.58307e-98
0.0171528
1.37843e-85
0
6.01384e-102
1.87558e-67
1.29341e-21
0
1.46487e-100
2.5546e-98
0.0200629
0
8.5693e-16
0.0014174
2.50445e-12
2.45419e-134
2.41333e-11
7.24372e-22
4.86958e-102
4.54223e-96
0.00980163
4.88649e-26
1.07379e-96
0
0.000358809
6.97411e-39
0
4.35449e-47
7.03647e-27
0
0
2.68188e-75
1.89105e-116
0.000165322
2.54598e-119
0.000746099
2.19208e-64
7.39056e-38
0
0
1.20035e-12
2.85146e-120
1.21114e-90
1.09993e-56
0
1.08915e-30
0.00143899
0
0.00891746
1.08829e-23
2.83575e-14
0
6.47717e-43
0
0
7.5772e-20
0.0140966
6.65399e-05
7.59524e-16
3.7382e-18
0.0113354
6.53585e-23
0.0170632
0.0208995
0
0.0112147
0.0202035
3.89844e-25
3.00363e-113
0.000295557
4.94021e-05
0.00297682
0.00509638
3.17395e-11
2.89224e-14
0.0105893
0
0.00937503
1.66563e-32
8.30119e-07
5.19941e-63
0.000175077
0.00990101
3.84057e-54
5.48665e-44
8.45764e-15
0.0027566
1.58187e-29
0.000390963
3.01537e-134
9.57558e-126
0.00599225
1.17147e-32
2.73612e-50
1.35087e-44
6.27873e-129
5.73141e-49
0
0.0742107
0.00361715
0