/*--------------------------------*- C++ -*----------------------------------*\
| =========                 |                                                 |
| \\      /  F ield         | OpenFOAM: The Open Source CFD Toolbox           |
|  \\    /   O peration     | Version:  v2012                                 |
|   \\  /    A nd           | Website:  www.openfoam.com                      |
|    \\/     M anipulation  |                                                 |
\*---------------------------------------------------------------------------*/
FoamFile
{
    version     2.0;
    format      ascii;
    class       volScalarField;
    location    "3";
    object      G;
}
// * * * * * * * * * * * * * * * * * * * * * * * * * * * * * * * * * * * * * //

dimensions      [1 0 -3 0 0 0 0];


internalField   nonuniform List<scalar> 
108993
(
1837.12
1881.21
1837.22
1837.21
1837.21
1837.21
1886.35
1837.21
1837.21
1882.54
1837.21
1837.2
1837.21
1836.87
1837.2
1837.47
1936.22
1837.18
1837.21
1850.15
1837.13
1837.21
1838.61
1836.99
1837.21
1837.22
1837.21
1842.19
1885.14
1837.21
1837.21
1837.04
1837.21
1837.15
1837.21
1837.2
1837.21
1837.17
27825.4
19820.3
1838.32
1837.22
1836.95
1837.21
2228.04
7007.03
1837.21
1838.82
1837.72
1847.89
1837.21
3977.58
1838.8
1837.21
1837.28
1836.98
1837.21
1837.21
1837.21
1837.21
1837.21
1837.21
1837.21
1837.21
1837.21
1837.21
1837.21
1837.21
1837.11
2034.55
1836.98
1837.21
1837.2
1837.21
1837.18
1837.21
1837.21
1846
1837.21
1837.21
1837.21
1837.26
1837.21
1837.13
1837.19
1837.02
1837.06
1837.22
1837.21
1837.21
1837.21
1837.21
1837.21
1837.21
1837.21
1837.44
1837.21
1837.25
1837.21
1837.21
1837.21
1837.21
1837.15
1837.25
1837.19
1837.21
1837.21
1837.21
1837.21
11582.3
2204.9
1837.21
2453.48
3989.14
1837.35
5501.75
1837.21
1837.42
1986.1
1837.21
1837.33
1837.21
2707.31
1837.04
1837.16
1909.72
1838.57
1837.18
1837.21
1837.21
1837.08
1837.21
1837.21
5635.91
1837.25
1837.2
1837.21
1837.22
1837.21
1836.95
1837.01
1837.21
1977.69
1837.21
1837.21
1837.19
1837.2
4092.83
1837.01
10585.5
11128
1837.22
1840.41
12699.7
1837.21
2081.15
1837.22
1837.21
1837.21
2165.83
13244.2
1837.21
1837.21
1836.95
1837.15
4495.98
1837.21
1837.21
1837.21
1837.39
1837.21
1837.05
2225.38
1837.04
1842.7
1837.22
2151.27
1837.21
1837.33
1837.22
1871.65
1837.21
1837.21
1837.03
1837.07
1837.14
1837.21
1837.22
1837.22
1837.04
1837.23
1837.21
1837.22
2040.12
1837.32
1837.53
1838.85
1837.24
1837.21
1837.02
1837.21
1980.19
1837.03
1837.21
1869.41
4055.74
1837.21
2886.31
1837.24
13902.9
2429.42
1837.21
2160.94
1917.75
31792.3
1837.19
1837.19
1837.21
1837.21
1837.21
1837.19
9933.28
1838.95
1996.67
1837.22
1837.21
1837.21
1837.21
6106.38
1837.22
6177.76
1836.93
1837.21
1837.53
1837.21
1837.21
1837.21
1837.21
2202.17
1837.21
1837.21
1837.21
1837.21
1837.21
1837.21
1840
1929.43
2976.02
1837.21
1837.21
1837.21
1837.21
1837.21
1837.38
1837.21
1837.21
1837.21
1837.14
1837.21
1837.21
1837.21
1837.15
2243.93
1919.99
1837.21
1837.22
1837.21
1840.46
1837.21
1837.21
1837.21
1837.22
1943.53
35947.6
3951.88
1837.35
1837.21
2255.25
1837.13
1837.24
1837.22
9329.13
9269.4
1837.22
1837.21
1915.63
1837.21
1838.76
1837.2
3762.09
1837.52
1837.21
1842.09
1837.21
1837.22
1837.21
1837.21
1837.21
1969.29
1837.21
3477.03
5465.34
1837.2
1837.21
1837.21
1837.41
1837.09
1837.2
1837.42
1905.05
1837.21
1837.21
1896.4
1837.2
1837.48
5159.19
1837.21
1951.17
14163.4
1837.21
1889.05
1837.21
1840.9
1841.58
1837.23
8909.97
30441.1
4212.89
1837.21
1837.5
1837.27
3433
8694.05
1837.21
5132.72
1837.16
1837.2
1837.21
1837.27
1837.21
1837.21
3585.96
1920.71
1837.21
1837.26
1837.21
1837.21
1837.21
1837.21
1837.21
1837.2
1837.21
7779.41
1998.1
1837.18
1837.21
1837.21
4852.1
1837.18
1837.21
1839.19
1902.55
1837.21
1837.21
1837.15
1936.9
1837.21
1837.21
1837.25
86306.7
1845.84
1867.43
1837.21
18665.7
1924.03
6422.84
1837.27
1837.22
4787.72
1837.16
5004.59
4855.39
1925.91
1871.61
1837.21
1847.28
1844.27
31506.4
1837.22
3401.82
5621.15
1853.08
5692.87
1836.91
2058.63
1867.18
36516.6
1837.2
2008.11
1837.21
1867.49
2144.6
2343.34
1837.21
1837.1
1857.01
1849.82
1837.19
1837.24
21881.8
1837.13
1837.41
123625
1837.12
1837.21
1837.21
13484.1
1999.57
2086.57
1837.21
22402.2
1914.05
18428.5
1837.21
1837.21
21709.7
1837.12
3930.14
25325.4
1837.21
28071.9
18528.8
25819.9
1837.21
1837.22
1895.67
1837.08
1837.21
1837.21
1837.21
1837.23
1837.21
1837.22
1837.73
2349.55
1987.21
1996.45
2163.33
1837.21
1837.58
1837.25
1837.21
1837.21
1837.48
1837.21
1837.16
1837.24
1837.09
1837.21
1837.2
2274.96
1837.2
2273.21
7557.91
2067.16
1837.22
1837.2
2377.08
1837.22
1837.22
1897.14
1837.21
1837.21
1856.56
1837.14
1920.54
1837.21
2265.9
2335.46
2471.21
1837.2
1837.21
1837.21
1837.21
1837.18
1837.16
1837.22
1837.21
2032.32
1837.79
1837.22
1837.22
2008
1837.21
2415.06
1837.21
1837.13
1837.19
1837.21
1838.74
1837.21
1837.21
1837.21
1837.21
2241.64
6193.54
1837.21
1837.21
22196.9
1837.21
1864.12
1941.7
1837.21
1855.33
1837.21
1837.21
1837.21
1837.21
1850.03
1837.62
1847.59
1846.1
1971.81
1838.68
1837.42
2265.67
1841.97
1837.25
2220.57
1838.55
1898.65
1837.2
2233.79
1837.04
1837.21
1837.28
2910.89
1837.21
1886.06
1941.51
1837.21
2453.15
1837.21
1837.21
1837.12
1837.22
1837.21
2189.63
1837.42
1837.21
3343.5
1894.08
16371.6
1837.2
1837.22
1837.21
1837.21
1882.18
27306.3
1843.92
1837.35
1837.21
1837.14
1854.52
2095.95
3546.74
1837.21
1837.21
1846.24
1838.48
1837
1837.47
101187
2102.63
4177.45
1839.05
1837.25
2050.31
27751.4
2044.2
1837.5
1837.06
1837.21
1837.21
1837.22
2486.02
7303.05
2121.38
1837.06
1837.21
1840.48
1836.97
1857.58
1837.21
35793.8
1837.21
1837.21
1836.96
1843.56
1973.03
1837.21
1837.21
40496.6
2201.49
1836.96
1836.96
34478.2
1836.96
1902.2
1837.06
8749.18
1837.09
2118.01
1837.05
1860.77
1837.2
1851.24
1836.95
3648.86
1837.21
6147.99
1837.21
1837.13
4462.99
1938.24
1837.21
1837.21
2664.96
12944.3
1897.16
5782.99
1837.26
3145.55
2792.34
1849.58
1837.21
1836.95
20387
2497.93
2785.36
1839.95
3269.45
1837.19
1886.5
1837.21
1850.6
1839.83
2113.85
1968.23
1906.01
1908.97
2408.75
2609.87
4733.51
1984.37
1855.56
2316.34
5127.9
1918.88
5174.95
4669.64
1837.21
1859.17
1837.21
1837.21
1838.07
1878.87
1937.88
2147.37
2056.28
2195.6
1839.28
5016.63
4581.76
5038.91
1837.21
1915.58
1892.23
1837.21
4792.68
1905.13
2250.42
2218.62
1897.74
3763.59
2079.41
2436.69
1889.61
1890.94
30063.2
1837.21
1837.23
2106.15
1861.23
1839.86
67587.5
1884.03
3908.95
1901.33
40976.6
2187.55
1837.21
1837.22
1837.22
2102.06
1837.21
2108.91
1837.85
1837.2
1837.22
1843.15
2469.52
42292.3
1837.22
42727
1837.22
2422.04
2194.54
1837.21
2591.15
1849.13
1840.58
2276.22
1845.61
1837.23
1892.95
1929.38
2312.18
3204.73
1837.2
2330.54
1840.44
1838.5
1852.85
1837.32
1837.21
2031.12
1837.21
1837.22
1853.36
1837.2
1866.41
25403.6
4552.63
1840.01
1865.94
1840.81
1871.54
1841.85
1993.43
1837.22
1837.21
1837.21
1837.47
1837.21
1933.61
1837.21
1837.14
2156.61
1837.2
1837.23
1837.21
1837.44
1837.1
1888.67
1839.12
1849.48
2067.75
1837.21
1837.21
1837.08
2421.73
1837.22
3253.59
3231
1837.09
1837.04
48638.5
3171.09
1850.74
1837.21
2030.01
1837.11
1837.03
1847.64
1838.31
1979.65
1837.21
1837.22
1887.6
1837.21
10968.8
1837.2
1837.29
24372.2
2045.7
5122.48
1913.5
11313.2
1837.21
1950.6
1931.7
1837.21
1837.2
1956.41
1837.21
1837.19
1837.08
1837.21
1837.21
1837.11
1838.45
1837.2
1888.96
1837.49
3891.98
1837.45
1837.23
32153.5
1837.46
32623.5
1872.92
1837.03
1884.72
96345.4
1948.63
1837.42
1918.7
2315.82
1916.12
1858.68
2386.91
1885.04
1837.13
2132.29
1837.42
1837.21
1975.46
25456.9
1837.22
1837.28
1837
1940.01
1837.28
1837.45
1979.72
1837.1
1837.2
29838
1837.14
36609.1
1837.38
26415
1837.13
1955.35
1893.58
2378.2
2203.21
1837.12
1895.5
1899.58
2071.32
1839.5
16547.9
1837.19
1837.19
1837.22
2852.8
2061.37
2331.1
1837.21
1837.22
1943.36
9609.37
1837.13
1986.76
2225.36
2027.22
1837.78
2305.84
5508.55
15382.7
1848.67
2895.91
1837.9
9678.99
1837.21
11470.5
9748.43
22703.3
1837.21
1837.21
1859.09
2021.26
2113.41
1837.13
1837.2
2276.97
3262.26
1837.21
3680.28
1966.47
1840.28
9616.01
1837.21
1836.99
14007.4
29785.2
1837.22
1893.23
1837.21
1837.17
2370.98
4442.63
11087.6
1837.35
11503.4
1911.36
2353.76
1879.44
1837.04
2074.7
1866.51
1880.04
1837.21
1857.65
1837.22
5266.77
1837.26
1837.21
2733.52
1837.22
2008.35
2330.89
2065.9
2173.89
1837.21
4559.54
1837.04
8127.69
1837.66
1837.23
1837.21
2208.91
4113.21
1837.22
1890.59
8042.1
2797.53
3382.01
1837.21
2193.34
3293.77
4203.9
1837.13
1951.74
4779.74
2224.75
1889.95
2218.96
1846.95
2819.1
7017.51
3741.56
2089.02
2182.85
2021.71
2089.22
1855.65
1842.64
2203.92
6498.03
1890.39
1837.21
1860.01
2358.38
1837.21
1837.01
1837.21
2408.58
1837.25
1837.22
1837.24
1861.65
1837.13
1837.31
1844.77
3915.76
1837.26
1837.22
1904.43
1837.21
14280.2
1837.01
1837.21
1871.75
1837.21
1865.36
25202.5
1978.99
1837.29
1837.24
1837.21
2947.98
1998.69
3519.03
1843.95
1837.29
2708.97
1837.2
2034.23
2683.87
2114.32
1837.21
1837.25
1837.3
1837.05
1842.32
1841.97
1837.08
1837.21
1837.47
1837.21
3116.08
1837.55
1842.14
1837.21
1837.55
1842.39
2517.99
1869.21
1890.66
1837.63
1837.19
1837.98
2142.38
1837.3
1837.21
1837.21
63020.9
1838.87
1888.55
1837.29
1903.46
1837.41
1837.21
8365.88
2578.12
1988.94
1845.77
20672.4
2232.76
2571.85
1876.93
7251.31
1837.23
1837.13
1837.08
2308.64
1867.09
36032.2
2101.29
1840.47
1838.45
1837.87
2016.86
1837.06
1935.5
2991.65
1913.9
1851.78
2819.89
2272.93
1991.56
1837.21
1837.21
1837.21
1837.21
1837.21
1837.21
1837.44
6734.27
1843.15
23524.6
1839.14
1837.23
1837.21
1977.53
4682.4
1837.21
1839.97
1837.22
1948.81
1837.21
2000.27
16279.6
1910.26
1837.07
2851.51
1837.15
1837.22
1837.22
1837.21
1837.21
1837.8
146874
2032.65
1837.21
1837.23
1837.21
1838.08
1838.74
1837.21
1838.55
1837.22
1837.21
1837.21
1837.49
1837.51
1837.07
1837.31
1837.1
1837.21
1837.16
1838.62
1837.64
2258.64
3445.31
3249.17
5815.14
1837.37
1837.2
1839.86
1837.21
1839.89
1837.83
1843.43
1837.22
1837.13
4370.55
1839.47
1842.2
1840.38
1843.12
1837.82
1836.95
44577.5
22529.6
1837.21
1837.21
1837.21
1838.76
1851.31
1837.2
2536.51
1837.21
1837.22
1837.21
1837.21
1837.21
1854.82
1841.39
1890.36
2524.45
1861.45
1843.47
1868.48
5151.89
1897.44
1840.96
1837.22
1837.25
9986.71
1837.21
2062.65
1857.97
1862.85
1850.65
27910.3
1987.02
1837.21
2260.48
1837.21
2475.18
2072.94
1848.66
1837.22
1837.26
1837.19
1837.28
1837.36
1837.21
5676.73
21528
1946.36
1837.21
1837.21
1954.65
1839.57
1837.21
1839.63
1837.21
1837.88
19945.7
2135.04
2249.41
1837.12
2001.73
1837.2
2032.11
2944.1
1838.14
1837.17
2191.28
1842.37
2071.54
2254.44
1930.73
4178.73
1837.21
1837.23
1953.95
1837.21
1837.34
71358.5
1837.1
1837.35
1837.21
4981.87
1837.47
1837.21
1933.91
1837.22
3201.24
4960.77
1837.21
1869.66
1837.13
1906.47
1836.98
1837.17
1837.21
1841.47
1837.21
4088.05
2214.62
1836.95
3555.85
1837.03
1837.08
1837.21
1920.28
17077.7
1837.22
1998.23
2369.25
33116.1
1955.54
1837.56
1837.21
1948.12
1837.22
2018.49
2035.95
2013.91
3213.13
2001.22
1837.21
2040.34
2070.9
1849.52
1853.91
1837.21
2287.63
1837.22
1837.21
1837.19
1860.12
1837.21
1837.41
1837.33
2481.76
1837.21
1837.22
1844.21
1837.12
1846.92
1843.53
1837.21
2437.43
5378.94
1848.26
4291.31
1851.06
1837.61
1837.56
1853.57
2231.6
1837.21
1838.33
2264.84
1849.78
1837.25
1837.17
1837.11
1837.17
8831.5
1837.21
2009.99
1837.74
2080.92
2563.88
1839.21
1837.21
1892.91
1837.17
1839.11
1837.21
1837.21
1838.6
1893.39
2111.53
1839.27
6397.85
1837.54
3613.22
2412.33
1837.21
2219.16
1837.21
1891.1
1895.56
1839.2
1836.96
2584.94
2445.17
2320.45
1838.25
14553.2
2800
1837.2
1837.1
1837.21
1837.54
1839.75
1838.44
10432
1837.21
1837.21
1871.62
1875.55
1896.63
1837.22
1837.12
27163.1
26048.3
1860.23
1837.21
4223.32
1842.57
1838.62
1839.46
1837.12
2299.27
1837.05
1838.8
1837.28
1874.33
23864.5
1998.5
1887.63
2953.75
2377.73
1838.34
2350.68
5962.75
1837.74
1837.24
1842.64
2999.89
1975.52
1837.21
1839.35
2949.86
2745.25
2092.71
1838
1840.26
4205.04
1847.31
1837.21
2719.03
1847.02
1837.21
1850.18
1837.21
11317.8
1837.21
1836.94
5583.54
1851.23
8064.33
1850.06
5268.87
1847.25
1999.85
2844
1845.76
1990.04
9685.01
1967.58
1838.42
3474.59
1837.21
1837.21
1837.07
5264.39
2458.52
1837.22
2449.26
1837.21
2140.39
5175.26
8002.87
1848.05
26615.2
1837.22
67419.2
1837.22
1837.22
1837.79
1837.21
1837.21
1837.21
1837.21
1837.07
2226.95
15282.8
2602.6
2052.31
1837.53
1837.22
1837.21
1837.24
1837.63
1837.2
7100.49
2135.31
1837.22
1837.21
1837.22
3786.11
1837.38
1837.22
3422.44
1837.21
1837.21
1837.21
1885.43
30051.8
2450.5
2139.9
12309.7
1837.21
1840.27
15099.3
1837.22
1837.21
1837.19
2165.58
6717.08
1943.78
29319.1
1837.21
1837.21
196020
1837.21
1865.98
1837.1
1837.21
1844.3
1837.21
1851.04
1837.21
1848.45
46572.6
2223.28
1851.33
2960.01
2593.2
1837.21
5467.44
1837.21
1837.18
1837.21
1837.2
1837.21
1837.22
1838.32
1837.21
2030.12
5859.72
3788.94
3163.91
1837
1837.21
23218.5
13869.8
1837.21
2595.98
1837.21
1837.21
2045.15
2427.77
22575.5
2850
1837.21
27909.5
22287.7
6887.99
1837.22
2547.32
2022.84
1998.23
4308.31
1866.41
17198.8
1982.7
1847.58
1972.34
2356.42
2008.51
1908.7
2501.26
1920.23
1839.99
3146.43
18775.1
21550.7
1837.21
1837.21
70474.6
1837.21
1837.98
7677.05
1837.21
22238.3
1907.9
1837.22
1837.52
1837.23
1837.22
1909.89
3547.37
6827.75
2076.86
4856.39
1837.21
6031.16
1927.65
1896.74
1837.22
1838.19
1837.37
1837.23
1841.37
1837.23
1885.8
1837.23
1837.22
1917.09
8207.2
1911.2
2205.97
12842.1
2403.32
1846.23
2101.65
1837.22
1837.26
1927.78
1837.22
1837.21
1837.2
2089.56
3228.84
2256.53
6149.52
23248.1
1962.88
1837.27
2057.65
3978.03
1879.18
15759.6
1837.09
1852.59
1837.22
5466.4
1858.26
2092.52
1837.2
1837.22
1837.2
1837.21
5276.73
1837.21
2066.27
1837.22
10508.4
4416.2
1837.21
1837.6
14598.3
4833.66
2739.85
4074.5
1837.21
10927.4
67372.4
1837.21
1864.05
2619.19
2026.38
2115.72
1837.21
2118.64
20352
2099.31
2051.15
14537.3
2164.77
2123.85
1837.25
24277.4
66749.7
2440.74
19204.5
1854.18
1907.42
2085.79
1837.1
26055.2
2354.18
1978.33
1843.66
1870.71
2174.98
1892.59
1842.35
1840.75
1843.65
1837.21
1837.22
1887.9
1837.23
18158.9
10256.2
1973.42
48165.5
1864.75
1837.21
1960.3
6121.18
6839.41
1941.71
2221.08
4144.41
16429.2
182568
5147.16
1841.18
14938.3
1837.29
1837.24
1837.1
15658.7
1844.74
3190.71
1862.01
3647.18
5075.01
9251.33
1844.99
2199.56
1845.82
1840
1837.22
1838.85
1837.22
1841
1926.32
7255.38
9908.33
28638.1
1955.77
98612.3
1998.58
7375.62
1837.7
5615.81
6023.86
56406.3
1844.46
1837.66
1837.21
1837.21
1837.21
1837.11
1966.39
1918.29
1952.15
10412.1
2162.27
2432.45
13210.7
7878.61
16954.3
5463.59
1837.2
44038.5
3007.87
1837.27
1837.19
13144.9
4532.37
1837.21
1837.85
1837.13
1912.63
1837.21
33843.6
38775.1
30737.7
14315.1
1837.21
32729.6
3012.03
1837.21
2145.11
1837.21
1886.93
11254.5
1909.14
1885.79
34290
1901.58
1837.13
1897.62
1837.21
1837.21
1837.21
2518.24
1837.59
1848.87
6530.69
2461.83
2392.86
2031.9
1838.28
1865.92
1837.22
1837.37
1837.22
4891.47
5067.09
1837.16
1837.21
18496.4
1837.22
1837.21
1837.05
1837.09
3905.64
3682.58
16849.8
5480.64
6820.77
1837.21
3445.44
1837.12
1891.21
2983.01
1837.21
2743.16
1837.21
1837.21
3913.59
1837.21
1837.44
3320.32
2853.37
3412.26
3549.35
1837.22
2861.7
2939.3
2271.43
1844.68
2027.78
2480.69
3397.06
1922.97
10497
1842.52
1838.88
2476.87
7390.63
2054.34
5113.05
2831.6
3550.03
1837.22
1837.21
244071
3125.17
3081.95
4866.23
2412.86
11160
23605.6
1837.21
2855.91
1837.11
3319.14
1837.22
3774.4
5681.26
1837.21
6639.52
1837.22
3028.9
3314.23
1837.2
1837.22
2852.75
1837.22
1837.21
1837.21
1837.21
2353.9
1837.05
3302.11
9551.76
1837.21
1837.21
14341.6
1842.98
1837.11
2450.34
1837.11
1837.12
1837.21
1837.39
2116.11
2124.53
15765.2
1837.31
1837.22
2964.99
1837.21
2131.25
18289.2
1837.21
1837.21
1841.25
1843.18
4925.37
1837.21
1837.21
1837.21
1837.21
1837.22
9350.23
31514.2
1839.56
1837.26
112858
1838.43
3018.18
1837.21
3252.24
1837.22
4918.6
2306.42
1837.19
1837.16
1837.9
3059.07
3110.04
1837.21
2144.78
1840.56
1837.21
1990.64
1933.72
1837.21
1865.92
1837.21
4367.71
1837.21
1837.21
1837.19
1837.28
1837.21
3148.78
2794.72
1837.21
1837.21
4749.97
1837.21
2002.82
1837.46
1837.21
17402.4
10121
1926.34
1849.88
1837.06
1848.24
5940.14
1837.21
6777.59
1837.21
10323.4
2755.19
1837.21
22078.3
2905.93
18274.1
16553.3
4887.96
1843.55
1837.21
1837.21
2200.48
1972.74
2084.43
7903.44
1837.23
2175.45
1837.21
2507.47
3486.36
3036.48
1837.21
2956.19
1976.92
1837.21
6775.61
1837.21
1837.21
1837.21
3710.6
2379.97
2134.29
1837.22
1837.21
1837.22
13568.5
1850.55
17023.5
1837.21
1837.21
6623.63
3023.86
1837.18
1837.22
25407.5
1837.22
1837.17
1923.97
8105.95
3557.71
3207.77
1837.18
13037.3
23791.6
2103.8
12981.7
1847.01
54747.3
1839.58
2129.91
20714.1
17293.7
40370.2
57590.8
42654.1
49602.3
1837.19
285682
4140.24
13899.3
1837.18
11944.9
133553
1837.21
2413.22
56628.9
1837.21
26706.7
1837.19
9776.08
3666.94
2981.66
2023.08
3901.87
1837.21
1837.19
1837.28
1837.37
108040
1837.22
4002.37
2148.84
1837.02
1837.01
1837.07
1837.41
1837.59
1837.2
1912.6
1837.21
5884.75
1837.27
7100.14
1837
1912.45
1837.14
2243.53
2144.68
1837.08
1837.07
1837.33
1837.15
1890.99
34051.4
33908.6
10804.3
1894.09
1857.67
1839.23
1837.21
1851.12
1928.14
1841.34
1837.19
3402.55
2617.83
34190.7
1839.01
1852.53
1840.8
4017.12
1965.56
1837.27
1838.65
1893.08
2303.81
28875.8
1911.42
15858
1843.8
1888.21
4775.27
14248.8
1837.22
1851.17
2073.61
1837.64
2254.33
1846.07
1915.74
2440.19
1930.98
1843.26
1837.25
1902.55
3939.34
1837.22
2092.6
1840.49
2436.96
1837.22
1837.21
2546.9
2273.66
4670
1838.31
1837.21
1837.22
5015.68
24546.9
1837.12
2408.71
28448.6
1839.12
2134.28
1962.54
1991.77
25914
1843.22
1877.38
1894.62
1837.24
32313
1962.86
1837.88
1837.94
1837.22
1837.22
1838.04
1837.14
1837.22
1839.55
2028.64
1837.8
1838.11
2121.25
1840.24
2212.19
3530.72
1837.22
1838.69
3547.21
3581.14
1837.23
1891.48
1837.08
1837.22
2150.35
1837.72
1837.31
2881.72
1846.16
1837.23
1837.24
1837.24
1840.49
1837.21
1977.28
2607.92
7809.64
4481.61
6301.87
1968.93
2061.75
1887.07
1845.86
5930.03
1873.5
1844.59
4816.93
1874.1
5458.66
1837.03
1869.7
1866.94
2018.75
2330.36
1927.53
2339.12
1839.18
1922.96
2987.6
1837.21
3028.49
1837.25
1879.63
1938.67
2218.61
2831.24
1915.46
2260.05
2233.99
2596.18
1920.75
1837.21
1837.21
3501.22
2113.65
1840.51
1837.13
1837.64
1916.74
1838.35
2224.56
1982
1837.21
1837.21
1843.78
2003.48
1922.41
1837.21
1887.02
1837.89
1837.2
1876.19
1837.21
2048.05
1837.18
1837.29
1837.22
1837.21
1886.32
1837.21
1837.21
1837.21
1962.36
1838.43
1837.21
3000.74
1838.14
2056.88
30603.6
1837.21
1837.65
1853.79
1837.21
1837.21
1852.89
1837.21
1837.21
2603.6
2797.19
2099.34
1837.24
1838.14
1837.21
2013.09
3959.44
1837.21
1837.21
2183.14
1837.21
1837.21
2541.07
1837.21
2012.15
1943.69
1837.23
1837.21
1992.06
25126.6
4513.85
1837.15
1837.21
1837.21
1837.15
2030.84
1838.37
1837.21
1837.21
1847.26
2752.45
1837.22
1837.21
1837.21
10004.8
2147.8
2295.9
7759.75
1991.51
1838.61
1940.18
2039.74
1880.91
1839.22
14500.7
2071.61
1837.28
1882.88
7528.52
1837.32
1837.5
8828.15
2843.53
12436.3
1837.27
2145.37
1837.79
1837.87
5604.51
1837.45
5944.57
1899.55
1837.24
5828.44
1866.94
1837.11
2016.86
6179.73
1837.71
2544.1
5379.04
1846.04
1978.85
6489.04
2347.89
1844.76
1863.99
2525.68
5913.43
2278.88
10811.3
1837.21
1837.2
2346.62
1853.82
2301.98
2034.04
1837.14
1837.34
1841.87
2034
1866.76
1846.16
1838.93
1837.21
1849.99
1837.97
1987.44
22618.3
1837.37
2012.07
2047.51
23077.7
1837.17
2506.84
31206.9
1837.21
2001.94
2069.46
2364.4
1837.2
1983.37
1837.21
1837.21
1854.67
1837.21
7195.35
1887.96
1886.6
20060.2
2975.78
1837.1
1891.56
1888.73
1837.26
1836.98
1837.46
2120.49
1840.07
1948.03
1838.49
3430.7
20926.3
1887.81
1848.57
22507
2157.06
1848.82
1888.48
5611.03
2590.64
2125.35
2033.94
1938.39
1875.75
1895.54
11447.8
2120.68
2112.74
1910.1
2102.57
2375.25
1837.2
2051.62
2152.33
2056.45
1968.32
2829.63
23235
2515.39
1837.22
12562.2
1843.81
1849.69
3988.99
1837.2
12633
1837.21
23548.2
20469.2
21555.3
1837.21
1837.19
1837.2
13411.7
2040.58
20440.9
1837.43
13893.3
12663.3
3862.56
1837.21
35637.5
1930.13
2194.41
22582.1
3564.99
1837.15
2491.54
1837.16
2235.62
1837.22
1839.65
1837.21
1921.49
1849.33
1837.21
1837.19
100652
1837.02
1921.75
1837.21
3149.42
2930
1841.81
2163.44
1837.21
1837.07
2158.25
1840.84
1837.3
1837.14
1837.66
1837.21
2125.09
1845.99
39133.7
1837.21
1936.58
2046.14
10343
1837.22
2184.09
2155.83
1837.22
1837.22
135985
1837.21
1849.74
1837.22
1837.22
1837.03
2062.47
1837.22
1837.22
1837.09
1837.22
2716.99
11243.6
1837.22
2022.95
1837.22
4797.24
2356.31
1837.22
1837.21
8077.06
1837.4
1846.35
1837.21
2102.44
1840.74
1837.21
1837.21
9351.76
12786.5
1837.14
2046.05
1837.22
1837.2
1841.01
2426.3
1837.22
1876.97
2073.02
1844.28
1837.22
1970.53
1841.31
5642.17
3120.8
1876.72
1846.18
1845.58
5502.06
1837.22
1837.42
1837.22
1837.21
1837.21
1837.21
1837.21
4560.62
1843.99
1837.78
1838.48
6622
6866.71
1837.22
2167.12
2725.35
1838.3
2145.77
228493
1837.1
3871.57
4470.23
1874.08
1920.28
1843.59
2880.62
2153.2
1842.44
1843.01
1873.19
1837.26
1854.52
1981.09
2345.28
2299.59
1845.57
1837.22
1843.66
6027.32
1845.44
1841.42
1837.19
5427.18
11032.3
1837.21
1837.56
1837.21
1839.36
2113.33
20672.4
1837.98
2439.26
1841.94
2155.12
1837.21
1837.16
30930.9
1837.21
1837.21
1837.22
1837.21
1868.23
1849.12
1837.65
2057.83
1902.71
1837.67
1837.52
1837.22
8936.93
1937.89
1837.21
2227.78
1837.22
1837.22
1837.21
7387.2
1958.55
6240.92
1837.19
1837.14
1837.21
1864.87
2141.38
1857.76
60113.4
1837.18
1837.22
1837.69
11088.7
25996.6
1951.45
1837.22
67420.7
66044.5
2237.66
50824.4
8557.16
1883.95
5202.42
3430.26
1837.2
1837.2
1837.2
1837.53
1837.08
1837.32
64607.5
11497.2
9862.73
2865.88
6682.49
1840.7
1957.92
1978.46
3238.1
1997.82
6263.98
2186.46
13395.5
8257.34
1837.21
2291.06
9866.36
1838.58
1837.23
13955.2
1838.49
1837.22
9356.48
9231.3
1837.2
1837.16
1838.21
1861.91
1837.27
1837.22
1837.14
2092.36
31823.2
1837.2
1837.65
1937.68
9635.59
2599.63
1837.18
1837.21
1837.21
8641.53
1837.21
1864.01
2152.67
1837.22
1956.19
1837.22
1837.32
4936.2
2097.94
1837.21
1837.21
1837.21
1837.27
1837.6
1934.33
1837.21
1859.42
1837.9
1837.21
2175.93
1837.21
1837.02
1837.22
1837.44
1837.68
1837.21
1869.29
1837.21
1837.21
2561.32
1837.02
30878.9
1868.42
1837.21
1837.21
1837.14
1837.12
1869.79
2302.65
38478.9
2577.63
43720.9
1912.98
2299.18
2161.54
39553.8
39778
2352.53
2050.99
1837.22
1871.26
1837.21
1837.22
1837.21
1837.21
2034.82
19377.2
1837.21
6197.93
1837.75
1850.93
1879.72
1837.21
1851.94
1837.2
1843.28
12994.2
1878
1841.85
1837.21
1857.5
2045.2
1837.41
2036.29
27278.2
1880
22047
1837.2
1837.19
1861.9
17583.9
27798.2
25006.9
15942.6
10467.5
2313.3
7379.91
1873.93
21977.5
1837.19
1846.12
1837.21
1837.2
2104.95
4715.39
2540.01
2053.26
4706.01
4493.32
1838.07
4301.39
7087.31
1837.21
1837.21
1837.21
3980.27
4265.17
2715.5
1837.21
4202.57
7351.31
2745.95
11426.5
3684.16
3931.44
5650
1837.13
2645.8
5630.87
2056.58
1837.11
1914.63
3150.3
1837.22
1837.22
5568.28
1837.2
1837.29
22873
1870.71
5502.59
16087.2
1871.71
1995.96
3861.68
3968.9
2006.17
3882.69
2374.87
4062
1838.73
1837.2
4027.71
2022.55
3748.82
3704.49
2017.97
3455.47
2051.82
2148.06
10251.1
1837.21
1837.97
3125.47
1836.97
6688.08
1837
1837.22
1837.21
3183.54
1837.73
2014
1837.17
1837.22
2957.15
3115.32
3124.65
1988.53
1837.21
6426.3
7226.9
8629.41
1837.21
2076
110859
7480.37
7244.53
1838.7
2202.57
1837.09
1837.36
1837.05
1837.21
1837.19
1874.74
1837.22
6769.52
1837.1
1844.03
1837.21
1837.21
1837.21
1837.19
1837.22
2461.7
2222.86
1837.21
1837.21
3974.63
1840.84
6899.43
2132.75
1837.21
3544.02
1844.56
1837.21
1837.21
6066.8
1914.11
1837.21
1966.55
1837.83
1837.49
1837.21
1863.03
1837.22
1837.21
1837.21
1837.21
1837.21
1837.5
1854.89
2138.97
1837.21
1843.88
1837.21
2704.67
1837.21
1839.66
1839.11
5658
1837.47
1837.47
1837.47
1850
3391.23
1837.93
1837.21
1837.31
1837.21
1837.21
11334.9
1837.21
1837.21
1836.93
1837.49
1837.26
2281
1837.29
1837.31
1871.23
2074.17
1837.21
1840.31
1837.21
1837.72
1837.22
1837.21
1837.22
2194.51
1837.21
1837.19
1837.21
1837.21
1837.22
1837.2
8256.05
2062.9
1874.26
1837.03
1837.26
2144.25
1837.02
2048.74
2173.63
2135.13
2695.71
1837.21
1837.23
1837.21
1897.73
3912.45
1837.08
1837.21
3879.3
1837.21
1837.21
1837.22
1837.21
1837.28
1837.63
60920.9
1837.16
1837.21
1837.22
4057.97
4659.04
4657.05
1914.07
9450.99
9967.17
1855.39
1837.21
1909.82
4596.81
1837.21
1863.58
1837.22
1851.03
19693.8
1837.22
1837.21
1837.21
2027.65
2035.28
2606.03
3275.53
1837.23
5222.15
4179.23
1837.23
1923.37
1838.56
1837.21
1837.23
1838.88
1837.51
1915
1837.23
10717.4
3156.92
6717.13
6537.57
5293.13
1871.24
1837.24
1837.07
1838.51
1920
1837.23
1837.11
1837.1
1865.5
26661.3
2115.91
1898.24
2217.38
1837.21
4565.63
2566.47
2577.71
1938.16
1837.12
2399.44
1837.23
1837.1
1837.21
2904.12
4976.37
5343.09
1837.21
4939.43
1837.21
1845.79
1837.22
1857.8
1837.18
6168.04
3090.81
1837.21
1837.21
3786.82
2266.29
1837.21
8275.39
1837.16
1837.21
18652.9
1837.21
1917.12
1837.16
2865.35
1845.4
1837.21
1844.27
1837.21
1924.24
1842.46
17773
1837.21
1939.19
1843.6
1837.64
2256.62
1837.21
1841.52
1837.22
24323.4
1844.86
6096.43
23139.4
2381.58
1837.21
4142.56
3145.76
1841.25
1837.38
11441.1
2909.77
1837.21
2458.27
13209.3
1892.05
1837.61
1837.25
2676.08
1837.21
1837.2
1837.22
1875.94
43982.3
1876.74
105507
1841.64
3439.43
1869.63
1837.03
2436.16
1873.65
1849.41
1837.24
1837.21
1853.26
8224.73
2224.96
4217.23
2314.39
2557.65
2249.69
1837.69
1837.21
1837.21
2170.89
23900
7596.48
1997.29
1920.57
4471.41
2282.1
12084.4
13684.3
1837.21
22482.4
18706.8
2254.75
1837.21
4642.58
6419.68
7761.83
9666.37
2398
2300.76
9942.02
1886.87
7497.85
1896.47
6046.59
1916.59
6109.76
15654.3
1837.44
1873.22
3737.07
8259.02
1880.78
2545.03
1837.2
1837.22
15584.1
1837.85
1837.71
1880.64
1837.22
2042.65
1837.21
352937
2500.75
1837.21
1839.14
12957.4
1926.59
18599.6
22718.8
18932.7
1950.34
1837.21
1837.19
2751.78
1837.21
1837.21
1860.84
1867.79
1840.09
15121
1904.25
1837.37
6817.87
6564.51
1837.1
1837.51
22585
1839.83
1840.67
6291.35
1837.21
1837.22
1840.56
2808.45
31067.7
2818.81
1837.35
2071.16
1837.21
2070.9
54671
2195.34
33566.1
1837.21
1839.48
1837.21
1879.48
1837.21
23414.8
2111.92
1837.21
6359.18
1837.21
1837.21
2102.61
1837.37
1932.25
1845.15
2713.14
38852.3
1837.21
1837.22
2469.39
43508.4
1837.22
1905.16
24053.4
1837.29
1849.45
1844.24
1837.21
1837.22
1837.22
1837.22
1837.22
1852.03
1837.16
1839.7
11547.9
1837.23
2252.28
140895
3755.89
11601.1
1837.21
2236.18
1877.07
1837.22
9571.4
5730.18
5592.11
11247.4
20165.5
16128.2
1837.2
2300.08
24108.8
6972.43
5442.49
3529.18
1869.31
11222.4
1837.22
1837.22
1837.21
2103.84
3208.27
1837.79
4340.99
1837.21
1837.45
1837.22
6745.8
7432.74
1837.22
8609.94
6170.73
2259.34
8113.24
8115.92
1837.21
1837.19
15513.8
1898.76
1837.23
1837.22
1837.18
1837.21
1837.67
1837.21
25855
2041.68
25141.6
2436.4
1845.13
2645.11
1837.37
1837.21
1837.21
23863.2
1837.15
1837.22
1837.13
29619.8
1841.8
17803.3
6690.25
2809.72
3161.39
3767.71
1892.17
7015.44
1837.18
1837.63
2045.55
14422.3
3775.09
1863.7
1838.95
1838.16
9216.57
1839.3
6477.82
8147.88
5956.45
8834.19
1837.13
1837.26
18176.6
2803.78
1898.53
9463.49
3329.14
2247.42
1837.21
10100.5
1936.44
19875.1
1837.19
1837.21
2009.54
2068.46
1837.09
1837.2
4776.03
3102.14
5997.65
1851.28
1837.4
3631.36
5024.17
1837.6
1837.21
1837.22
26970.9
19633.6
164135
6630.6
1837.14
3222.62
3214.86
1837.81
1837.15
1910.15
1837.28
1838.77
1837.39
20672.4
1837.22
1929.03
1838.73
3337.97
1837.21
1837.21
1837.22
1837.21
2535.53
4134.22
1837.12
3370.95
1901.35
1853.61
1837.22
1838.3
1837.22
3460.32
3944.22
1837.16
1837.16
3322.33
1893.34
1872.8
1899.71
1837.22
1848.78
8571.57
1848
1891.48
1837.16
1837.22
1837.19
7901.81
1837.22
1837.19
5036.53
1837.09
1837.58
1837.2
1837.36
10426.1
1837.02
1972.36
1840.01
2640.61
1837.19
1865.05
1837.1
1837.23
1837.18
1976.92
1845.23
7518.66
16569.1
1837.2
1837.23
1917.63
1837.22
1888.82
1837.21
1836.98
1848.46
1893.43
1903.7
1879.36
1837.22
2130.32
24643.2
3939.55
1998.14
3093.63
1838.68
1863.05
11680.5
1876.89
27179
2011.35
3457.36
1840.93
1837.21
1837.3
1837.21
1884.11
1837.38
1911.52
13621.8
1837.18
1837.22
1838.45
1845.48
1863.41
1887.94
1837.16
1839.49
1837.21
2643.18
1908.49
2372.48
1887.19
1837.22
1917.41
1923.06
2175.09
1871.41
1839.68
1837.4
1941.24
1837.11
2040.81
1893.92
1870.54
1927.84
2606.22
17461.7
1915.4
8952.07
9766.03
1838.68
54090.8
1837.28
9787.16
1837.16
7795.01
2286.94
6017.73
5873.63
1837.23
1837.22
1838.55
2064.44
18634.6
1837.22
5176.21
1839.15
5798.57
1837.22
1842.29
1837.15
1837.74
6111.85
1837.23
1837.32
1837.53
1837.22
1859.32
1837.22
11913.1
20406.4
2193.42
1837.24
1837.21
2919.67
1837.23
1837.21
2072.87
5732.14
2108.5
1837.22
1837.05
7451.75
2039.37
1837.21
1837.21
2108.71
9252.09
2375.14
1837.23
11594.4
1909.39
1837.13
1898.53
1837.21
1837.21
1843.24
1837.6
1837.21
1837.22
1837.22
1837.91
1850.37
1837.21
1837.22
1837.24
1837.21
1837.21
1837.3
1837.17
1837.21
1837.21
1837.21
1837.21
3356.2
3430.01
2768.18
1837.21
1837.21
1837.21
1837.21
2264.06
1837.23
1837.78
1841.56
1837.21
1837.18
1837.21
1844.92
1837.22
1837.21
1837.24
1837.21
1837.21
2324.33
1837.09
2395.18
2423.71
2096.17
1837.21
1837.21
2426.58
1837.05
1837.21
1837.09
1837.22
1837.21
1837.23
1837.21
1837.74
1866.09
1846.14
3578.92
3182.53
1837.11
1846.77
1838.55
1837.21
1837.21
1837.21
1837.12
1837.21
1992.04
25297.7
1837.21
30633.1
1838.93
1837.22
41927
43738.1
1838.06
2235.9
2214.25
1838.56
1837.22
1837.21
1882.54
1837.21
28566.6
1838.34
28199.4
1836.97
1837.21
1837.55
7032.39
7058.13
6548.29
1837.35
1837.15
1837.21
1837.22
1837.21
1837.22
1837.21
1837.22
1837.23
1837.21
5357.21
1837.22
1840.39
1846.77
1837.14
1837.21
1837.17
1837.16
3092.59
3427.5
2446.74
1837.89
1876.94
1837.32
1837.1
1838.49
1838.34
1837.4
1839.29
3554.05
1900.74
1837.22
1853.43
2156.29
1837.22
2470.03
1847.27
1875.64
2314.87
1837.22
2321.42
20567.3
1916.67
1915.35
1837.21
2031.82
1907.23
1841.13
1837.21
1837.17
1837.5
2027.34
1840.84
1846.9
1887.32
2379.78
8504.29
15620.1
1837.2
1837.49
2375.73
1840.65
1839.91
1837.64
1837.24
1837.22
1844.6
11676.5
6827.34
10003
2194.02
2125.08
1837.19
1887.67
1845.98
2456.58
2899.79
1837.21
7840.87
1837.22
4152.6
1850.73
1920.25
1858.51
1837.23
2075.41
1840.5
1839.62
1837.18
1837.96
1838.24