/*--------------------------------*- C++ -*----------------------------------*\
| =========                 |                                                 |
| \\      /  F ield         | OpenFOAM: The Open Source CFD Toolbox           |
|  \\    /   O peration     | Version:  v2012                                 |
|   \\  /    A nd           | Website:  www.openfoam.com                      |
|    \\/     M anipulation  |                                                 |
\*---------------------------------------------------------------------------*/
FoamFile
{
    version     2.0;
    format      ascii;
    class       volScalarField;
    location    "3";
    object      H2O;
}
// * * * * * * * * * * * * * * * * * * * * * * * * * * * * * * * * * * * * * //

dimensions      [0 0 0 0 0 0 0];


internalField   nonuniform List<scalar> 
108993
(
1.21014e-65
1.7982e-41
1.77802e-54
4.12673e-153
1.20785e-147
1.28461e-131
2.77082e-41
0
6.98682e-118
0
4.14885e-93
6.4312e-99
0
0
1.00472e-109
4.53066e-24
7.51177e-69
4.32989e-106
1.0665e-149
1.90974e-73
1.00676e-148
0
8.41118e-82
0
5.73889e-158
0
8.80862e-137
0
2.89506e-82
0
3.33387e-127
0
4.39552e-136
2.07154e-50
5.17595e-150
0
1.38922e-135
0
0.0105119
0.0205056
0
6.97888e-114
0
8.07849e-158
4.00049e-32
4.63203e-05
0
0
0
4.88956e-77
0
2.66148e-11
0
0
6.83879e-100
1.19402e-92
2.84956e-140
2.18625e-131
1.19194e-127
0
6.69878e-126
1.40822e-122
0
1.40921e-141
3.73787e-146
3.52339e-91
1.64128e-148
5.71909e-138
0
1.39353e-17
3.38462e-118
1.36149e-142
4.2825e-138
2.4816e-141
5.59568e-79
7.78466e-122
0
3.39134e-56
1.18267e-146
0
0
0
1.46441e-137
1.93427e-111
3.0794e-106
1.32318e-104
0
0
8.43119e-143
8.63332e-149
9.55701e-139
2.05133e-129
0
1.53934e-169
0
1.286e-84
0
1.02547e-108
0
3.24504e-135
2.42749e-133
9.09383e-132
4.83507e-108
5.59209e-83
7.4538e-119
2.12667e-139
6.97088e-102
2.93422e-141
0
0.00173227
5.11126e-42
2.3587e-137
0
1.81608e-28
0
3.00859e-22
2.45251e-143
3.54812e-80
7.02758e-20
0
4.80889e-94
0
2.22558e-17
1.26071e-66
3.11916e-138
1.54512e-37
7.66269e-60
2.46823e-77
0
9.35116e-128
2.91019e-78
1.25754e-126
0
0
4.27329e-124
0
1.31373e-121
2.84449e-117
1.41563e-109
7.08306e-96
9.55283e-68
6.32542e-124
2.53566e-24
2.29754e-124
0
4.77439e-137
8.38915e-113
1.82959e-09
1.91038e-65
3.00474e-11
0
0
3.30415e-53
1.17313e-08
0
2.68635e-40
0
6.30935e-141
2.195e-136
4.7796e-08
4.44094e-09
1.16986e-140
7.66312e-128
1.92712e-124
0
9.57658e-20
8.25751e-145
0
1.03316e-140
0
0
7.94957e-102
0
1.39745e-109
6.64065e-100
1.95147e-95
7.68867e-09
8.8169e-142
1.40053e-98
1.21614e-137
0
3.84052e-127
1.40617e-141
0
1.5148e-89
2.14952e-120
1.60575e-145
0
1.73428e-90
1.66625e-69
0
0
0
0
0
6.71869e-52
4.32741e-61
0
2.64788e-118
7.3783e-71
7.21056e-143
4.6259e-13
3.43293e-140
6.31239e-139
2.93698e-33
2.94646e-17
0
2.69134e-09
1.30297e-101
0
4.22972e-12
0
1.70983e-08
0
0
0
2.57778e-95
4.712e-93
0
2.01965e-124
9.07972e-94
1.25203e-11
6.50055e-35
9.548e-13
0
6.46778e-142
4.8897e-142
5.94317e-78
4.03375e-08
2.11627e-97
0.000584294
2.12867e-107
8.25651e-141
6.16178e-94
8.95099e-128
0
2.03207e-130
1.51873e-126
7.52784e-18
1.61177e-140
5.12409e-132
1.52302e-92
0
1.17828e-141
0
1.05763e-23
3.48623e-17
1.52635e-15
6.68295e-137
0
0
2.52732e-144
6.50378e-112
1.21816e-119
7.64849e-140
2.43717e-138
1.5927e-138
8.57713e-77
6.14643e-120
2.52746e-133
4.70528e-83
0
8.66271e-37
6.99307e-35
3.43021e-152
2.4509e-80
1.54598e-84
1.46775e-91
0
4.47655e-104
4.62255e-158
3.17919e-60
3.09355e-25
0.000576784
1.98135e-10
2.01434e-103
9.87571e-134
4.44597e-15
0
0
4.12959e-65
3.91959e-05
0.000244875
0
2.54156e-120
0
2.72278e-149
2.45977e-71
7.77603e-66
2.3487e-18
4.90449e-94
0
0
6.90217e-90
0
7.95031e-82
1.3797e-123
1.66318e-86
0
7.5495e-152
0
5.61975e-15
0
1.55642e-154
3.1359e-111
2.24144e-95
5.3244e-131
9.10781e-74
5.79088e-93
0
0
7.27308e-124
9.85223e-49
5.76952e-127
1.79599e-90
7.34205e-13
1.53835e-145
0
2.00752e-05
0
1.35547e-48
1.3473e-143
3.37698e-95
9.42793e-98
0
0
7.04899e-05
4.38503e-10
3.33909e-124
1.60562e-48
1.18725e-96
2.68449e-09
1.76806e-08
0
0
0
0
2.54074e-124
3.35431e-108
0
0
2.70168e-29
3.02651e-76
1.30033e-100
1.01548e-96
1.08715e-107
0
0
3.16459e-159
3.15092e-71
2.92112e-103
0
0
8.36649e-27
0
7.12601e-107
2.40676e-96
5.19928e-06
1.02763e-105
8.08879e-147
5.27882e-50
0
9.36407e-74
1.22891e-72
2.93654e-82
1.11841e-68
4.14894e-75
0
1.15816e-108
0.00750569
5.50907e-34
5.19109e-57
6.19384e-70
4.05026e-07
2.56022e-66
5.01871e-06
0
0
0
0
0
0
1.31414e-70
3.96468e-18
0
0
1.37493e-61
0.0145029
3.51421e-73
9.08496e-12
3.98879e-08
0
1.97726e-07
1.14679e-89
1.94933e-26
1.00581e-66
0.000153577
0
2.70831e-35
3.48794e-118
1.92951e-65
4.51698e-16
2.5701e-15
3.83659e-125
3.64624e-100
2.10555e-100
2.46481e-91
1.65572e-115
1.06631e-48
0.00119083
0
1.42684e-81
0.0281678
0
5.02559e-95
2.21824e-115
1.39296e-06
9.96193e-26
1.02758e-25
1.59188e-142
0.00251498
3.06715e-43
1.84738e-06
0
1.76336e-140
4.38298e-08
1.77297e-131
5.21065e-11
2.99404e-06
4.92812e-160
0.000120842
0.00770481
0.000152482
1.73187e-131
6.38473e-121
3.05464e-73
2.55981e-116
7.46301e-93
1.71262e-133
0
0
2.0357e-82
2.90808e-76
2.18533e-136
2.14759e-08
5.58777e-24
8.66883e-32
1.80029e-18
0
1.89489e-139
0
1.27402e-142
4.8292e-78
3.10788e-51
5.91535e-131
2.47984e-110
0
6.82096e-137
1.63752e-91
0
5.35172e-22
3.17699e-52
4.99751e-20
0
2.95409e-29
2.34205e-61
0
0
7.56216e-60
1.33169e-57
0
9.42524e-140
4.29783e-119
0
6.35456e-133
0
0
4.7431e-19
1.96397e-25
4.85838e-19
9.23395e-115
0
8.64607e-110
2.93372e-76
2.20545e-41
8.34067e-66
9.34108e-58
2.0113e-62
6.79921e-20
0
0
2.30931e-73
0
2.59575e-58
1.08184e-27
0
5.45822e-41
5.50588e-92
8.97379e-71
4.29826e-54
8.44582e-134
0
0
8.58168e-66
2.03514e-36
3.00371e-18
0
0
0.0187507
2.87847e-71
6.43222e-25
1.48414e-29
1.04177e-111
0
1.79033e-73
2.15745e-137
1.30393e-109
9.15825e-75
2.43684e-71
3.85525e-77
1.64529e-93
4.41403e-95
2.90499e-32
0
2.95951e-78
4.97844e-09
3.20093e-85
0
1.32617e-08
4.39793e-60
0
4.66599e-130
3.03077e-11
4.52653e-93
2.319e-128
0
0
7.73323e-103
2.06677e-47
1.64329e-27
0
8.36355e-20
4.49761e-154
0
0
1.08675e-95
0
0
2.89021e-104
1.1202e-137
2.39498e-16
0
4.5374e-09
1.12573e-111
1.73048e-99
0
0
1.18699e-52
0
0
2.35708e-51
3.26852e-115
9.36457e-66
3.69918e-38
1.41492e-22
2.98184e-07
0
0
4.00368e-58
0
3.85682e-64
0
0.0523481
2.51386e-20
7.91096e-09
1.56433e-44
3.51249e-99
2.60167e-24
7.75754e-06
0
1.27833e-51
0
0
8.20664e-134
6.35604e-92
0
2.96823e-06
2.10829e-18
1.22185e-92
3.88491e-142
0
3.8854e-128
3.38571e-68
1.16207e-72
0.000643891
1.09074e-110
5.41972e-114
0
0
4.00822e-30
5.69813e-68
1.05007e-85
4.41603e-05
1.50502e-52
0
0
0.000125652
4.37486e-130
8.9807e-42
4.93646e-68
2.7399e-09
0
0
1.87939e-64
2.14551e-44
2.01603e-76
7.3109e-33
0
9.75332e-09
2.67383e-137
1.66454e-17
1.11147e-134
0
5.01412e-09
0
6.79594e-118
6.08234e-106
2.38028e-28
0.00461117
9.5958e-37
4.96939e-08
1.66127e-63
4.54846e-23
1.53146e-13
5.34838e-37
7.65526e-116
4.32064e-126
0.0129917
1.01196e-20
4.01536e-25
3.86561e-106
1.57993e-23
3.92871e-93
1.67544e-31
4.69241e-111
0
0
8.04199e-21
1.46528e-32
6.97455e-36
0
6.49745e-25
0
0
1.94026e-28
6.18882e-68
4.25509e-08
1.31749e-11
5.89829e-13
2.3624e-10
0
1.06886e-113
0
0
7.85938e-113
8.38246e-68
0
4.05406e-45
1.3247e-20
2.13419e-21
9.04163e-41
7.01105e-46
7.8115e-23
6.29334e-11
7.87225e-10
0
0
7.01381e-43
4.70761e-123
1.28489e-07
0
2.27617e-09
4.44192e-25
2.51878e-39
1.4877e-15
4.21422e-40
0.00323355
1.5251e-45
2.04551e-43
3.48285e-06
2.78792e-133
0
0
1.19317e-89
2.8173e-92
0.000552148
2.23721e-60
3.12707e-10
0
0.000713112
2.1751e-36
1.42353e-102
9.60477e-135
0
2.11483e-30
0
7.52473e-38
3.2722e-68
1.4574e-113
0
9.35514e-30
2.8995e-19
0.00331697
2.46937e-79
0.00177664
3.60648e-64
1.58917e-31
3.21941e-16
0
0
4.79887e-68
1.2256e-30
7.72453e-18
4.27388e-25
0
2.31015e-31
2.17729e-22
0
0
8.05108e-148
8.22196e-24
7.57219e-30
5.07834e-23
1.16872e-27
3.42652e-74
3.72642e-151
3.46325e-21
2.30053e-144
0
0
4.11745e-86
6.41035e-26
0.0111177
3.3059e-09
1.86196e-40
8.89038e-30
4.84453e-33
2.69807e-33
8.77235e-38
8.03111e-22
0
9.97003e-142
3.13412e-143
0
5.2299e-146
0
4.08287e-141
1.42408e-30
1.86764e-26
0
9.87777e-33
0
5.51084e-40
4.4792e-54
2.51791e-25
0
0
1.06574e-25
1.12595e-161
8.58416e-76
0
1.40691e-05
0
2.12695e-15
0
0
3.98968e-49
0.00151807
1.14311e-10
1.06388e-59
1.7773e-74
4.71097e-12
4.32745e-49
0
3.32166e-36
1.20475e-80
1.28521e-23
4.63526e-169
6.47527e-110
0
0
7.05721e-05
1.58673e-115
4.7445e-85
0.0156568
2.6375e-39
0.0027488
6.15973e-61
5.51995e-10
3.87288e-108
2.4523e-26
3.89002e-39
6.24142e-137
7.79137e-58
5.55386e-42
0
5.8184e-86
0
4.13207e-86
0
0
0
2.0427e-140
0
6.5627e-91
1.48428e-07
1.0062e-95
5.12549e-92
0
0
0.000161133
5.52419e-73
1.38196e-88
0
0.0197132
4.38399e-20
1.37117e-95
0
0
4.82035e-56
1.52528e-53
2.38009e-11
3.95778e-22
4.66475e-49
7.19661e-21
0
1.49e-43
0
0.0143309
1.96192e-42
0
5.60291e-47
8.42189e-23
3.7192e-39
2.20701e-91
0
4.01461e-58
0
0.00171094
0
0.00264824
0
0.0016978
0
0
8.85966e-102
1.88569e-16
0
0
2.96687e-103
2.67351e-105
1.37305e-06
5.15234e-44
0.022724
0
8.21705e-116
1.16151e-70
1.5086e-14
0
0
2.36221e-147
1.56646e-78
4.21192e-25
0.00545067
0
1.84591e-15
2.04568e-31
2.05726e-11
6.52885e-88
3.85288e-42
1.43419e-11
0.018093
2.38352e-38
3.74075e-28
1.27482e-62
4.88467e-08
3.0135e-137
0
0.000818065
0.00503898
0
5.16035e-124
5.48785e-19
0
1.28301e-45
5.58112e-113
2.60424e-149
0
0
0
0
6.55873e-27
0
7.84411e-09
3.43845e-122
9.58793e-109
9.04886e-06
0.00218741
3.39918e-74
6.14778e-44
3.13118e-172
6.00309e-113
0
0
9.70425e-08
1.90145e-68
0
0
3.22068e-32
2.33425e-64
0
1.26337e-32
3.96354e-97
3.84514e-94
6.008e-145
4.57515e-36
1.38643e-68
0
0
1.24737e-121
6.82654e-31
5.55894e-118
0
1.17308e-36
0
3.36981e-39
3.73664e-108
5.32272e-10
2.08795e-108
0.00336006
0
1.09326e-57
2.59942e-136
0
1.13418e-13
0
9.92016e-69
6.61646e-09
1.12282e-23
0
6.97136e-114
1.43437e-43
3.21252e-25
1.7801e-15
0
0
6.71565e-06
2.29894e-41
0
2.21844e-41
0
1.06914e-52
1.74973e-06
2.2069e-18
0
4.94228e-11
4.78166e-51
0
9.12012e-52
2.54982e-40
0
4.25779e-11
0
0
0
2.01312e-07
1.21066e-133
0
0
1.23671e-07
0
4.8007e-57
3.28027e-62
1.12712e-120
0
0
3.02453e-83
1.6261e-22
0
7.95127e-69
0
0
0.0114934
0
2.34569e-83
5.14248e-123
0
4.15987e-119
0.023495
1.09931e-15
0
6.01474e-60
0
7.30202e-48
1.50568e-18
2.25386e-31
6.74698e-89
0
2.85009e-23
8.42788e-108
1.37132e-13
0
1.69881e-10
1.01315e-130
0
0
0
0
8.80107e-33
5.75459e-118
3.32073e-134
1.53122e-59
0
2.4238e-10
1.52781e-61
1.01582e-32
1.32933e-137
2.66859e-61
0
1.74299e-11
2.77009e-75
0
6.71665e-62
2.18711e-90
3.86126e-46
0
5.2535e-101
4.50842e-150
1.08283e-112
0.0170905
3.75769e-71
9.59658e-23
3.03517e-118
1.39033e-19
2.32005e-27
0
0
3.54717e-51
2.50786e-30
7.89206e-34
0.0168422
6.19036e-46
0
1.33468e-25
3.49281e-07
0
1.69316e-115
3.79582e-107
0
0
0.00193271
1.37001e-13
3.75016e-95
1.35173e-38
0
5.26251e-13
0
1.70883e-13
1.23284e-39
9.3527e-16
1.91136e-38
8.10604e-11
1.02599e-15
0
6.75025e-90
0
0
6.24983e-80
0
1.18925e-146
3.36128e-40
0.000170079
7.04339e-89
0.0184524
3.76762e-34
1.37683e-71
0
5.23842e-20
8.71065e-19
0
1.71316e-32
8.58121e-58
2.63898e-59
0
1.51363e-40
0
2.92155e-22
0
0
0
0
7.27212e-60
1.93567e-135
0
0
0.0618482
2.61342e-38
9.63259e-150
0
0
2.06907e-77
1.47992e-93
0
5.76576e-54
0
1.14696e-63
0
5.62191e-62
7.84198e-63
0
0
0
0
0
0
0
2.24878e-07
4.34152e-35
8.25243e-44
8.38955e-10
1.01348e-57
4.16698e-151
0
0
4.01744e-102
6.11664e-56
0
6.76636e-52
1.73918e-73
8.26998e-16
1.1223e-74
8.72001e-41
4.29937e-99
4.0686e-98
2.95887e-58
1.35707e-79
0
0.000104981
0
1.88742e-104
1.27907e-91
0
3.13872e-47
4.59921e-106
1.50679e-28
0
0
0
0
0
4.91888e-104
2.46838e-29
5.76208e-68
1.31997e-28
8.16839e-42
0
6.25837e-34
3.67098e-13
2.22588e-26
1.85209e-28
8.70638e-93
3.95048e-51
1.55787e-12
2.77253e-155
1.8489e-20
6.26575e-95
1.35669e-97
2.81782e-97
0.000475617
1.79977e-16
0
1.8343e-10
4.82761e-121
2.66024e-06
7.56516e-10
1.89059e-93
4.06624e-73
3.33532e-58
0
1.63885e-56
3.0189e-43
5.26652e-144
0
0.00926086
1.9024e-15
2.50464e-93
1.18141e-153
1.20714e-15
2.68806e-137
0
1.97352e-134
3.867e-127
2.87749e-132
4.82958e-05
0
3.10316e-14
3.77583e-101
0
1.17765e-100
6.72014e-24
9.00679e-36
8.33913e-72
0
1.04333e-09
3.72355e-31
8.27093e-09
0
0
1.32864e-05
5.79946e-67
0
2.30279e-47
4.95542e-116
0
0.0486229
1.11552e-99
0
1.54807e-104
3.87585e-06
1.28082e-80
3.80662e-96
1.90565e-31
3.05749e-47
1.12941e-31
3.81139e-05
9.93304e-98
7.15613e-35
1.75373e-50
0
0
5.05983e-50
2.79102e-122
1.08909e-31
2.77995e-142
5.19553e-24
0
0
1.45093e-10
1.96511e-105
2.25201e-118
0
9.43154e-43
5.83819e-08
2.97761e-84
2.57721e-22
3.8782e-44
2.62524e-05
2.85636e-14
0
0
4.6508e-27
2.35778e-71
1.28161e-20
5.71888e-24
1.91514e-22
0
0
4.03908e-135
1.13068e-22
3.50296e-20
2.08745e-90
4.76841e-92
0
2.18286e-42
6.75382e-69
2.04087e-109
1.03668e-101
0
1.60339e-134
1.01837e-58
0
1.04253e-21
2.45804e-116
2.28413e-67
0
9.48756e-41
0
0
0
0
0.000224746
7.96198e-97
2.81627e-07
7.11659e-32
0
5.72568e-75
6.10629e-92
0
6.13125e-104
1.52649e-52
0
0
2.95969e-44
3.9934e-42
6.07633e-116
2.7733e-42
9.88792e-06
4.54661e-44
0
0
1.44223e-22
5.8763e-31
2.00256e-38
0
3.86302e-119
0
1.36501e-37
0
5.23521e-130
2.83247e-39
5.9382e-117
0
1.77568e-47
7.57047e-11
1.56175e-40
0
1.80769e-13
3.06218e-111
7.05583e-19
2.23009e-129
0
0
2.15767e-76
3.37217e-100
3.38469e-17
0
2.15137e-08
0
0.0098116
0
0
0
0
8.59445e-37
3.2563e-35
0
1.05148e-08
3.95048e-132
0
2.16155e-49
2.82332e-37
0
0
3.54996e-39
0.0182523
0.0176328
0
0
3.05329e-25
1.974e-101
0
4.19991e-24
2.98881e-42
4.32098e-38
1.48581e-95
1.26936e-54
0
1.33195e-38
0.0188858
4.10601e-28
2.80108e-53
1.74773e-22
1.98677e-09
0
2.32542e-30
0
1.40878e-58
1.0364e-45
5.88473e-50
0
6.50058e-44
1.42446e-134
5.92034e-54
1.63549e-30
3.93695e-33
2.21868e-16
2.52169e-54
1.12225e-51
9.80195e-13
0
1.01977e-116
3.23976e-13
0
1.82992e-132
0
2.09207e-60
0.0131321
4.84564e-113
4.30839e-103
4.37703e-05
0
1.63249e-06
0
1.49301e-07
0
7.0683e-68
3.83089e-17
1.61461e-33
0
0.000236305
0
1.40165e-50
3.63278e-26
1.42561e-129
1.09277e-123
1.91367e-109
2.8143e-08
2.28814e-28
6.11163e-72
8.58655e-22
2.06467e-101
2.07815e-05
8.94987e-09
1.3653e-07
7.68036e-25
0.0191204
0
0.000416607
0
6.27194e-81
0
0
5.78686e-130
1.84068e-134
2.51606e-111
0
3.73275e-20
1.1766e-17
3.06231e-32
2.09842e-14
0
8.69943e-92
6.47775e-120
0
1.21238e-139
3.45882e-115
0.00376045
0
3.66718e-101
3.50538e-84
4.23696e-74
1.72188e-23
0
4.69918e-74
2.32585e-39
2.16138e-79
0
3.35823e-88
4.01378e-33
0.0233672
2.98058e-39
1.3569e-14
2.77201e-07
1.03596e-78
0
6.82301e-17
0
4.18935e-95
4.14151e-100
3.12576e-29
5.05441e-07
2.6665e-14
0.00238388
2.2583e-107
2.12835e-138
0.0634576
0
2.43252e-35
1.17077e-67
2.48633e-97
2.27736e-36
4.09585e-105
4.76786e-39
0
3.68995e-37
0.00211566
4.29986e-15
8.13887e-37
1.21322e-24
1.83251e-24
8.30934e-140
8.84296e-11
0
1.40258e-100
0
3.0608e-88
1.14843e-122
2.02816e-87
1.36516e-48
4.20114e-124
1.96102e-24
1.31255e-05
5.10889e-18
1.00653e-10
6.8291e-131
7.70651e-92
0.00119871
0
1.3657e-101
2.10994e-19
0
1.18257e-96
0
0
7.31121e-07
2.14339e-09
0
0.0235187
0.00994566
2.24633e-06
4.31461e-93
8.21942e-10
1.0177e-32
0
0.000201195
1.57874e-94
0
0
4.41675e-90
6.57729e-37
0
1.07326e-34
3.58334e-61
1.01875e-09
0
2.63079e-84
4.99544e-09
0.00706162
0
0
1.56944e-125
0.0516376
0
3.81771e-52
4.59968e-26
0
0.00178724
0
1.72609e-68
1.06286e-57
6.65344e-61
2.39502e-66
0
1.62145e-09
0.000158724
3.98331e-12
0.00384737
4.34095e-93
6.67831e-12
0
0
4.00456e-82
0
3.04055e-59
1.46933e-64
0
2.35998e-55
1.47189e-47
3.81087e-59
0
6.50335e-40
5.33037e-06
0
0
0.00012286
3.71641e-22
6.2549e-127
8.85655e-12
3.87877e-68
0
2.2173e-77
0
0
0
3.46536e-12
2.25166e-15
6.31566e-33
5.94923e-06
0.0172509
9.24925e-22
0
0
7.61378e-11
1.07671e-23
0.0200217
0
0
0
1.2168e-09
3.29815e-56
4.57434e-08
1.44984e-81
0
4.68236e-138
2.8616e-134
2.80652e-11
5.42203e-127
1.22889e-20
0
0.0093966
1.85724e-10
0
6.66178e-113
0.0083944
2.94805e-08
7.41393e-13
2.169e-08
0
0
0.0280653
0
2.95352e-73
3.962e-42
0
1.57659e-21
1.9258e-73
2.30412e-19
2.57035e-08
1.52705e-23
3.60414e-24
0.00602487
0
7.04264e-18
0
2.05274e-07
8.42065e-06
8.50263e-22
0.00309511
0
5.20442e-23
8.06646e-15
4.17551e-60
0.00245969
5.96426e-24
2.11324e-38
0
1.32427e-39
7.53427e-09
0
0
0
3.66793e-38
1.51236e-139
0
1.01743e-39
0
0.00622273
0.013011
4.57571e-51
0.00203142
1.51185e-37
1.31509e-143
0
0
3.5111e-06
2.96889e-14
5.06327e-15
1.05941e-05
0.000136957
0.0612909
1.55274e-12
1.07032e-39
0.00613467
5.65067e-66
6.87433e-47
0
0
6.31074e-35
0.00455136
6.8982e-13
6.22878e-22
8.82697e-11
0.000982738
4.15356e-37
7.93906e-20
3.25398e-46
0
4.82832e-107
1.17515e-38
2.79773e-84
0
0
0.000172475
1.65729e-05
0
2.34e-49
0.0437753
0
0.00137802
2.78705e-38
1.61295e-06
1.53136e-13
9.85238e-06
1.06387e-53
0
3.18145e-83
0
0
0
1.16146e-19
0
0
0.00747985
4.75266e-18
2.36236e-38
0.00183847
0.00100072
0.00019977
0.00381459
0
9.2241e-06
8.02452e-28
9.09746e-123
6.17501e-78
6.5599e-08
1.86146e-08
0
3.25989e-106
0
3.57033e-65
0
0.000132689
1.04383e-05
0.000237262
1.05851e-07
0
4.74174e-05
5.05897e-28
2.11017e-139
0
6.3426e-77
6.37538e-68
0.00366953
0
0
0.000197061
1.04387e-62
2.59864e-45
0
7.72623e-51
3.42301e-135
3.33458e-86
6.28712e-16
1.36534e-31
9.63414e-52
2.4163e-18
5.11797e-16
8.28781e-14
2.10714e-50
9.35452e-47
0
1.16087e-47
3.59609e-43
3.43835e-53
0
5.23662e-12
1.06677e-53
8.14426e-134
0.0227214
2.46902e-44
4.0738e-131
0
1.19359e-42
0.000159276
3.08145e-17
0.00326592
5.48592e-11
0
0
0
2.80118e-41
2.418e-21
6.81719e-20
1.97148e-105
2.66645e-15
2.78615e-101
2.02716e-90
5.24533e-11
1.8973e-148
5.29991e-41
9.31632e-20
6.27957e-17
5.99079e-18
5.52138e-18
2.35723e-66
3.92264e-10
8.70705e-17
2.92141e-17
1.37009e-68
1.68757e-17
5.7365e-21
2.99252e-18
5.51892e-20
0.0167134
0
1.98206e-72
4.52105e-19
3.55285e-05
1.97179e-25
1.89775e-08
0
4.53748e-19
2.98025e-105
9.38345e-130
0.06773
3.1863e-15
7.92535e-11
1.03969e-19
1.62664e-09
4.08387e-09
0.0149714
0
2.25421e-18
3.49704e-125
2.49866e-13
8.4884e-68
5.0133e-26
0
2.02681e-80
2.0819e-07
0
3.96895e-24
4.80755e-18
2.06203e-105
3.16076e-65
1.39392e-19
4.49527e-69
4.63606e-75
0
8.08667e-129
2.10425e-28
2.37382e-126
3.36184e-17
0.000291702
0
2.83947e-124
0.0091416
9.97676e-70
0
2.8731e-18
6.37078e-113
9.3301e-109
0
1.17847e-72
1.87309e-27
2.09077e-25
0.0111874
5.08166e-68
0
4.38854e-17
2.24758e-90
2.5724e-05
0.00997993
1.40907e-118
0
1.13662e-36
0
3.40933e-05
0
6.72605e-85
8.44632e-155
0
0
0.00472284
0.00244071
1.99848e-37
0
0.0139684
4.11383e-52
3.57916e-28
7.54485e-159
4.73461e-10
0
0.00163355
0
1.82359e-100
0
0
8.03643e-31
1.00607e-16
0
3.96579e-14
2.81719e-31
0
3.19214e-27
0
4.12062e-90
4.4705e-34
0
8.39e-09
9.74307e-84
4.14188e-165
5.50538e-106
0
0
6.02741e-14
0.00463498
2.89341e-161
2.11789e-158
0
4.71407e-144
0
1.68846e-47
0
0.0115195
0.00920967
1.06886e-19
0
0
4.8477e-25
2.92029e-06
0
2.19684e-09
4.69919e-70
0.00144293
1.27954e-24
8.78717e-91
0.0133694
7.61254e-17
0.0101365
0.00700735
2.31146e-07
9.30722e-34
3.48085e-75
1.24187e-114
0
0
2.98899e-16
0.00180892
8.53788e-54
3.12834e-10
4.7083e-72
8.94934e-08
1.35887e-13
1.97348e-13
0
0
1.43161e-18
4.85707e-141
6.58532e-05
0
4.77858e-119
3.55057e-121
5.50178e-13
3.50171e-14
0
0
0
0
0.00759882
3.2183e-28
0.0179989
1.01405e-143
0
8.91045e-07
4.0997e-12
0
3.81323e-61
0.0222654
1.71232e-56
3.09944e-56
0
5.06362e-10
7.6821e-24
0
1.27642e-146
0.0115071
0.011698
4.15702e-08
2.82685e-20
4.51538e-64
6.68359e-05
8.0067e-99
2.08559e-15
0.0123474
0.0223299
0.000645499
6.83677e-05
0.00018319
7.04846e-05
0
0.0652165
2.13391e-08
1.36778e-19
6.20489e-150
1.87015e-09
0.00140102
8.09361e-140
3.24924e-20
0.000346435
0
0.00304852
5.82783e-148
0.0106015
1.53807e-16
3.51162e-11
5.97037e-19
0
7.89679e-93
1.23562e-147
2.9029e-51
0
0.0335652
0
2.60242e-06
1.28728e-11
3.02552e-146
2.5321e-150
0
3.67607e-59
7.5917e-54
0
1.81247e-23
0
2.46399e-10
6.26995e-61
0.00582008
5.67884e-148
6.39662e-17
0
0
1.34083e-10
0
0
9.36122e-70
2.63794e-44
0
0.0261159
0.0100562
0.000921634
0
1.48106e-39
7.36259e-42
0
2.03182e-88
0
3.50703e-35
0
0
2.87914e-29
0.00153343
0
6.07698e-40
3.50301e-65
7.3835e-34
2.03511e-24
7.56742e-111
0
0
0
0.000443321
7.61454e-78
0.000311025
1.01457e-86
7.61308e-63
7.20812e-12
4.97131e-11
2.22674e-102
3.87794e-54
4.77895e-68
0
1.57444e-59
1.08269e-76
0
5.86898e-35
8.64395e-65
3.46252e-70
1.12754e-88
0
1.00985e-11
3.96311e-72
0
3.48073e-73
0
6.36868e-73
0
1.84948e-33
7.34193e-05
0
2.92511e-72
1.09454e-122
0
3.39868e-14
0.00174362
2.74392e-103
0
0.0018917
0
3.72066e-50
0
5.51237e-27
0.0018729
0
2.93433e-66
4.17719e-49
0
0.002408
0
1.37814e-110
1.8471e-80
0
6.47056e-64
1.05158e-108
0
0
1.88148e-104
5.86786e-10
4.25402e-65
2.18927e-107
3.42559e-43
0
4.46983e-47
3.02196e-12
5.30877e-70
0
1.42924e-07
2.18104e-08
0
1.3148e-102
2.83576e-133
0
1.86215e-32
0
6.81179e-71
0
1.07133e-76
2.98225e-56
0
0
0
0
0
8.34089e-23
3.79477e-05
0
1.42458e-08
7.4374e-31
1.19783e-09
1.29718e-100
1.5298e-66
8.5106e-08
2.93336e-102
0
8.75371e-10
1.40502e-98
5.75035e-08
1.25938e-114
1.0581e-100
3.83478e-29
6.21203e-34
3.54723e-14
2.37033e-39
3.21194e-13
4.42924e-55
4.79251e-42
1.89723e-11
1.17597e-104
3.1533e-08
2.91536e-82
2.81991e-39
0
1.20029e-36
1.05319e-10
1.2468e-45
5.91903e-13
1.8065e-28
3.6626e-09
1.20969e-43
0
0
5.50112e-11
2.49891e-38
4.28441e-32
1.94315e-53
7.77403e-105
5.79589e-44
3.06828e-52
0
5.76008e-24
0
1.94408e-100
8.07407e-55
3.0484e-29
5.57616e-13
0
1.25412e-47
1.96957e-43
2.64799e-82
4.28598e-56
1.83018e-81
1.97762e-45
0
1.75652e-55
7.32393e-82
7.5115e-85
1.03827e-90
6.52661e-81
0
7.38221e-73
0
0
0
1.68329e-11
0
9.99937e-13
0.00375933
3.26173e-122
2.31464e-63
1.47522e-22
4.7167e-86
2.21614e-96
0
5.48972e-137
6.02749e-87
1.84893e-29
0
3.12348e-47
2.59466e-74
1.07352e-33
2.15575e-139
1.14436e-38
4.4162e-06
1.84261e-138
0
5.74003e-06
3.27714e-138
6.55169e-87
5.66178e-26
9.78443e-92
6.37986e-28
3.83567e-13
3.44856e-60
0
0
0.0181351
1.48411e-16
2.61069e-50
2.77597e-103
9.4033e-136
1.02185e-95
8.5818e-80
0
3.80247e-105
2.89216e-105
1.09478e-65
4.59706e-22
5.44135e-79
0
2.42653e-102
0.00594517
7.15508e-14
3.80735e-11
0.000724327
1.50142e-15
4.01599e-76
4.75085e-20
8.56868e-63
1.61531e-91
1.41287e-75
0
0
2.79897e-75
3.50786e-27
0.000520298
3.42186e-67
1.9328e-72
0.00328177
5.63834e-67
0.0136503
0
9.03959e-40
0
1.94817e-66
5.06801e-05
7.53289e-71
8.55247e-05
3.42032e-75
0
0
4.26483e-79
0
3.72955e-16
0.000647861
4.47316e-73
1.60313e-21
5.01029e-06
1.22037e-93
3.94016e-16
0.00029717
8.10725e-22
0
2.43119e-92
5.0804e-21
9.44366e-12
7.52009e-23
0.007931
0
5.60509e-79
7.1317e-48
0
8.50318e-50
3.68093e-18
0
1.729e-53
0
1.82978e-16
0
9.22427e-50
2.86074e-43
0
3.71975e-34
2.36828e-109
3.36529e-18
0.00784729
0
6.18553e-19
3.09446e-15
0.00743601
6.09896e-108
2.25939e-61
0.0178631
0
8.67682e-20
8.32809e-43
8.50016e-29
4.8133e-92
3.43443e-16
0
1.14975e-116
0
0
0.0163881
2.6308e-47
3.22576e-49
0.0146055
3.70889e-07
1.68549e-106
1.31581e-68
3.93806e-46
2.437e-61
0
0
1.211e-09
0
0
3.45715e-46
2.93455e-24
0.0163661
3.10741e-47
1.41668e-85
0.0176961
3.35945e-11
0
0
1.00189e-10
1.04476e-35
4.38689e-16
0
1.0314e-16
3.36282e-22
1.50479e-18
0.000411985
1.45711e-24
0
3.20766e-21
1.80984e-25
2.81886e-07
4.09954e-96
2.32133e-57
6.17303e-21
3.05345e-41
0
2.84387e-21
0.0138049
0
1.77909e-61
0
2.31101e-48
0
0.0063872
4.93303e-75
5.36405e-05
1.25997e-84
6.88671e-08
0.0117774
0.0131461
8.40093e-115
1.66443e-90
0
0
2.58343e-56
0
1.22296e-47
5.62478e-06
4.23944e-05
0
0
0.000112918
0
1.12617e-14
0.00388018
0.00740304
3.94911e-56
0
1.76094e-76
0
1.61366e-114
2.37371e-97
5.13436e-76
1.05065e-58
4.85747e-97
0
0
0.0352643
2.55446e-53
5.23832e-53
2.62655e-97
4.20769e-28
2.0878e-46
2.0015e-93
5.77267e-18
0
4.7675e-74
2.08645e-54
3.84498e-106
1.59398e-48
0
0
1.6484e-76
0
2.41026e-42
9.20143e-05
0
2.04753e-14
1.35156e-22
0.00828766
0
0
0
6.33846e-122
0
0.0433412
2.23971e-69
1.78366e-43
6.44165e-120
1.18407e-94
0
2.16278e-64
3.59784e-122
0
6.87037e-44
0
1.49649e-32
0.00514812
7.35003e-121
2.05715e-11
6.2575e-119
8.92303e-22
0
0
0
0.000180266
0
5.44417e-101
6.96171e-139
0
0
0
0
2.84043e-05
0.0129469
9.14118e-122
0
0
8.89028e-131
0
0
0
5.89436e-44
2.469e-11
2.0645e-61
9.31974e-92
0
2.90753e-104
0.0142182
3.85766e-18
3.04355e-78
0
5.86621e-99
2.02602e-08
0
0
2.60666e-77
4.29279e-78
0
0
0
0.00121241
1.50725e-103
2.02719e-54
1.11696e-60
0.00464005
7.79121e-06
5.98934e-81
6.17061e-22
0.000775785
1.84746e-94
8.26446e-25
0.0166615
0
0.00174071
1.85893e-23
0
1.61344e-61
2.83322e-92
6.18296e-08
1.50324e-22
4.74238e-101
2.18723e-103
4.40916e-66
2.01734e-89
3.15706e-103
8.68924e-18
0.000110195
0
1.20195e-29
0
0
0.00523439
0
6.80127e-46
0
0
0.000374534
5.68228e-96
0
1.10327e-129
1.9244e-45
0
0.0158476
0
0
2.65269e-34
5.33675e-06
4.17916e-142
1.73156e-98
0.0228463
2.34644e-96
0
1.494e-114
2.71876e-100
7.58283e-35
9.31114e-30
0
2.7058e-39
0
7.34462e-82
0
5.02338e-117
0.000135784
2.39918e-17
6.0744e-125
1.81896e-37
7.7366e-119
0
7.20688e-102
0.000331524
0
6.12524e-08
7.64793e-48
1.84528e-115
0
0
5.03949e-10
3.76494e-32
5.94229e-05
7.00955e-74
4.68563e-113
1.18486e-99
0.00267068
0.0189936
0
0
7.2524e-05
0.000436212
0.000158359
9.87184e-05
0.00177354
1.79273e-41
4.61005e-07
3.94373e-12
0
1.07625e-95
1.60302e-136
1.08511e-79
1.65134e-117
1.14883e-63
0.00821968
0.00376609
2.63221e-05
9.57867e-11
0.000564291
1.12636e-48
0
0
1.96735e-14
1.17207e-12
0.00564376
2.97141e-08
0.00329352
0.00452979
0
0.000878994
0
0
0
0.00505025
0
4.89286e-135
0.00846177
0.000711523
0
6.43554e-111
8.00383e-94
0
0
0
4.04682e-118
8.36648e-09
0.0226658
2.53893e-103
4.35508e-41
1.78003e-62
0.00109631
0.000498769
8.42242e-53
5.5048e-138
1.04582e-125
0.00148283
6.74105e-83
0
1.06596e-17
0
5.78981e-48
3.88794e-111
0
1.06677e-07
3.87861e-11
1.62774e-79
4.36916e-174
3.80528e-81
1.33978e-75
0
8.5236e-17
0
2.02759e-25
5.79457e-62
0
4.53658e-44
0
1.34652e-117
0
4.20598e-85
1.26493e-101
1.50008e-77
0
0
3.86327e-78
1.01221e-23
2.57476e-95
3.41515e-06
8.78182e-74
0
1.77342e-92
0
0
5.88258e-72
1.46564e-05
4.6096e-06
0
5.6978e-06
0
0.00179155
1.47922e-06
7.64226e-07
5.85744e-06
1.0694e-05
1.10841e-16
3.21926e-64
0
0
8.63762e-62
1.35665e-124
1.01751e-86
1.83162e-47
1.92083e-06
0
2.47432e-05
3.74895e-77
1.02356e-33
3.76997e-74
0
0
7.98162e-99
0
4.06794e-05
0
1.36194e-92
0
8.40497e-33
2.30025e-16
2.34082e-46
6.4991e-38
0.0145248
1.21113e-71
0.0154577
4.87511e-151
5.82131e-137
8.53655e-27
0.0113184
0.0189326
0.0163311
0.0090767
0.00838431
2.49801e-06
0.000411769
0
0.0110178
8.87183e-107
0
0
0
9.99542e-09
1.95796e-09
2.16477e-06
0
1.13078e-09
1.49845e-10
0
1.07992e-11
3.30208e-09
5.21565e-124
0
1.54238e-115
1.95804e-06
3.32668e-06
1.00977e-37
6.63823e-117
3.88827e-06
0.00481093
4.56822e-13
0.00656119
8.92892e-10
0
0
5.2571e-132
0
0
4.48308e-16
5.60841e-127
0
0
5.61601e-113
3.98464e-107
0
2.33037e-132
4.60925e-92
0.00105208
3.23334e-104
8.96e-15
0.00021262
1.43745e-99
6.98212e-16
7.87368e-10
2.27798e-08
0
1.15736e-08
2.81588e-24
4.51872e-06
0
1.49787e-146
2.37758e-07
0
1.14332e-09
3.71352e-11
2.66506e-41
0
0
2.00662e-13
0.0132513
0
3.0148e-51
3.62472e-10
0
7.5011e-06
6.53652e-125
0
7.59257e-124
2.56805e-10
1.05302e-82
1.37395e-31
0
7.40982e-76
0
2.2087e-09
1.2684e-08
5.1233e-11
0
1.51575e-08
0.000715341
0.000169238
0
1.54388e-23
0.0515719
2.04608e-06
0.000304995
1.33454e-73
1.55181e-18
3.17853e-97
0
1.13797e-105
5.45147e-102
7.38727e-103
2.07008e-82
2.52444e-105
0.000465432
5.00955e-149
2.75064e-41
2.60646e-102
0
1.47037e-106
3.75703e-136
1.4397e-78
1.8629e-07
1.84329e-08
0
0
3.81416e-12
0
6.04041e-05
0
0
2.15385e-10
2.05943e-72
0
0
1.17239e-06
4.33626e-33
0
2.65212e-33
6.73273e-67
3.72863e-92
1.10861e-102
3.53228e-46
0
4.81179e-150
1.83127e-108
8.12915e-150
1.72399e-113
0
0
3.5984e-14
1.11644e-131
6.44255e-47
0
3.56565e-24
1.7507e-99
2.77486e-30
1.43939e-53
0
9.71008e-93
3.49959e-94
2.96931e-96
2.31039e-95
4.83407e-22
1.24253e-62
0
6.78316e-112
0
0
1.79914e-08
8.34817e-102
0
0
1.25236e-89
0
1.66462e-07
1.93242e-113
0
8.15774e-88
0
4.50607e-73
5.65588e-91
0
3.59101e-50
0
5.14097e-140
1.07341e-51
2.806e-09
2.1759e-113
1.31542e-106
0
2.05009e-78
0
9.20956e-76
0.00139443
2.13655e-24
2.40426e-82
1.45768e-51
0
0
0
3.27872e-09
6.8706e-20
2.85196e-28
1.07641e-35
3.58102e-117
2.79525e-59
5.32182e-129
5.74443e-93
4.89815e-14
9.23796e-54
5.72892e-142
2.64404e-13
4.08862e-79
5.02533e-148
0
0
1.05499e-66
7.46302e-77
0.0116562
0
2.86784e-139
0
2.20904e-12
1.17686e-14
7.31773e-14
2.44065e-19
1.35478e-06
0.00949832
2.01248e-41
0
0
7.6109e-12
0
0
1.17279e-69
1.26451e-57
0.000149111
1.07691e-96
0
1.97038e-74
5.38188e-21
1.27541e-21
3.10332e-07
1.91209e-20
3.69503e-130
1.02608e-24
0.000545669
0
1.90814e-14
3.37988e-107
4.8238e-77
1.18636e-132
2.01786e-68
0
0
0
0.0198157
0.00213683
0.00778127
3.27088e-08
0.00416378
8.76415e-24
5.09566e-125
4.51887e-114
7.9304e-104
6.80123e-98
0
2.02045e-125
1.8191e-128
3.48621e-104
0.000705625
0
2.95723e-14
1.53457e-09
9.41859e-89
0.000179926
1.50023e-37
2.71224e-13
3.53265e-28
2.84372e-129
1.27223e-12
2.04474e-115
0
0
5.24554e-14
0.00317648
0.000804001
0
0.000133056
1.05566e-81
0
0
2.26619e-21
0
0.000174741
2.6933e-37
2.54287e-83
0
1.30828e-07
6.41591e-10
0
4.94275e-18
7.08033e-128
6.86059e-87
0.00951488
1.54817e-107
1.30691e-26
9.61228e-131
1.99088e-35
2.02298e-99
0
1.68525e-100
0
1.08858e-23
1.29604e-98
0.0140428
1.12851e-85
0
4.92348e-102
1.53552e-67
1.0589e-21
0
1.19928e-100
2.09143e-98
0.0164253
0
7.01561e-16
0.00116041
2.05037e-12
2.00922e-134
1.97577e-11
5.93037e-22
3.98668e-102
3.71868e-96
0.00802451
4.00053e-26
8.79104e-97
0
0.000293754
5.70964e-39
0
3.56499e-47
5.7607e-27
0
0
2.19563e-75
1.54819e-116
0.000135347
2.08437e-119
0.000610825
1.79464e-64
6.05059e-38
0
0
9.82714e-13
2.33446e-120
9.91548e-91
9.00504e-57
0
8.91675e-31
0.00117809
0
0.00730065
8.90973e-24
2.3216e-14
0
5.3028e-43
0
0
6.20339e-20
0.0115408
5.44756e-05
6.21816e-16
3.06043e-18
0.00928018
5.35084e-23
0.0139695
0.0171102
0
0.00918139
0.0165404
3.19162e-25
2.45904e-113
0.00024197
4.04451e-05
0.0024371
0.00417236
2.59848e-11
2.36785e-14
0.00866938
0
0.00767525
1.36364e-32
6.79611e-07
4.25671e-63
0.000143334
0.00810587
3.14424e-54
4.49187e-44
6.92419e-15
0.00225681
1.29506e-29
0.000320078
2.46865e-134
7.83944e-126
0.0049058
9.59075e-33
2.24004e-50
1.10594e-44
5.14034e-129
4.69226e-49
0
0.0607556
0.00296133
0