/*--------------------------------*- C++ -*----------------------------------*\
| =========                 |                                                 |
| \\      /  F ield         | OpenFOAM: The Open Source CFD Toolbox           |
|  \\    /   O peration     | Version:  v2012                                 |
|   \\  /    A nd           | Website:  www.openfoam.com                      |
|    \\/     M anipulation  |                                                 |
\*---------------------------------------------------------------------------*/
FoamFile
{
    version     2.0;
    format      ascii;
    class       volScalarField;
    location    "3";
    object      ILambda_3_0;
}
// * * * * * * * * * * * * * * * * * * * * * * * * * * * * * * * * * * * * * //

dimensions      [1 0 -3 0 0 0 0];


internalField   nonuniform List<scalar> 
108993
(
146.201
146.201
146.201
146.201
146.201
146.201
146.203
146.201
146.201
146.202
146.201
146.201
146.201
146.201
146.201
146.201
146.208
146.201
146.201
146.202
146.201
146.201
146.201
146.201
146.201
146.201
146.201
146.203
146.202
146.201
146.201
146.201
146.201
146.201
146.201
146.201
146.201
146.201
167.917
726.158
146.203
146.201
146.201
146.201
157.611
146.5
146.201
146.201
146.201
146.201
146.201
415.501
146.201
146.201
146.201
146.201
146.201
146.201
146.201
146.201
146.201
146.201
146.201
146.201
146.201
146.201
146.201
146.201
146.201
146.241
146.201
146.201
146.201
146.201
146.201
146.201
146.201
146.201
146.201
146.201
146.201
146.201
146.201
146.201
146.201
146.201
146.201
146.201
146.201
146.201
146.201
146.201
146.201
146.201
146.201
146.201
146.201
146.201
146.201
146.201
146.201
146.201
146.201
146.201
146.201
146.201
146.201
146.201
146.201
149.804
601.014
146.201
147.78
523.844
146.201
146.392
146.201
146.201
146.204
146.201
146.201
146.201
146.222
146.201
146.201
146.203
146.202
146.201
146.201
146.201
146.201
146.201
146.201
1041.1
146.201
146.201
146.201
146.201
146.201
146.201
146.201
146.201
146.211
146.201
146.201
146.201
146.201
147.092
146.201
149.358
155.028
146.201
146.201
159.697
146.201
146.163
146.201
146.201
146.201
310.581
159.045
146.201
146.201
146.201
146.201
156.283
146.201
146.201
146.201
146.201
146.201
146.201
418.678
146.201
146.202
146.201
146.431
146.201
146.201
146.201
146.201
146.201
146.201
146.201
146.201
146.201
146.201
146.201
146.201
146.201
146.201
146.201
146.201
146.205
146.201
146.201
146.202
146.201
146.201
146.201
146.201
146.081
146.201
146.201
146.202
146.452
146.201
146.34
146.201
222.306
147.761
146.201
146.432
146.27
152.528
146.201
146.201
146.201
146.201
146.201
146.201
148.239
146.201
146.202
146.201
146.201
146.201
146.201
1332.54
146.201
1205.22
146.201
146.201
146.202
146.201
146.201
146.201
146.201
146.365
146.201
146.201
146.201
146.201
146.201
146.201
146.202
146.279
146.228
146.201
146.201
146.201
146.201
146.201
146.201
146.201
146.201
146.201
146.201
146.201
146.201
146.201
146.201
146.206
146.205
146.201
146.201
146.201
146.201
146.201
146.201
146.201
146.201
146.235
179.236
146.932
146.201
146.201
146.221
146.201
146.201
146.201
146.825
153.014
146.201
146.201
146.201
146.201
146.201
146.201
147.117
146.201
146.201
146.201
146.201
146.201
146.201
146.201
146.201
146.209
146.201
146.28
146.907
146.201
146.201
146.201
146.201
146.201
146.201
146.201
146.231
146.201
146.201
146.202
146.201
146.201
146.388
146.201
146.202
147.517
146.201
146.202
146.201
146.202
146.202
146.201
689.337
249.113
146.929
146.201
146.201
146.201
146.322
848.607
146.201
147.511
146.201
146.201
146.201
146.201
146.201
146.201
146.229
146.201
146.201
146.201
146.201
146.201
146.201
146.201
146.201
146.201
146.201
146.699
146.252
146.201
146.201
146.201
146.942
146.201
146.201
146.201
146.201
146.201
146.201
146.201
146.201
146.201
146.201
146.201
1362.14
146.201
146.201
146.201
268.819
146.201
165.961
146.201
146.201
146.664
146.201
147.191
146.842
146.201
146.203
146.201
146.203
146.201
2883.67
146.201
146.484
147.212
146.203
147.607
146.201
146.257
146.201
312.788
146.201
146.214
146.201
146.201
146.224
146.243
146.201
146.201
146.203
146.204
146.201
146.201
166.487
146.201
146.201
6536.08
146.201
146.201
146.201
250.252
146.245
146.338
146.201
213.53
146.201
215.194
146.201
146.201
154.875
146.201
146.398
163.063
146.201
296.461
226.911
253.709
146.201
146.201
146.202
146.201
146.201
146.201
146.201
146.201
146.201
146.201
146.201
146.274
146.202
146.202
398.377
146.201
146.201
146.201
146.201
146.201
146.201
146.201
146.201
146.201
146.201
146.201
146.201
146.217
146.201
146.217
146.874
146.208
146.201
146.201
146.217
146.201
146.201
146.235
146.201
146.201
146.201
146.201
146.208
146.201
146.301
146.416
146.21
146.201
146.201
146.201
146.201
146.201
146.201
146.201
146.201
323.936
146.201
146.201
146.201
146.212
146.201
146.457
146.201
146.201
146.201
146.201
146.201
146.201
146.201
146.201
146.201
148.653
146.354
146.201
146.201
2331.73
146.201
146.202
146.202
146.201
146.201
146.201
146.201
146.201
146.201
146.202
146.201
146.201
146.201
146.202
146.203
146.201
146.327
146.201
146.201
146.408
146.203
146.206
146.201
146.258
146.201
146.201
146.201
146.261
146.201
146.201
146.236
146.201
146.451
146.201
146.201
146.201
146.201
146.201
146.057
146.201
146.201
146.261
146.205
148.579
146.201
146.201
146.201
146.201
146.202
267.044
146.201
146.201
146.201
146.201
146.203
146.27
146.5
146.201
146.201
146.202
146.203
146.201
146.201
5391.56
146.276
146.364
146.199
146.201
146.275
181.476
146.204
146.201
146.201
146.201
146.201
146.201
146.788
146.48
146.3
146.201
146.201
146.202
146.201
146.203
146.201
183.67
146.201
146.201
146.201
146.202
146.208
146.201
146.201
205.468
146.205
146.201
146.201
186.73
146.201
146.202
146.201
931.173
146.201
146.809
146.201
146.202
146.201
146.201
146.201
146.394
146.201
873.632
146.201
146.201
147.165
146.204
146.201
146.201
146.223
738.558
146.201
147.691
146.201
146.231
566.064
146.201
146.201
146.201
564.871
146.713
349.852
146.201
351.386
146.201
146.201
146.201
146.201
146.201
214.824
146.471
146.201
146.201
146.638
146.4
146.606
146.277
146.203
146.236
146.723
146.219
146.753
146.613
146.201
146.201
146.201
146.201
146.201
146.215
146.202
146.299
146.333
146.208
146.203
214.915
146.606
146.698
146.201
146.201
146.22
146.201
147.12
146.202
146.357
146.206
146.201
147.115
146.203
148.697
146.227
146.218
610.7
146.201
146.201
371.689
146.203
146.202
6676.65
146.21
146.971
146.206
3691.62
151.516
146.201
146.201
146.201
146.21
146.201
152.768
146.204
146.201
146.201
146.147
146.341
750.907
146.201
1056.91
146.201
256.713
146.209
146.201
367.45
146.202
146.201
146.32
146.203
146.201
146.203
146.2
669.529
146.225
146.201
386.201
146.201
146.202
146.202
146.201
146.201
146.259
146.201
146.201
146.202
146.201
146.205
1511.4
147.001
146.201
146.207
146.201
146.201
146.201
146.202
146.201
146.201
146.201
146.201
146.201
146.203
146.201
146.201
146.217
146.201
146.201
146.201
146.201
146.201
146.204
146.203
146.202
146.259
146.201
146.201
146.201
146.271
146.201
146.236
146.272
146.201
146.201
234.761
146.322
146.201
146.201
146.259
146.201
146.201
146.203
146.201
146.203
146.201
146.201
146.204
146.201
147.351
146.201
146.201
2025
146.203
182.418
146.205
147.091
146.201
146.195
146.204
146.201
146.201
146.202
146.201
146.201
146.201
146.201
146.201
146.201
146.203
146.201
146.204
146.201
1136.72
146.201
146.201
939.191
146.201
450.979
146.201
146.201
146.201
4357.56
146.201
146.201
146.204
146.217
146.205
146.212
146.282
146.204
146.201
235.198
146.201
146.201
146.21
2606.24
146.201
146.201
146.201
146.205
146.201
146.201
146.209
146.201
146.201
9200.88
146.201
9289.57
146.201
6234.5
146.201
146.202
146.205
146.21
146.222
146.201
146.205
146.206
146.21
146.2
3333.03
146.201
146.201
146.201
146.23
146.202
146.209
146.201
146.201
146.256
238.696
146.201
146.208
539.819
146.222
146.203
146.222
158.708
2865.9
146.02
1228.28
146.189
920.118
146.201
1508.92
147.765
691.324
146.201
146.201
146.205
146.206
149.103
146.201
146.201
146.304
146.302
146.201
1267.23
146.198
146.201
1058.29
146.201
146.201
1479.11
1129.41
146.201
146.204
146.201
146.201
146.209
180.976
804.268
146.201
907.358
146.206
146.21
146.204
146.201
146.203
146.205
146.205
146.201
146.201
146.201
185.534
146.201
146.201
146.231
146.201
322.563
146.515
146.203
146.207
146.201
147.003
146.201
1771.57
146.201
146.201
146.201
147.793
181.047
146.201
146.209
606.909
170.826
146.256
146.201
146.205
146.224
146.5
146.201
146.211
147.264
146.207
146.213
146.205
146.201
270.565
147.311
184.586
146.221
146.212
146.203
146.213
146.201
146.198
146.215
146.552
146.208
146.201
146.203
146.222
146.201
146.201
146.201
146.223
146.201
146.201
146.201
146.202
146.201
146.201
146.201
850.77
146.201
146.201
146.202
146.201
183.279
146.201
146.201
146.204
146.201
146.202
2189.97
146.257
146.201
146.201
146.201
505.07
148.409
146.43
146.201
146.201
146.238
146.201
146.203
154.437
146.212
146.201
146.201
146.201
146.201
146.201
146.178
146.201
146.201
146.201
146.201
146.305
146.201
146.171
146.201
146.201
146.128
437.494
146.203
146.203
146.201
146.201
146.199
146.236
146.201
146.201
146.201
3599.22
146.201
146.204
146.201
146.206
146.201
146.201
146.725
709.226
146.21
146.205
1096.76
146.208
146.27
146.189
146.701
146.201
146.201
146.201
310.495
146.203
16020.7
146.216
146.203
146.201
146.203
146.208
146.201
146.212
169.807
146.209
146.201
332.824
436.951
234.616
146.201
146.201
146.201
146.201
146.201
146.201
146.201
1384.6
146.201
2784.35
146.201
146.201
146.201
224.97
884.897
146.201
146.201
146.201
146.202
146.201
146.202
151.18
146.307
146.201
146.243
146.201
146.201
146.201
146.201
146.201
146.204
10909.7
338.444
146.201
146.201
146.201
146.201
146.201
146.201
146.201
146.201
146.201
146.201
146.201
146.201
146.201
146.201
146.201
146.201
146.201
146.201
146.201
146.252
538.145
250.019
147.571
146.201
146.201
146.201
146.201
146.202
146.201
146.202
146.201
146.201
957.083
146.201
146.2
146.201
146.202
146.201
146.201
217.735
333.657
146.201
146.201
146.201
146.204
146.201
146.201
146.446
146.201
146.201
146.201
146.201
146.201
146.209
146.202
146.205
146.43
146.201
146.201
146.201
146.65
146.206
146.201
146.201
146.201
148.175
146.201
320.814
146.204
146.204
146.203
593.717
146.196
146.201
146.219
146.201
146.247
146.215
146.204
146.201
146.201
146.201
146.201
146.201
146.201
146.397
947.405
146.209
146.201
146.201
146.21
146.201
146.201
146.201
146.201
146.201
956.838
146.212
146.309
146.201
171.995
146.201
146.254
146.241
146.202
146.201
146.219
146.201
146.214
146.246
146.225
543.97
146.201
146.201
146.202
146.201
146.201
3440.79
146.201
146.201
146.201
147.205
146.201
146.201
146.202
146.201
146.225
146.428
146.201
146.167
146.201
146.23
146.201
146.201
146.201
146.135
146.201
146.243
146.206
146.201
146.519
146.201
146.201
146.201
146.191
155.507
146.201
170.279
700.349
190.693
146.212
146.201
146.201
146.23
146.201
146.274
146.265
146.26
146.247
146.261
146.201
146.277
146.279
146.203
146.203
146.201
642.67
146.201
146.201
146.201
146.203
146.201
146.201
146.201
231.142
146.201
146.201
146.201
146.201
146.201
146.201
146.201
146.736
1778.97
146.201
212.368
146.2
146.202
146.201
146.201
146.407
146.201
146.201
146.238
146.201
146.201
146.201
146.201
146.201
209.907
146.201
161.331
146.201
146.209
1004.26
146.201
146.201
146.205
146.201
146.201
146.201
146.201
146.201
146.205
146.203
146.199
146.472
146.201
146.261
146.277
146.201
146.216
146.201
146.205
146.206
146.201
146.201
146.39
146.273
318.863
146.201
417.323
146.224
146.201
146.201
146.201
146.201
146.201
146.204
154.615
146.201
146.201
146.201
146.201
146.206
146.201
146.201
2945.1
2603.43
146.201
146.201
146.243
146.201
146.201
146.204
146.201
146.223
146.201
146.201
146.201
146.201
1740.74
146.211
146.201
146.249
146.265
146.201
146.743
320.57
146.201
146.201
146.202
146.671
146.212
146.201
146.201
768.313
146.24
146.248
146.201
146.202
146.854
146.203
146.201
146.321
146.203
146.201
146.205
146.201
186.476
146.201
146.201
1680.4
146.203
147.284
146.205
147.208
146.203
146.203
146.466
146.201
146.203
146.871
146.202
146.2
1222.08
146.201
146.201
146.201
147.319
626.947
146.201
146.217
146.201
146.226
147.314
160.037
146.202
1751.56
146.201
5301.09
146.201
146.201
146.201
146.201
146.201
146.201
146.201
146.201
146.235
150.351
146.231
146.212
146.201
146.201
146.201
146.201
146.201
146.201
1118.52
146.226
146.201
146.201
146.201
905.664
146.201
146.201
153.989
146.201
146.201
146.201
146.202
2561.65
146.228
146.248
503.941
146.201
146.201
149.984
146.201
146.201
146.201
146.315
147.141
146.234
2355.39
146.201
146.201
13198.5
146.201
146.202
146.201
146.201
146.201
146.201
146.202
146.201
146.202
1749.99
146.494
146.202
146.239
159.269
146.201
708.104
146.201
146.201
146.201
146.201
146.201
146.201
146.204
146.201
146.206
1582.12
146.35
146.236
146.201
146.201
161.349
149.129
146.201
146.226
146.201
146.201
146.268
146.395
147.067
146.265
146.201
2043.68
346.719
151.001
146.201
146.249
146.264
146.248
146.527
146.205
149.441
146.234
146.201
146.234
146.226
146.243
146.231
146.452
146.228
146.202
146.407
208
147.335
146.201
146.201
1218.75
146.201
146.201
146.7
146.201
668.553
146.238
146.201
146.201
146.201
146.201
146.241
146.291
147.32
146.228
181.457
146.201
884.591
146.226
146.206
146.201
146.203
146.201
146.201
146.201
146.201
146.184
146.201
146.201
146.201
164.151
146.236
168.632
147.27
152.746
146.202
146.235
146.201
146.201
146.206
146.201
146.201
146.201
146.233
1010.5
157.953
1401.8
1805.05
146.208
146.201
146.346
146.4
146.183
1589.37
146.201
146.204
146.201
149.43
146.204
146.212
146.201
146.201
146.201
146.201
465.314
146.201
146.365
146.201
1011.35
146.697
146.201
146.201
527.888
150.812
146.368
147.17
146.201
147.02
705.518
146.201
146.205
146.238
146.214
146.368
146.201
146.401
178.776
146.341
146.346
189.821
146.238
146.397
146.201
158.355
3256.9
146.233
2437.69
146.201
146.204
146.243
146.201
2457.17
148.024
146.207
146.205
146.201
146.241
146.202
146.201
146.204
146.201
146.201
146.201
146.202
146.201
2751.37
1383.83
146.205
1624
146.202
146.201
146.208
160.513
147.439
146.202
146.317
146.94
580.754
19619.2
818.987
146.201
185.671
146.201
146.201
146.201
218.739
146.201
336.595
146.234
833.246
642.045
1123.08
146.201
146.359
146.201
146.201
146.201
146.201
146.201
146.201
146.208
267.589
1470.78
158.916
146.208
6770.59
146.209
148.77
146.201
1440.8
386.026
918.007
146.201
146.201
146.201
146.201
146.201
146.201
146.973
146.204
146.212
773.349
146.317
890.667
155.544
1298.73
220.381
266.953
146.201
527.947
146.246
146.201
146.201
149.784
146.43
146.201
146.201
146.201
146.205
146.201
592.926
629.221
613.94
152.204
146.201
5252.18
454.861
146.201
533.633
146.201
146.209
1523.22
146.211
146.214
402.409
146.205
146.201
146.208
146.201
146.201
146.201
146.218
146.201
146.201
146.337
607.797
146.343
146.209
146.204
146.202
146.201
146.201
146.201
146.352
147.427
146.201
146.201
711.443
146.201
146.201
146.201
146.201
192.1
147.124
2787.63
146.526
146.532
146.201
146.401
146.201
146.222
146.565
146.201
146.457
146.201
146.201
146.982
146.201
146.201
146.939
146.505
146.915
147.123
146.201
146.231
146.248
146.31
146.202
154.508
146.381
146.917
146.238
1810.79
146.201
146.201
146.23
181.379
146.249
150.539
146.223
147.078
146.201
146.201
19856.3
146.591
146.239
146.4
146.234
198.222
1673.57
146.201
146.267
146.201
146.872
146.201
146.261
146.432
146.201
147.333
146.201
146.705
146.904
146.201
146.201
146.498
146.201
146.201
146.201
146.201
146.311
146.201
146.905
148.077
146.201
146.201
552.112
146.202
146.201
146.226
146.201
146.201
146.201
146.201
146.317
146.319
300.471
146.201
146.201
146.554
146.201
146.23
687.04
146.201
146.201
146.196
146.201
146.442
146.201
146.201
146.201
146.201
146.201
206.199
743.953
146.134
146.201
5554.36
146.2
771.415
146.201
146.264
146.201
170.193
146.324
146.201
146.201
146.201
1177.7
146.671
146.201
146.225
146.201
146.201
146.208
146.209
146.201
146.205
146.201
146.645
146.201
146.201
146.201
146.201
146.201
146.42
183.899
146.201
146.201
146.561
146.201
146.208
146.201
146.201
1140.02
180.528
146.204
146.203
146.201
146.202
147.209
146.201
147.521
146.201
148.975
146.495
146.201
1004.33
146.64
2331.25
3087.06
146.688
146.201
146.201
146.201
146.214
146.207
146.402
159.926
146.201
146.214
146.201
146.244
146.854
146.568
146.201
1244.24
146.251
146.201
615.607
146.201
146.201
146.201
147.201
146.352
146.248
146.201
146.201
146.201
373.925
146.201
415.727
146.201
146.201
181.773
529.382
146.201
146.201
2651.11
146.201
146.201
146.204
147.479
1269.47
146.302
146.201
857.157
2427.26
146.234
148.357
146.19
1428.96
146.202
146.469
2312.17
1820.9
1393.79
1318.84
656.363
2178.81
146.201
28360.3
146.975
148.346
146.201
514.245
9029.77
146.201
146.311
2564.7
146.201
1496.73
146.201
173.525
146.305
1074.79
146.342
146.83
146.201
146.201
146.201
146.201
4852.72
146.201
146.492
146.394
146.201
146.201
146.201
146.201
146.201
146.201
146.196
146.201
147.451
146.201
324.244
146.201
147.309
146.201
146.205
146.215
146.201
146.201
146.201
146.201
146.206
206.719
163.069
1426.11
146.727
146.199
146.189
146.201
146.203
146.208
146.178
146.201
1094.3
1101.47
150.776
146.18
146.199
146.201
162.645
146.212
146.201
146.202
146.201
176.872
150.594
146.215
646.16
146.202
146.21
1565.11
274.528
146.201
146.148
146.209
146.202
146.201
146.201
146.203
146.23
146.204
146.202
146.201
146.201
526.933
146.201
146.219
146.201
146.234
146.201
146.201
146.226
146.711
551.386
146.201
146.201
146.201
146.903
2640.34
146.201
146.291
2663.37
146.201
146.206
146.256
146.264
4544.5
146.201
146.203
146.217
146.201
5488.78
146.203
146.201
146.201
146.201
146.201
146.201
146.201
146.201
146.201
146.217
146.201
146.201
503.483
146.201
146.209
146.243
146.201
146.201
146.513
146.455
146.201
146.205
146.201
146.201
146.209
146.202
146.201
226.724
146.202
146.201
146.201
146.201
146.201
146.201
146.867
147.584
147.282
1397.47
147.763
146.51
155.951
146.205
146.202
147.509
146.205
146.201
146.613
146.205
146.976
146.201
146.205
146.201
146.267
146.217
146.222
146.221
146.201
146.222
146.236
146.201
146.298
146.201
146.229
146.217
146.236
146.227
146.222
146.227
146.219
146.23
146.22
146.201
146.201
826.931
146.203
146.201
146.201
146.201
146.22
146.199
146.208
146.213
146.201
146.201
146.201
146.202
146.226
146.201
146.204
146.201
146.201
146.209
146.201
146.642
146.201
146.201
146.201
146.201
146.204
146.201
146.201
146.201
146.203
146.201
146.201
1049.5
146.201
146.208
719.095
146.201
146.201
146.202
146.201
146.201
146.201
146.201
146.201
150.877
146.236
146.208
146.201
146.201
146.201
146.209
651.401
146.201
146.201
346.254
146.201
146.201
148.289
146.201
146.238
146.421
146.201
146.201
155.135
2119.1
146.674
146.201
146.201
146.201
146.201
146.197
146.204
146.201
146.201
146.201
146.452
146.201
146.201
146.201
899.105
146.291
146.212
162.468
187.804
146.201
146.199
146.203
146.201
146.202
263.666
146.198
146.201
146.216
173.074
146.201
146.201
205.115
147.771
1231.77
146.201
146.205
146.201
146.203
147.076
146.201
147.118
146.201
146.201
147.965
146.202
146.201
146.232
160.808
146.201
146.217
147.078
146.201
146.253
158.449
146.22
146.202
146.202
146.22
821.15
146.217
2074.18
146.201
146.201
603.229
146.201
602.378
146.209
146.201
146.201
146.201
146.21
146.201
146.201
146.192
146.201
146.203
146.201
146.208
903.431
146.201
146.215
146.21
931.449
146.201
146.249
2510.74
146.201
146.209
146.259
147.204
146.201
146.208
146.201
146.201
146.201
146.201
470.942
146.215
146.22
919.031
149.904
146.201
146.202
146.218
146.201
146.201
146.201
146.234
146.201
146.215
146.201
643.275
479.926
146.225
146.204
351.716
146.389
146.205
146.22
1259.79
1075.49
146.267
176.929
146.223
146.271
146.205
159.873
146.26
146.23
146.244
146.251
146.282
146.201
146.211
146.262
146.205
146.21
295.072
2207.92
146.872
146.201
146.87
146.201
146.202
557.852
146.201
147.228
146.201
235.477
582.811
2336
146.201
146.201
146.201
147.43
146.206
166.907
146.201
147.61
148.402
152.317
146.201
664.266
146.23
146.292
1644.57
230.394
146.201
146.211
146.201
146.204
146.201
146.201
146.201
146.203
146.201
146.201
146.201
5509.62
146.201
146.202
146.201
226.337
651.502
146.204
146.322
146.201
146.201
146.207
146.201
146.201
146.201
146.201
146.201
146.207
146.201
428.893
146.201
146.175
146.747
310.862
146.201
146.224
146.216
146.201
146.201
7290.2
146.201
146.201
146.201
146.201
146.201
146.203
146.201
146.201
146.201
146.201
1172.39
1087.74
146.201
213.192
146.201
209.983
375.025
146.201
146.201
147.217
146.201
146.211
146.201
146.215
146.203
146.201
146.201
146.557
566.517
146.201
146.304
146.201
146.201
146.205
146.23
146.201
146.202
146.218
146.205
146.201
146.216
146.206
466.237
146.724
146.206
146.201
146.21
151.277
146.201
146.201
146.201
146.201
146.201
146.201
146.201
549.165
146.209
146.201
146.202
177.283
147.707
146.201
146.355
319.982
146.201
146.358
11283.5
146.201
440.335
146.41
146.202
146.201
146.201
188.338
146.375
146.203
146.203
146.201
146.201
146.204
146.206
174.466
146.216
146.201
146.201
146.203
165.779
146.204
146.2
146.201
146.9
147.983
146.201
146.201
146.201
146.204
146.31
713.304
146.203
146.223
146.204
149.267
146.201
146.201
3806.11
146.201
146.201
146.201
146.201
146.202
146.201
146.201
146.202
146.202
146.202
146.201
146.201
147.111
146.25
146.201
146.211
146.201
146.201
146.201
147.193
146.234
146.441
146.201
146.201
146.201
146.203
146.265
146.202
1483.92
146.201
146.201
146.202
168.16
2382.36
146.316
146.201
1492.83
1399.2
168.63
766.966
279.037
146.203
147.019
146.292
146.201
146.201
146.201
146.201
146.201
146.201
1564.97
150.687
196.301
146.256
229.081
146.201
146.258
146.259
968.407
146.546
282.818
149.333
270.022
1302.59
146.201
146.464
204.897
146.201
146.201
156.29
146.201
146.201
281.475
397.685
146.201
146.201
146.201
146.203
146.201
146.201
146.201
146.211
3745.97
146.201
146.201
146.211
232.584
147.668
146.201
146.201
146.201
266.824
146.201
146.205
148.805
146.201
146.204
146.201
146.201
147.223
146.237
146.201
146.201
146.201
146.201
146.201
146.259
146.201
146.211
146.204
146.201
146.23
146.201
146.201
146.201
146.201
146.201
146.201
146.209
146.201
146.201
146.392
146.201
670.918
146.206
146.201
146.201
146.201
146.201
146.205
146.633
559.015
146.345
660.995
146.217
146.732
147.356
534.92
624.907
247.663
146.291
146.201
146.208
146.201
146.201
146.201
146.201
146.21
191.25
146.201
161.299
146.201
146.201
146.212
146.201
146.202
146.201
146.204
146.717
146.22
146.201
146.201
146.201
146.211
146.201
146.202
817.415
146.212
500.582
146.201
146.201
146.21
382.921
533.755
542.11
201.571
1883.35
146.222
269.825
146.229
564.744
146.201
146.203
146.201
146.201
159.778
146.927
363.631
146.282
147.001
147.059
146.201
146.926
1293.65
146.201
146.201
146.201
1824.94
146.908
146.244
146.201
1751.81
151.091
146.808
208.47
146.387
1355.67
148.354
146.201
298.924
148.527
170.507
146.201
146.204
151.855
146.201
146.201
147.444
146.201
146.201
597.729
146.203
147.447
316.84
146.205
146.21
146.362
146.436
146.269
146.46
329.868
146.63
146.196
146.201
146.478
146.223
146.318
146.313
146.203
147.212
206.286
146.392
236.726
146.201
146.204
146.332
146.201
146.753
146.201
146.201
146.201
146.327
146.202
146.253
146.201
146.201
146.411
146.293
146.308
251.149
146.201
1332.17
146.76
319.073
146.201
146.272
2648.22
150.995
146.607
146.201
146.331
146.201
146.201
146.201
146.201
146.201
146.201
146.201
146.849
146.201
146.203
146.201
146.201
146.201
146.201
146.201
355.909
146.24
146.201
146.201
146.938
146.205
146.604
146.205
146.201
146.674
146.201
146.201
146.201
146.601
146.201
146.201
146.248
146.201
146.201
146.201
146.203
146.201
146.201
146.201
146.201
146.201
146.201
146.201
146.224
146.201
146.202
146.201
146.239
146.201
146.201
146.201
1369.05
146.201
146.201
146.201
146.201
146.964
146.201
146.201
146.201
146.201
146.201
147.226
146.201
146.201
146.201
146.201
146.201
146.24
146.201
146.201
146.202
146.204
146.201
146.201
146.201
146.201
146.201
146.201
146.201
146.215
146.201
146.201
146.201
146.201
146.201
146.201
160.528
146.204
146.202
146.201
146.201
146.238
146.201
146.221
146.352
146.207
148
146.201
146.201
146.201
146.206
147.236
146.201
146.201
147.303
146.201
146.201
146.201
146.201
146.201
146.201
2224.15
146.201
146.201
146.201
147.303
147.387
147.387
146.208
148.206
1871.94
146.199
146.201
146.202
147.371
146.201
146.203
146.201
146.201
380.761
146.201
146.201
146.201
146.258
146.204
146.582
146.285
146.201
146.522
672.55
146.201
146.204
146.201
146.201
146.201
146.201
146.201
146.205
146.201
1796.44
238.788
1502.77
895.592
183.866
146.205
146.201
146.201
146.201
146.207
146.201
146.201
146.201
146.203
626.962
146.203
146.32
146.281
146.201
146.823
146.249
146.292
146.203
146.201
146.237
146.201
146.201
146.201
146.345
166.016
150.529
146.201
148.522
146.201
146.201
146.201
146.218
146.201
147.385
146.243
146.201
146.201
411.257
146.21
146.201
192.646
146.201
146.201
506.8
146.201
146.202
146.201
146.243
146.201
146.201
146.201
146.201
146.206
146.201
2029.83
146.201
146.207
146.201
146.201
146.284
146.201
146.201
146.201
312.262
146.203
146.423
482.957
146.33
146.201
147.298
146.257
146.201
146.201
156.927
146.252
146.201
146.429
318.086
146.201
146.201
146.201
146.478
146.201
146.201
146.201
146.204
794.424
146.204
6337.09
146.201
387.859
146.204
146.201
419.671
146.204
146.204
146.201
146.201
146.203
148.926
146.342
170.878
146.372
146.307
146.361
146.201
146.201
146.201
146.275
1157.47
196.931
146.213
146.201
228.375
146.373
187.947
550.215
146.201
2354.55
1211.71
146.337
146.201
152.937
1384.51
1433.08
475.511
146.28
146.28
277.491
146.201
182.373
146.201
1381.24
146.206
147.87
412.304
146.201
146.201
146.265
1732.63
146.204
178.27
146.201
146.201
288.681
146.201
146.201
146.201
146.201
146.21
146.201
29163.4
156.571
146.201
146.201
371.291
146.205
3127.04
1552.95
454.46
146.204
146.201
146.201
146.509
146.201
146.201
146.201
146.201
146.204
403.942
146.205
146.201
146.795
315.778
146.201
146.202
476.741
146.201
146.205
169.296
146.201
146.201
146.201
146.386
196.057
146.332
146.201
146.202
146.201
146.325
4189.44
146.221
150.993
146.201
146.201
146.201
146.203
146.201
426.73
146.267
146.201
152.664
146.201
146.201
146.23
146.201
146.206
146.201
146.591
205.447
146.201
146.201
873.313
683.498
146.201
146.195
152.402
146.201
146.201
146.202
146.201
146.201
146.201
146.201
146.201
146.201
146.201
146.205
1954.57
146.201
146.265
5529.27
146.277
1952.69
146.201
146.245
146.201
146.201
1603.64
146.611
148.986
1922.63
203.038
289.724
146.201
151.367
604.804
146.504
629.449
909.275
146.201
1138.08
146.201
146.201
146.201
146.23
844.715
146.203
146.968
146.201
146.201
146.201
147.587
187.674
146.201
810.72
625.794
146.347
647.069
816.14
146.201
146.201
154.538
146.201
146.201
146.201
146.201
146.201
146.201
146.201
436.664
146.253
259.614
265.36
146.204
147.17
146.201
146.201
146.201
265.902
146.201
146.201
146.201
357.983
146.176
372.829
972.382
1210.11
146.292
146.42
146.203
951.96
146.201
146.201
150.681
1805.25
1507.12
146.201
146.201
146.203
1968.43
146.201
642.581
1805.3
1810.82
930.056
146.201
146.201
166.164
158.243
146.205
1080.92
172.104
153.093
146.201
942.238
146.205
234.001
146.201
146.201
146.216
146.209
146.201
146.201
316.751
146.741
1134.65
146.201
146.201
393.088
1542.76
146.201
146.201
146.201
2559.58
186.306
12125.8
895.54
146.201
146.839
146.737
146.202
146.201
146.203
146.201
146.201
146.201
2234.47
146.201
146.203
146.203
146.79
146.201
146.201
146.201
146.201
146.417
146.406
146.201
146.801
146.204
146.21
146.201
146.201
146.201
146.85
1119.13
146.201
146.201
657.029
146.201
146.201
146.205
146.201
146.201
1399.46
146.201
146.204
146.201
146.201
146.201
1201.7
146.201
146.201
146.79
146.201
146.201
146.201
146.201
153.782
146.201
146.223
146.203
149.071
146.201
146.201
146.201
146.201
146.201
146.201
146.203
1196.17
713.481
146.201
146.201
146.201
146.201
146.206
146.201
146.201
146.201
146.206
146.201
146.205
146.201
197.754
2607.31
146.521
146.205
394.011
146.2
146.201
2144.14
146.205
1392.21
146.203
146.256
146.201
146.201
146.201
146.201
146.205
146.201
146.238
148.226
146.201
146.201
146.201
146.204
146.201
146.199
146.201
146.201
146.201
217.418
146.243
153.173
146.201
146.201
146.248
146.259
169.84
146.201
146.203
146.201
146.211
146.201
146.217
146.189
146.201
146.254
146.25
201.721
146.248
973.914
1367.53
146.201
4525.59
146.201
1115.04
146.201
612.077
159.856
567.854
146.836
146.201
146.201
146.201
146.329
486.721
146.201
591.291
146.202
151.25
146.201
146.201
146.201
146.201
831.207
146.201
146.201
146.201
146.201
146.201
146.201
1872.83
543.805
182.808
146.201
146.201
806.674
146.201
146.201
146.268
148.402
146.277
146.201
146.201
147.157
146.27
146.201
146.201
146.386
1239.89
146.328
146.201
1448.53
146.207
146.201
146.201
146.201
146.201
146.201
146.201
146.201
146.201
146.201
146.201
146.202
146.201
146.201
146.201
146.201
146.201
146.201
146.201
146.201
146.201
146.201
146.201
146.258
686.601
972.853
146.201
146.201
146.201
146.201
146.248
146.201
146.201
146.204
146.201
146.201
146.201
146.202
146.201
146.201
146.201
146.201
146.201
152.409
146.201
151.509
156.502
146.265
146.201
146.201
367.076
146.201
146.201
146.201
146.201
146.201
146.201
146.201
146.203
146.201
146.201
146.485
146.388
146.201
146.201
146.201
146.201
146.201
146.201
146.201
146.201
146.254
3054.08
146.201
3123.85
146.201
146.201
2210.87
2331.39
146.201
146.23
146.268
146.201
146.201
146.201
146.201
146.201
2474.49
146.201
2578.41
146.201
146.201
146.201
1237.3
1229.02
1161.23
146.201
146.201
146.201
146.201
146.201
146.201
146.201
146.201
146.201
146.201
1141.54
146.201
146.201
146.201
146.201
146.201
146.201
146.201
146.313
177.905
146.226
146.201
146.201
146.201
146.201
146.204
146.201
146.201
146.201
305.393
146.201
146.201
146.201
486.077
146.201
146.223
146.201
146.201
146.229
146.201
146.262
1411.28
146.205
146.182
146.201
146.213
146.205
146.201
146.201
146.201
146.201
146.212
146.201
146.201
146.204
146.323
1537.93
148.09
146.201
146.201
146.321
146.202