/*--------------------------------*- C++ -*----------------------------------*\
| =========                 |                                                 |
| \\      /  F ield         | OpenFOAM: The Open Source CFD Toolbox           |
|  \\    /   O peration     | Version:  v2012                                 |
|   \\  /    A nd           | Website:  www.openfoam.com                      |
|    \\/     M anipulation  |                                                 |
\*---------------------------------------------------------------------------*/
FoamFile
{
    version     2.0;
    format      ascii;
    class       volScalarField;
    location    "3";
    object      ILambda_7_0;
}
// * * * * * * * * * * * * * * * * * * * * * * * * * * * * * * * * * * * * * //

dimensions      [1 0 -3 0 0 0 0];


internalField   nonuniform List<scalar> 
108993
(
146.201
146.201
146.201
146.201
146.201
146.201
146.202
146.201
146.201
146.198
146.201
146.201
146.201
146.201
146.201
146.2
146.186
146.201
146.201
146.202
146.201
146.201
146.201
146.201
146.201
146.201
146.201
146.202
146.201
146.201
146.201
146.201
146.201
146.2
146.201
146.201
146.201
146.201
611.673
1808.09
146.201
146.201
146.201
146.201
146.358
740.664
146.201
146.202
146.201
146.201
146.201
146.311
146.201
146.201
146.2
146.201
146.201
146.201
146.201
146.201
146.201
146.201
146.201
146.201
146.201
146.201
146.201
146.201
146.201
298.967
146.201
146.201
146.201
146.201
146.201
146.201
146.201
146.196
146.201
146.201
146.201
146.201
146.201
146.201
146.201
146.201
146.201
146.201
146.201
146.201
146.201
146.201
146.201
146.201
146.201
146.201
146.201
146.201
146.201
146.201
146.201
146.201
146.201
146.201
146.201
146.201
146.201
146.201
146.201
190.546
146.5
146.201
146.265
146.426
146.201
146.639
146.201
146.201
146.219
146.201
146.201
146.201
146.227
146.201
146.201
146.211
146.201
146.201
146.201
146.201
146.201
146.201
146.201
146.594
146.201
146.201
146.201
146.201
146.201
146.201
146.201
146.201
146.631
146.201
146.201
146.201
146.201
146.44
146.201
147.04
147.136
146.201
146.201
147.102
146.201
146.204
146.201
146.201
146.201
152.76
147.098
146.201
146.201
146.201
146.201
146.238
146.201
146.201
146.201
146.201
146.201
146.201
146.378
146.201
146.201
146.201
146.205
146.201
146.201
146.201
146.201
146.201
146.201
146.201
146.201
146.201
146.201
146.201
146.201
146.201
146.201
146.201
146.201
146.203
146.201
146.201
146.201
146.201
146.201
146.201
146.201
146.204
146.201
146.201
146.204
146.471
146.201
146.319
146.201
102.323
146.493
146.201
146.205
146.299
10383.4
146.201
146.201
146.201
146.201
146.201
146.201
146.942
146.201
146.203
146.201
146.201
146.201
146.201
146.65
146.201
334.012
146.201
146.201
146.201
146.201
146.201
146.201
146.201
146.312
146.201
146.201
146.201
146.201
146.201
146.201
146.2
146.29
146.248
146.201
146.201
146.201
146.201
146.201
146.201
146.201
146.201
146.201
146.201
146.201
146.201
146.201
146.201
146.218
146.227
146.201
146.201
146.201
146.201
146.201
146.201
146.201
146.201
146.226
161.753
146.336
146.201
146.201
146.216
146.201
146.201
146.201
5816.15
5412.43
146.201
146.201
146.203
146.201
146.201
146.201
146.306
146.201
146.201
146.201
146.201
146.201
146.201
146.201
146.201
146.269
146.201
146.284
146.757
146.201
146.201
146.201
146.201
146.201
146.201
146.201
146.225
146.201
146.201
146.208
146.201
146.201
146.627
146.201
146.208
208.5
146.201
146.202
146.201
146.202
146.201
146.201
148.289
147.439
146.477
146.201
146.201
146.201
146.349
147.731
146.201
146.487
146.201
146.201
146.201
146.201
146.201
146.201
146.339
146.202
146.201
146.201
146.201
146.201
146.201
146.201
146.201
146.201
146.201
5364.81
146.255
146.201
146.201
146.201
147.585
146.201
146.201
146.201
146.202
146.201
146.201
146.201
146.202
146.201
146.201
146.201
2482.04
146.201
146.201
146.201
147.555
146.202
146.618
146.201
146.201
146.578
146.201
146.5
146.571
146.202
146.201
146.201
146.203
146.202
670.709
146.201
146.321
146.526
146.205
146.514
146.201
146.246
146.201
353.668
146.201
146.288
146.201
146.201
146.217
146.219
146.201
146.201
146.206
146.203
146.201
146.201
178.585
146.201
146.201
1227.26
146.201
146.201
146.201
147.007
174.601
146.276
146.201
165.847
146.201
145.801
146.201
146.201
147.071
146.201
146.295
147.476
146.201
455.418
428.586
214.931
146.201
146.201
146.199
146.201
146.201
146.201
146.201
146.201
146.201
146.201
146.201
541.119
146.202
146.202
146.417
146.201
146.201
146.201
146.201
146.201
146.201
146.201
146.201
146.201
146.201
146.201
146.201
146.217
146.201
146.218
146.798
146.579
146.201
146.201
146.218
146.201
146.201
153.171
146.201
146.201
146.202
146.201
146.247
146.201
146.259
146.409
146.315
146.201
146.201
146.201
146.201
146.201
146.201
146.201
146.201
146.481
146.201
146.201
146.201
146.27
146.201
146.381
146.201
146.201
146.201
146.201
146.201
146.201
146.201
146.201
146.201
146.322
146.63
146.201
146.201
1487.56
146.201
146.202
146.202
146.201
146.201
146.201
146.201
146.201
146.201
146.201
146.201
146.202
146.202
146.202
146.201
146.201
146.99
146.204
146.201
146.969
146.201
146.204
146.201
146.972
146.201
146.201
146.201
146.218
146.201
146.199
146.234
146.201
146.245
146.201
146.201
146.201
146.201
146.201
146.964
146.201
146.201
146.266
146.203
9553.83
146.201
146.201
146.201
146.201
146.201
148.689
146.201
146.201
146.201
146.201
146.202
402.473
146.251
146.201
146.201
146.201
146.201
146.201
146.201
3580.02
406.357
146.325
146.201
146.201
341.292
147.489
146.203
146.201
146.201
146.201
146.201
146.201
146.449
1140.43
397.018
146.201
146.201
146.201
146.201
146.201
146.201
161.853
146.201
146.201
146.201
146.201
146.483
146.201
146.201
143.487
146.207
146.201
146.201
161.288
146.201
146.204
146.201
146.783
146.201
146.762
146.201
146.202
146.201
146.201
146.201
146.493
146.201
146.329
146.201
146.201
146.483
146.202
146.201
146.201
146.262
3110.64
146.201
146.572
146.201
146.291
147.401
146.201
146.201
146.201
790.289
146.65
146.484
146.2
146.405
146.201
146.203
146.201
146.201
146.201
146.295
146.386
146.201
146.201
146.384
146.366
267.177
258.227
146.201
146.271
312.375
206.141
359.873
198.439
146.201
146.203
146.201
146.201
146.201
146.204
146.205
146.284
146.334
146.252
146.202
146.256
298.133
362.332
146.201
146.202
155.769
146.201
146.573
146.202
164.021
146.6
146.201
146.328
146.203
315.88
153.953
148.52
147.316
146.201
146.201
146.655
146.198
146.201
151.195
146.015
146.287
146.095
186.708
146.35
146.201
146.201
146.201
146.339
146.201
146.294
146.201
146.201
146.201
146.201
146.236
9455.37
146.201
328.97
146.201
146.41
146.496
146.201
146.547
146.201
146.201
146.214
146.201
146.201
146.202
146.202
146.503
146.316
146.201
146.41
146.201
146.201
146.201
146.201
146.201
146.223
146.201
146.201
146.202
146.201
146.201
1802.99
146.436
146.201
146.201
146.201
146.201
146.201
146.206
146.201
146.201
146.201
146.201
146.201
146.202
146.201
146.201
146.413
146.201
146.201
146.201
146.201
146.201
146.343
146.201
146.202
146.239
146.201
146.201
146.201
146.222
146.201
146.289
146.397
146.201
146.201
482.851
146.235
146.201
146.201
146.397
146.201
146.201
146.201
146.201
146.202
146.201
146.201
146.274
146.201
187.03
146.201
146.201
1171.94
146.204
150.389
146.202
146.979
146.201
146.202
146.234
146.201
146.201
146.206
146.201
146.201
146.201
146.201
146.201
146.201
146.201
146.201
146.417
146.201
146.933
146.201
146.201
259.528
146.201
175.026
146.202
146.201
146.201
1059.08
146.202
146.201
146.212
146.233
146.202
146.204
146.298
146.336
146.201
146.97
146.201
146.201
146.279
1330.5
146.201
146.201
146.201
146.203
146.201
146.201
149.543
146.201
146.201
66.6044
146.201
1187.91
146.201
187.411
146.201
146.202
146.207
146.261
146.215
146.201
146.213
146.215
263.529
146.201
1826.17
146.201
146.201
146.201
146.616
146.203
146.237
146.201
146.201
146.251
1761.57
146.201
146.212
146.535
146.226
146.201
146.239
366.774
1818.77
146.202
146.972
146.202
147.4
146.201
147.73
171.073
231.966
146.201
146.201
146.204
146.312
146.354
146.201
146.201
146.416
146.424
146.201
146.911
146.202
146.201
147.267
146.201
146.201
146.033
207.557
146.201
146.202
146.201
146.201
146.241
146.235
147.348
146.201
147.372
146.208
146.25
146.201
146.201
146.204
146.205
146.203
146.201
146.201
146.201
146.245
146.201
146.201
146.274
146.201
146.819
146.412
146.203
146.224
146.201
146.527
146.201
721.219
146.202
146.201
146.201
146.404
146.248
146.201
146.174
148.031
146.278
146.39
146.201
146.207
146.344
146.658
146.201
146.578
146.329
146.217
146.163
146.213
146.201
146.604
147.026
146.271
146.249
146.273
146.201
146.536
146.201
146.201
146.279
146.611
146.179
146.201
146.202
146.489
146.201
146.201
146.201
146.511
146.201
146.201
146.201
146.202
146.201
146.201
146.201
146.987
146.201
146.201
146.201
146.201
264.873
146.201
146.201
146.203
146.201
146.202
1410.61
161.607
146.201
146.201
146.201
146.632
146.784
146.231
146.201
146.201
146.271
146.201
146.204
147.059
146.213
146.201
146.201
146.201
146.201
146.201
146.201
146.201
146.201
146.201
146.201
146.256
146.201
146.201
146.201
146.201
146.201
146.37
146.202
146.202
146.201
146.201
146.201
146.205
146.201
146.201
146.201
746.064
146.201
146.202
146.201
146.203
146.201
146.201
5530.17
146.477
146.417
146.202
1319.93
146.228
146.453
146.202
4748.5
146.201
146.201
146.201
146.331
146.209
1859.33
146.913
146.202
146.201
146.201
146.229
146.201
146.219
146.369
146.209
146.194
147.19
146.496
146.515
146.201
146.201
146.201
146.201
146.201
146.201
146.201
147.611
146.201
1128.61
146.2
146.201
146.201
146.732
147.039
146.201
146.2
146.201
146.204
146.201
146.202
147.874
146.248
146.201
146.273
146.201
146.201
146.201
146.201
146.201
146.201
10587.6
146.305
146.201
146.201
146.201
146.201
146.201
146.201
146.201
146.201
146.201
146.201
146.201
146.201
146.201
146.201
146.201
146.201
146.201
146.201
146.201
381.602
146.742
146.576
146.619
146.201
146.201
146.201
146.201
146.199
146.201
146.202
146.201
146.201
146.448
146.201
146.201
146.201
146.202
146.201
146.201
195.647
147.218
146.201
146.201
146.201
146.201
146.201
146.201
146.391
146.201
146.201
146.201
146.201
146.201
146.207
146.202
146.201
146.386
146.201
146.201
146.201
146.65
146.202
146.202
146.201
146.201
147.052
146.201
146.361
146.204
146.207
146.205
147.335
146.203
146.201
146.228
146.201
145.904
146.212
146.203
146.201
146.201
146.201
146.201
146.201
146.201
146.587
774.189
146.219
146.201
146.201
146.226
146.201
146.201
146.201
146.201
146.201
148.685
148.063
146.25
146.201
146.484
146.201
162.144
146.295
146.201
146.201
147.22
146.201
146.235
146.202
146.207
146.542
146.201
146.201
146.204
146.201
146.201
2335.9
146.201
146.201
146.201
146.43
146.201
146.201
146.202
146.201
146.312
146.332
146.201
146.201
146.201
146.21
146.201
146.201
146.201
146.201
146.201
146.472
146.3
146.201
146.445
146.201
146.201
146.201
146.202
147.649
146.201
146.819
146.548
183.951
260.049
146.201
146.201
146.26
146.201
146.252
146.258
146.252
146.321
146.259
146.201
146.257
146.253
146.203
146.204
146.201
146.554
146.201
146.201
146.201
146.202
146.201
146.201
146.201
146.707
146.201
146.201
146.201
146.201
146.201
146.201
146.201
146.213
155.421
146.201
146.941
146.202
146.201
146.201
146.201
146.506
146.201
146.201
146.218
146.201
146.201
146.201
146.201
146.201
146.84
146.201
146.262
146.201
146.562
146.498
146.201
146.201
146.204
146.201
146.201
146.201
146.201
146.201
146.203
146.205
146.201
146.608
146.201
146.396
146.272
146.201
146.22
146.201
146.203
146.205
146.201
146.201
146.258
146.223
146.488
146.202
302.428
146.335
146.201
146.201
146.201
146.201
146.201
146.201
146.974
146.201
146.201
146.202
146.176
146.205
146.201
146.201
1853.21
1505.78
146.16
146.201
146.386
146.201
146.201
146.203
146.201
146.206
146.201
146.201
146.201
146.175
1969.01
146.409
146.195
146.382
146.208
146.201
146.412
148.168
146.201
146.201
146.192
146.221
146.303
146.201
146.192
146.71
146.273
146.256
146.193
146.188
146.303
146.197
146.201
146.283
146.197
146.201
146.196
146.201
232.624
146.201
146.201
147.261
146.197
150.429
146.196
146.416
146.197
146.21
146.325
146.189
146.21
5574.28
146.197
146.201
147.084
146.201
146.201
146.201
146.961
146.739
146.201
146.227
146.201
160.38
146.981
146.807
146.453
2268.87
146.201
150.166
146.201
146.201
146.201
146.201
146.201
146.201
146.201
146.201
146.224
148.066
146.267
146.206
146.201
146.201
146.201
146.201
146.201
146.201
552.231
323.022
146.201
146.201
146.201
146.558
146.201
146.201
146.312
146.201
146.201
146.201
146.201
2143.15
146.231
146.263
148.374
146.201
146.201
148.045
146.201
146.201
146.201
146.328
146.675
146.211
341.81
146.201
146.201
18090.9
146.201
146.201
146.201
146.201
146.201
146.201
146.201
146.201
146.201
209.044
146.601
146.201
146.278
146.431
146.201
146.322
146.201
146.201
146.201
146.201
146.201
146.201
146.201
146.201
146.316
148.131
146.58
146.277
146.201
146.201
862.568
148.059
146.201
146.223
146.201
146.201
146.229
146.286
734.314
146.224
146.201
3125.82
869.486
146.505
146.201
146.226
146.236
146.226
146.572
146.205
1185.4
146.221
146.202
146.222
146.218
146.229
146.209
146.239
146.208
146.202
146.395
418.838
1053.34
146.201
146.201
11465.1
146.201
146.201
147.159
146.201
149.599
146.208
146.201
146.201
146.201
146.201
146.206
146.261
148.137
146.217
150.388
146.201
146.503
146.207
146.202
146.201
146.201
146.201
146.201
146.201
146.201
146.229
146.201
146.201
146.202
146.642
146.205
149.733
7553.55
146.671
146.201
146.373
146.201
146.201
146.202
146.201
146.201
146.201
146.238
146.526
146.474
149.282
1603.02
146.78
146.201
172.42
146.49
146.202
1365.14
146.201
146.203
146.201
146.684
146.201
146.267
146.201
146.201
146.201
146.201
147.632
146.201
172.212
146.201
255.285
146.578
146.201
146.201
656.886
146.589
146.268
146.411
146.201
147.305
9273.11
146.201
146.201
146.257
146.305
149.083
146.201
149.636
147.431
146.34
158.564
299.805
146.221
158.774
146.201
12397.2
325.844
146.477
177.895
146.201
146.241
427.042
146.201
181.534
146.527
146.291
146.201
146.201
146.463
146.202
146.201
146.201
146.201
146.201
146.201
146.202
146.201
1475.58
452.93
146.221
166.21
146.202
146.201
146.262
146.663
146.565
146.205
146.324
146.298
148.335
8900.96
146.415
146.201
353.794
146.201
146.201
146.201
51.0886
146.201
161.787
146.299
146.701
146.931
1689.85
146.201
146.282
146.201
146.201
146.201
146.201
146.201
146.201
146.24
146.727
149.178
12297.4
146.237
1417.77
146.203
150.067
146.201
146.713
147.889
148.944
146.201
146.201
146.201
146.201
146.201
146.201
146.72
195.51
146.203
873.191
146.228
146.482
394.722
998.894
10138.8
325.614
146.201
148.16
146.279
146.201
146.201
146.867
146.61
146.201
146.201
146.201
146.202
146.201
147.588
147.522
147.38
147.14
146.201
149.474
146.54
146.201
146.327
146.201
146.147
253.639
146.114
146.138
164.829
146.202
146.201
146.156
146.201
146.201
146.201
146.24
146.201
146.201
146.699
146.36
146.296
146.202
146.201
146.201
146.201
146.201
146.201
146.418
146.353
146.201
146.201
2000.63
146.201
146.201
146.201
146.201
146.298
146.318
1325.02
146.428
146.963
146.201
146.291
146.201
146.224
146.246
146.201
146.231
146.201
146.201
146.406
146.201
146.201
146.284
146.235
146.286
146.311
146.201
146.252
146.227
146.312
146.201
146.793
146.239
146.278
146.248
1571.98
146.201
146.198
146.233
146.591
146.229
146.56
146.323
146.291
146.201
146.201
11589
146.269
146.244
146.537
146.222
146.944
1447.93
146.201
146.275
146.201
146.288
146.201
146.352
146.63
146.201
146.703
146.201
146.261
146.28
146.201
146.201
146.244
146.201
146.201
146.201
146.201
146.24
146.201
146.303
5093.78
146.201
146.201
590.529
146.201
146.201
146.218
146.201
146.201
146.201
146.201
146.276
146.271
247.334
146.201
146.201
146.304
146.201
175.501
220.038
146.201
146.201
146.201
146.201
146.346
146.201
146.201
146.201
146.201
146.201
251.234
187.069
146.202
146.201
285.314
146.201
146.71
146.201
146.247
146.201
147.602
146.318
146.201
146.201
146.201
146.972
146.351
146.201
146.217
146.168
146.201
146.507
146.202
146.201
146.201
146.201
146.508
146.201
146.201
146.201
146.201
146.201
146.267
412.889
146.201
146.201
146.708
146.201
146.186
146.2
146.201
1984.39
189.215
146.203
146.202
146.201
147.003
146.659
146.201
147.456
146.201
221.993
146.368
146.201
514.476
146.262
1443.8
1331.45
146.764
146.201
146.201
146.201
157.009
146.937
146.706
171.45
146.201
151.903
146.201
146.275
146.31
146.302
146.201
147.005
146.213
146.201
601.672
146.201
146.201
146.201
146.333
146.276
146.274
146.201
146.201
146.201
1421.47
146.201
805.545
146.201
146.201
891.177
147.599
146.201
146.201
2017.79
146.201
146.201
146.201
146.828
147.001
146.429
146.201
3001.41
666.534
146.939
147.648
146.202
149.486
146.201
146.349
1449.74
2050.71
149.623
149.974
147.916
149.406
146.201
23792.7
146.346
147.989
146.201
148.558
220.275
146.201
146.231
149.348
146.201
403.624
146.201
204.595
146.359
146.572
146.304
146.297
146.201
146.201
146.201
146.201
10299.5
146.201
146.315
193.221
146.201
146.201
146.201
146.201
146.201
146.201
146.203
146.201
146.443
146.201
318.44
146.201
146.204
146.201
146.207
146.206
146.201
146.201
146.201
146.201
146.052
751.548
1262.97
195.131
146.203
146.202
146.201
146.201
146.202
146.236
146.201
146.201
146.964
146.72
853.473
146.201
146.202
146.201
146.262
146.78
146.201
146.202
146.204
146.641
705.5
146.205
148.431
146.202
146.036
147.325
148.374
146.201
146.212
146.206
146.201
146.213
146.202
146.202
146.244
146.202
146.201
146.201
146.206
147.305
146.201
147.673
146.201
146.241
146.201
146.201
146.248
159.271
146.329
146.201
146.201
146.201
289.939
192.063
146.201
149.577
154.521
146.201
146.226
146.594
171.68
189.967
146.201
146.202
146.206
146.201
481.153
146.199
146.201
146.201
146.201
146.201
146.201
146.201
146.201
146.201
146.224
146.201
146.201
146.393
146.201
146.228
146.302
146.201
146.201
146.251
146.257
146.201
146.215
146.201
146.201
146.212
146.201
146.201
147.034
146.201
146.201
146.201
146.201
146.201
146.201
146.513
146.493
218.299
146.912
149.653
146.423
146.754
146.208
146.201
155.871
146.213
146.2
146.456
146.206
150.369
146.201
146.207
146.202
146.241
146.221
146.215
146.222
146.201
146.217
146.254
146.201
146.928
146.201
153.305
146.215
146.416
146.246
146.212
146.219
146.261
146.226
146.216
146.197
146.201
146.986
146.207
146.201
146.201
146.201
146.211
146.201
146.222
146.62
146.201
146.201
146.201
146.201
146.225
146.201
146.225
146.201
146.201
146.204
146.201
146.23
146.201
146.201
146.201
146.201
146.208
146.201
146.201
146.201
146.209
146.201
146.201
146.528
146.2
146.239
179.556
146.201
146.202
146.205
146.201
146.201
146.201
146.201
146.201
146.426
146.428
146.225
146.201
146.201
146.201
146.297
146.4
146.201
146.201
147.23
146.201
146.201
146.445
146.201
150.149
199.496
146.201
146.201
147.084
959.355
228.168
146.201
146.201
146.201
146.201
146.266
146.201
146.201
146.201
146.201
146.244
146.201
146.201
146.201
1828.08
420.201
146.709
1826.62
146.237
146.2
146.202
146.205
146.204
146.201
147.487
146.211
146.201
146.204
1823.41
146.201
146.201
1852.46
146.528
1876.68
146.201
146.226
146.201
146.201
151.865
146.201
152.089
146.203
146.201
154.965
146.198
146.201
146.209
160.363
146.201
146.403
148.593
146.202
146.215
160.745
146.217
146.201
146.201
146.218
146.616
146.217
865.347
146.201
146.201
146.472
146.202
146.431
146.276
146.201
146.201
146.201
146.382
146.201
146.201
146.201
146.201
146.456
146.201
146.268
883.594
146.201
146.238
146.46
801.728
146.201
146.212
1006.53
146.201
146.229
146.373
146.261
146.201
146.356
146.201
146.201
146.201
146.201
565.54
147.699
147.53
964.223
146.278
146.201
146.196
148.361
146.201
146.201
146.201
228.811
146.202
243.018
146.201
146.514
904.922
149.736
146.202
568.985
231.183
146.202
147.618
146.915
146.518
463.32
146.759
146.211
146.208
146.206
230.278
473.024
147.59
146.203
454.945
146.65
146.201
146.204
500.381
146.222
146.202
146.552
991.164
146.207
146.201
9032.36
146.201
146.201
187.062
146.201
8684.57
146.201
147.721
301.611
1189.54
146.201
146.201
146.201
10012.4
146.203
147.557
146.201
10223.7
8621.11
146.232
146.201
148.238
146.208
506.462
463.722
615.901
146.201
146.32
146.201
146.206
146.201
146.201
146.201
146.201
146.202
146.201
146.201
15392.6
146.201
146.208
146.201
146.234
146.621
146.202
146.252
146.201
146.201
146.21
146.2
146.201
146.201
146.201
146.201
146.412
146.194
9759.85
146.201
146.203
146.265
344.294
146.201
146.213
146.218
146.201
146.201
10207.9
146.201
146.201
146.201
146.201
146.201
146.208
146.201
146.201
146.201
146.201
146.767
320.92
146.201
146.603
146.201
146.261
146.605
146.201
146.201
147.606
146.201
146.204
146.201
146.21
146.202
146.201
146.201
455.39
294.347
146.201
313.478
146.201
146.201
146.205
146.237
146.201
146.202
147.053
146.202
146.201
146.221
146.204
501.781
146.545
146.202
146.202
146.203
293.827
146.201
146.201
146.201
146.201
146.201
146.201
146.201
147.861
146.204
146.201
146.202
282.352
201.679
146.201
146.32
338.98
146.201
146.456
22347.9
146.201
148.268
146.591
146.202
146.202
146.202
146.27
146.442
146.203
146.203
146.202
146.201
146.205
146.204
164.708
146.227
146.201
146.201
146.201
251.163
146.205
146.201
146.201
152.407
267.277
146.201
146.201
146.201
146.202
146.254
1294.95
146.201
146.23
146.919
290.476
146.201
146.201
2366
146.201
146.201
146.201
146.201
146.203
146.203
146.201
146.201
146.201
146.201
146.201
146.201
151.175
146.275
146.201
146.216
146.201
146.201
146.201
148.066
146.227
1016.61
146.201
146.201
146.201
146.203
176.456
146.203
152.233
146.201
146.201
146.202
1529.37
1260.47
149.654
146.201
155.147
155.814
295.01
154.304
149.133
146.202
146.889
146.269
146.201
146.201
146.201
146.2
146.201
146.201
244.731
184.164
146.623
146.228
146.994
146.201
238.898
262.066
146.489
147.809
162.488
150.845
156.776
174.399
146.201
165.847
146.517
146.202
146.201
436.402
146.201
146.201
194.309
967.877
146.201
146.201
146.201
146.202
146.201
146.201
146.201
161.875
2455.44
146.201
146.201
146.154
147.088
567.545
146.201
146.201
146.201
149.048
146.201
146.202
146.205
146.201
146.202
146.201
146.201
146.655
153.034
146.201
146.201
146.201
146.201
146.202
149.496
146.201
146.202
146.201
146.201
146.212
146.201
146.201
146.201
146.201
146.201
146.201
146.186
146.201
146.201
146.245
146.201
148.604
146.187
146.201
146.201
146.201
146.201
146.185
463.918
148.546
146.307
148.726
146.204
156.951
233.529
148.589
148.572
187.699
146.245
146.201
146.176
146.201
146.201
146.201
146.201
146.203
149.592
146.201
331.703
146.201
146.201
146.174
146.201
146.201
146.201
146.202
394.825
146.204
146.201
146.201
146.201
146.404
146.201
146.201
685.181
146.167
718.153
146.201
146.201
146.202
474.425
706.233
501.633
482.91
1582.27
146.558
2026.56
146.233
500.81
146.201
146.202
146.201
146.201
150.761
146.44
149.476
146.231
146.513
146.366
146.201
146.43
146.918
146.201
146.201
146.201
146.936
146.35
146.268
146.201
146.962
166.302
146.242
1034.54
146.383
146.99
228.205
146.201
146.95
395.963
146.279
146.201
146.202
146.524
146.201
146.201
193.56
146.201
146.201
148.924
146.203
313.395
148.273
146.203
146.202
146.31
146.303
192.63
146.311
146.495
146.327
146.201
146.201
146.325
148.075
146.3
146.307
146.176
146.275
146.783
194.416
3569.55
146.201
146.201
146.234
146.201
3918.51
146.201
146.201
146.201
146.235
146.201
347.626
146.201
146.201
146.235
146.232
146.235
146.58
146.201
146.606
3631.26
242.748
146.201
146.239
8459.04
146.656
3151.61
146.2
146.324
146.201
146.201
146.201
146.201
146.201
146.202
146.201
2845.48
146.201
146.202
146.201
146.201
146.201
146.201
146.201
146.356
146.25
146.201
146.201
146.83
146.202
3787.55
146.226
146.201
146.33
146.199
146.201
146.201
3321.47
146.203
146.201
159.207
146.201
146.201
146.201
146.203
146.201
146.201
146.201
146.201
146.201
146.201
146.198
146.216
146.201
146.202
146.201
146.269
146.201
146.201
146.201
146.711
146.201
146.201
146.201
146.201
146.227
146.201
146.201
146.201
146.201
146.201
149.396
146.201
146.201
146.201
146.201
146.201
146.284
146.201
146.201
146.201
146.207
146.201
146.201
146.201
146.201
146.201
146.201
146.201
146.209
146.201
146.201
146.201
146.201
146.201
146.201
156.398
146.212
146.2
146.201
146.201
146.213
146.201
146.203
146.317
146.563
146.217
146.201
146.201
146.201
146.202
146.337
146.201
146.201
146.345
146.201
146.201
146.201
146.201
146.201
146.201
259.196
146.201
146.201
146.201
146.369
146.365
146.387
146.205
147.069
1396.71
146.202
146.201
146.201
146.381
146.201
146.201
146.201
146.201
147.523
146.201
146.201
146.201
146.209
146.203
146.228
146.277
146.201
146.742
148.482
146.201
171.061
146.201
146.201
146.201
146.201
146.201
146.201
146.201
410.235
162.42
232.658
147.033
156.367
146.203
146.201
146.201
146.201
146.206
146.201
146.201
146.201
146.201
149.087
146.203
160.415
504.501
146.201
146.219
146.25
146.247
146.202
146.201
146.219
146.201
146.201
146.201
146.256
150.658
147.025
146.201
146.249
146.201
146.201
146.201
146.201
146.201
150.073
146.33
146.201
146.201
147.34
146.207
146.201
148.222
146.201
146.201
498.531
146.201
146.201
146.201
146.28
146.202
146.201
146.202
146.201
146.203
146.201
1618.9
146.201
146.241
146.202
146.202
146.231
146.201
146.201
146.201
510.381
146.201
146.516
148.76
146.252
146.201
146.402
146.315
146.201
146.201
224.995
146.435
146.201
146.396
147.052
146.203
146.202
146.201
146.391
146.201
146.201
146.201
146.203
148
146.203
159.993
146.201
146.566
146.203
146.201
146.32
146.203
146.202
146.201
146.201
146.204
245.812
146.324
824.015
146.311
146.232
146.323
146.201
146.201
146.201
146.245
1009
203.47
146.211
146.202
409.263
146.31
288.023
458.832
146.201
1583.45
981.326
146.317
146.201
146.503
527.266
785.444
1530.96
146.261
146.233
345.611
146.203
372.034
146.203
256.956
146.204
149.076
340.715
146.201
146.203
146.415
821.327
146.202
158.391
146.201
146.201
393.035
146.201
146.201
146.201
146.201
146.212
146.201
5713.79
169.652
146.201
146.201
339.358
146.203
1695.46
1106.29
205.507
146.203
146.201
146.201
146.269
146.201
146.201
146.201
146.202
146.202
338.044
146.201
146.201
147.586
356.966
146.201
146.201
1015.18
146.201
146.202
281.354
146.201
146.201
146.201
146.238
13186.5
146.304
146.201
146.203
146.201
146.288
191.592
146.219
5961.21
146.201
146.201
146.201
146.201
146.201
147.286
146.232
146.201
187.968
146.201
146.201
146.231
146.201
146.205
146.201
146.251
550.593
146.201
146.201
146.881
148.132
146.201
146.21
12808.4
146.201
146.201
146.203
146.201
146.201
146.201
146.201
146.201
146.202
146.201
146.202
147.069
146.201
146.235
8928.03
146.398
147.067
146.201
146.25
146.203
146.201
147.053
147.164
153.758
147.006
142.583
148.471
146.201
146.24
168.187
146.805
147.241
146.815
146.203
147.141
146.201
146.201
146.201
196.727
146.551
146.202
146.956
146.201
146.201
146.201
173.001
717.721
146.201
147.274
147.127
147.155
147.351
147.695
146.201
146.201
147.825
146.202
146.201
146.201
146.201
146.201
146.202
146.201
148.338
146.264
149.269
146.374
146.204
146.254
146.201
146.201
146.201
147.751
146.201
146.201
146.201
148.465
146.201
1065.2
147.593
146.678
146.395
146.267
146.202
147.692
146.201
146.201
146.205
754.011
146.784
146.201
146.201
146.201
459.038
146.201
148.131
832.74
146.729
147.21
146.201
146.201
147.902
500.633
146.202
147.455
146.221
146.273
146.201
147.729
146.202
148.622
146.201
146.201
146.217
146.249
146.201
146.201
146.244
146.497
146.847
146.202
146.201
146.312
147.043
146.201
146.201
146.201
1353.22
148.838
2765.21
146.517
146.201
146.559
146.586
146.201
146.201
146.202
146.201
146.201
146.201
1826.43
146.201
146.202
146.201
146.688
146.201
146.201
146.201
146.201
146.365
146.321
146.201
146.646
146.202
146.201
146.201
146.201
146.201
146.586
147.063
146.201
146.201
146.584
146.203
146.203
146.201
146.201
146.201
146.597
146.202
146.206
146.201
146.201
146.201
146.586
146.201
146.201
146.724
146.201
146.201
146.201
146.201
169.21
146.201
146.272
146.202
146.22
146.201
146.201
146.201
146.201
146.201
146.202
146.202
146.602
544.746
146.201
146.201
146.202
146.201
146.203
146.201
146.201
146.201
146.204
146.203
146.204
146.201
146.629
1910.32
146.544
146.203
147.382
146.201
146.203
1033.19
146.203
858.185
146.202
146.35
146.201
146.201
146.201
146.201
146.204
146.201
170.368
147.814
146.201
146.201
146.201
146.202
146.201
146.203
146.201
146.201
146.201
146.69
168.119
146.67
146.203
146.201
176.729
192.822
146.78
146.203
146.202
146.201
146.205
146.201
146.218
146.21
146.201
193.813
146.257
148.556
178.675
147.163
321.169
146.201
189.485
146.201
146.97
146.201
147.264
146.316
147.101
146.668
146.201
146.201
146.201
146.303
1082.4
146.201
146.898
146.202
159.99
146.201
146.201
146.201
146.201
146.706
146.201
146.201
146.201
146.201
146.202
146.201
146.933
149.378
146.29
146.201
146.201
147.025
146.201
146.201
389.465
159.04
416.292
146.201
146.201
146.506
339.825
146.201
146.201
146.353
146.618
146.278
146.201
146.793
146.205
146.201
146.204
146.201
146.201
146.201
146.201
146.201
146.201
146.201
146.201
146.201
146.201
146.201
146.201
146.201
146.201
146.201
146.201
146.201
146.201
146.201
146.201
146.413
146.89
146.468
146.201
146.201
146.201
146.201
146.237
146.201
146.201
146.201
146.201
146.201
146.201
146.202
146.201
146.201
146.201
146.201
146.201
146.472
146.201
146.532
146.977
146.269
146.201
146.201
147.024
146.201
146.201
146.201
146.201
146.201
146.201
146.201
146.201
146.201
146.201
146.429
146.3
146.201
146.201
146.201
146.201
146.201
146.201
146.201
146.201
146.262
150.765
146.201
150.518
146.201
146.201
150.721
149.411
146.201
146.215
146.248
146.201
146.201
146.201
146.201
146.201
150.64
146.201
149.574
146.201
146.201
146.201
146.493
146.597
146.394
146.201
146.201
146.201
146.201
146.201
146.201
146.201
146.201
146.201
146.201
146.698
146.201
146.201
146.201
146.201
146.201
146.201
146.201
146.237
147.718
146.228
146.201
146.201
146.201
146.201
146.201
146.201
146.201
146.201
147.498
146.204
146.201
146.201
146.518
146.201
146.246
146.201
146.201
146.256
146.201
146.281
983.127
146.343
146.202
146.201
146.219
146.262
146.201
146.201
146.201
146.201
146.215
146.201
146.201
146.231
146.263
147.981
147.245
146.201
146.201