/*--------------------------------*- C++ -*----------------------------------*\
| =========                 |                                                 |
| \\      /  F ield         | OpenFOAM: The Open Source CFD Toolbox           |
|  \\    /   O peration     | Version:  v2012                                 |
|   \\  /    A nd           | Website:  www.openfoam.com                      |
|    \\/     M anipulation  |                                                 |
\*---------------------------------------------------------------------------*/
FoamFile
{
    version     2.0;
    format      ascii;
    class       volScalarField;
    location    "3";
    object      ILambda_13_0;
}
// * * * * * * * * * * * * * * * * * * * * * * * * * * * * * * * * * * * * * //

dimensions      [1 0 -3 0 0 0 0];


internalField   nonuniform List<scalar> 
108993
(
146.206
146.202
146.201
146.201
146.201
146.201
146.202
146.201
146.2
146.225
146.188
146.179
146.201
146.201
146.202
146.243
146.23
146.204
146.201
146.201
146.201
146.2
146.203
146.201
146.201
146.203
146.201
146.201
146.202
146.201
146.201
146.202
146.201
146.247
146.201
146.201
146.201
146.211
5930.7
1133.56
146.201
146.212
146.201
146.201
146.235
1012.76
146.201
146.202
146.203
146.201
146.198
146.49
146.202
146.199
146.204
146.211
146.2
146.201
146.201
146.201
146.201
146.201
146.201
146.201
146.201
146.203
146.201
146.201
146.21
146.296
146.202
146.201
146.204
146.201
146.202
146.2
146.201
146.217
146.198
146.201
146.201
146.237
146.197
146.084
146.205
146.204
145.991
146.207
146.201
146.201
146.201
146.2
146.201
146.201
146.201
146.213
146.2
146.262
146.2
146.196
146.201
146.201
146.21
146.22
146.209
146.201
146.201
146.201
146.197
677.501
146.311
146.201
146.455
146.53
146.374
146.797
146.201
146.409
146.296
146.2
146.206
146.201
516.475
145.932
146.205
146.244
146.201
146.224
146.201
146.201
146.243
146.201
146.203
146.538
146.254
146.185
146.201
146.219
146.201
146.201
145.902
146.195
146.213
146.201
146.201
146.206
146.213
182.658
145.898
165.683
165.343
146.203
146.203
188.191
146.201
146.276
146.256
146.2
146.2
146.245
165.317
146.2
146.201
146.202
146.202
146.494
146.201
146.201
146.201
146.414
146.2
146.214
146.308
145.973
146.202
146.202
146.324
146.201
146.351
146.206
146.26
146.199
146.199
145.926
146.204
146.224
146.199
146.223
146.223
145.933
146.19
146.198
146.191
146.302
146.327
146.581
146.201
146.256
146.214
145.916
146.201
146.337
146.201
146.201
146.243
437.674
146.201
193.367
146.233
1642.73
146.353
146.23
146.33
149.822
166.424
146.214
146.211
146.201
146.2
146.201
146.201
170.123
148.351
146.318
146.202
146.201
146.2
146.198
146.571
146.201
157.188
146.207
146.201
146.201
146.192
146.201
146.2
146.201
146.253
146.2
146.201
146.201
146.201
146.2
146.2
146.122
147.9
567.247
146.2
146.199
146.201
146.201
146.199
146.402
146.2
146.2
146.2
146.078
146.201
146.201
146.201
146.202
146.213
146.25
146.197
146.201
146.201
146.204
146.201
146.202
146.201
146.201
169.782
11445.8
170.449
146.366
146.2
301.672
146.026
146.201
146.201
152.803
164.069
146.202
146.201
146.221
146.201
146.201
146.127
185.751
146.203
146.201
146.201
146.201
146.201
146.201
146.2
146.201
146.221
146.201
824.392
187.669
146.203
146.201
146.199
146.201
146.201
146.202
146.201
174.617
146.201
146.201
146.222
146.201
146.201
181.508
146.201
146.24
1756.88
146.198
146.201
146.201
146.201
146.201
146.262
316.314
3319.54
786.322
146.199
146.545
146.203
732.517
146.638
146.201
1497.39
146.201
146.183
146.201
146.266
146.201
146.193
147.681
146.202
146.203
146.244
146.202
146.201
146.201
146.195
146.201
146.188
146.201
146.815
147.259
146.201
146.203
146.206
146.867
146.148
146.201
146.165
146.202
146.201
146.199
146.203
146.201
146.2
146.2
146.233
18209.8
146.211
146.239
146.201
200.921
146.201
606.932
146.225
146.214
536.671
146.106
815.17
551.692
146.201
146.237
146.202
146.206
146.226
2712.27
146.201
208.684
675.159
146.206
700.663
146.201
167.238
146.202
4840.05
146.19
146.25
146.199
146.202
341.576
571.642
146.201
146.202
146.207
146.205
146.224
146.224
5606.99
146.201
146.201
26322.7
146.201
146.224
146.198
513.002
146.234
146.348
146.201
5666.01
146.202
2210.36
146.201
146.201
4233.31
146.203
166.565
3128.16
146.201
3361.66
1812.66
3353.98
146.201
146.214
146.238
146.201
146.201
146.201
146.196
146.227
146.199
146.205
146.201
146.301
146.219
146.205
146.294
146.199
146.201
146.227
146.201
146.197
146.264
146.201
146.204
146.234
146.201
146.153
146.184
369.387
146.155
371.141
149.534
146.234
146.2
146.201
376.355
146.2
146.2
146.228
146.201
146.201
146.206
146.201
146.24
146.196
146.345
146.621
146.035
146.206
146.201
146.199
146.201
146.153
146.131
146.2
146.2
146.241
146.254
146.229
146.201
146.257
146.196
146.228
146.201
146.071
146.17
146.201
146.202
146.201
146.201
146.198
146.201
146.251
150.267
146.201
146.198
2298.57
146.201
146.022
146.209
146.201
146.264
146.201
146.201
146.202
146.2
146.205
146.201
146.201
146.201
146.206
146.208
146.202
146.574
146.208
146.243
146.583
146.208
146.205
146.201
146.148
146.201
146.224
146.286
146.414
146.202
146.24
149.572
146.201
147.838
146.201
146.201
146.073
146.211
146.201
146.147
146.428
146.193
762.979
146.205
157.314
146.202
146.223
146.201
146.201
146.201
148.726
146.202
146.276
146.201
146.117
146.208
146.282
1052.81
146.232
146.199
146.201
146.201
145.902
146.204
13058.6
146.28
513.005
146.203
146.236
146.284
3623.58
146.233
146.19
146.27
146.201
146.201
146.203
146.251
874.812
146.302
146.213
146.201
146.201
146.202
146.205
146.2
12684.2
146.201
146.199
146.202
146.203
146.224
146.2
146.171
14133.1
146.256
146.201
146.201
12438.6
146.201
146.22
145.986
146.666
146.027
146.2
145.975
146.202
146.18
145.949
146.201
146.857
146.194
146.567
146.194
146.232
147.335
146.202
146.201
146.201
148.746
338.185
146.215
423.249
146.202
147.742
146.729
146.188
146.201
146.202
1037.25
146.219
146.425
146.204
146.456
146.171
146.221
146.195
146.185
146.226
146.318
146.23
146.177
146.162
146.243
146.439
146.636
146.246
146.204
238.813
146.676
146.303
146.677
146.652
146.203
146.215
146.201
146.201
146.201
146.233
146.246
146.366
146.918
146.223
146.22
146.554
146.65
146.647
146.201
146.274
146.237
146.202
445.213
146.202
146.28
146.281
146.213
203.478
146.216
196.911
146.237
146.236
631.17
146.201
146.21
146.271
146.214
146.201
401.659
146.211
1219.23
146.215
1269.15
146.398
146.201
146.202
146.202
146.211
146.201
146.233
146.201
146.188
146.202
146.231
182.011
686.842
146.201
901.74
146.201
146.355
146.329
146.201
146.389
146.204
146.059
146.372
146.148
146.216
146.17
146.267
146.355
148.844
146.202
146.365
145.966
146.249
146.127
146.23
146.201
146.235
146.201
146.2
146.201
146.171
146.008
1972.54
1335.42
146.115
146.231
146.011
146.084
146.097
147.828
146.245
146.201
146.201
146.026
146.201
146.236
146.201
146.168
146.184
146.201
145.873
146.201
145.999
145.985
146.322
146.201
146.201
164.436
146.201
146.2
145.951
146.342
146.214
158.875
379.558
146.212
145.948
11926.3
923.634
146.26
146.201
146.491
146.017
146.006
146.216
146.201
146.228
146.201
146.213
146.231
146.193
2020.25
146.184
146.243
1951.21
146.222
1052.38
146.227
342.372
146.201
146.224
146.262
146.201
146.154
146.246
146.201
146.253
146.201
146.203
146.203
146.046
146.201
146.187
146.323
146.527
146.57
146.201
146.204
147.052
146.201
147.37
146.214
146.202
146.266
28753.4
146.241
146.201
147.534
146.373
146.201
146.227
203.618
151.559
146.017
146.228
146.201
146.153
146.518
1392.36
146.178
146.202
146.083
146.205
146.183
146.201
153.053
146.176
146.216
312.352
146.004
1582.47
146.385
247.951
146.002
146.213
146.219
146.626
146.457
146.209
146.219
146.221
165.369
146.207
253.634
146.201
146.201
146.189
146.38
146.227
149.752
146.201
146.202
146.249
168.122
146.092
156.866
146.27
146.224
146.201
146.425
146.842
270.936
146.264
146.447
146.209
146.661
146.201
147.115
1693.27
1165.97
146.201
146.201
159.831
146.226
146.36
146.201
146.202
146.246
379.667
146.201
146.42
146.21
146.204
146.662
146.201
146.209
147.313
1212.13
146.202
146.202
146.201
146.203
146.19
146.438
146.675
146.416
146.669
191.409
146.206
146.205
146.202
146.154
146.214
146.202
146.2
146.126
146.202
146.496
146.203
146.201
219.016
146.201
146.248
146.271
146.162
146.241
146.201
654.643
146.205
254.685
146.201
146.202
146.201
146.379
146.507
146.201
146.215
146.719
146.479
146.755
146.202
146.247
149.991
227.646
146.205
175.34
1294.34
146.234
146.214
146.228
146.202
146.525
200.235
146.515
218.732
164.535
146.236
146.198
146.201
146.205
174.243
172.739
146.215
146.2
146.204
174.195
146.201
146.209
146.197
179.546
146.202
146.201
146.196
146.204
146.015
146.299
146.205
146.548
146.248
146.183
146.223
146.201
834.714
145.94
146.202
146.204
146.201
146.205
2413.34
146.217
146.201
146.192
146.201
146.518
146.206
146.484
146.201
146.261
146.277
146.217
146.255
146.213
146.236
146.201
146.205
146.27
146.216
146.212
146.214
146.203
146.201
146.498
146.201
164.97
146.61
146.214
146.201
146.613
146.23
146.351
146.228
146.217
146.722
146.174
146.204
146.316
146.284
146.198
146.201
6277.05
146.235
146.257
146.299
182.307
146.082
146.201
146.871
146.419
146.218
146.231
1279.87
146.254
146.168
146.228
147.18
146.205
146.219
146.229
146.346
154.716
207.135
146.156
146.204
146.059
146.201
181.082
145.939
234.937
146.494
235.839
146.273
146.488
146.379
146.252
146.198
146.201
146.201
146.201
146.201
146.201
146.295
146.926
146.203
973.407
146.488
146.148
146.196
146.23
146.57
146.201
146.482
146.207
146.261
146.201
146.177
148.803
146.272
146.006
146.312
146.201
146.202
146.211
146.201
146.201
146.201
8587.59
146.283
146.201
146.226
146.201
146.245
146.212
146.201
146.204
146.202
146.206
146.193
146.556
146.586
146.222
146.317
146.201
146.201
146.242
146.203
146.708
146.297
146.524
146.53
1447.25
146.341
146.202
146.188
146.201
146.203
146.938
146.201
146.197
146.027
146.522
146.246
146.211
146.201
146.201
146.936
146.206
9698.47
971.575
146.25
146.202
146.199
146.207
146.205
146.181
146.428
146.196
146.202
146.201
146.201
146.201
146.216
146.663
146.205
146.467
146.203
146.203
146.206
345.54
146.232
146.778
146.203
146.202
154.141
146.201
146.257
146.207
146.207
146.206
955.522
146.29
146.2
242.249
146.201
299.912
234.591
146.205
146.201
146.202
146.046
146.202
146.199
146.202
150.141
1637.28
203.202
146.196
146.199
211.646
146.202
146.201
146.202
146.201
146.202
256.154
205.763
147.012
146.074
146.225
146.204
146.221
146.435
146.201
146.201
278.23
145.948
146.24
299.011
146.25
146.518
146.201
146.201
146.251
146.201
146.203
13615.9
146.056
146.202
146.206
990.209
146.513
146.201
146.208
146.201
147.496
481.793
146.199
146.234
146.285
146.241
146.209
146.253
146.201
146.232
146.201
152.685
146.25
146.205
146.728
146.209
146.201
146.198
146.233
3479.37
146.226
146.214
146.367
6366.67
146.755
146.201
146.204
146.248
146.201
146.317
146.281
146.27
146.362
146.269
146.2
146.314
146.331
146.207
146.207
146.201
146.322
146.201
146.201
146.178
146.209
146.201
146.202
146.202
146.268
146.201
146.202
146.202
146.632
146.202
146.201
146.201
146.314
152.386
146.201
146.671
146.233
146.201
146.201
146.204
146.211
146.204
146.202
146.468
146.201
146.378
146.442
146.201
146.633
529.859
146.436
146.233
146.907
146.192
146.352
146.399
146.201
146.206
146.137
146.381
146.201
146.201
146.028
146.206
146.254
146.203
225.548
146.401
146.451
258.323
146.201
207.377
146.201
146.205
146.205
146.226
146.204
153.366
575.114
146.344
146.851
1436.48
166.946
146.204
146.207
146.201
146.371
146.419
146.206
178.895
146.199
146.196
146.203
146.263
146.206
146.201
146.069
1640.29
1577.69
146.254
146.201
148.311
146.203
146.202
146.266
146.059
146.31
145.978
146.202
146.232
146.263
1510.64
146.208
146.228
230.908
146.353
146.202
146.228
147.69
146.202
146.175
146.209
146.412
146.267
146.201
146.209
146.434
225.348
169.891
146.206
146.208
1110.71
146.206
146.202
258.289
146.207
146.201
146.207
146.17
2114.33
146.201
146.21
147.747
146.212
1074.58
146.206
152.989
146.209
146.219
147.607
146.248
146.215
180.014
146.229
146.202
146.512
146.201
146.201
146.205
1329.59
146.369
146.203
325.888
146.201
277.985
1311.22
419.343
146.892
2328.97
146.201
344.094
146.205
146.201
146.201
146.201
146.201
146.2
146.201
146.201
146.896
148.456
153.412
146.209
146.201
146.202
146.201
146.201
146.201
146.182
284.643
158.697
146.202
146.201
146.201
146.484
146.203
146.201
146.556
146.195
146.201
146.201
146.204
2478.95
146.555
226.314
155.268
146.201
146.294
148.347
146.201
146.201
146.201
146.705
201.432
146.228
1396.46
146.201
146.201
24312.6
146.201
146.204
146.036
146.201
146.207
146.201
146.204
146.204
146.204
932.693
146.323
146.204
379.269
146.256
146.201
146.539
146.201
146.203
146.201
146.185
146.201
146.206
146.206
146.201
146.237
253.957
215.97
442.096
146.201
146.193
1744.69
148.459
146.201
498.126
146.201
146.201
146.233
146.589
1232.71
769.493
146.201
1911.92
1743.23
572.728
146.201
575.842
146.236
146.229
1125.04
146.209
945.861
146.227
146.201
146.229
486.83
146.236
146.243
146.384
146.253
146.206
147.236
1666
1370.55
146.201
146.197
1526.43
146.201
146.203
147.437
146.201
986.421
146.243
146.201
146.211
146.201
146.201
146.244
1033.21
151.618
167.212
1044.31
146.202
146.587
146.257
146.225
146.171
146.203
146.201
146.201
146.201
146.201
146.302
146.201
146.201
146.218
507.465
146.247
146.227
265.035
146.233
146.203
146.317
146.201
146.203
146.203
146.201
146.201
146.217
291.843
146.702
146.404
146.724
1633.62
146.208
146.203
146.34
281.782
146.239
1309.68
146.201
160.79
146.201
287.686
146.216
146.225
146.135
146.202
146.201
146.201
146.729
146.201
146.33
146.202
1024.72
319.306
146.201
146.201
318.895
503.901
147.586
941.824
146.202
147.674
1453.81
146.201
146.207
146.338
146.269
146.356
146.201
146.333
172.917
146.97
146.344
1462.43
427.027
146.327
146.201
198.502
158.449
146.164
481.337
146.213
148.541
146.298
146.195
623.039
146.224
146.223
146.201
146.202
146.28
146.201
146.205
146.205
146.218
146.201
146.171
146.203
146.201
348.731
503.187
146.226
706.888
146.294
146.201
146.256
651.525
159.885
146.462
146.288
1183.71
366.202
13894.2
146.583
146.217
1547.41
146.203
146.197
145.979
2114.26
146.236
155.992
146.427
146.511
146.625
147.634
146.219
146.253
146.203
146.202
146.201
146.225
146.201
146.235
146.24
846.753
389.49
264.412
146.241
6075.72
146.244
169.935
146.009
147.438
146.714
215.341
146.202
146.204
146.203
146.201
146.201
146.201
146.206
147.073
146.276
629.859
146.244
146.34
1608.12
152.185
215.622
461.051
146.201
227.83
146.31
146.276
146.134
161.65
146.838
146.201
146.202
146.208
146.217
146.201
886.659
682.364
720.894
151.823
146.201
205.669
146.485
146.201
146.308
146.201
146.215
400.676
146.212
146.213
147.067
146.216
146.015
146.215
146.142
146.201
146.203
219.947
146.211
146.201
158.682
146.545
149.062
146.251
146.205
146.203
146.186
146.293
146.215
146.994
1303.88
146.332
146.193
2906.01
146.371
146.201
146.419
146.475
146.571
177.728
294.203
168.657
147.007
146.201
764.664
146.477
177.801
244.238
146.201
834.949
146.201
146.201
617.666
146.2
146.202
158.965
712.056
231.227
155.765
146.201
250.801
762.366
146.38
146.205
146.209
163.908
236.79
152.133
414.9
146.203
146.207
147.592
689.908
169.809
766.404
174.503
153.854
146.203
146.201
26781.8
218.47
659.31
147.271
201.292
233.745
1552.58
146.201
146.47
146.201
210.407
146.201
146.456
146.872
146.201
158.109
146.201
155.908
164.824
146.201
146.201
468.929
146.201
146.201
146.201
146.201
185.236
146.202
168.723
323.008
146.201
146.201
565.382
146.204
146.204
543.236
146.204
146.209
146.202
146.378
146.259
146.258
1408.65
146.304
146.201
147.396
146.201
195.66
949.681
146.201
146.201
146.226
146.201
679.238
146.201
146.203
146.201
146.201
146.203
1491.85
648.253
146.246
146.201
20349.7
146.202
146.451
146.201
827.159
146.201
1284.69
146.366
146.202
146.201
146.202
146.429
146.723
146.201
273.78
146.418
146.201
146.215
206.342
146.201
146.232
146.201
717.405
146.2
146.201
146.204
146.202
146.201
562.599
246.172
146.201
146.201
146.813
146.201
146.219
146.222
146.201
526.525
802.949
146.206
146.201
146.217
146.348
218.531
146.199
1478.87
146.2
1637.66
146.564
146.201
1994.4
159.397
705.598
419.607
146.953
146.211
146.198
146.202
247.54
147.206
146.213
147.375
146.202
146.829
146.201
235.237
161.813
156.921
146.198
146.454
146.232
146.201
146.976
146.181
146.201
146.202
196.717
147.054
217.759
146.202
146.202
146.211
344.705
146.207
2374.42
146.201
146.201
146.96
147.493
146.201
146.2
3102.97
146.201
146.127
146.204
1058.37
146.49
268.707
146.201
698.996
1119.52
146.261
148.401
146.222
377.442
146.201
146.251
628.221
861.212
561.496
375.831
778.598
275.045
146.201
21459.7
148.698
148.161
146.201
146.948
542.841
146.201
231.407
397.062
146.201
773.744
146.201
1821.68
146.641
146.639
146.837
1050.97
146.201
146.201
146.202
146.203
12564.2
146.203
1118.4
146.358
146.201
146.201
146.201
146.448
146.202
146.201
146.261
146.203
434.754
146.264
419.21
146.201
146.324
146.201
146.234
146.266
146.201
146.201
146.347
146.002
146.213
9588.81
7270.34
332.957
146.303
146.206
146.212
146.201
146.207
146.227
146.211
146.152
146.505
146.336
7424.84
146.213
146.204
146.201
146.476
146.211
146.201
146.208
146.215
146.232
8185.67
146.248
457.123
146.201
146.211
146.589
147.829
146.201
146.242
146.249
146.201
146.296
146.21
146.201
161.835
146.202
146.201
146.243
146.223
146.742
146.202
146.449
146.201
159.226
146.201
146.201
175.246
148.71
146.505
146.205
146.201
146.202
146.695
266.423
146.204
147.097
1065.32
146.205
146.256
146.208
146.227
241.037
146.201
146.229
146.242
146.226
1072.17
146.255
146.201
146.217
146.117
146.205
146.201
146.099
146.202
146.202
146.219
146.201
146.201
146.317
146.201
146.244
177.807
146.202
146.201
1055.15
1062.07
146.203
146.216
146.201
146.203
146.354
146.201
146.263
146.384
146.211
146.208
146.203
146.215
146.213
146.204
146.218
146.241
1482.98
146.545
1610.36
146.226
146.35
146.216
146.201
1486.99
146.215
146.228
818.478
146.217
1331.97
146.201
146.217
146.24
146.234
183.965
146.229
184.156
146.201
146.223
219.672
146.214
205.95
146.246
146.242
146.24
146.257
235.627
146.226
285.668
146.201
343.716
146.223
146.214
146.201
146.44
146.245
145.911
146.038
146.204
146.236
146.203
146.257
146.211
146.201
146.201
146.201
145.994
146.243
146.201
146.213
146.245
146.191
146.242
146.201
146.322
146.202
146.169
146.222
146.201
146.227
146.201
146.201
146.201
146.216
146.202
146.191
146.635
146.202
157.999
863.136
146.201
146.204
150.299
146.201
146.201
146.202
146.201
146.201
146.261
145.997
146.22
146.184
146.327
146.201
146.244
146.476
146.201
146.201
146.313
146.201
146.201
146.273
146.201
146.224
146.231
146.203
146.201
146.208
1113.27
146.691
146.42
146.201
146.201
146.25
146.27
146.202
146.201
146.201
146.253
180.767
146.201
146.201
146.201
149.829
146.28
146.696
147.672
146.247
146.235
146.242
146.279
146.205
146.203
171.909
146.265
146.236
146.218
151.576
146.285
146.529
172.651
146.552
169.371
146.206
146.249
146.907
146.202
146.741
146.437
146.742
146.24
146.224
146.724
146.223
146.203
146.338
146.838
146.245
146.106
146.716
146.209
146.334
146.919
391.707
148.065
146.203
433.619
146.623
366.623
354.202
146.201
146.207
146.391
146.201
146.353
146.233
146.207
146.203
146.204
146.254
146.203
146.202
146.207
146.201
146.264
146.201
146.213
1608.29
146.204
146.377
146.259
1550.4
146.202
146.374
1298.42
146.201
146.213
146.302
146.439
146.215
146.224
146.201
146.201
146.282
146.201
486.092
146.229
146.229
1574.66
146.485
146.201
146.228
146.233
146.224
146.21
146.201
146.314
146.214
146.305
147.804
146.502
1694.6
146.231
146.205
1675.58
146.367
146.201
146.226
146.489
146.351
146.302
146.219
146.228
146.262
146.256
2211.56
146.261
146.273
146.114
146.257
146.252
146.208
146.25
146.259
146.248
146.254
146.306
1012.6
146.328
146.202
148.962
146.201
146.204
210.773
146.203
177.777
146.201
179.37
1364.15
2042.28
146.201
146.217
146.202
147.651
146.242
155.139
146.215
159.225
178.667
146.457
146.201
953.661
146.228
146.31
973.857
361.494
146.078
146.071
146.235
146.193
146.201
146.203
146.201
146.202
146.206
146.201
146.266
7421.88
145.89
146.237
146.22
146.439
146.48
146.204
146.267
146.201
146.205
146.238
146.203
146.197
146.205
146.058
146.201
146.238
146.246
633.94
146.201
146.356
146.299
1702.6
146.203
146.429
162.385
146.203
146.223
15543.3
146.201
146.157
146.203
146.223
145.863
146.232
146.203
146.225
145.962
146.201
146.387
733.442
146.203
146.215
146.203
146.551
146.383
146.201
146.201
446.537
146.22
146.211
146.201
146.363
146.207
146.201
146.201
1243.46
1369.51
146.201
146.262
146.201
146.201
146.209
146.54
146.201
146.203
283.263
146.201
146.201
146.26
146.209
354.235
146.74
146.201
146.201
146.213
146.62
146.201
146.201
146.201
146.201
146.201
146.201
146.201
148.269
146.21
146.202
146.204
1193.86
1820.47
146.202
146.265
146.486
146.201
146.302
37941.7
146.201
152.941
147.109
146.201
146.201
146.202
146.514
146.292
146.207
146.205
146.201
146.221
146.21
146.249
147.022
146.36
145.978
146.203
146.265
1199.58
146.206
146.203
146.203
1381.14
2295.16
146.201
146.201
146.201
146.205
146.241
1682.86
146.202
146.535
146.247
146.254
146.201
146.208
2309.04
146.201
146.201
146.201
146.201
146.392
146.629
146.203
146.244
146.223
146.201
146.201
146.201
647.051
163.468
146.201
146.399
146.202
146.202
146.201
670.941
221.277
565.138
146.538
146.219
146.2
146.202
146.225
146.69
378.204
146.202
146.201
146.202
411.39
2709.41
146.215
146.202
339.341
308.199
146.264
366.304
1117.24
146.202
147.055
159.114
146.201
146.202
146.201
146.223
146.207
146.238
3643.03
432.927
1135.8
742.809
1087.79
146.215
146.236
146.247
146.705
146.214
1219.19
146.242
421.655
197.592
146.202
203.974
1483.25
146.206
146.23
2407.5
146.208
146.202
1200.76
149.429
146.201
146.201
146.202
146.205
146.297
146.202
146.203
146.295
2590.28
146.204
146.138
146.219
1539.09
149.002
146.14
146.202
146.213
1083.82
146.203
146.201
146.343
146.202
146.201
146.201
146.327
147.092
146.222
146.2
146.201
146.2
146.252
146.201
146.21
146.201
146.248
146.202
146.201
146.424
146.201
146.204
146.201
146.212
146.206
146.187
146.213
146.199
146.197
163.795
145.939
306.424
146.214
146.201
146.201
146.21
146.201
146.215
146.297
271.969
152.115
241.509
146.243
171.123
146.246
233.268
305.444
146.298
147.086
146.202
146.214
146.201
146.204
146.201
146.203
146.249
174.78
146.201
146.538
146.203
146.204
146.213
146.201
146.225
146.201
146.212
2207.66
146.223
146.204
146.201
146.205
146.222
146.203
146.261
1554.3
146.213
1600.86
146.201
146.201
146.268
1493.25
1508.47
1445.38
1530.5
229.473
146.246
147.046
152.515
1676.16
146.203
146.201
146.201
146.201
146.252
1192.43
146.377
146.232
1188.47
1190.41
146.24
954.533
146.529
146.236
146.201
146.201
147.22
1236.36
200.17
146.201
147.219
228.009
146.51
2009.65
795.544
146.455
146.77
146.202
146.315
146.752
146.304
146.206
146.201
146.568
146.203
146.201
146.769
146.201
146.202
876.603
146.203
146.745
275.402
146.204
146.217
1150.44
1174.3
146.223
1157.56
146.439
1202.88
146.205
146.201
1182.84
239.057
1033.45
1022.11
146.236
146.551
146.221
146.341
612.016
146.201
146.202
911.976
146.203
147.844
146.201
146.205
146.201
934.716
146.201
146.235
146.202
146.202
146.53
863.229
866.829
146.237
146.201
146.542
171.335
147.646
146.201
147.731
13523.1
498.219
350.999
146.232
147.627
146.036
146.203
146.204
146.201
146.203
146.202
146.202
322.112
146.201
146.241
146.201
146.201
146.201
146.201
146.201
146.36
146.28
146.201
146.201
146.946
146.201
155.238
146.19
146.201
151.018
146.228
146.201
146.201
149.642
146.212
146.201
146.23
146.208
146.201
146.201
146.233
146.208
146.199
146.201
146.191
146.196
146.201
146.226
256.6
146.201
146.203
146.201
146.277
146.201
146.887
146.201
146.567
146.201
146.201
146.201
146.204
146.435
146.202
146.201
146.32
146.196
146.201
546.423
146.201
146.201
146.21
146.201
146.266
146.262
146.297
146.311
146.202
146.286
146.202
146.216
146.2
146.264
146.211
146.196
146.195
146.275
146.201
146.213
146.195
146.19
146.216
146.185
371.569
146.046
146.22
146.282
146.236
146.334
146.202
146.265
146.267
146.251
146.363
146.201
146.221
146.201
146.202
221.069
145.924
146.195
221.287
146.209
146.2
146.202
146.201
146.204
146.201
21237
146.205
146.196
146.202
275.613
204.107
253.395
146.308
159.723
208.287
146.205
146.206
146.202
310.754
146.201
146.206
146.201
146.201
1076.63
146.202
146.201
146.204
146.34
146.245
146.42
146.982
146.201
147.322
240.439
146.201
147.723
146.201
146.201
146.201
146.201
146.201
146.205
146.201
635.819
147.411
161.18
146.722
1138.71
146.243
146.201
146.202
146.201
146.222
146.201
146.201
146.201
146.205
1340.86
146.255
146.214
146.354
146.203
1071.9
146.277
148.363
146.217
146.201
541.705
146.203
146.201
146.201
369.868
1154.99
1112.47
146.209
1077.05
146.201
146.243
146.201
146.191
146.203
151.861
146.448
146.201
146.201
150.892
146.312
146.201
147.549
146.201
146.201
1595.4
146.201
146.205
146.201
146.343
146.202
146.21
146.202
146.201
146.252
146.202
280.861
146.202
150.97
146.202
146.202
177.882
146.201
146.202
146.201
1498.82
146.205
147.424
1778.99
147.638
146.202
300.458
146.339
146.202
146.204
1196.09
214.789
146.201
146.407
489.569
146.205
146.202
146.229
146.501
146.209
146.208
146.201
146.205
604.176
146.205
339.887
146.201
146.52
146.205
146.201
146.348
146.204
146.205
146.202
146.203
146.242
1436.78
146.339
251.861
146.392
564.186
146.377
146.202
146.201
146.201
150.917
2023.33
146.041
146.211
146.249
435.44
146.413
1586.96
405.584
146.201
523.962
932.314
146.34
146.201
1117.46
148.223
149.864
153.4
181.951
148.327
1271.64
146.205
1319.62
146.219
141.226
146.267
148.67
1370.99
146.202
146.203
254.78
150.276
146.219
172.871
146.203
146.203
1310.97
146.838
146.203
146.201
146.203
146.321
146.201
28733
186.668
146.201
146.204
1441.76
146.25
264.045
1509.35
1350.28
146.239
146.201
146.201
156.213
146.201
146.201
146.096
146.245
146.204
1462.68
146.204
146.204
149.003
147.038
146.206
146.201
2208.18
146.202
146.201
146.992
146.201
146.202
150.411
801.534
176.128
170.612
146.202
146.244
146.201
146.417
1438.26
158.838
1016.26
146.201
148.51
146.201
146.205
146.201
1226.58
180.464
146.201
149.866
146.201
146.201
146.24
146.201
146.278
156.254
151.558
10080.4
146.201
146.203
146.352
437.226
146.202
146.24
152.761
146.202
146.261
154.322
146.201
146.201
146.202
146.201
146.201
146.202
146.205
146.202
147.551
146.202
197.393
14574.1
147.343
147.124
146.201
146.383
146.203
146.201
146.588
866.221
147.691
146.858
595.186
148.687
146.202
146.378
1385.02
148.659
146.731
146.507
146.201
146.669
146.201
146.201
146.201
146.313
146.448
146.201
146.953
146.201
146.209
146.203
1572.4
146.596
146.202
146.703
146.617
146.257
146.664
146.735
146.201
146.203
148.417
146.209
146.203
146.201
146.202
146.201
146.202
146.201
483.144
148.126
147.337
146.451
146.232
146.514
146.202
146.201
146.201
187.026
146.204
146.202
146.204
154.384
146.231
1521.03
146.599
146.384
293.377
1130
146.209
146.601
146.204
146.201
146.349
707.421
146.918
146.202
146.202
146.202
628.369
146.203
147.354
186.136
146.536
146.644
146.203
146.202
149.014
160.643
146.203
146.65
146.413
146.372
146.201
146.619
146.229
147.316
146.157
146.201
146.21
146.259
146.209
146.201
146.482
146.726
146.589
146.205
146.164
146.471
146.561
146.181
146.201
146.201
2280.9
147.169
8025.72
146.612
146.11
146.807
146.734
146.202
146.123
146.209
146.202
146.203
146.206
2082.63
146.201
146.212
146.202
146.757
146.202
146.202
146.201
146.201
146.957
339.116
146.204
146.795
146.214
146.143
146.202
145.935
146.202
146.807
146.589
146.201
146.201
146.461
146.205
146.203
146.205
146.201
146.203
146.611
146.201
146.25
146.203
146.201
146.201
146.621
146.202
146.201
147.482
146.201
146.202
146.202
146.204
1539.98
146.202
146.239
146.204
146.426
146.201
146.203
146.202
146.202
146.202
146.215
146.201
146.611
1009.81
146.202
146.201
146.202
146.202
146.204
146.203
146.201
146.203
146.204
146.203
146.204
146.203
146.231
1226.18
146.885
146.361
146.892
146.205
146.201
475.11
146.204
2573.92
146.24
146.527
146.201
146.201
146.202
146.2
146.204
146.201
146.241
148.092
146.203
146.201
146.201
146.203
146.202
146.217
146.201
146.203
146.202
146.271
146.246
146.239
146.202
146.201
146.243
146.247
146.23
146.202
146.202
146.201
146.286
146.201
146.306
146.239
146.214
146.253
146.287
148.769
146.247
146.697
668.725
146.205
458.583
146.202
146.674
146.201
146.639
146.385
146.646
850.037
146.202
146.201
146.203
146.368
1135.13
146.201
146.63
146.208
149.104
146.202
146.204
146.205
146.202
146.616
146.202
146.201
146.202
146.201
146.202
146.201
146.615
147.053
146.388
146.201
146.201
146.666
146.202
146.201
146.263
148.007
146.279
146.202
146.203
184.038
146.263
146.201
146.201
146.535
146.66
148.674
146.203
146.669
146.22
146.207
146.205
146.202
146.201
146.202
146.202
146.201
146.201
146.202
146.201
146.203
146.202
146.201
146.201
146.201
146.201
146.205
146.202
146.201
146.201
146.201
146.203
146.562
146.833
146.56
146.201
146.199
146.201
146.201
146.428
146.203
146.202
146.201
146.201
146.203
146.201
146.225
146.201
146.201
146.201
146.201
146.201
146.231
146.201
146.233
146.219
146.293
146.201
146.201
146.262
146.201
146.201
146.201
146.201
146.203
146.203
146.201
146.201
146.203
146.201
146.904
155.919
146.202
146.201
146.201
146.201
146.201
146.201
146.201
146.201
147.295
405.667
146.202
406.173
146.203
146.202
415.139
407.88
146.202
146.436
156.921
146.203
146.202
146.201
146.202
146.202
416.985
146.202
409.076
146.201
146.201
146.201
146.582
146.582
146.55
146.201
146.201
146.198
146.201
146.202
146.202
146.201
146.202
146.201
146.198
146.479
146.201
146.201
146.201
146.201
146.201
146.203
146.202
146.522
219.943
146.535
146.202
146.201
146.201
146.202
146.201
146.202
146.201
146.203
211.206
146.203
146.203
146.202
146.307
146.202
146.871
146.201
146.202
147.758
146.201
148.363
1521.85
146.361
146.237
146.201
154.488
146.247
146.203
146.201
146.201
146.202
153.25
146.201
146.231
146.224
148.329
208.606
1882.16
146.19
146.201
148.875
146.201
146.201
146.201
146.203
146.202
146.201
148.499
242.415
146.951
146.282
146.382
146.201