/*--------------------------------*- C++ -*----------------------------------*\
| =========                 |                                                 |
| \\      /  F ield         | OpenFOAM: The Open Source CFD Toolbox           |
|  \\    /   O peration     | Version:  v2012                                 |
|   \\  /    A nd           | Website:  www.openfoam.com                      |
|    \\/     M anipulation  |                                                 |
\*---------------------------------------------------------------------------*/
FoamFile
{
    version     2.0;
    format      ascii;
    class       volScalarField;
    location    "3";
    object      ILambda_2_0;
}
// * * * * * * * * * * * * * * * * * * * * * * * * * * * * * * * * * * * * * //

dimensions      [1 0 -3 0 0 0 0];


internalField   nonuniform List<scalar> 
108993
(
146.201
146.201
146.201
146.201
146.201
146.201
146.203
146.201
146.201
146.201
146.201
146.201
146.201
146.201
146.201
146.201
146.203
146.201
146.201
146.201
146.201
146.201
147.467
146.201
146.201
146.201
146.201
146.201
146.201
146.201
146.201
146.201
146.201
146.201
146.201
146.201
146.201
146.201
159.468
997.4
146.217
146.201
146.201
146.201
146.226
146.446
146.201
146.202
146.201
146.201
146.201
1603.33
146.201
146.201
146.201
146.201
146.201
146.201
146.201
146.201
146.201
146.201
146.201
146.201
146.201
146.201
146.201
146.201
146.201
146.211
146.201
146.201
146.201
146.201
146.201
146.201
146.201
146.201
146.201
146.201
146.201
146.201
146.201
146.201
146.201
146.201
146.201
146.201
146.201
146.201
146.201
146.201
146.201
146.201
146.201
146.201
146.201
146.201
146.201
146.201
146.201
146.201
146.201
146.201
146.201
146.201
146.201
146.201
146.201
148.794
157.227
146.201
376.667
2083.81
146.201
146.241
146.201
146.201
146.202
146.201
146.201
146.201
146.229
146.201
146.201
146.201
146.219
146.201
146.201
146.201
146.201
146.201
146.201
1681.12
146.201
146.201
146.201
146.201
146.201
146.201
146.201
146.201
146.208
146.201
146.201
146.201
146.201
147.135
146.201
146.422
146.452
146.201
146.201
147.091
146.201
438.928
146.201
146.201
146.201
183.223
146.773
146.201
146.201
146.201
146.201
1933.88
146.201
146.201
146.201
146.201
146.201
146.201
292.18
146.201
146.201
146.201
148.996
146.201
146.201
146.201
146.201
146.201
146.201
146.201
146.201
146.201
146.201
146.201
146.201
146.201
146.201
146.201
146.201
146.206
146.201
146.201
146.212
146.201
146.201
146.201
146.201
164.214
146.201
146.201
146.337
146.493
146.201
146.311
146.201
146.95
299.686
146.201
149.017
146.265
128.367
146.201
146.201
146.201
146.201
146.201
146.201
146.44
146.201
146.203
146.201
146.201
146.201
146.201
2156.86
146.201
1930.45
146.201
146.201
146.203
146.201
146.201
146.201
146.201
146.519
146.201
146.201
146.201
146.201
146.201
146.201
146.201
146.272
146.237
146.201
146.201
146.201
146.201
146.201
146.201
146.201
146.201
146.201
146.201
146.201
146.201
146.201
146.201
146.205
146.201
146.201
146.201
146.201
146.201
146.201
146.201
146.201
146.201
146.237
155.434
146.883
146.201
146.201
146.219
146.201
146.201
146.201
146.655
146.622
146.201
146.201
146.201
146.201
146.201
146.201
147.139
146.201
146.201
146.201
146.201
146.201
146.201
146.201
146.201
146.205
146.201
146.297
146.467
146.201
146.201
146.201
146.201
146.201
146.201
146.202
146.23
146.201
146.201
146.202
146.201
146.202
146.327
146.201
146.202
147.591
146.201
146.201
146.201
146.203
146.203
146.201
567.528
151.122
146.451
146.201
146.201
146.201
146.313
6986.44
146.201
147.747
146.201
146.201
146.201
146.201
146.201
146.201
146.233
146.201
146.201
146.201
146.201
146.201
146.201
146.201
146.201
146.201
146.201
146.677
146.241
146.201
146.201
146.201
147.267
146.201
146.201
146.201
146.201
146.201
146.201
146.201
146.201
146.201
146.201
146.201
584.099
146.201
146.201
146.201
151.895
146.201
146.79
146.201
146.201
146.547
146.201
146.58
146.569
146.201
146.201
146.201
155.198
146.201
2589.58
146.201
146.492
146.681
160.048
146.748
146.201
146.258
146.201
148.086
146.201
146.202
146.201
146.201
146.221
146.247
146.201
146.201
165.153
158.73
146.201
146.201
148.756
146.201
146.205
5959.12
146.201
146.201
146.201
160.294
146.207
146.324
146.201
150.439
146.201
147.58
146.201
146.201
147.938
146.201
146.246
147.87
146.201
147.756
169.922
147.979
146.201
146.201
146.201
146.201
146.201
146.201
146.201
146.201
146.201
146.201
146.201
146.224
146.223
146.206
227.791
146.201
146.201
146.201
146.201
146.201
146.201
146.201
146.201
146.201
146.201
146.201
146.201
146.218
146.201
146.22
146.29
146.208
146.201
146.201
146.22
146.201
146.201
146.224
146.201
146.201
146.201
146.201
146.203
146.201
196.849
146.404
146.207
146.201
146.201
146.201
146.201
146.201
146.201
146.201
146.201
177.659
146.201
146.201
146.201
146.202
146.201
146.207
146.201
146.201
146.201
146.201
146.201
146.201
146.201
146.201
146.201
146.218
146.27
146.201
146.201
2540.99
146.201
146.201
146.224
146.201
146.201
146.201
146.201
146.201
146.201
146.201
146.203
146.201
146.201
146.203
146.271
146.201
146.213
146.239
146.201
146.214
146.27
146.204
146.201
146.213
146.201
146.201
146.201
979.222
146.201
146.201
146.237
146.201
146.408
146.201
146.201
146.201
146.201
146.201
146.211
146.201
146.201
146.275
146.203
147.246
146.201
146.201
146.201
146.201
146.203
146.641
146.201
146.201
146.201
146.201
146.235
146.263
146.585
146.201
146.201
146.205
146.221
146.201
146.201
6121.61
146.264
146.309
146.319
146.201
146.269
147.975
146.208
146.201
146.201
146.201
146.201
146.201
146.21
146.481
146.264
146.201
146.201
146.257
146.201
146.201
146.201
177.312
146.201
146.201
146.201
146.201
146.205
146.201
146.201
152.501
146.204
146.201
146.201
152.565
146.201
146.201
146.201
2230.72
146.201
146.24
146.201
146.222
146.201
146.201
146.201
146.299
146.201
2892.15
146.201
146.201
146.763
146.202
146.201
146.201
146.231
387.419
146.201
146.513
146.201
146.225
254.978
146.201
146.201
146.201
740.769
146.213
774.765
146.201
1079.06
146.201
146.201
146.201
146.201
146.201
281.541
146.211
146.201
146.201
146.208
146.344
431.274
146.25
146.202
146.227
889.489
146.209
892.001
447.844
146.201
146.201
146.201
146.201
146.201
146.226
146.201
146.295
146.312
146.204
146.284
2538.65
392.335
696.517
146.201
146.204
146.209
146.201
147.227
146.201
146.674
146.207
146.201
147.126
146.202
149.69
146.219
146.209
449.519
146.201
146.201
230.504
146.201
146.203
7000.17
146.209
147.142
146.205
6809.69
582.009
146.201
146.201
146.201
146.209
146.201
146.22
146.281
146.201
146.201
146.437
146.372
237.383
146.201
1664.93
146.201
568.419
146.205
146.201
696.339
146.201
146.201
455.588
146.201
146.201
146.201
191.227
224.515
146.234
146.201
398.413
146.201
146.201
146.201
146.201
146.201
146.412
146.201
146.201
146.203
146.201
146.201
746.6
147.357
146.201
162.115
146.201
146.201
146.201
146.202
146.201
146.201
146.201
146.201
146.201
148.322
146.201
146.201
146.209
146.201
146.201
146.201
146.201
146.201
146.204
146.203
146.203
146.265
146.201
146.201
146.201
147.907
146.201
146.223
146.299
146.201
146.201
146.869
146.334
146.201
146.201
146.224
146.201
146.201
153.086
146.201
146.311
146.201
146.201
146.204
146.201
147.465
146.201
146.201
1343.72
146.202
164.332
195.146
147.005
146.201
146.65
146.202
146.201
146.201
146.201
146.201
146.201
146.201
146.201
146.201
146.201
146.216
146.201
146.204
146.201
183.52
146.202
146.201
1914.85
146.202
190.537
146.201
146.201
146.201
4151.7
146.201
146.202
146.204
147.76
146.203
146.218
146.289
146.204
146.201
146.364
146.201
146.201
146.21
1940.4
146.201
146.201
146.201
146.205
146.201
146.202
146.207
146.201
146.201
801.037
146.201
830.035
146.201
597.898
146.201
146.286
217.66
146.204
148.472
146.201
220.111
225.292
146.209
147.286
3756.1
146.201
146.201
146.201
146.211
146.202
146.205
146.201
146.201
146.201
1527.83
146.201
146.204
146.321
146.224
146.203
147.935
1578.68
3379.59
158.908
395.155
146.547
6444.7
146.201
8940.64
147.506
1132.95
146.201
146.201
146.203
146.205
492.124
146.201
146.201
146.206
146.355
146.201
174.881
146.225
146.201
6407.05
146.201
146.201
9055.66
1448.47
146.201
146.203
146.201
146.201
146.207
2010.21
5863.58
146.201
6476.04
146.204
146.208
146.203
146.201
146.202
183.219
146.204
146.201
146.201
146.201
2571.29
146.201
146.201
146.258
146.201
154.066
146.211
146.202
146.206
146.201
146.546
146.201
1496.79
146.201
146.201
146.201
615.112
1843.18
146.201
146.204
856.304
633.986
146.23
146.201
146.205
146.235
146.49
146.201
146.211
147.527
146.206
146.209
146.204
146.201
1264.41
147.136
1291.97
146.214
146.206
146.202
146.21
146.201
146.205
146.208
146.327
146.204
146.201
146.202
146.211
146.201
146.201
146.201
146.212
146.201
146.201
146.201
146.201
146.201
146.201
146.201
2015.59
146.201
146.201
146.201
146.201
193.504
146.201
146.201
146.203
146.201
146.202
1703.56
146.209
146.207
146.201
146.201
1195.9
146.237
1098.36
146.201
146.201
146.247
146.201
146.207
146.218
146.598
146.201
146.201
146.201
146.201
146.201
146.514
146.201
146.201
146.201
146.201
146.25
146.201
147.17
146.201
146.201
150.578
457.466
146.539
207.874
146.201
146.201
146.413
307.902
146.201
146.201
146.201
4449.62
146.201
149.388
146.201
146.206
146.201
146.201
146.675
523.373
146.209
147.282
1291.84
146.207
146.206
148.324
146.671
146.201
146.201
146.201
362.373
146.202
10595.3
146.21
149.968
146.201
146.242
146.204
146.201
146.207
1168.44
146.207
146.201
146.221
277.287
168.752
146.201
146.201
146.201
146.201
146.201
146.201
146.201
3538.95
146.201
1940.31
146.201
146.201
146.201
149.859
2164.23
146.201
146.201
146.201
146.202
146.201
146.202
146.893
146.201
146.201
146.237
146.201
146.201
146.201
146.201
146.201
146.266
8530.67
146.29
146.201
146.201
146.201
146.201
146.201
146.201
146.201
146.201
146.201
146.201
146.201
146.201
146.201
146.201
146.201
146.201
146.201
146.201
146.201
146.254
1766.24
1788.81
147.671
146.201
146.201
146.201
146.201
146.201
146.201
146.203
146.201
146.201
1364.9
146.201
151.141
146.202
146.203
146.201
146.201
147.899
148.907
146.201
146.201
146.201
146.7
146.201
146.201
146.443
146.201
146.201
146.201
146.201
146.201
146.212
146.201
146.203
146.421
146.201
146.201
146.201
146.659
146.601
146.201
146.201
146.201
146.369
146.201
209.241
170.93
176.921
161.078
438.639
155.53
146.201
146.214
146.201
146.233
146.211
158.589
146.201
146.201
146.201
146.201
146.201
146.201
146.255
826.045
146.207
146.201
146.201
146.207
146.201
146.201
146.201
146.201
146.201
1163.01
146.209
146.275
146.201
146.266
146.201
146.206
146.23
146.785
146.201
146.217
146.201
146.998
146.23
146.24
2023.79
146.201
146.201
146.202
146.201
146.201
2889.55
146.201
146.201
146.201
146.866
146.201
146.201
146.221
146.201
146.232
146.388
146.201
183.623
146.201
146.233
146.201
146.201
146.201
146.755
146.201
146.261
146.206
146.201
146.31
146.201
146.201
146.201
225.154
147.467
146.201
146.666
265.054
148.062
146.205
146.328
146.201
146.202
146.201
146.271
146.263
146.255
146.233
146.258
146.201
146.274
146.275
152.798
155.017
146.201
219.966
146.201
146.201
146.201
152.46
146.201
146.201
146.201
146.224
146.201
146.201
146.201
146.201
146.201
146.201
146.201
803.735
1909.83
146.201
716.017
146.201
146.248
146.202
146.201
146.212
146.201
146.201
162.813
146.201
146.201
146.201
146.201
146.201
150.945
146.201
146.224
146.201
146.206
152.485
146.201
146.201
146.203
146.201
146.201
146.201
146.201
146.201
146.203
146.202
146.203
146.314
146.201
146.232
146.314
146.201
146.216
146.201
146.203
146.204
146.201
146.201
146.39
146.295
317.095
146.201
423.319
146.249
146.201
146.201
146.201
146.201
146.201
146.531
146.687
146.201
146.201
146.201
146.201
146.204
146.201
146.201
2048.72
1688.32
146.201
146.201
146.236
146.201
146.201
146.201
146.201
372.365
146.201
146.201
146.201
146.201
1269.88
146.209
146.201
146.304
156.68
146.201
146.214
175.64
146.201
146.201
146.201
995.42
146.204
146.201
146.201
715.541
146.264
146.259
146.201
146.201
147.175
146.202
146.201
146.361
146.201
146.201
146.204
146.201
174.984
146.201
146.201
1949.56
146.202
147.442
146.204
146.59
146.202
146.202
146.345
146.201
146.202
146.623
146.202
146.205
1047.04
146.201
146.201
146.201
147.612
394.474
146.201
146.218
146.201
146.225
147.583
146.988
146.202
2295.16
146.201
6982.85
146.201
146.201
146.201
146.201
146.201
146.201
146.201
146.201
146.219
146.371
146.235
146.216
146.201
146.201
146.201
146.201
146.201
146.201
1692.91
146.209
146.201
146.201
146.201
1316.84
146.201
146.201
1387.02
146.201
146.201
146.201
146.202
2649.66
155.806
146.251
324.185
146.201
146.201
146.322
146.201
146.201
146.201
146.295
146.791
146.231
4711.2
146.201
146.201
10106
146.201
146.202
146.201
146.201
146.201
146.201
146.201
146.201
146.202
1987.78
146.204
146.202
146.265
146.219
146.201
2572.68
146.201
146.201
146.201
146.201
146.201
146.201
146.489
146.201
146.203
403.945
146.377
146.248
146.201
146.201
149.048
146.263
146.201
146.232
146.201
146.201
146.404
146.322
146.494
146.283
146.201
1657.44
229.723
147.332
146.201
146.27
146.341
146.402
146.841
182.904
146.974
146.343
146.201
146.287
146.228
146.305
146.233
173.115
146.24
146.553
146.294
164.235
147.069
146.201
146.201
972.622
146.201
146.201
146.258
146.201
564.793
146.236
146.201
146.201
146.201
146.201
146.239
146.301
147.356
146.219
167.345
146.201
1444.85
146.247
167.667
146.201
146.422
146.201
146.201
146.201
146.201
206.793
146.201
146.201
146.201
146.705
146.238
147.402
146.755
146.218
146.201
146.227
146.201
146.201
146.204
146.201
146.201
146.201
146.236
567.909
662.008
3099.82
1742.44
146.208
146.201
146.338
146.335
150.14
1286.71
146.201
146.203
146.201
146.497
153.105
146.222
146.201
146.201
146.201
146.201
255.722
146.201
146.344
146.201
794.128
146.384
146.201
146.201
1421.72
146.515
146.277
146.453
146.201
146.288
706.849
146.201
177.927
146.237
146.203
146.368
146.201
146.416
156.841
146.33
146.344
167.75
146.238
146.355
146.201
147.426
6580.42
146.208
6350.22
146.201
146.205
146.223
146.201
6471.4
146.216
146.204
146.202
146.201
146.274
146.201
146.201
148.029
146.201
146.201
146.201
146.207
146.201
830.565
2342.73
146.202
895.831
146.202
146.201
146.202
147.057
146.967
146.202
146.203
147.09
394.401
16405.8
1056.02
146.201
166.094
146.201
146.201
146.201
146.35
146.201
846.031
146.214
1519.04
2129.68
2092.15
146.201
146.607
146.201
146.201
146.201
146.201
146.201
146.201
146.203
164.118
2273.4
147.165
146.203
12610.9
209.065
150.976
146.201
2070.08
175.213
712.549
146.201
146.201
146.201
146.201
146.201
146.201
146.228
146.203
163.237
1931.92
146.423
157.296
150.004
1952.66
147.125
829.067
146.201
302.15
146.238
146.201
146.201
147.007
146.317
146.201
146.201
146.201
228.888
146.201
547.433
518.091
464.813
147.688
146.201
10898.5
1315.75
146.201
146.559
146.201
146.204
4513.06
146.208
146.211
182.2
209.863
146.201
146.204
146.201
146.201
146.201
146.218
146.201
146.201
146.314
284.799
146.264
224.841
146.529
146.201
146.201
146.201
146.201
146.249
147.633
146.201
146.201
503.109
146.201
146.201
146.201
146.201
1543.44
147.12
1378.15
146.269
146.25
146.201
146.578
146.201
146.222
146.684
146.201
146.555
146.201
146.201
147.217
146.201
146.201
146.929
146.585
147.008
147.105
146.201
146.228
146.255
146.289
154.643
146.252
146.423
147.024
146.233
2206.56
146.201
146.201
146.217
147.887
146.254
146.547
146.239
147.081
146.201
146.201
14552.9
146.715
146.25
146.24
146.226
146.867
1430.34
146.201
146.262
146.201
146.906
146.201
146.232
146.244
146.201
146.994
146.201
146.729
146.922
146.201
146.201
146.557
146.201
146.201
146.201
146.201
146.321
146.201
146.92
146.489
146.201
146.201
1184.58
152.617
146.201
146.23
146.201
146.201
146.201
146.201
146.416
146.478
246.602
146.201
146.201
146.45
146.201
146.237
759.281
146.201
146.201
146.213
146.201
146.44
146.201
146.201
146.201
146.201
146.201
324.613
1611.38
147.833
146.201
4316.92
146.205
718.929
146.201
146.273
146.201
162.693
146.299
146.201
146.201
146.201
638.554
146.453
146.201
146.223
146.201
146.201
146.206
146.207
146.201
165.417
146.201
146.908
146.201
146.201
146.201
146.201
146.201
146.589
168.999
146.201
146.201
146.337
146.201
146.21
146.201
146.201
645.978
165.435
146.209
146.204
146.201
146.202
147.152
146.201
147.642
146.201
148.573
146.452
146.201
773.167
146.64
1553.76
1685.22
146.39
146.201
146.201
146.201
146.211
146.207
146.212
201.773
146.201
146.21
146.201
146.23
146.847
146.491
146.201
407.12
146.278
146.201
2135.78
146.201
146.201
146.201
147.224
146.281
146.257
146.201
146.201
146.201
596.238
146.201
312.144
146.201
146.201
2055.4
212.273
146.201
146.201
1268.97
146.201
146.201
146.203
147.504
895.623
146.363
146.201
504.29
2608.51
146.229
146.284
157.776
1459.2
146.201
165.077
1773.75
1615.4
1129.57
1426.52
584.01
3136.33
146.201
15562.5
146.448
146.247
146.201
313.215
17339.1
146.201
146.36
3316.94
146.201
2727.8
146.201
158.312
146.269
454.597
146.298
147.155
146.201
146.201
146.201
146.201
10744.2
146.201
146.76
146.308
146.201
146.201
146.201
146.201
146.201
146.201
146.203
146.201
147.495
146.201
1164.06
146.201
184.643
146.201
146.203
146.385
146.201
146.201
146.201
146.201
146.205
189.715
155.808
5128.86
163.264
146.201
146.21
146.201
152.891
146.203
146.196
146.201
1175.84
168.903
150.065
146.253
146.201
146.204
2245.6
146.209
146.201
146.206
146.201
146.225
151.438
146.245
511.422
146.201
146.208
624.272
175.096
146.201
163.178
426.862
146.361
637.826
156.6
146.202
146.232
146.202
146.203
146.201
146.201
301.53
146.201
146.221
146.201
146.237
146.201
146.201
146.232
146.453
2277.9
146.226
146.201
146.201
783.275
527.41
146.201
146.421
622.225
146.201
146.205
146.206
146.212
639.443
146.201
147.839
146.223
146.201
785.286
146.202
146.201
146.201
146.201
146.201
146.201
146.201
146.201
146.201
146.219
146.203
146.201
147.195
146.201
146.207
146.231
146.201
146.201
146.54
146.442
146.201
215.001
146.201
146.201
147.103
146.378
146.201
146.214
146.288
146.201
146.201
146.201
146.201
146.201
146.212
146.21
147.685
1223.31
148.002
146.211
147.153
209.38
146.202
147.861
192.123
146.201
146.561
192.841
147.466
146.201
187.271
146.202
146.39
146.215
146.282
146.216
146.203
146.255
146.228
146.201
146.228
146.201
146.217
146.294
146.207
146.223
146.236
146.224
146.203
146.227
146.241
146.201
146.201
160.652
146.203
146.201
146.201
146.201
146.261
146.204
146.207
146.21
146.201
146.201
146.202
146.201
146.221
146.201
146.202
146.201
146.201
146.224
146.201
410.31
146.201
146.201
146.201
146.201
146.509
146.201
146.201
146.201
146.202
146.201
146.201
468.834
146.201
146.204
729.821
146.201
146.208
146.201
146.201
146.201
146.201
146.201
146.201
146.215
146.206
146.204
146.201
146.201
146.201
146.204
1593.01
146.201
146.201
205.178
146.201
146.201
146.211
146.201
146.205
146.233
146.201
146.201
146.38
1613.32
340.731
146.201
146.201
146.201
146.201
391.255
146.759
146.201
146.201
146.201
146.521
146.201
146.201
146.201
2769.57
146.244
146.207
1334.98
219.761
146.201
146.204
146.202
146.201
148.017
149.726
442.581
146.201
146.23
817.446
146.201
146.201
1164.2
1421.29
2883.41
146.201
146.204
146.201
146.244
153.967
146.201
159.356
146.201
146.201
171.912
146.201
146.201
147.418
181.749
146.201
146.207
151.769
146.201
146.202
168.702
146.221
146.201
146.201
146.221
1642.65
146.218
1535.89
146.201
146.201
334.991
146.202
279.402
146.211
146.201
146.201
146.201
146.212
146.201
146.201
146.221
146.201
146.201
146.201
146.21
823.965
146.201
146.216
146.212
854.4
146.201
298.904
1965.35
146.201
146.21
146.208
357.348
146.201
146.211
146.201
146.201
146.201
146.201
700.895
146.206
146.212
857.921
219.078
146.201
146.201
146.209
146.201
146.201
146.225
146.208
146.201
146.205
146.201
1499.45
494.756
146.22
156.955
337.966
146.307
146.201
146.212
1768.66
170.951
146.246
146.296
146.268
146.201
146.332
174.05
146.259
146.21
146.201
146.252
164.695
146.201
219.69
146.259
146.203
199.227
146.26
1475.86
727.008
146.201
146.842
146.201
146.201
637.314
146.201
146.784
146.201
171.481
961.633
2598.75
146.201
146.201
146.201
146.933
146.203
152.7
146.201
146.951
146.822
1697.01
146.201
618.122
146.233
146.26
2656.08
218.929
146.201
146.208
146.201
146.202
146.201
146.201
146.201
146.201
146.201
146.201
146.201
3832.06
146.201
146.202
146.201
1419.32
1027.57
151.659
146.38
146.201
146.201
146.204
146.201
146.201
146.201
146.201
146.201
146.207
146.201
155.134
146.201
146.232
241.296
171.83
146.201
146.479
146.216
146.201
146.201
6321.92
146.201
146.201
146.201
146.201
146.201
146.202
146.201
146.201
146.201
146.201
232.028
1684.38
146.201
148.146
146.201
2301.32
541.727
146.201
146.201
147.137
146.201
146.215
146.201
146.497
146.205
146.201
146.201
146.525
443.92
146.201
146.243
146.201
146.201
146.207
154.909
146.201
146.21
146.218
146.202
146.201
146.472
146.207
451.451
146.703
146.202
146.201
146.21
816.91
146.201
146.201
146.201
146.201
146.201
146.201
146.201
2015.13
146.21
146.201
146.204
186.4
148.117
146.201
146.456
303.635
146.201
146.392
8851.19
146.201
1298.08
146.24
146.202
146.201
146.201
642.042
146.428
152.58
153.349
146.202
146.201
167.991
146.241
149.535
147.988
146.201
146.201
146.202
179.282
156.479
146.259
146.201
147.327
149.031
146.201
146.201
146.201
146.209
146.599
721.701
146.421
150.837
146.202
150.552
146.201
146.201
3001.72
146.201
146.201
146.201
146.201
146.202
146.201
146.201
146.202
146.201
146.216
146.201
146.201
146.935
146.246
146.201
146.989
146.201
146.201
146.201
147.29
146.233
146.427
146.201
146.201
146.201
146.203
146.206
146.202
1862.76
146.201
146.201
146.202
495.306
1530.04
146.206
146.201
1906.24
1704.08
178.027
642.091
325.655
146.203
146.499
146.23
146.201
146.201
146.201
146.201
146.201
146.201
2910.38
149.262
155.582
146.283
212.012
146.201
146.25
146.25
612.425
146.217
230.613
146.319
197.491
3083.13
146.201
146.666
166.477
146.201
146.201
148.767
146.201
146.201
435.049
2036.02
146.201
146.201
146.201
146.202
146.201
146.201
146.201
146.213
2702.21
146.201
146.201
146.205
185.203
150.576
146.201
146.201
146.201
232.493
146.201
146.203
407.737
146.201
146.202
146.201
146.201
147.196
146.203
146.201
146.201
146.201
146.201
146.202
146.207
146.201
146.855
146.269
146.201
160.001
146.201
146.201
146.201
146.201
146.201
146.201
146.206
146.201
146.201
146.412
146.201
551.089
146.202
146.201
146.201
146.201
146.201
146.203
146.294
468.543
146.269
541.392
146.241
146.849
147.721
367.27
525.153
156.909
146.292
146.201
146.204
146.201
146.201
146.201
146.201
227.606
146.351
146.201
727.945
146.201
146.201
146.209
146.201
146.518
146.201
146.208
146.701
146.221
146.201
146.201
146.201
146.213
146.201
146.202
643.867
146.21
484.094
146.201
146.201
147.092
371.522
491.212
559.442
270.487
1582.42
147.365
1633.42
146.229
564.741
146.201
146.201
146.201
146.201
225.398
147.337
370.476
146.407
147.373
147.372
146.201
147.323
3273.58
146.201
146.201
146.201
718.271
146.647
146.257
146.201
706.35
150.676
314.113
153.087
146.355
225.31
1428.06
146.201
145.93
1400.82
267.442
146.201
146.202
1788.56
146.201
146.201
1365.47
146.201
146.201
389.691
146.204
1297.45
215.58
146.202
146.216
146.356
146.407
146.213
146.387
617.905
146.537
147.436
146.201
146.43
146.223
146.319
146.306
146.202
1423.81
146.588
146.328
198.777
146.201
146.288
146.349
146.201
146.67
146.201
146.201
146.201
146.345
146.22
146.254
146.201
146.201
435.224
146.331
146.35
179.784
146.201
3070.32
146.602
614.223
146.201
146.27
3132.94
147.409
146.509
146.201
146.294
146.201
146.201
146.201
146.201
146.201
146.201
146.201
146.602
146.201
146.288
146.201
146.201
146.201
146.201
146.201
388.86
161.669
146.201
146.201
146.992
146.201
146.569
146.204
146.201
146.354
146.201
146.201
146.201
146.569
146.201
146.201
146.207
146.214
146.201
146.201
146.221
146.201
146.201
146.201
146.201
146.201
146.201
146.201
146.221
146.201
146.204
146.201
146.243
146.201
146.201
146.202
1758.11
146.202
146.201
146.201
146.201
1247.67
146.572
146.201
146.201
146.201
146.201
147.242
146.201
146.201
146.201
146.202
146.201
161.766
146.201
146.201
146.201
146.204
146.201
146.201
146.201
146.201
146.201
146.201
146.201
146.926
146.201
146.201
146.201
146.201
146.201
146.201
157.357
146.203
146.201
146.201
146.201
148.097
146.201
146.254
146.467
146.207
1078.75
146.201
146.201
146.201
146.204
147.254
146.201
146.201
147.273
146.201
146.201
146.201
146.201
146.201
146.202
1606.36
146.201
146.201
146.201
147.304
147.393
147.4
148.694
147.384
1571.14
146.201
146.201
146.201
147.4
146.201
146.202
146.201
146.201
293.552
146.201
146.201
146.201
214.376
146.303
165.484
146.226
146.201
146.251
259.085
146.201
146.203
146.201
146.201
146.201
146.201
146.243
146.203
146.201
1403.05
508.15
2509.95
830.071
165.737
146.34
146.201
146.201
146.201
251.164
146.201
146.201
146.201
146.202
526.073
146.207
146.207
146.244
146.201
148.161
146.247
146.263
146.212
146.201
146.243
146.201
146.201
146.201
146.425
164.048
155.216
146.201
147.966
146.201
146.201
146.201
146.201
146.201
147.524
146.23
146.201
146.201
146.234
149.3
146.201
147.338
146.201
146.201
369.018
146.201
146.202
146.201
146.237
146.201
146.201
146.201
146.201
146.462
146.201
1252.61
146.201
146.206
146.201
146.205
146.312
146.201
146.201
146.201
384.119
150.759
146.258
440.539
146.269
146.201
147.365
146.256
146.201
146.201
157.818
146.327
146.201
146.416
178.65
146.201
146.203
146.201
146.473
146.201
146.201
146.201
146.202
735.552
146.203
12103.3
146.201
1870.12
146.202
146.201
407.245
146.202
161.306
146.201
146.201
146.294
291.466
146.335
175.815
146.369
146.368
146.363
146.201
146.201
146.201
146.267
790.9
370.397
146.214
146.201
324.466
146.381
179.368
623.346
146.201
609.177
1015.8
146.335
146.201
148.057
1704.1
1700.22
1917.58
146.248
146.243
273.031
146.201
185.32
146.201
1702.16
146.27
147.976
390.848
146.201
146.201
146.269
1579.82
146.216
164.367
146.201
146.201
260.829
146.201
146.201
146.201
146.201
146.315
146.201
28410.9
153.983
146.201
146.201
388.462
146.405
1718.39
1268.6
504.042
146.264
146.201
146.201
146.504
146.201
146.201
146.201
146.202
146.206
404.327
146.203
146.201
146.518
2115.31
146.201
146.303
383.332
146.201
146.202
2003.26
146.201
146.201
146.201
146.516
139.986
146.283
146.201
146.202
146.201
146.308
4815.61
146.215
145.178
146.201
146.201
146.201
146.203
146.201
335.803
146.268
146.201
266.874
146.201
146.201
146.231
146.201
146.434
146.201
146.604
149.928
146.201
146.201
205.033
561.333
146.201
231.408
148.014
146.201
146.201
146.201
146.201
146.201
146.201
146.201
146.201
146.201
146.201
146.204
5197.62
146.201
146.296
6976.81
146.229
5270.07
146.201
154.324
146.201
146.201
3590.29
146.676
163.598
4653
146.319
181.346
146.201
710.469
303.865
146.281
541.585
1460.91
146.201
2898.34
146.201
146.201
146.201
146.207
873.394
146.203
147.062
146.201
146.201
146.201
147.998
1646.56
146.201
1616.06
3651.3
152.603
4104.71
1046.37
146.201
146.201
146.39
146.201
146.201
146.201
146.201
146.201
146.202
146.201
386.87
146.242
148.01
765.171
146.233
457.708
146.201
146.201
146.201
162.986
146.201
146.201
146.201
191.718
146.551
380.705
4084.48
191.155
146.346
146.662
146.21
4558.13
146.201
146.201
271.892
4016.47
725.048
146.201
146.201
146.467
1810.76
146.201
461.553
1758.79
883.048
6088.75
146.201
146.201
146.395
159.402
146.205
6388.21
1432.58
630.318
146.201
8134.15
204.22
149.084
146.201
146.201
146.217
439.725
146.201
146.201
2174.83
146.702
2279.5
146.202
146.201
1256.75
819.865
146.201
146.201
146.201
2047.36
145.864
18756.4
1467.23
146.201
146.726
146.703
146.233
146.201
146.212
146.201
146.201
146.201
1856.77
146.201
146.215
147.38
146.779
146.201
146.201
146.201
146.201
146.352
146.338
146.201
146.802
146.21
146.201
146.201
146.201
146.201
146.77
279.399
146.201
146.201
1089.9
146.201
146.201
146.203
146.201
146.201
3088.46
146.203
146.435
146.201
146.201
146.201
2813.45
146.201
146.201
146.519
146.201
146.205
146.201
146.201
151.278
146.201
146.22
146.203
422.534
146.201
146.201
146.201
146.201
146.201
146.201
146.202
2804.81
856.77
146.201
146.201
146.201
146.201
146.205
146.201
146.201
146.201
146.205
146.201
146.205
146.201
146.239
2485.52
146.317
146.218
175.099
147.332
146.201
1565.74
146.205
1001.39
146.215
146.228
146.201
146.201
146.201
146.201
146.205
146.201
146.218
146.337
146.201
146.201
146.201
146.203
146.201
146.201
146.201
146.201
146.201
146.226
146.232
146.219
146.201
146.201
146.224
146.232
146.229
146.201
146.217
146.201
146.382
146.201
146.317
216.991
146.201
146.246
146.249
156.079
146.24
1871.55
1185.04
146.201
12683.7
146.201
3487.14
146.201
4315.52
673.532
2505.95
146.847
146.201
146.201
146.201
146.318
680.494
146.201
2031.74
146.207
175.85
146.201
146.201
146.201
146.201
2140.13
146.201
146.21
146.201
146.201
146.201
146.201
3893.42
338.463
548.792
146.201
146.201
364.928
146.201
146.201
146.26
169.574
146.264
146.201
146.201
146.63
146.259
146.201
146.201
146.366
2623.04
146.286
146.201
3388.65
236.147
146.201
146.201
146.201
146.201
146.201
146.205
146.201
146.201
146.201
146.201
146.201
146.201
146.201
146.201
146.201
146.201
146.201
146.201
146.201
146.201
146.201
146.201
146.232
505.417
364.997
146.201
146.201
146.201
146.201
146.238
146.201
146.201
146.203
146.201
146.201
146.201
146.236
146.201
146.201
146.201
146.201
146.201
146.219
146.201
146.217
146.221
146.264
146.201
146.201
146.171
146.201
146.201
146.201
146.201
146.201
146.201
146.201
146.229
146.201
146.201
146.312
146.289
146.201
146.201
146.201
146.201
146.201
146.201
146.201
146.201
146.246
5152.04
146.201
4760.55
146.201
146.201
2405.28
3136.39
146.201
158.548
146.249
146.201
146.201
146.201
146.201
146.201
2767.17
146.201
3299.55
146.201
146.201
146.201
2845.85
2865.89
2703.95
146.201
146.201
146.201
146.201
146.201
146.201
146.201
146.201
146.201
146.201
1798.51
146.201
146.201
146.201
146.201
146.201
146.201
146.201
1090.51
146.235
152.628
146.201
146.201
146.201
146.201
146.203
146.201
146.201
146.201
146.248
146.201
146.201
146.201
207.642
146.201
146.224
146.201
146.201
146.203
146.201
146.204
1148.2
146.205
149.55
146.201
146.207
146.205
146.201
146.201
146.201
146.201
146.205
146.201
146.201
146.203
146.325
3118.89
147.442
146.201