/*--------------------------------*- C++ -*----------------------------------*\
| =========                 |                                                 |
| \\      /  F ield         | OpenFOAM: The Open Source CFD Toolbox           |
|  \\    /   O peration     | Version:  v2012                                 |
|   \\  /    A nd           | Website:  www.openfoam.com                      |
|    \\/     M anipulation  |                                                 |
\*---------------------------------------------------------------------------*/
FoamFile
{
    version     2.0;
    format      ascii;
    class       volScalarField;
    location    "3";
    object      ILambda_6_0;
}
// * * * * * * * * * * * * * * * * * * * * * * * * * * * * * * * * * * * * * //

dimensions      [1 0 -3 0 0 0 0];


internalField   nonuniform List<scalar> 
108993
(
146.199
146.202
146.201
146.201
146.201
146.201
146.202
146.201
146.201
203.733
146.201
146.201
146.201
146.187
146.198
146.207
272.001
146.151
146.201
146.201
146.201
146.201
146.201
146.201
146.201
146.201
146.201
146.201
146.202
146.201
146.201
146.195
146.201
146.203
146.201
146.201
146.201
146.201
1755.97
1224.39
146.201
146.201
146.199
146.201
146.646
1202.43
146.201
146.201
146.201
146.202
146.201
146.266
146.202
146.201
146.257
146.201
146.201
146.201
146.201
146.201
146.201
146.201
146.201
146.201
146.201
146.201
146.201
146.201
146.17
243.153
146.201
146.201
146.201
146.201
146.201
146.201
146.201
157.262
146.201
146.201
146.201
146.213
146.201
146.201
146.155
146.2
146.201
146.201
146.201
146.201
146.201
146.201
146.201
146.201
146.201
146.2
146.201
146.201
146.201
146.201
146.201
146.201
146.201
146.196
146.201
146.201
146.201
146.201
146.201
200.513
146.512
146.201
146.234
146.238
146.201
146.703
146.201
146.201
163.924
146.201
146.399
146.201
146.218
146.201
146.201
146.28
146.201
146.201
146.201
146.201
146.201
146.201
146.201
146.788
146.201
146.201
146.201
146.201
146.201
146.187
146.201
146.201
146.298
146.201
146.201
146.201
146.201
146.743
146.201
147.036
147.045
146.201
146.201
147.122
146.201
146.202
146.2
146.201
146.201
156.001
147.118
146.201
146.201
146.201
146.2
146.227
146.201
146.201
146.201
146.201
146.201
146.201
146.265
146.201
146.201
146.201
146.207
146.201
146.201
146.201
189.889
146.201
146.201
146.201
146.19
146.201
146.201
146.185
146.19
146.201
146.201
146.201
146.201
146.206
146.201
146.201
146.201
146.201
146.201
146.201
146.201
146.205
146.201
146.201
146.202
146.397
146.201
146.348
146.201
131.4
146.242
146.201
146.207
146.298
11534.4
146.201
146.198
146.201
146.201
146.201
146.201
146.909
146.201
146.204
146.201
146.201
146.201
146.201
146.514
146.201
175.794
146.201
146.201
146.201
146.201
146.201
146.201
146.201
146.214
146.201
146.201
146.201
146.201
146.201
146.201
146.203
146.28
146.224
146.201
146.201
146.201
146.201
146.201
146.201
146.201
146.201
146.201
146.201
146.201
146.201
146.201
146.201
146.64
146.299
146.201
146.201
146.201
146.201
146.201
146.201
146.201
146.201
146.23
970.668
146.472
146.201
146.201
146.217
146.201
146.201
146.201
2155.04
2168.19
146.201
146.201
146.211
146.201
146.201
146.201
146.422
146.673
146.201
146.202
146.201
146.201
146.201
146.201
146.201
313.638
146.201
146.24
146.73
146.201
146.201
146.201
146.201
146.201
146.201
146.201
146.235
146.201
146.201
147.518
146.201
146.201
146.508
146.201
146.64
188.448
146.201
146.202
146.201
146.201
146.201
146.201
148.866
147.254
146.346
146.201
146.201
146.201
146.277
147.286
146.201
146.577
146.201
146.201
146.201
146.201
146.201
146.201
146.313
146.204
146.201
146.2
146.189
146.201
146.201
146.201
146.201
146.201
146.201
2148.09
146.276
146.201
146.201
146.201
146.904
146.201
146.201
146.202
146.204
146.201
146.201
146.201
146.204
146.201
146.201
146.199
3493.27
146.201
146.206
146.201
147.483
146.204
146.49
146.195
146.201
146.477
146.201
146.355
146.424
146.203
146.231
146.191
146.204
155.206
1928.12
146.201
146.414
146.379
146.206
146.358
146.228
146.246
146.203
229.687
146.201
146.453
146.201
146.203
146.223
146.225
146.201
146.201
146.206
146.204
146.201
146.201
202.489
146.155
146.201
1107.9
146.201
146.201
146.201
146.949
323.295
146.287
146.201
216.91
146.202
144.526
146.201
146.201
146.815
146.201
146.328
147.151
146.201
230.42
433.012
259.399
146.201
146.201
220.43
146.201
146.201
146.201
146.201
146.191
146.201
146.201
146.201
254.18
146.204
146.205
146.265
146.201
146.201
146.201
146.201
146.201
146.496
146.201
146.2
146.19
146.201
146.201
146.201
146.217
146.201
146.216
146.849
407.456
146.201
146.201
146.216
146.201
146.201
215.134
146.201
146.201
146.202
146.201
146.31
146.201
146.233
146.421
147.769
146.201
146.201
146.201
146.201
146.201
146.201
146.201
146.201
146.26
146.201
146.184
146.201
146.312
146.201
146.76
146.201
146.201
146.201
146.201
146.201
146.201
146.201
146.201
146.201
146.372
146.565
146.201
146.201
1433.71
146.201
146.252
146.204
146.201
146.212
146.201
146.201
146.201
146.201
146.202
146.201
146.202
146.202
146.204
146.201
146.201
160.467
146.206
146.201
162.626
146.201
146.205
146.201
156.335
146.264
146.201
146.201
146.211
146.2
208.241
146.239
146.201
146.312
146.201
146.201
146.201
146.201
146.201
155.394
146.201
146.201
146.235
146.205
6587.22
146.201
146.187
146.201
146.201
146.203
148.536
146.201
146.421
146.201
146.201
146.202
148.292
146.24
146.2
146.201
146.202
146.201
146.201
146.201
4680.73
148.532
146.334
146.201
146.2
146.683
147.248
146.203
146.196
146.201
146.201
146.201
146.201
146.459
1284.69
147.72
146.201
146.201
146.202
146.201
146.202
146.201
965.713
146.201
146.201
146.201
146.201
219.108
146.201
146.201
2767.9
146.466
146.159
146.201
1082.91
146.201
146.702
146.201
147.006
146.201
166.024
146.201
146.202
146.201
146.211
146.201
146.575
146.201
146.254
146.201
146.201
146.728
146.203
146.201
146.201
146.249
2168.26
146.264
146.471
146.201
146.27
147.248
146.222
146.201
146.201
663.419
146.633
146.255
149.675
146.256
146.201
146.202
146.201
146.232
146.202
146.245
146.484
146.262
146.257
146.766
146.413
146.608
220.833
146.202
236.025
146.693
146.874
146.701
146.651
146.201
149.044
146.201
146.201
146.201
146.206
146.235
146.307
146.363
146.604
146.201
146.239
146.607
146.653
146.201
146.202
206.199
146.201
146.854
146.202
146.23
602.554
146.251
146.448
146.396
178.261
204.776
211.84
147.653
146.201
146.201
146.254
176.692
146.201
343.29
205.857
146.356
227.679
1080.21
146.288
146.201
146.201
146.201
147.424
146.201
146.532
146.201
146.201
146.201
146.201
146.258
5479.33
146.201
565.317
146.201
146.245
508.118
146.201
146.251
146.202
146.207
146.21
146.218
146.184
146.317
146.203
146.499
146.29
146.201
146.26
146.206
146.216
146.26
146.201
146.201
146.205
146.201
146.201
146.202
146.201
146.239
1448.59
146.484
146.205
146.202
146.205
146.256
146.215
343.499
146.2
146.201
146.201
146.201
146.201
146.204
146.201
146.201
146.658
146.201
146.202
146.201
146.201
146.201
146.216
146.201
146.202
146.237
146.201
146.201
146.201
146.212
146.201
146.266
146.311
146.315
146.201
1272.27
146.225
163.313
146.201
146.516
146.201
146.201
146.202
146.201
146.204
146.201
146.201
146.208
146.201
173.166
146.201
146.201
1138.06
146.365
156.466
146.202
146.812
146.201
146.204
146.337
146.201
146.201
146.25
146.201
146.2
146.155
146.201
146.201
146.201
146.201
146.201
146.22
146.201
146.931
146.201
146.199
148.453
146.201
148.992
191.638
146.215
146.248
994.008
146.203
146.201
146.208
146.218
146.202
146.202
146.312
147.017
146.201
146.306
146.201
146.201
146.219
1812.98
146.201
146.201
146.2
146.202
146.201
146.201
146.254
146.201
146.201
1901.55
146.201
5137.23
146.201
1387.52
146.201
146.204
146.211
146.949
146.213
146.2
146.218
146.218
198.545
146.201
1339.3
146.201
146.201
146.201
150.897
146.308
149.113
146.201
146.201
146.389
1044.09
146.201
151.901
146.621
146.226
146.201
146.225
146.795
1312.96
146.201
146.761
146.202
147.04
146.201
147.361
208.781
291.663
146.201
146.201
146.223
152.497
146.278
146.201
146.201
146.551
146.348
146.201
146.764
146.204
146.201
146.979
146.201
146.201
146.989
253.113
146.201
146.202
146.201
146.182
146.763
146.22
147.264
146.201
147.139
183.738
146.736
146.203
146.201
146.43
146.207
146.204
146.201
146.249
146.201
146.232
146.201
146.201
146.261
146.201
146.28
146.424
146.383
146.814
146.201
146.395
146.201
291.641
146.201
146.201
146.201
146.325
146.237
146.201
213.992
147.77
146.243
146.382
146.201
146.566
146.315
146.594
146.169
146.798
146.426
146.656
213.206
146.608
146.201
146.443
147.378
146.247
177.45
194.086
380.717
146.884
146.201
146.201
204.352
146.536
213.732
146.201
146.203
262.791
146.201
146.201
146.201
267.104
146.201
146.201
146.201
146.203
146.201
146.201
146.202
146.652
146.201
146.201
231.622
146.201
258.779
146.201
146.201
146.204
146.201
146.203
1094.43
255.182
146.201
146.201
146.201
146.561
146.398
146.223
146.202
146.201
146.275
146.201
146.204
146.721
146.204
146.201
146.201
146.201
146.201
146.201
146.202
146.201
146.201
146.201
146.201
146.286
146.201
146.202
146.201
146.201
146.201
146.271
146.202
146.201
146.201
146.201
146.201
146.205
146.201
146.201
146.201
911.915
146.201
146.203
146.201
164.26
146.201
146.201
2155.87
146.517
146.431
146.202
1045.81
146.641
146.681
146.203
2175.37
146.201
146.201
146.201
146.255
174.654
2144.57
175.645
146.202
146.2
146.201
330.696
146.201
170.759
146.237
148.887
164.718
146.741
146.281
146.269
146.201
146.201
146.201
146.201
146.201
146.201
146.239
146.487
146.201
1831.26
148.64
146.201
146.201
146.266
146.609
146.201
148.288
146.201
146.33
146.201
146.35
148.165
146.334
146.201
146.279
146.201
146.201
146.201
146.201
146.201
146.201
10084.9
146.463
146.201
146.201
146.201
146.201
146.201
146.201
146.201
146.201
146.201
146.201
146.201
146.201
146.201
146.201
146.201
146.201
146.201
146.201
146.201
343.032
146.379
146.287
147.253
146.201
146.201
146.203
146.201
149.59
146.201
146.201
146.201
146.201
146.275
146.202
146.201
146.201
146.201
146.201
146.188
253.895
147.227
146.201
146.201
146.201
146.201
146.202
146.201
146.398
146.201
146.201
146.201
146.201
146.201
146.209
147.431
146.203
146.387
146.203
146.202
146.202
146.519
146.203
148.178
146.201
146.201
146.955
146.201
146.253
146.205
146.207
146.205
148.223
146.205
146.201
513.447
146.201
617.704
338.731
146.204
146.201
146.201
146.201
146.201
146.28
146.201
146.625
998.595
206.711
146.201
146.201
185.772
146.201
146.201
146.201
146.201
146.201
149.197
414.082
146.287
146.201
146.467
146.201
369.51
146.292
146.201
146.201
406.446
146.216
146.205
410.557
146.204
146.472
146.201
146.201
294.542
146.201
146.201
3758.03
146.201
146.201
146.201
146.316
146.201
146.201
146.204
146.201
146.291
146.486
146.201
146.201
146.227
146.204
146.201
146.25
146.201
146.201
146.201
146.438
618.312
146.201
146.552
146.201
146.201
146.201
146.202
147.445
146.201
146.273
146.508
266.025
174.321
146.201
146.201
146.356
146.201
146.26
146.268
146.261
146.338
146.267
146.201
146.268
146.262
146.204
146.206
146.201
146.498
146.201
146.201
146.201
146.203
146.201
146.201
146.201
146.531
146.201
146.201
146.201
146.201
146.201
146.201
146.201
146.206
164.397
146.201
146.295
146.202
146.201
146.201
146.202
146.575
146.201
146.201
146.214
146.201
146.201
146.201
146.201
146.201
146.733
146.201
146.511
146.201
164.98
146.599
148.818
146.201
146.205
146.201
148.687
146.201
146.201
146.203
146.205
146.274
146.201
146.497
146.779
146.43
146.3
146.201
146.215
146.201
146.205
146.205
146.201
146.2
146.331
146.253
146.286
146.537
320.773
146.308
146.201
146.198
146.201
146.772
149.455
146.201
146.909
146.201
146.201
146.202
194.915
146.206
146.201
146.201
2346.45
1650.03
175.372
146.201
146.36
146.201
146.201
146.259
146.201
146.205
146.201
146.201
146.199
193.361
2062.48
146.506
210.231
146.353
146.209
146.201
146.686
148.231
146.201
146.201
152.988
146.214
146.425
146.201
148.832
146.279
146.265
146.286
147.121
149.978
146.428
159.014
146.201
146.333
158.635
146.201
162.642
146.201
289.683
146.201
146.201
151.192
163.967
151.844
162.51
146.575
158.914
146.21
146.408
146.208
146.211
2016.83
311.902
146.201
146.463
146.201
146.201
146.201
147.439
146.276
146.201
146.219
146.201
149.564
147.233
146.646
147.249
2457.64
146.201
302.668
146.201
146.201
146.201
146.201
146.201
146.201
146.201
146.201
146.231
148.206
146.26
146.203
146.201
146.201
146.201
146.201
146.201
146.201
290.155
241.962
146.201
146.201
146.201
146.262
146.201
146.201
146.234
146.201
146.201
146.201
146.202
2374.05
146.223
146.289
148.694
146.201
146.206
148.221
146.201
146.201
146.201
146.334
146.708
146.203
1225.6
146.201
146.201
15101.8
146.201
146.202
146.201
146.201
146.201
146.201
146.201
146.201
146.201
391.814
146.705
146.202
146.256
146.737
146.201
146.266
146.201
146.201
146.201
146.201
146.201
146.201
146.201
146.201
329.54
362.558
146.522
146.247
146.201
146.201
1010.12
148.09
146.201
146.216
146.201
146.201
146.206
146.332
815.222
146.233
146.201
3470.29
1048.73
146.531
146.201
146.266
146.206
146.206
146.484
146.207
1495.71
146.204
146.202
146.205
146.219
146.205
146.204
146.217
146.204
146.203
146.515
423.706
772.253
146.201
146.201
11589.1
146.201
146.201
147.165
146.201
155.01
146.204
146.201
146.201
146.201
146.201
146.203
146.23
147.078
146.221
156.689
146.201
146.553
146.204
146.202
146.201
146.201
146.201
146.201
146.201
146.201
146.212
146.201
146.201
146.283
146.498
146.203
192.203
2627.67
146.586
146.202
146.239
146.201
146.201
146.204
146.201
146.201
146.183
146.282
146.615
146.357
145.918
1480.84
157.943
146.201
146.241
146.404
146.203
2472.92
146.201
146.548
146.201
146.505
146.201
146.205
146.201
146.201
146.201
146.201
147.579
146.201
146.242
146.201
552.254
146.432
146.201
146.201
398.571
146.497
146.329
146.324
146.201
147.556
8440.67
146.201
146.201
146.259
146.414
146.223
146.201
146.224
148.033
146.35
146.231
332.156
146.226
146.238
146.201
6956.79
148.656
146.71
1665.84
167.753
146.21
175.625
146.201
1740.42
146.601
289.697
146.201
146.202
146.249
146.202
146.201
146.201
146.202
146.201
146.201
146.202
146.201
2060.19
1097.1
310.333
204.862
146.203
146.201
146.313
146.514
146.719
146.313
146.708
146.37
148.822
7126.84
146.54
146.202
306.378
146.201
146.201
146.201
115.03
146.202
159.952
146.357
146.321
146.86
709.72
146.202
146.213
146.201
146.201
146.201
146.202
146.201
146.202
146.293
146.607
360.904
8961.9
146.323
1973.53
146.202
151.751
146.203
147.852
147.944
148.674
146.202
146.201
146.201
146.201
146.201
146.201
147.303
148.557
146.202
1308.14
146.206
146.597
448.885
434.305
2753.59
1247.71
146.201
148.024
146.297
146.201
146.201
147.468
146.761
146.201
146.2
146.201
146.202
146.201
150.839
148.31
148.299
147.802
146.201
160.848
146.331
146.201
146.412
146.201
209.354
1361.13
237.681
207.929
149.021
146.202
146.201
222.944
146.201
146.201
146.201
146.225
146.202
146.202
146.627
146.361
146.317
146.202
146.201
146.202
146.201
146.201
146.201
146.559
146.702
146.201
146.201
2120.49
146.201
146.201
146.201
146.201
146.286
146.42
1815.42
146.464
146.989
146.201
146.344
146.201
146.23
146.267
146.201
146.253
146.201
146.201
146.546
146.201
146.201
146.343
146.258
146.361
146.41
146.201
146.243
146.218
146.355
146.201
146.425
146.258
146.32
146.265
810.046
146.201
148.251
146.238
146.568
146.23
146.431
146.283
146.361
146.201
146.201
13788.2
146.333
146.227
146.562
146.238
146.877
1392.72
146.201
146.299
146.201
146.374
146.201
146.393
146.717
146.201
146.741
146.201
146.287
146.344
146.201
146.201
146.269
146.201
146.201
146.201
146.201
146.244
146.201
146.391
2069.04
146.201
146.201
441.262
146.201
146.201
146.216
146.201
146.201
146.201
146.201
146.209
146.209
286.921
146.201
146.201
146.4
146.201
148.708
255.928
146.201
146.201
146.201
146.201
146.45
146.201
146.201
146.201
146.201
146.201
307.95
195.362
146.202
146.201
295.866
146.201
146.273
146.201
146.226
146.201
148.144
146.359
146.2
146.201
146.201
146.471
146.463
146.201
146.228
148.41
146.201
162.818
164.969
146.201
146.202
146.201
146.684
146.201
146.201
146.201
146.201
146.201
146.325
403.28
146.201
146.201
146.79
146.201
146.213
146.563
146.201
1828.56
163.783
146.203
146.202
146.199
146.257
147.142
146.201
148.295
146.201
180.312
146.402
146.201
1660.57
146.321
1650.53
1838.52
146.913
146.201
146.201
146.201
426.549
146.255
160.31
148.99
146.201
461.886
146.201
236.89
146.42
146.405
146.201
146.537
146.203
146.201
286.931
146.201
146.201
146.201
146.485
146.298
146.29
146.201
146.201
146.201
354.472
146.202
995.689
146.201
146.201
147.045
147.608
146.201
146.201
2211.86
146.201
146.201
146.202
148.003
146.347
146.393
146.201
2558.52
1840.92
146.223
147.778
146.201
152.856
146.201
146.235
1700.86
2090.6
251.468
152.662
151.789
153.553
146.201
18235.3
146.514
148.108
146.201
148.209
153.453
146.201
146.255
202.391
146.201
1936.14
146.201
304.371
146.433
146.624
146.306
146.438
146.201
146.201
146.201
146.201
12612.4
146.201
146.375
146.227
146.201
146.201
146.201
146.201
146.201
146.201
146.202
146.201
147.057
146.201
1536.95
146.201
146.203
146.166
146.475
146.204
146.201
146.201
146.201
146.201
214.617
2049.34
3108.83
777.419
146.202
146.201
146.201
146.201
146.203
146.382
146.201
146.201
146.687
146.646
2600.23
146.201
146.201
146.202
146.222
146.346
146.201
146.201
146.205
146.503
1082.85
146.204
149.203
146.201
211.122
146.581
148.568
146.201
146.206
146.203
146.201
146.204
146.201
146.202
146.237
146.203
146.202
146.191
146.206
147.394
146.201
146.224
146.202
146.237
146.201
146.201
146.238
412.313
146.265
146.201
146.201
146.201
146.686
1675.5
146.201
146.159
4349.21
146.2
523.225
205.401
315.534
1414.3
146.202
146.202
146.203
146.195
4984.87
305.826
146.201
146.201
146.201
146.201
146.201
146.201
146.201
146.201
146.222
146.201
146.201
146.45
146.201
146.638
146.278
146.201
146.201
146.241
146.234
146.201
146.216
146.201
146.201
146.208
146.201
146.201
146.663
146.202
146.201
146.201
146.201
146.202
146.201
146.373
146.712
175.201
146.396
148.614
146.481
152.559
146.209
146.202
149.647
146.213
155.495
146.345
146.208
148.77
146.157
146.211
146.202
146.211
146.219
146.205
146.221
146.201
146.205
146.25
146.192
239.047
146.2
192.649
146.204
146.521
146.234
146.204
146.231
146.711
146.234
146.205
146.192
146.201
146.69
497.742
146.204
146.201
146.201
146.204
146.201
146.639
146.5
146.201
146.201
146.201
146.287
146.204
146.201
165.166
146.202
146.201
146.203
146.201
146.209
146.193
146.201
146.201
146.201
146.211
146.201
146.201
146.201
146.213
147.747
146.201
146.583
147.376
235.307
280.333
146.201
146.201
152.808
146.201
146.201
146.201
146.201
146.201
146.479
147.015
146.457
146.201
146.342
146.201
146.597
146.29
146.201
146.201
146.991
146.201
146.201
146.487
146.201
359.502
168.006
146.201
146.201
155
1354.93
146.672
146.198
146.201
146.201
146.201
146.236
146.201
146.201
146.201
158.865
146.262
146.201
146.201
146.201
549.554
162.645
604.159
445.674
146.248
147.907
146.203
146.299
146.205
146.201
147.397
146.204
146.201
146.202
446.255
146.201
146.201
739.355
146.409
924.761
146.201
536.094
146.201
146.201
146.562
146.201
146.228
146.207
146.194
146.693
183.921
146.183
146.206
146.269
146.201
146.85
146.723
146.202
146.394
145.786
146.217
146.204
146.202
146.216
146.621
146.217
534.286
146.201
146.189
146.528
146.201
146.489
146.213
146.163
146.201
146.201
146.215
146.202
146.201
146.201
146.201
161.836
146.201
146.212
1026.37
146.201
146.217
146.215
991.524
146.137
146.208
1585.53
146.201
146.212
146.394
146.234
146.198
146.214
146.201
146.201
168.376
146.201
438.246
208.946
207.44
1047.14
146.236
146.175
215.179
209.237
146.194
146.201
146.201
374.446
146.342
188.351
146.201
146.261
1030.16
206.766
146.202
896.136
146.464
146.201
209.739
147.045
146.593
188.967
146.301
146.202
146.328
146.203
319.344
154.505
297.767
146.325
153.643
146.218
146.196
146.203
167.324
422.724
146.202
146.825
1507.89
146.205
146.201
2181.73
146.201
146.202
180.011
146.201
2191.92
146.201
148.221
418.666
1458.45
146.201
146.198
146.201
2356.86
404.548
148.12
146.197
2407.53
2224.89
146.223
146.201
155.759
146.203
169.349
1125.98
243.766
146.201
147.506
146.177
146.468
146.201
149.328
146.201
146.202
146.202
146.201
146.197
12749.9
146.201
146.733
146.191
146.213
146.55
146.202
146.206
146.201
146.194
146.383
150.807
146.201
146.18
146.199
146.201
491.821
157.297
10359.8
146.201
146.203
146.239
577.119
146.201
146.21
146.216
146.201
146.201
9411.09
146.201
146.211
146.201
146.19
146.201
146.227
146.201
146.201
146.201
146.201
146.642
1230.13
146.201
147.859
146.201
146.241
146.279
146.201
146.201
148.049
146.424
146.205
146.201
146.207
146.203
146.201
146.201
998.945
280.442
146.201
154.709
146.201
146.201
146.205
146.228
146.201
146.202
230.559
146.201
146.201
146.207
146.204
417.892
146.661
146.202
146.201
146.204
146.872
146.201
146.201
146.201
146.201
146.201
146.201
146.201
147.729
146.206
146.201
146.201
320.704
200.102
146.201
146.211
191.608
146.201
146.212
15545.2
146.201
147.97
146.643
146.202
146.203
146.202
146.241
146.212
146.202
146.202
146.203
146.199
146.205
146.203
337.086
146.214
146.206
146.201
146.203
275.231
146.205
146.202
146.201
148.596
356.844
146.201
146.201
146.201
146.201
146.214
1145.77
146.201
146.222
151.141
226.714
146.201
146.201
2736.23
146.201
146.201
146.201
146.201
146.204
161.088
146.201
426.788
229.434
146.201
146.201
146.201
150.111
146.293
146.201
146.21
146.201
146.201
146.201
149.635
146.226
1333.72
146.201
146.201
146.201
146.203
342.692
146.211
151.387
146.201
146.201
146.202
535.453
1539.84
206.363
146.201
150.666
149.186
198.005
149.042
151.749
146.203
146.889
146.295
146.201
146.16
146.201
146.543
146.201
146.288
261.466
164.386
146.722
146.226
147.105
146.201
206.588
209.545
146.575
185.687
163.021
297.953
173.522
273.724
146.201
147.196
146.692
148.185
146.201
804.042
146.2
146.201
243.853
167.688
146.201
146.197
146.201
146.203
146.201
146.201
146.201
146.223
2674.13
146.201
146.206
273.906
147.235
348.211
146.201
146.201
146.201
148.842
146.201
146.202
146.203
146.201
146.202
146.201
146.201
146.87
321.126
146.201
146.201
146.201
146.193
146.201
218.017
146.201
146.202
146.201
146.201
146.21
146.201
146.201
146.201
146.199
146.797
146.201
186.911
146.201
146.201
146.251
146.201
148.803
185.795
146.201
146.201
146.201
146.201
187.508
154.978
148.601
146.352
148.609
146.205
147.321
281.839
148.471
148.652
219.816
146.246
146.201
189.387
146.201
146.201
146.201
146.201
146.203
148.791
146.201
147.088
146.201
146.203
200.192
146.201
146.202
146.201
146.201
728.311
146.202
146.201
146.201
146.202
146.215
146.201
399.376
941.811
200.547
811.355
146.201
146.201
146.202
579.681
892.528
711.665
393.715
828.319
146.208
216.535
146.236
718.826
146.198
146.201
146.201
146.201
146.277
146.767
146.807
146.206
146.769
146.718
147.346
146.598
146.958
146.201
146.201
146.201
146.962
146.281
146.261
146.201
146.974
150.302
146.226
1467.39
146.281
146.643
146.814
146.201
146.812
146.748
146.243
146.201
146.202
146.269
146.201
146.201
146.775
146.201
146.201
149.622
146.203
146.748
149.713
146.204
146.203
146.25
146.249
307.34
146.251
146.32
146.274
146.201
146.201
146.262
153.264
146.245
146.249
375.774
146.225
146.293
146.506
2253.57
146.201
146.201
146.229
146.201
2185.77
146.201
146.201
146.201
146.227
146.201
169.027
146.201
146.201
146.221
146.227
146.234
146.461
146.201
146.38
2113.69
144.745
146.201
146.266
9219.38
146.595
1845.99
148.02
146.365
146.201
146.201
146.201
146.201
146.201
146.203
146.201
2056.19
146.201
146.201
146.201
146.201
146.201
146.201
146.201
146.65
146.214
146.201
146.201
146.879
146.201
2115.49
148.92
146.201
146.398
155.453
146.201
146.201
2006.04
146.202
146.201
296.727
146.201
146.201
146.201
146.202
146.201
146.201
146.201
146.201
146.201
146.201
168.547
146.224
146.201
146.201
146.201
146.272
146.201
146.503
146.201
146.351
146.201
146.201
146.201
146.202
146.22
146.201
146.201
146.201
146.201
146.201
154.977
146.201
146.201
146.201
146.201
146.199
146.212
146.201
146.201
146.201
146.471
146.201
146.201
146.201
146.79
146.201
146.201
146.201
146.204
146.197
146.201
146.201
146.201
146.201
146.201
155.653
151.441
193.255
146.198
146.2
146.209
146.201
146.204
146.211
498.769
146.207
146.197
146.201
146.201
146.204
146.475
146.201
146.201
146.543
146.201
146.201
146.201
146.201
146.201
146.201
241.945
146.291
146.201
146.201
146.593
146.563
146.666
146.204
147.199
708.021
146.201
146.201
146.202
146.662
146.201
146.203
146.201
146.202
149.801
146.201
146.201
146.201
146.206
146.203
146.219
146.301
146.201
146.782
437.116
146.201
150.311
146.201
146.201
146.201
146.201
146.201
146.202
146.201
739.234
147.826
138.624
147.01
155.291
146.202
146.201
146.201
146.201
146.209
146.201
146.201
146.201
146.203
152.496
146.204
174.368
169.997
146.201
146.354
146.252
146.261
146.202
146.201
146.24
146.201
146.201
146.201
146.306
149.881
147.991
146.19
146.404
146.201
146.202
146.201
146.236
146.201
147.124
146.325
146.201
146.201
147.62
146.206
146.201
148.159
146.201
146.201
585.33
146.201
146.202
146.201
146.284
146.202
146.2
146.202
146.201
146.202
146.201
2097.04
146.201
146.209
146.202
146.201
146.241
146.201
146.201
146.201
570.186
146.202
146.674
151.368
146.284
146.201
146.709
146.334
146.201
146.201
212.83
146.388
146.201
146.399
146.893
146.202
146.201
146.201
146.399
146.188
146.2
146.201
146.204
152.804
146.204
163.079
146.201
146.284
146.204
146.201
146.258
146.204
146.202
146.201
146.201
146.202
300.02
146.332
357.725
146.332
146.257
146.335
146.201
146.201
146.201
146.285
1248.62
145.886
146.212
146.204
484.717
146.334
324.373
301.889
146.201
1803.22
460.4
146.332
146.201
146.72
178.347
280.297
172.371
146.273
146.244
363.517
146.203
354.571
146.202
143.504
146.203
146.978
355.687
146.201
146.202
146.32
285.983
146.202
251.026
146.201
146.201
383.427
146.805
146.201
146.202
146.201
146.206
146.201
4041.06
553.022
146.201
146.201
364.377
146.203
2255.2
1016.45
215.169
146.203
146.201
146.201
146.36
146.201
146.201
146.224
146.202
146.201
360.647
146.202
146.201
148.282
144.816
146.201
146.201
598.953
146.201
146.201
146.919
146.201
146.201
146.434
146.278
11232.3
146.328
146.201
146.205
146.201
146.291
575.902
146.219
5818
146.201
146.88
146.201
146.202
146.201
148.019
146.233
146.201
146.807
146.201
146.201
146.23
146.201
146.203
146.269
146.313
1616.14
146.201
146.201
146.346
148.532
146.201
146.203
8833.82
146.201
146.203
146.785
146.201
146.201
146.201
146.201
146.201
146.203
146.201
146.201
147.107
146.201
146.265
9312.53
146.371
147.062
146.201
146.229
146.203
146.201
147.053
147.534
146.815
147.027
145.355
148.637
146.201
146.212
200.428
146.781
147.33
146.427
146.202
147.336
146.201
146.201
146.201
388.713
146.652
146.201
146.942
146.201
146.201
146.201
165.782
147.554
146.201
147.331
146.933
146.222
147.25
147.616
146.201
146.201
147.651
146.203
146.201
146.201
146.201
146.201
146.201
146.201
149.669
146.289
148.725
146.234
146.202
146.229
146.201
146.201
146.201
147.843
146.201
146.201
146.201
148.27
146.201
955.064
147.002
146.756
146.352
146.311
146.202
147.244
146.201
146.201
146.204
2010.78
146.824
146.203
146.201
146.201
715.591
146.202
148.032
305.801
146.778
146.976
146.201
146.201
147.841
436.226
146.204
146.998
146.22
146.207
146.201
147.211
146.202
148.39
146.201
146.201
146.218
146.212
146.201
146.201
146.229
146.638
146.45
146.202
146.201
146.246
146.565
146.201
146.201
146.201
861.272
148.502
3280.69
146.566
146.201
146.715
146.714
146.201
146.201
146.203
146.201
146.201
146.201
1633.74
146.201
146.202
146.201
146.742
146.201
146.201
146.201
146.201
146.407
146.412
146.201
146.755
146.202
146.235
146.201
146.201
146.201
146.733
146.672
146.13
146.132
146.256
146.205
146.203
146.203
146.201
146.201
146.65
146.202
146.202
146.201
146.201
146.16
146.643
146.201
146.165
146.925
146.201
146.201
146.201
146.201
184.442
146.201
146.204
146.201
146.22
146.16
146.204
146.201
146.201
146.145
146.204
146.201
146.554
799.005
146.201
146.201
146.204
146.201
146.205
146.201
146.201
146.201
146.205
146.203
146.204
146.201
146.447
2013.06
146.68
146.203
147.286
146.201
146.202
482.57
146.204
1711.95
146.205
146.353
146.201
146.201
146.201
146.201
146.204
146.201
216.067
147.968
146.201
146.201
146.201
146.201
146.203
146.202
146.201
146.201
146.201
146.719
214.506
146.572
146.202
146.201
217.165
208.257
146.396
146.202
146.201
146.201
146.206
146.201
146.208
146.203
146.202
213.394
146.257
148.867
212.75
147.119
804.11
146.201
1113.84
146.201
147.156
146.201
147.226
146.223
147.248
146.963
146.201
146.201
146.201
146.303
921.866
146.201
146.975
146.201
146.744
146.201
146.202
146.201
146.201
146.567
146.201
146.201
146.202
146.201
146.203
146.201
146.913
148.49
146.231
146.201
146.201
146.955
146.201
146.201
148.757
146.719
150.607
146.201
146.201
146.806
147.581
146.201
146.201
146.365
146.607
146.348
146.201
146.886
146.208
146.201
146.205
146.201
146.201
146.201
146.201
146.201
146.201
146.201
146.201
146.202
146.201
146.201
146.201
146.201
146.201
146.201
146.201
146.201
146.201
146.201
146.201
146.388
146.801
146.52
146.201
146.201
146.201
146.201
146.241
146.201
146.201
146.201
146.201
146.201
146.201
146.201
146.201
146.201
146.201
146.201
146.201
146.55
146.201
146.602
146.565
146.286
146.201
146.201
146.416
146.201
146.201
146.201
146.201
146.201
146.201
146.201
146.201
146.202
146.202
146.59
146.417
146.201
146.202
146.201
146.201
146.201
146.201
146.201
146.201
146.276
465.128
146.201
401.38
146.201
146.201
361.137
281.056
146.201
146.211
146.252
146.201
146.201
146.201
146.202
146.201
403.757
146.201
335.681
146.201
146.201
146.201
146.311
146.493
146.251
146.201
146.201
146.201
146.201
146.201
146.201
146.201
146.201
146.201
146.201
146.651
146.201
146.202
146.202
146.201
146.201
146.201
146.201
146.215
355.828
146.221
146.201
146.202
146.201
146.201
146.201
146.201
146.201
146.201
370.384
146.205
146.201
146.201
146.424
146.201
146.24
146.202
146.202
146.783
146.201
146.85
512.865
146.218
146.203
146.201
146.625
146.208
146.202
146.201
146.201
146.201
146.495
146.202
146.202
146.207
146.25
175.482
147.053
146.201
146.201
146.245
146.201