/*--------------------------------*- C++ -*----------------------------------*\
| =========                 |                                                 |
| \\      /  F ield         | OpenFOAM: The Open Source CFD Toolbox           |
|  \\    /   O peration     | Version:  v2012                                 |
|   \\  /    A nd           | Website:  www.openfoam.com                      |
|    \\/     M anipulation  |                                                 |
\*---------------------------------------------------------------------------*/
FoamFile
{
    version     2.0;
    format      ascii;
    class       volScalarField;
    location    "3";
    object      ILambda_15_0;
}
// * * * * * * * * * * * * * * * * * * * * * * * * * * * * * * * * * * * * * //

dimensions      [1 0 -3 0 0 0 0];


internalField   nonuniform List<scalar> 
108993
(
146.237
146.273
146.201
146.201
146.201
146.2
146.34
146.201
146.201
146.233
146.201
146.201
146.201
146.201
146.207
146.209
146.242
146.201
146.201
146.201
146.201
146.201
146.203
146.211
146.201
146.201
146.201
146.201
146.201
146.201
146.201
146.203
146.201
146.234
146.201
146.201
146.201
146.201
10040.3
2838.71
146.204
146.201
146.202
146.201
146.259
2164.72
146.201
146.299
146.202
146.201
146.201
146.372
146.244
146.201
146.204
146.219
146.201
146.201
146.201
146.201
146.201
146.201
146.201
146.201
146.201
146.201
146.201
146.201
146.208
146.148
146.208
146.201
146.201
146.201
146.206
146.201
146.201
146.238
146.201
146.201
146.201
146.207
146.201
146.201
146.202
146.202
146.201
146.201
146.201
146.201
146.201
146.201
146.201
146.201
146.201
146.208
146.201
146.201
146.201
146.201
146.201
146.201
146.208
146.215
146.201
146.201
146.202
146.201
146.201
1362.74
146.348
146.201
146.45
146.644
146.201
146.941
146.201
146.201
146.29
146.201
146.201
146.201
146.469
146.201
146.201
146.231
146.206
146.208
146.201
146.201
146.204
146.201
146.201
146.997
146.201
146.201
146.201
146.201
146.201
146.202
146.201
146.201
146.217
146.201
146.201
146.201
146.201
980.86
146.201
148.203
148.358
146.201
146.202
148.677
146.201
146.395
146.213
146.201
146.201
146.22
148.623
146.201
146.201
146.205
146.202
146.544
146.201
146.201
146.201
146.201
146.201
146.212
146.259
146.201
146.201
146.201
146.581
146.201
146.201
146.201
146.212
146.201
146.201
146.201
146.208
146.201
146.201
146.205
146.211
146.201
146.201
146.201
146.201
146.537
146.201
146.203
146.204
146.201
146.201
146.201
146.201
146.542
146.201
146.201
146.49
146.665
146.201
168.257
146.201
212.084
146.3
146.201
146.583
147.178
866.875
146.201
146.217
146.201
146.201
146.201
146.202
148.193
146.261
146.551
146.201
146.201
146.201
146.201
146.613
146.201
151.036
146.207
146.201
146.201
146.201
146.201
146.201
146.201
146.251
146.201
146.201
146.201
146.201
146.201
146.201
146.254
147.416
146.448
146.201
146.201
146.201
146.201
146.201
146.201
146.201
146.201
146.201
146.201
146.201
146.201
146.201
146.206
146.242
146.26
146.201
146.201
146.201
146.201
146.201
146.201
146.201
146.201
156.938
145.985
669.379
146.201
146.201
146.582
146.201
146.201
146.201
147.193
178.72
146.201
146.201
146.208
146.201
146.201
146.204
1224.02
146.201
146.201
146.201
146.201
146.201
146.201
146.201
146.201
146.23
146.201
146.528
146.939
146.201
146.201
146.201
146.205
146.201
146.225
146.208
148.884
146.201
146.201
146.274
146.201
146.207
147.047
146.201
146.28
8460.4
146.201
146.215
146.201
146.201
146.201
146.201
146.857
5263.41
147.039
146.201
146.205
146.201
147.004
147.776
146.201
1692.39
146.204
146.201
146.201
146.201
146.201
146.201
146.35
146.201
146.201
146.207
146.203
146.201
146.201
146.201
146.201
146.201
146.2
146.978
182.651
146.201
146.201
146.201
266.097
146.201
146.201
146.204
146.202
146.201
146.201
146.204
146.201
146.201
146.201
146.205
6748.6
146.222
146.208
146.201
228.117
146.201
204.337
146.226
146.201
147.098
146.201
147.918
148.342
146.201
146.387
146.205
146.212
146.223
1293.19
146.201
484.867
152.215
146.21
155.266
146.202
177.232
146.201
4628.23
146.201
146.317
146.201
146.201
146.807
148.133
146.201
146.201
146.209
146.214
146.201
146.202
194.319
146.201
146.201
20778.1
146.206
146.201
146.201
203.645
146.213
146.949
146.2
334.603
146.235
330.019
146.201
146.201
176.105
146.201
147.409
176.747
146.201
3888.49
9177.29
2340.21
146.201
146.201
146.222
146.201
146.201
146.201
146.201
146.209
146.201
146.201
146.201
147.036
146.336
146.239
146.259
146.201
146.201
146.201
146.201
146.201
146.25
146.201
146.211
146.21
146.201
146.201
146.201
146.415
146.201
146.411
147.765
146.219
146.201
146.203
146.412
146.201
146.201
146.226
146.201
146.201
146.202
146.201
146.239
146.201
146.355
158.055
146.314
146.201
146.201
146.201
146.201
146.201
146.201
146.201
146.201
146.228
146.234
146.205
146.21
146.281
146.201
146.397
146.201
146.201
146.201
146.201
146.208
146.201
146.201
146.201
146.201
146.29
146.847
146.201
146.201
1463.96
146.201
146.348
146.318
146.201
146.222
146.201
146.201
146.201
146.201
146.213
146.203
146.201
146.201
146.271
146.237
146.202
146.254
146.211
146.201
146.244
146.224
146.204
146.201
146.253
146.201
146.201
146.201
146.484
146.203
146.229
170.995
146.202
432.325
146.201
146.201
146.201
146.201
146.201
146.241
146.201
146.201
146.499
146.203
331.839
146.202
146.206
146.202
146.201
146.201
235.358
146.206
146.249
146.201
146.201
146.29
146.254
154.21
146.217
146.201
146.202
146.202
146.201
146.268
4294.7
146.254
147.467
146.207
146.206
146.262
1741.25
146.515
146.225
146.213
146.201
146.201
146.217
146.43
1940.53
146.261
146.204
146.201
146.204
146.204
146.215
146.201
155.004
146.201
146.201
146.203
146.355
146.219
146.201
146.201
145.95
146.236
146.201
146.205
145.755
146.205
146.254
146.201
147.296
146.201
146.218
146.201
146.228
146.201
146.24
146.204
147.378
146.201
146.597
146.201
146.216
412.729
146.226
146.201
146.201
146.297
410.537
146.221
147.764
146.202
146.407
146.388
146.206
146.201
146.204
508.261
146.299
146.329
146.203
146.332
146.201
146.211
146.201
146.209
146.204
146.286
146.247
146.221
146.216
146.391
146.797
146.814
146.214
146.217
146.346
146.776
169.154
146.862
146.694
146.201
146.26
146.201
146.201
146.201
146.246
146.21
146.486
153.272
146.231
146.282
146.481
146.827
146.989
146.201
146.395
146.226
146.202
928.303
146.331
146.247
146.218
146.21
1185.5
146.224
275.796
146.225
146.226
247.245
146.201
146.201
146.273
146.215
146.201
173.414
146.214
672.434
146.243
208.832
146.422
146.201
146.201
146.201
146.227
146.201
146.244
146.205
146.201
146.201
146.274
349.424
10101.2
146.204
184.389
146.202
146.339
146.227
146.201
146.328
146.215
146.217
146.546
146.256
146.204
146.253
146.479
146.365
146.357
146.201
146.27
146.22
146.209
146.227
146.202
146.201
146.352
146.201
146.201
146.256
146.201
146.331
3545.7
812.191
146.226
146.395
146.27
146.262
146.238
146.239
146.214
146.201
146.201
146.228
146.201
146.414
146.201
146.201
146.276
146.204
146.247
146.201
146.23
146.202
164.81
146.201
146.221
181.454
146.201
146.201
146.205
146.722
146.201
146.609
146.663
146.214
146.205
4937.67
147.537
146.231
146.201
146.469
146.204
146.205
146.316
146.201
146.399
146.201
146.201
167.704
146.201
6824.39
146.201
146.201
1475.5
146.226
575.911
146.29
153.675
146.201
146.362
146.252
146.201
146.201
146.217
146.201
146.209
146.201
146.201
146.201
146.201
146.202
146.201
164.941
146.201
146.56
146.202
146.205
226.944
146.204
177.006
146.208
146.202
146.223
13509.9
146.391
146.202
149.365
146.531
146.239
146.428
161.401
146.348
146.201
146.264
146.202
146.201
228.046
1553.45
146.201
146.228
146.212
146.496
146.223
146.206
156.638
146.206
146.201
218.299
146.204
213.2
146.217
223.144
146.205
146.335
146.224
146.345
146.474
146.206
146.224
146.222
164.739
146.245
281.031
146.201
146.201
146.201
146.288
146.211
146.327
146.201
146.201
146.332
180.134
146.201
146.318
146.34
201.724
146.201
146.467
146.967
343.271
146.269
146.666
146.203
147.413
146.201
147.477
5708.39
7417.39
146.201
146.201
146.36
146.24
146.385
146.201
146.201
146.417
146.538
146.201
146.486
146.269
146.206
147.453
146.201
146.209
145.988
8118.71
146.213
146.286
146.201
146.201
146.267
146.58
147.606
146.205
147.414
146.232
146.25
146.223
146.201
146.276
146.219
146.202
146.201
146.252
146.202
146.577
146.201
146.201
146.302
146.201
146.288
146.352
146.255
146.24
146.201
147.622
146.211
229.555
146.214
146.224
146.201
146.415
146.51
146.201
146.233
147.262
146.43
146.458
146.201
146.238
146.376
146.778
146.203
148.298
1011.85
146.246
146.227
146.236
146.203
146.491
903.206
146.457
146.317
146.3
146.251
146.231
146.201
146.206
146.31
147.403
146.236
146.201
146.203
146.296
146.201
146.202
146.201
146.301
146.206
146.201
146.205
146.203
146.201
146.204
146.203
147.188
146.206
146.201
146.217
146.201
1219.34
146.201
146.204
146.204
146.203
146.203
1897.45
146.206
146.201
146.205
146.201
146.598
146.21
146.557
146.201
146.205
146.325
146.201
146.526
146.285
146.548
146.2
146.207
146.206
146.203
146.202
146.263
146.201
146.2
146.201
146.201
147.446
146.201
146.276
146.201
146.202
146.284
146.259
146.236
146.27
146.201
146.201
146.21
146.494
146.201
146.201
146.201
12905.2
146.202
146.449
146.201
146.27
146.208
146.201
147.098
146.452
146.22
146.371
2266.1
146.248
146.331
146.366
147.276
146.202
146.202
146.203
146.283
146.262
332.925
146.232
146.204
146.232
146.205
146.244
146.201
146.247
146.483
146.287
146.228
146.522
146.327
146.236
146.201
146.201
146.201
146.201
146.201
146.201
146.233
147.051
146.201
1998.35
146.23
146.201
146.201
146.232
147.275
146.201
146.226
146.217
146.269
146.201
146.23
148.327
146.255
146.201
146.373
146.201
146.203
146.206
146.201
146.201
146.206
9197.14
146.262
146.201
146.206
146.201
146.209
146.205
146.201
146.208
146.213
146.209
146.201
146.204
146.204
146.203
146.201
146.201
146.201
146.201
146.197
146.203
146.275
146.737
146.542
2422.98
146.203
146.201
146.202
146.202
146.203
146.202
146.201
146.201
146.201
146.501
146.205
146.283
146.201
146.201
146.202
146.212
3414.73
4516.96
146.202
146.201
146.201
146.247
146.202
146.201
146.68
146.201
146.201
146.201
146.201
146.201
146.22
146.222
146.216
147.874
146.203
146.204
146.218
146.972
146.424
146.237
146.201
146.223
147.994
146.201
146.243
146.215
146.213
146.209
240.876
146.51
146.201
146.739
146.201
147.364
146.714
146.213
146.202
146.201
146.202
146.201
146.237
146.201
147.119
1155.98
146.417
146.201
146.201
146.367
146.202
146.201
146.202
146.201
146.201
147.204
147.77
147.096
146.201
146.234
146.202
146.209
146.353
146.203
146.201
148.323
146.27
146.48
147.082
146.389
146.699
146.201
146.22
146.228
146.201
146.204
2535.01
146.201
146.209
146.201
170.138
146.201
146.201
146.277
146.201
146.32
153.301
146.201
146.372
146.243
146.319
146.203
146.242
146.201
146.291
146.201
146.495
146.223
146.205
151.039
146.204
146.201
146.201
146.383
165.921
146.201
146.219
146.382
1981.56
146.919
146.201
146.201
146.27
146.21
146.378
146.327
146.318
146.413
146.302
146.201
146.403
146.403
146.21
146.209
146.201
146.35
146.21
146.201
146.201
146.211
146.201
146.201
146.201
146.318
146.201
146.204
146.202
146.251
146.202
146.201
146.201
146.497
148.737
146.201
149.117
146.204
146.201
146.211
146.202
146.276
146.201
146.201
146.513
146.201
146.244
146.246
146.201
146.246
450.349
146.246
146.233
146.25
146.23
146.472
146.245
146.201
146.205
146.201
146.245
146.201
146.201
146.207
146.204
146.224
146.201
147.188
146.245
146.532
196.442
146.201
146.391
146.201
146.203
146.205
146.202
146.202
413.199
151.922
146.307
146.24
335.271
146.401
146.201
146.239
146.201
146.24
146.246
146.248
148.352
146.201
146.201
146.203
146.225
146.205
146.201
146.201
2464.72
1607.54
146.225
146.201
146.452
146.201
146.201
146.209
146.201
146.461
146.201
146.201
146.232
146.227
1926.25
146.22
146.229
146.474
146.549
146.201
146.303
146.97
146.201
146.201
146.246
146.559
146.289
146.201
146.241
146.4
146.295
161.946
146.244
146.247
794.282
146.208
146.201
267.4
146.21
146.201
146.214
146.201
2304.29
146.201
146.207
146.926
146.216
5370.23
146.207
895.425
146.215
146.212
358.383
146.055
146.213
189.918
146.255
146.201
146.714
146.201
146.202
146.21
1511.81
146.376
146.205
146.358
146.201
167.073
1313.36
154.992
146.035
2092.23
146.203
151.639
146.201
146.204
146.201
146.201
146.201
146.201
146.201
146.201
146.46
148.326
146.275
148.46
146.201
146.201
146.201
146.201
146.201
146.201
279.886
156.809
146.201
146.201
146.201
146.443
146.383
146.203
146.521
146.201
146.201
146.201
146.634
2567.62
146.566
154.125
146.599
146.201
146.215
148.325
146.205
146.201
146.202
184.466
1014.31
146.516
196.255
146.201
146.201
37463.5
146.201
146.649
146.201
146.201
146.21
146.201
146.571
146.201
146.629
162.107
146.409
146.647
146.375
146.315
146.201
146.448
146.201
146.207
146.201
146.201
146.201
146.201
146.243
146.201
146.228
146.565
146.678
146.83
146.201
146.201
14992.1
148.287
146.201
146.426
146.201
146.206
146.252
148.916
15953.4
148.326
146.201
1632.78
10190.4
148.443
146.201
152.253
146.245
146.265
289.111
146.217
11301.6
146.258
146.202
146.241
146.794
146.237
146.312
146.466
146.338
146.207
147.857
8801.57
15033.2
146.201
146.201
19435.5
146.201
146.297
147.49
146.201
231.897
146.275
146.207
146.23
146.204
146.203
146.31
146.787
876.297
146.538
535.601
146.201
147.114
146.357
146.298
146.202
146.212
146.208
146.207
146.202
146.209
146.242
146.204
146.203
146.212
207.476
146.336
146.213
811.37
146.27
146.203
219.398
146.203
146.227
146.203
146.206
146.201
146.232
147.887
146.709
146.502
146.9
2475.64
146.208
146.227
146.3
147.031
146.395
811.165
146.202
146.345
146.201
147.568
146.263
148.78
146.202
146.201
146.201
146.201
146.72
146.201
146.292
146.201
251.944
147.073
146.203
146.201
1138.55
149.186
151.954
148.023
146.201
147.797
13442
146.201
146.241
146.262
146.344
146.305
146.201
146.292
147.839
158.588
146.311
704.722
148.797
146.288
146.209
981.977
152.911
146.306
166.259
146.206
146.966
146.306
146.206
163.018
146.264
146.217
146.201
146.341
227.343
146.219
146.202
146.229
146.201
146.201
146.202
146.263
146.233
1906.65
244.63
146.217
339.967
146.074
146.201
146.27
165.067
1325.35
146.405
146.379
582.426
146.727
23367
147.114
146.201
940.381
146.208
146.201
146.205
212.483
146.201
153.229
146.467
147.123
147.281
175.571
146.201
146.252
146.389
146.202
146.201
146.201
146.201
146.201
146.239
1007.58
147.171
2438.78
146.239
5239.48
146.353
167.824
146.216
146.587
147.004
148.73
146.201
146.202
146.201
146.201
146.201
146.201
146.206
160.638
146.384
238.961
146.289
146.416
910.569
158.539
253.431
167.425
146.201
283.877
146.372
146.201
146.202
148.19
147.071
146.201
146.202
146.201
146.287
146.201
156.695
202.721
246.061
148.367
146.201
150.933
146.812
146.201
146.32
146.201
146.234
179.941
146.214
146.228
150.339
146.286
146.201
146.236
146.201
146.201
146.202
146.45
146.35
146.201
146.91
146.484
167.859
146.355
146.243
146.202
146.201
146.235
146.229
147.167
1727.42
146.238
146.201
2452.89
146.244
146.201
146.247
146.247
146.597
1133.65
358.266
147.547
147.089
146.201
334.168
146.246
147.601
607.788
146.201
253.107
146.201
146.201
798.592
146.201
146.252
834.991
353.037
860.083
1040.8
146.201
146.728
146.541
146.465
146.228
146.215
383.485
851.725
151.099
519.881
146.456
146.23
146.429
789.951
175.477
151.441
146.414
1057.34
146.201
146.201
23373.4
583.259
146.825
147.202
147.004
235.652
1506.47
146.201
146.636
146.202
663.399
146.202
146.581
147.016
146.201
1104.58
146.202
709.669
810.712
146.201
146.203
394.076
146.202
146.201
146.201
146.2
273.234
146.202
782.646
403.148
146.201
146.201
1147.41
146.222
146.201
146.576
146.201
146.201
146.202
146.201
146.258
146.257
1238.38
146.201
146.201
505.644
146.201
208.816
244.883
146.201
146.201
146.202
146.201
150.423
146.201
146.202
146.201
146.201
146.201
3008.25
4527.29
146.212
146.201
25030.7
146.201
146.4
146.201
146.73
146.201
214.624
146.476
146.202
146.203
146.288
146.605
165.848
146.201
146.848
146.179
146.201
146.225
146.339
146.201
146.391
146.201
529.058
146.201
146.201
146.202
146.262
146.201
360.066
177.04
146.201
146.201
147.558
146.201
219.498
146.23
146.201
571.504
1533.9
146.554
146.209
146.24
147.223
958.669
146.201
3493.94
146.201
2218.3
151.87
146.21
452.896
532.173
1056.28
532.376
150.706
146.225
146.201
146.201
149.596
183.883
146.21
588.195
146.207
146.211
146.201
146.353
607.921
511.218
146.201
146.644
146.37
146.201
146.649
146.201
146.2
146.201
1043.31
152.876
153.374
146.201
146.201
146.201
2534.91
146.412
3877.19
146.201
146.201
147.018
147.164
146.201
146.201
2390.74
146.201
146.201
146.459
5673.53
146.631
146.475
146.201
479.906
972.03
333.733
148.221
146.219
149.916
146.201
146.239
1172.1
1430.31
147.938
148.592
148.445
148.359
146.201
11961
462.583
148.151
146.201
147.062
259.893
146.201
259.229
148.469
146.201
228.876
146.201
3301.66
146.779
146.609
148.882
717.815
146.201
146.201
146.212
146.367
14017.9
146.201
289.619
146.251
146.201
146.201
146.201
146.202
146.375
146.203
146.366
146.203
3521.59
146.201
184.36
146.201
146.55
146.201
146.23
146.678
146.201
146.201
146.201
146.201
146.23
11411
13591.5
152.455
146.529
146.201
146.202
146.201
146.209
146.226
146.214
146.202
146.792
146.486
15692.7
146.206
146.201
146.201
146.563
146.214
146.202
146.396
146.21
146.259
12429.1
146.314
146.813
146.201
146.222
146.906
147.019
146.201
146.215
146.339
146.202
146.419
146.226
146.229
146.269
146.211
146.201
146.214
146.209
146.698
146.206
387.924
146.201
146.256
146.207
146.201
146.271
146.24
146.42
146.211
146.201
146.201
146.801
221.341
146.202
343.909
218.627
146.205
146.266
146.205
146.218
229.412
146.201
146.238
146.454
146.204
227.366
146.237
146.201
146.215
146.202
146.216
146.201
146.201
146.209
146.201
192.125
146.201
146.201
146.325
146.201
146.242
146.754
146.208
146.201
152.992
149.321
146.216
146.222
146.201
146.238
146.519
146.201
146.201
146.427
146.219
146.218
146.223
146.231
146.203
146.201
146.238
146.354
995.381
146.732
2377.14
146.252
146.241
146.221
146.201
1569.37
146.217
146.211
147.796
146.222
834.61
146.201
146.219
146.243
146.249
146.457
146.271
146.52
146.201
146.252
146.788
146.204
146.349
146.213
146.225
146.334
146.367
146.685
146.271
146.975
146.372
146.958
146.238
146.224
146.201
146.505
146.228
146.223
146.202
146.202
146.327
146.201
146.25
146.222
146.201
146.201
146.201
146.31
157.807
146.201
146.219
146.225
146.201
146.397
146.201
146.341
146.222
146.204
146.201
146.201
146.226
146.201
146.201
146.201
146.209
146.202
146.201
146.603
146.202
146.286
164.406
146.201
146.229
146.295
146.201
146.203
146.207
146.201
146.201
146.398
146.331
146.22
146.201
146.258
146.201
146.296
146.398
146.201
146.201
146.243
146.201
146.201
146.439
146.201
146.223
146.215
146.224
146.201
146.205
847.09
146.77
146.231
146.201
146.201
146.202
146.28
146.222
146.201
146.201
146.214
500.145
146.201
146.201
146.201
183.336
146.232
146.234
159.153
146.228
146.207
146.4
146.241
146.203
146.207
1238.65
146.331
146.201
146.46
153.37
146.201
146.201
172.053
146.566
253.619
146.201
146.222
146.202
146.212
312.113
146.201
312.653
146.213
146.208
281.702
146.222
146.203
146.539
364.994
146.205
146.306
215.387
146.206
146.396
482.701
146.447
146.359
146.201
146.433
147.351
146.367
315.092
146.201
146.221
146.379
146.202
146.366
363.482
146.202
146.338
146.201
362.901
146.261
146.201
146.206
146.201
146.211
146.202
272.404
932.844
146.201
333.232
366.455
932.858
146.202
146.403
2372.69
146.201
324.521
146.305
146.427
146.219
266.964
146.201
146.201
146.24
146.201
402.799
146.225
146.224
1723.93
146.457
146.201
146.238
146.226
146.228
146.204
146.201
146.178
146.253
146.141
146.219
146.922
1454.02
146.225
146.218
4364.59
146.291
146.201
146.224
146.914
146.495
146.267
146.231
146.42
146.264
146.528
5565.65
146.237
146.207
146.385
146.235
146.28
146.207
146.306
146.234
146.221
146.388
146.351
1227.71
146.539
146.206
157.258
146.201
146.229
196.225
146.202
187.369
146.202
147.318
6559.92
1436
146.201
146.221
146.201
152.311
146.268
148.001
146.217
165.504
182.598
146.543
146.201
147.342
146.517
146.26
264.044
245.599
146.201
146.298
146.218
146.256
146.202
146.202
146.201
146.219
146.204
146.201
146.244
15767.1
146.201
146.271
146.206
146.669
146.479
146.207
146.272
146.201
146.22
146.233
146.203
146.202
146.203
146.231
146.201
146.222
146.228
3654.29
146.201
146.617
146.287
4297.43
146.201
146.445
146.359
146.201
146.201
27105.7
146.201
146.209
146.201
146.207
146.201
146.219
146.201
146.201
146.201
146.209
146.502
276.117
146.201
146.208
146.201
146.481
146.353
146.214
146.201
914.744
146.203
146.224
146.201
146.468
146.216
146.201
146.201
5179.1
2103.37
146.202
146.233
146.212
146.201
146.216
146.55
146.212
146.243
148.336
146.217
146.207
146.497
146.216
416.367
158.553
146.202
146.202
146.228
149.891
146.208
146.283
146.203
146.201
146.201
146.201
146.201
147.236
146.217
146.325
146.326
945.349
1850.98
146.201
146.254
146.473
146.203
146.285
45761.2
146.201
148.069
147.077
146.203
146.202
146.202
146.443
146.278
146.206
146.205
146.201
146.208
146.211
146.528
146.22
146.53
146.248
146.202
146.539
1033.45
146.205
146.203
146.202
864.551
2759.24
146.201
146.216
146.201
146.259
146.265
1940.89
146.204
146.583
146.196
146.213
146.201
146.202
1402.09
146.201
146.201
146.201
146.201
146.743
146.243
146.385
146.228
146.216
146.202
146.202
146.201
822.106
147.086
146.2
146.53
146.201
146.201
146.201
1036.66
152.378
1683.95
146.239
146.202
146.201
146.202
146.205
146.139
764.624
146.218
146.201
146.205
1528.04
2509.14
146.205
146.201
815.559
814.313
146.236
397.278
416.042
146.347
304.777
147.147
146.202
146.204
146.202
146.207
146.202
146.236
9231.75
1226.99
149.613
147.503
807.722
146.21
146.235
146.231
146.675
146.205
289.691
146.208
196.83
155.84
146.201
380.497
149.032
146.204
146.204
8679.11
146.21
146.201
1324.52
375.545
146.201
146.202
146.202
146.203
146.231
146.201
146.202
377.218
1927.58
146.201
146.231
146.232
150.915
161.392
146.201
146.201
146.201
1075.03
146.21
146.205
146.573
146.201
146.25
146.201
146.201
712.868
146.205
146.201
146.201
146.201
146.226
146.216
146.206
146.201
146.448
146.213
146.201
146.453
146.201
146.206
146.201
146.21
146.201
146.201
146.224
146.201
146.201
447.448
146.201
147.232
146.229
146.201
146.201
146.207
146.215
146.237
146.243
147.108
231.957
147.308
146.288
417.465
146.204
147.163
147.302
146.214
146.956
146.201
146.235
146.2
146.201
146.201
146.209
146.368
152.955
146.201
173.745
146.201
146.249
146.218
146.201
146.234
146.202
146.38
8720.49
146.43
146.201
146.201
146.362
309.327
146.364
146.228
594
146.228
597.033
146.201
146.201
146.438
434.157
642.212
484.555
561.917
276.89
153.634
150.016
149.374
545.887
146.203
146.201
146.205
146.204
146.226
891.589
146.281
146.278
940.689
929.031
146.229
889.396
146.815
146.201
146.201
146.201
146.917
151.876
146.277
146.201
146.891
1235.92
146.518
3604.28
146.824
146.587
146.842
146.201
146.292
146.841
146.26
146.201
146.24
146.58
146.201
146.201
146.791
146.202
146.201
147.45
146.202
146.824
148.782
146.203
147.532
146.722
147.228
146.21
146.844
146.678
151.291
146.216
146.201
147.428
149.885
146.918
146.667
146.234
146.58
146.243
146.254
634.194
146.2
146.223
148.242
146.202
152.303
146.204
146.201
146.201
148.321
146.201
146.236
146.201
146.214
146.553
148.181
148.419
146.216
146.201
146.787
177.775
381.798
146.201
248.128
23717.5
148.449
430.152
146.21
161.472
146.201
146.341
146.206
146.201
146.202
146.201
146.201
271.01
146.201
146.324
146.201
146.201
146.201
146.201
146.208
146.278
146.409
146.201
146.201
191.005
146.201
171.968
146.244
146.201
354.483
146.213
146.201
146.201
172.092
146.206
146.201
146.223
146.225
146.201
146.201
146.46
146.201
146.201
146.202
146.201
146.201
146.201
146.231
146.727
146.201
146.286
146.201
146.319
146.201
146.234
146.201
146.644
146.201
146.201
146.201
146.203
146.551
146.203
146.201
146.201
146.201
146.201
10170.5
146.201
146.201
146.207
146.202
146.222
146.421
146.201
146.201
146.201
146.282
146.201
146.202
146.201
146.251
146.201
146.201
146.201
146.669
146.204
146.201
146.201
146.201
146.205
146.201
1594.67
146.286
146.213
146.243
146.205
146.538
146.219
146.615
146.254
146.219
146.548
146.204
146.201
146.2
146.201
1312.71
146.201
146.201
1253.89
146.201
146.201
146.201
146.201
146.216
146.207
9626.72
146.203
146.201
146.203
1426.43
2250.99
2184.9
146.499
148.079
268.129
146.201
146.217
146.222
2034.26
146.202
146.202
146.203
146.201
6245.19
146.201
146.201
146.203
146.522
146.472
146.532
146.81
146.201
147.115
146.643
146.201
170.281
146.201
146.202
146.201
146.201
146.201
146.51
146.201
310.853
147.392
157.48
147.23
170.764
146.452
146.201
146.202
146.202
146.23
146.201
146.201
146.201
146.202
147.368
146.527
146.208
146.877
146.201
161.575
146.306
147.282
146.378
146.201
148.624
146.201
146.201
146.2
318.993
235.25
151.708
146.207
151.005
146.201
146.204
146.201
146.347
146.201
1470.06
146.357
146.201
146.201
146.501
146.541
146.201
147.672
146.201
146.201
1496.3
146.201
146.466
146.201
146.339
146.202
146.207
146.202
146.201
146.449
146.202
283.444
146.204
147.399
146.202
146.215
245.347
146.201
146.202
146.201
658.211
146.216
147.499
148.308
147.696
146.201
1372.25
146.444
146.202
146.202
1191.4
146.448
146.201
146.626
1938.56
146.202
146.23
146.203
148.062
146.204
146.207
146.206
146.203
148.839
146.204
175.887
146.202
146.621
146.203
146.201
146.286
146.204
146.214
146.23
146.201
146.489
2010.01
146.493
550.642
147.431
202.819
147.087
146.203
146.201
146.201
236.564
1664.22
333.086
161.491
146.456
233.761
147.4
1556.66
1162.04
146.201
2472.24
1743.41
146.597
146.201
270.113
143.748
149.249
503.536
147.934
146.781
740.714
146.203
735.284
146.221
144.699
146.34
1309.09
300.633
146.201
146.202
146.802
164.957
146.415
146.625
146.201
146.201
386.578
146.25
146.304
146.208
146.201
146.495
146.201
32894.4
152.871
146.201
146.247
348.27
146.481
340.288
2394.74
192.646
146.474
146.201
146.208
471.572
146.201
146.201
146.238
146.252
146.251
335.509
146.4
146.381
152.081
146.846
146.201
146.201
897.804
146.201
146.218
147.007
146.201
146.201
146.259
229.001
404.038
162.501
146.256
146.451
146.201
147.494
260.01
146.467
14114.2
146.201
146.269
146.201
146.78
146.201
147.889
185.741
146.201
288.878
146.201
146.201
146.306
146.356
146.521
146.282
519.186
2931.12
146.201
146.201
146.423
149.003
146.202
146.254
223.176
146.201
146.513
146.3
146.201
146.202
146.201
146.202
146.202
146.202
146.201
146.223
146.875
146.216
195.501
12297.2
146.592
146.965
146.201
146.399
146.203
146.201
147.044
507.59
249.652
146.932
140.563
148.547
146.202
146.533
9021.7
147.17
147.154
146.631
146.201
147.167
146.202
146.201
146.201
146.199
146.86
146.208
182.328
146.201
146.35
146.229
1747.73
211.93
146.201
147.31
147.446
146.243
147.461
147.287
146.201
146.201
147.963
146.331
146.201
146.201
146.201
146.201
146.244
146.201
6206.42
171.323
149.647
146.738
146.509
146.492
146.203
146.201
146.201
147.943
146.201
146.201
146.201
147.493
146.23
1889.48
146.949
146.555
146.464
272.493
146.335
146.825
146.202
146.204
146.545
231.262
146.87
146.202
146.201
146.206
414.213
146.202
147.036
315.843
146.676
147.616
146.202
146.241
148.758
168.209
146.201
147.275
146.597
146.564
146.201
147.068
146.354
148.925
146.201
146.2
178.197
146.277
146.201
146.202
146.634
161.549
146.986
146.206
146.201
146.833
146.804
146.201
146.201
146.201
1703.81
149.058
13236.7
147.11
146.201
166.687
163.069
146.204
146.201
146.314
146.267
146.338
146.343
1905.39
146.201
146.354
146.206
152.667
146.202
146.201
146.201
146.201
230.308
180.651
146.202
157.726
146.393
146.266
146.201
146.223
146.201
168.849
146.769
146.201
146.201
146.387
146.203
146.204
146.204
146.201
146.202
146.877
146.201
146.516
146.202
146.201
146.201
146.948
146.201
146.201
153.757
146.202
146.218
146.201
146.378
1370.52
146.201
147.239
146.261
146.59
146.201
146.202
146.202
146.222
146.201
146.349
146.224
146.94
1158.71
146.201
146.201
146.202
146.202
146.202
146.201
146.201
146.213
146.203
146.203
146.203
146.201
146.248
1591.94
149.083
146.608
146.559
146.206
146.202
801.799
146.203
989.908
146.437
146.574
146.203
146.201
146.201
146.201
146.204
146.201
146.229
148.079
146.202
146.201
146.201
146.245
146.201
146.205
146.201
146.202
146.201
146.314
146.229
146.268
146.203
146.201
146.226
146.225
146.249
146.203
146.217
146.202
146.289
146.201
146.485
146.267
146.426
146.228
146.294
148.317
146.231
147.288
282.37
146.203
505.882
146.201
147.296
146.201
147.352
146.605
147.163
177.212
146.203
146.201
146.201
146.87
1707.15
146.201
147.257
146.353
304.532
146.201
146.212
146.201
146.202
147.358
146.201
146.201
146.201
146.201
146.202
146.201
146.959
147.274
146.523
146.202
146.201
146.506
146.201
146.201
146.254
305.435
146.249
146.201
146.201
148.168
146.255
146.201
146.201
150.066
147.143
290.975
146.201
147.233
146.223
146.201
146.205
146.201
146.201
146.201
146.21
146.201
146.201
146.202
146.201
146.201
146.201
146.201
146.201
146.201
146.201
146.22
146.201
146.201
146.201
146.201
146.202
146.463
146.695
146.531
146.201
146.201
146.201
146.201
146.506
146.215
146.201
146.201
146.201
146.202
146.201
146.37
146.201
146.201
146.201
146.201
146.202
146.269
146.201
146.27
146.263
146.34
146.201
146.201
146.294
146.201
146.201
146.201
146.201
146.201
146.201
146.201
146.202
146.203
146.202
152.195
149.523
146.201
146.202
146.201
146.201
146.201
146.201
146.201
146.201
173.653
147.233
146.201
147.39
146.33
146.201
147.628
147.495
146.416
146.446
147.323
146.418
146.203
146.201
146.235
146.201
147.585
146.201
147.323
146.201
146.201
146.201
146.802
146.837
146.794
146.202
146.201
146.201
146.201
146.202
146.202
146.201
146.201
146.217
146.201
146.875
146.201
146.202
146.203
146.201
146.202
146.201
146.202
146.532
146.379
146.563
146.438
146.209
146.201
146.201
146.201
146.44
146.203
146.425
146.384
146.202
146.206
146.222
146.31
146.201
146.281
146.202
146.244
146.359
146.201
146.359
1745.59
180.435
146.394
146.201
146.361
180.094
146.201
146.201
146.201
146.202
146.368
146.201
146.505
168.03
377.069
147.11
150.682
146.201
146.201
369.42
146.201
146.221
146.201
146.216
146.201
146.211
146.929