/*--------------------------------*- C++ -*----------------------------------*\
| =========                 |                                                 |
| \\      /  F ield         | OpenFOAM: The Open Source CFD Toolbox           |
|  \\    /   O peration     | Version:  v2012                                 |
|   \\  /    A nd           | Website:  www.openfoam.com                      |
|    \\/     M anipulation  |                                                 |
\*---------------------------------------------------------------------------*/
FoamFile
{
    version     2.0;
    format      ascii;
    class       volScalarField;
    location    "3";
    object      ILambda_1_0;
}
// * * * * * * * * * * * * * * * * * * * * * * * * * * * * * * * * * * * * * //

dimensions      [1 0 -3 0 0 0 0];


internalField   nonuniform List<scalar> 
108993
(
146.201
146.201
146.201
146.201
146.201
146.201
146.2
146.201
146.201
146.201
146.201
146.201
146.201
146.201
146.201
146.201
146.202
146.201
146.201
146.201
146.201
146.201
146.203
146.201
146.201
146.201
146.201
146.201
146.201
146.201
146.201
146.201
146.201
146.201
146.201
146.201
146.201
146.201
158.018
1317.5
146.199
146.201
146.201
146.201
146.305
146.463
146.201
146.211
146.201
146.201
146.201
1140.05
146.201
146.201
146.201
146.201
146.201
146.201
146.201
146.201
146.201
146.201
146.201
146.201
146.201
146.201
146.201
146.201
146.201
146.208
146.201
146.201
146.201
146.201
146.201
146.201
146.201
146.201
146.201
146.201
146.201
146.201
146.201
146.201
146.201
146.201
146.201
146.201
146.201
146.201
146.201
146.201
146.201
146.201
146.201
146.201
146.201
146.201
146.201
146.201
146.201
146.201
146.201
146.201
146.201
146.201
146.201
146.201
146.201
149.13
146.589
146.201
696.401
567.904
146.201
146.282
146.201
146.201
146.202
146.201
146.201
146.201
146.229
146.201
146.201
146.202
146.198
146.201
146.201
146.201
146.201
146.201
146.201
2068.82
146.201
146.201
146.201
146.201
146.201
146.201
146.201
146.201
146.21
146.201
146.201
146.201
146.201
147.201
146.201
146.522
146.583
146.201
146.201
146.565
146.201
162.604
146.201
146.201
146.201
167.168
146.59
146.201
146.201
146.201
146.201
1731.48
146.201
146.201
146.201
146.201
146.201
146.201
216.144
146.201
146.201
146.201
146.212
146.201
146.201
146.201
146.201
146.201
146.201
146.201
146.201
146.201
146.201
146.201
146.201
146.201
146.201
146.201
146.201
146.206
146.201
146.201
146.199
146.201
146.201
146.201
146.201
166.741
146.201
146.201
185.969
146.485
146.201
146.275
146.201
147.012
655.852
146.201
146.194
146.269
160.562
146.201
146.201
146.201
146.201
146.201
146.201
146.545
146.201
146.204
146.201
146.201
146.201
146.201
1959.63
146.201
1138.64
146.201
146.201
146.204
146.201
146.201
146.201
146.201
251.065
146.201
146.201
146.201
146.201
146.201
146.201
146.201
146.279
146.241
146.201
146.201
146.201
146.201
146.201
146.201
146.201
146.201
146.201
146.201
146.201
146.201
146.201
146.201
146.206
146.205
146.201
146.201
146.201
146.201
146.201
146.201
146.201
146.201
146.232
146.513
146.752
146.201
146.201
146.218
146.201
146.201
146.201
146.688
146.695
146.201
146.201
146.201
146.201
146.201
146.201
147.144
146.201
146.201
146.201
146.201
146.201
146.201
146.201
146.201
146.204
146.201
146.299
146.635
146.201
146.201
146.201
146.2
146.201
146.201
146.201
146.226
146.201
146.201
146.202
146.201
146.2
146.454
146.201
146.202
147.813
146.201
146.201
146.201
146.201
146.201
146.201
147.971
148.413
146.434
146.201
146.201
146.201
146.307
614.321
146.201
147.723
146.201
146.201
146.201
146.201
146.201
146.201
146.321
146.201
146.201
146.201
146.201
146.201
146.201
146.201
146.201
146.201
146.201
146.681
146.242
146.201
146.201
146.201
149.009
146.201
146.201
146.201
146.201
146.201
146.201
146.201
146.201
146.201
146.201
146.201
411.839
146.201
146.201
146.201
146.853
146.201
146.725
146.201
146.201
146.559
146.201
146.577
146.556
146.201
146.201
146.201
149.886
146.201
6142.23
146.201
146.464
146.669
152.451
146.672
146.201
146.256
146.201
148.85
146.201
146.207
146.201
146.201
146.219
146.238
146.201
146.201
152.349
149.571
146.201
146.201
159.631
146.201
146.201
7089.38
146.201
146.201
146.201
146.587
146.207
146.305
146.201
157.683
146.201
147.669
146.201
146.201
147.979
146.201
146.237
147.942
146.201
150.845
169.424
151.803
146.201
146.201
146.201
146.201
146.201
146.201
146.201
146.201
146.201
146.201
146.201
147.712
146.201
146.201
222.019
146.201
146.201
146.201
146.201
146.201
146.201
146.201
146.201
146.201
146.201
146.201
146.201
146.218
146.201
146.219
146.403
146.207
146.201
146.201
146.219
146.201
146.201
146.203
146.201
146.201
146.201
146.201
146.219
146.201
603.478
146.405
146.205
146.201
146.201
146.201
146.201
146.201
146.201
146.201
146.201
167.654
146.201
146.201
146.201
146.236
146.201
146.207
146.201
146.201
146.201
146.201
146.201
146.201
146.201
146.201
146.201
146.363
146.52
146.201
146.201
3092.38
146.201
146.201
146.198
146.201
146.201
146.201
146.201
146.201
146.201
146.201
146.203
146.201
146.202
146.201
147.112
146.201
146.212
151.884
146.201
146.213
146.952
146.201
146.201
146.211
146.201
146.201
146.201
677.655
146.201
146.201
146.235
146.201
146.389
146.201
146.201
146.201
146.201
146.201
146.212
146.201
146.201
146.275
146.201
147.251
146.201
146.201
146.201
146.201
146.201
145.593
146.201
146.201
146.201
146.201
146.201
146.211
146.511
146.201
146.201
146.202
146.2
146.201
146.201
5588.01
146.214
146.26
146.206
146.201
146.216
148.07
146.309
146.201
146.201
146.201
146.201
146.201
146.34
146.494
146.267
146.201
146.201
146.201
146.201
146.201
146.201
173.852
146.201
146.201
146.201
146.201
146.204
146.201
146.201
149.795
146.203
146.201
146.201
153.12
146.201
146.202
146.201
4769.23
146.201
146.225
146.201
146.197
146.201
146.201
146.201
146.275
146.201
2158.41
146.201
146.201
146.349
146.201
146.201
146.201
146.259
519.012
146.201
146.372
146.201
146.26
160.33
146.201
146.201
146.201
978.584
146.211
519.048
146.201
829.611
146.201
146.201
146.201
146.201
146.201
292.711
146.213
146.201
146.201
146.208
146.296
1671.51
146.206
146.201
146.224
1702.4
146.209
1688.51
1675.49
146.201
146.201
146.201
146.201
146.201
198.852
146.203
146.279
146.308
146.203
147.775
1731.02
1667.98
1682.88
146.201
146.203
146.203
146.201
147.221
146.201
242.661
146.207
146.201
147.201
146.201
150.033
146.202
146.202
152.185
146.201
146.201
177.118
146.201
146.201
2875.39
146.202
147.081
146.202
3131.65
149.004
146.201
146.201
146.201
146.209
146.201
146.32
146.202
146.201
146.201
146.562
146.33
1224.96
146.201
1221.56
146.201
356.039
146.206
146.201
332.746
146.201
146.201
390.918
146.201
146.201
146.201
178.886
147.297
146.29
146.201
280.269
146.201
146.201
146.201
146.201
146.201
236.291
146.201
146.201
146.201
146.201
146.201
551.955
147.375
146.201
157.33
146.201
146.201
146.201
146.202
146.201
146.201
146.201
146.201
146.201
146.577
146.201
146.201
146.207
146.201
146.201
146.201
146.201
146.201
146.205
146.201
146.201
146.256
146.201
146.201
146.201
445.686
146.201
146.252
146.343
146.201
146.201
154.872
146.315
146.201
146.201
146.229
146.201
146.201
147.537
146.201
146.194
146.201
146.201
146.204
146.201
147.637
146.201
146.201
968.139
146.201
151.723
193.046
147.053
146.201
146.222
146.203
146.201
146.201
146.202
146.201
146.201
146.201
146.201
146.201
146.201
146.2
146.201
146.205
146.201
146.593
146.196
146.201
5498.58
146.197
1515.19
146.201
146.201
146.201
3587.49
146.202
146.197
146.205
751.77
146.201
172.744
146.255
146.203
146.201
146.247
146.191
146.201
146.211
1234.11
146.201
146.201
146.201
146.203
146.201
146.201
146.211
146.201
146.201
201.107
146.201
211.875
146.201
204.259
146.201
146.209
146.238
146.203
607.422
146.201
146.24
146.239
146.213
146.227
2592.62
146.201
146.201
146.201
146.208
146.202
146.203
146.201
146.201
146.205
2534.28
146.201
146.203
146.335
146.236
146.203
739.082
1935.41
2442.04
146.458
150.182
146.203
2122.29
146.201
1525.68
147.625
542.329
146.201
146.201
146.203
146.208
147.065
146.201
146.201
146.229
146.387
146.201
149.008
146.201
146.201
1970.43
146.201
146.201
4153.43
606.316
146.201
146.2
146.201
146.201
146.206
1558.25
4105.73
146.201
4339
146.204
146.207
146.201
146.201
146.202
146.217
146.201
146.201
146.201
146.201
2043.74
146.201
146.201
146.266
146.201
149.88
146.326
146.202
146.207
146.201
146.527
146.201
983.197
146.194
146.201
146.201
146.609
1309.37
146.201
146.201
2930.84
854.442
146.345
146.201
146.205
146.31
146.562
146.201
146.212
147.7
146.206
146.201
146.204
146.201
150.621
146.99
1384.65
146.211
146.205
146.203
146.209
146.202
146.202
146.206
146.39
146.201
146.201
146.201
146.208
146.201
146.201
146.201
146.21
146.201
146.201
146.201
146.201
146.201
146.201
146.201
204.196
146.201
146.201
146.201
146.201
189.477
146.201
146.201
146.201
146.201
146.201
1494.79
146.2
146.201
146.201
146.201
148.336
146.222
1333.1
146.201
146.201
146.238
146.201
146.213
146.216
165.705
146.201
146.201
146.201
146.201
146.201
146.361
146.201
146.201
146.201
146.201
146.227
146.201
146.376
146.201
146.201
146.983
368.485
185.872
151.337
146.201
146.201
146.211
371.495
146.201
146.201
146.201
4012.39
146.201
146.902
146.201
146.205
146.201
146.201
146.687
146.806
146.21
152.036
1256.12
146.206
146.205
146.213
146.681
146.201
146.201
146.201
363.988
146.202
4261.48
146.212
146.204
146.201
146.201
146.204
146.201
146.207
567.279
146.207
146.201
146.215
251.481
155.599
146.201
146.201
146.201
146.201
146.201
146.201
146.201
1111.94
146.201
2489.12
146.201
146.201
146.201
147.55
518.183
146.201
146.201
146.201
146.202
146.201
146.202
146.614
146.219
146.201
146.238
146.201
146.201
146.201
146.201
146.201
146.199
11412.8
146.316
146.201
146.201
146.201
146.201
146.201
146.201
146.201
146.201
146.201
146.201
146.201
146.201
146.201
146.201
146.201
146.201
146.201
146.201
146.201
147.21
177.721
194.459
147.74
146.201
146.201
146.201
146.201
146.201
146.201
146.201
146.201
146.201
1333.41
146.201
146.753
146.201
146.201
146.201
146.201
144.98
147.249
146.201
146.201
146.201
146.727
146.201
146.201
146.397
146.201
146.201
146.201
146.201
146.201
168.424
146.201
146.201
146.418
146.201
146.201
146.201
146.651
146.484
146.201
146.201
146.201
146.661
146.201
193.506
147.744
147.991
148.324
173.159
149.15
146.201
146.212
146.201
146.24
146.211
148.239
146.201
146.201
146.201
146.201
146.201
146.201
146.392
889.76
146.208
146.201
146.201
146.208
146.201
146.201
146.201
146.201
146.201
265.142
146.209
146.283
146.201
146.264
146.201
146.208
146.26
146.204
146.201
146.218
146.201
173.848
146.233
264.464
574.169
146.201
146.201
146.202
146.201
146.201
2738.51
146.201
146.201
146.201
146.832
146.201
146.201
146.201
146.201
146.29
146.406
146.201
148.917
146.201
233.752
146.201
146.201
146.201
147.828
146.201
146.429
146.206
146.201
146.298
146.201
146.201
146.201
171.755
147.595
146.201
146.228
148.473
148.449
146.207
146.201
146.201
146.222
146.201
146.264
146.257
146.25
146.258
146.253
146.201
146.27
146.271
155.146
158.528
146.201
147.567
146.201
146.201
146.201
168.898
146.201
146.201
146.201
146.24
146.201
146.201
146.201
146.201
146.201
146.202
146.201
250.559
356.346
146.201
1300.65
146.201
146.202
146.193
146.201
146.209
146.201
146.201
672.03
146.201
146.201
146.201
146.201
146.201
146.64
146.201
146.32
146.201
146.209
146.481
146.201
146.201
146.201
146.201
146.201
146.201
146.201
146.201
146.201
146.202
146.202
146.374
146.201
146.306
146.273
146.201
146.216
146.201
146.201
146.201
146.201
146.201
146.326
146.265
271.287
146.201
452.81
146.306
146.201
146.201
146.201
146.201
146.201
146.544
146.532
146.201
146.201
146.201
146.201
146.201
146.201
146.201
1469.09
1025.19
146.201
146.201
146.351
146.201
146.201
146.201
146.201
506.697
146.201
146.201
146.201
146.201
1152.85
146.209
146.201
146.357
295.359
146.201
146.215
147.63
146.201
146.201
146.201
775.01
146.212
146.201
146.201
368.983
146.264
146.239
146.201
146.201
147.108
146.201
146.201
146.3
146.201
146.201
146.201
146.201
179.846
146.201
146.201
489.688
146.201
147.494
146.201
146.353
146.201
146.205
146.257
146.202
146.207
146.73
146.202
146.202
240.627
146.201
146.201
146.201
147.637
205.909
146.201
146.22
146.201
146.238
147.666
146.507
146.202
2022.93
146.201
3626.06
146.201
146.201
146.202
146.201
146.201
146.201
146.201
146.201
146.218
147.306
146.258
146.233
146.201
146.201
146.201
146.201
146.201
146.201
875.446
146.217
146.201
146.201
146.201
694.897
146.201
146.201
912.91
146.201
146.201
146.201
146.202
1867.83
914.772
146.236
147.586
146.201
146.201
146.992
146.201
146.201
146.201
146.3
146.576
151.692
2798.39
146.201
146.201
11423.5
146.201
146.202
146.201
146.201
146.201
146.201
146.201
146.201
146.202
1131.89
146.204
146.202
146.281
146.238
146.201
1772.26
146.201
146.201
146.201
146.201
146.201
146.201
146.415
146.201
146.204
149.496
146.49
146.248
146.201
146.201
148.553
147.298
146.201
146.228
146.201
146.201
246.134
146.294
146.278
146.257
146.201
1709.16
205.646
146.349
146.201
146.259
220.189
254.919
146.808
146.469
146.987
247.526
146.201
238.801
146.227
219.123
236.684
830.136
251.22
149.127
146.285
162.55
146.583
146.201
146.201
2327.44
146.201
146.201
146.844
146.201
264.573
235.709
146.201
146.201
146.201
146.201
238.144
146.303
148.154
146.214
153.434
146.201
2347.65
260.611
199.122
146.201
146.367
146.201
146.201
146.201
146.201
146.336
146.201
146.201
146.201
146.874
239.704
146.82
147.111
146.218
146.201
146.361
146.201
146.201
146.201
146.201
146.201
146.201
146.228
573.253
149.789
774.097
1400.86
146.209
146.201
147.05
146.36
146.921
605.062
146.201
146.202
146.201
146.452
164.9
150.315
146.201
146.201
146.201
146.201
580.715
146.201
147.099
146.201
246.403
146.421
146.201
146.201
1341.94
146.517
146.272
146.355
146.201
146.531
10192.8
146.201
147.76
146.25
146.218
151.446
146.201
153.079
146.513
146.322
147.136
252.129
146.234
152.508
146.201
368.379
6572.01
146.207
6859.53
146.201
146.204
146.207
146.201
7524.03
146.215
146.203
146.201
146.201
146.769
146.201
146.201
147.912
146.201
146.201
146.201
146.2
146.201
3384.6
644.074
146.202
1190.52
146.202
146.201
146.212
146.501
146.473
146.203
146.202
146.889
146.143
17757.8
1926.04
146.201
161.061
146.201
146.201
146.201
117.472
146.201
546.948
146.214
377.253
1010.59
2498.99
146.201
248.322
146.201
146.201
146.201
146.201
146.201
146.201
146.211
147.489
466.747
444.088
146.209
17784.2
287.256
149.814
146.201
930.439
153.379
158.928
146.201
146.201
146.201
146.201
146.201
146.201
146.216
146.206
274.128
2835.34
242.934
146.505
159.854
2170.48
147.742
1036.1
146.201
147.395
146.238
146.201
146.201
146.365
146.263
146.201
146.201
146.201
158.276
146.201
202.85
183.715
195.7
146.387
146.201
5372.02
159.897
146.201
146.326
146.201
146.202
1425.51
146.203
146.202
1573.75
163.183
146.201
146.201
146.201
146.201
146.201
146.225
146.201
146.201
146.523
255.369
146.254
313.866
146.271
146.201
146.201
146.201
146.201
146.246
147.653
146.201
146.201
417.064
146.201
146.201
146.201
146.201
1036.9
147.144
772.264
146.275
146.514
146.201
146.543
146.201
146.221
146.662
146.201
146.494
146.201
146.201
147.192
146.201
146.201
146.948
146.597
147.052
147.056
146.201
146.229
146.252
146.279
146.306
146.219
146.414
147.051
146.232
855.522
146.201
146.201
146.226
146.818
146.243
146.438
146.286
147.045
146.201
146.201
12498.9
146.727
146.24
146.321
146.217
147.011
1118.29
146.201
146.232
146.201
146.91
146.201
146.239
146.319
146.201
146.481
146.201
146.737
146.939
146.201
146.201
146.547
146.201
146.201
146.201
146.201
146.319
146.201
146.975
146.612
146.201
146.201
1057.02
146.261
146.201
146.23
146.201
146.201
146.201
146.201
200.817
205.674
223.337
146.201
146.201
146.287
146.201
146.288
556.439
146.201
146.201
146.201
146.201
146.495
146.201
146.201
146.201
146.201
146.201
571.332
431.215
146.204
146.201
1843.66
146.202
449.423
146.201
146.264
146.201
149.354
146.28
146.201
146.201
146.201
173.939
146.35
146.201
146.221
146.201
146.201
146.208
146.208
146.201
162.269
146.201
146.943
146.201
146.201
146.201
146.201
146.201
146.537
159.16
146.201
146.201
146.311
146.201
146.223
146.201
146.201
399.974
156.495
146.233
146.201
146.201
146.203
147.153
146.201
147.669
146.201
148.25
146.415
146.201
386.482
146.618
5431.46
951.406
146.336
146.201
146.201
146.201
146.215
146.208
146.226
626.56
146.201
146.211
146.201
146.23
146.674
146.387
146.201
188.427
165.111
146.201
2004.57
146.201
146.201
146.201
147.224
146.268
146.238
146.201
146.201
146.201
663.16
146.201
329.513
146.201
146.201
2313.53
147.784
146.201
146.201
680.969
146.201
146.201
146.201
147.505
439.238
146.39
146.201
435.72
4429.14
146.271
146.893
146.227
219.032
146.201
338.254
5179.17
1051.77
291.759
216.799
200.232
1606.26
146.201
15899.7
146.307
147.046
146.201
1535.15
11962.6
146.201
146.313
1044.23
146.201
728.557
146.201
152.637
146.235
237.315
146.288
147.078
146.201
146.201
146.201
146.201
12006.3
146.201
146.637
153.71
146.201
146.201
146.201
146.201
146.201
146.201
146.203
146.201
147.522
146.201
2418.34
146.201
162.173
146.201
146.203
157.549
146.201
146.201
146.201
146.201
146.202
195.497
164.862
2067.29
166.16
146.202
146.202
146.201
157.043
146.206
146.203
146.201
156.979
147.033
150.834
146.208
146.201
146.202
803.571
146.209
146.201
147.175
146.202
146.225
150.419
239.864
146.672
146.201
146.202
626.068
147.224
146.201
146.234
165.106
146.202
183.745
146.221
146.201
146.239
146.201
146.202
146.201
146.203
882.584
146.201
146.225
146.201
146.238
146.201
146.201
146.239
146.975
1201.71
146.991
146.201
146.201
1705.86
209.797
146.201
164.462
240.574
146.201
146.205
146.208
146.207
215.531
146.201
194.75
218.549
146.201
240.687
146.202
146.201
146.201
146.201
146.201
146.201
146.201
146.201
146.201
146.243
146.202
146.201
146.328
146.201
146.205
146.252
146.201
146.201
146.494
146.381
146.201
146.228
146.201
146.201
542.784
146.202
146.201
146.214
156.874
146.201
146.201
146.201
146.201
146.201
146.21
146.21
147.828
735.666
148.026
146.211
146.398
146.225
146.202
147.925
146.228
146.201
146.561
146.235
147.453
146.201
146.228
146.201
264.895
146.218
246.083
146.218
146.202
239.91
146.232
146.201
146.223
146.201
146.202
266.689
146.226
146.229
240.624
146.22
146.202
146.222
239.279
146.201
146.201
150.443
146.203
146.201
146.201
146.201
241.832
146.201
146.206
146.209
146.201
146.201
146.202
146.201
146.583
146.201
146.202
146.201
146.201
194.932
146.201
148.401
146.201
146.201
146.201
146.201
208.153
146.201
146.201
146.201
146.207
146.201
146.201
290.579
146.201
146.204
491.637
146.201
146.227
146.201
146.201
146.201
146.201
146.201
146.201
146.369
146.205
146.204
146.201
146.201
146.201
146.204
851.174
146.201
146.201
224.275
146.201
146.201
146.357
146.201
146.207
146.445
146.201
146.201
146.252
2495.3
1749.2
146.201
146.201
146.201
146.201
146.307
146.249
146.201
146.201
146.201
146.493
146.201
146.201
146.201
2368.88
146.522
146.207
2375.93
207.798
146.201
146.202
146.202
146.201
146.214
147.047
146.715
146.201
160.285
2437.99
146.201
146.201
2453.98
146.957
2421.64
146.201
146.203
146.201
146.233
194.59
146.201
217.712
146.201
146.201
348.006
146.201
146.201
324.558
362.69
146.201
146.206
247.814
146.201
146.201
383.543
146.22
146.201
146.201
146.221
2143.35
146.218
1018.91
146.201
146.201
146.806
146.202
146.602
146.214
146.201
146.201
146.201
146.215
146.201
146.202
146.203
146.201
146.201
146.201
146.213
737.721
146.201
146.216
146.216
840.704
146.201
844.319
7558.04
146.201
146.213
146.247
603.089
146.201
146.215
146.201
146.201
146.201
146.201
1654.97
146.202
146.202
823.848
1391.08
146.201
146.201
146.202
146.201
146.201
146.201
146.209
146.201
146.206
146.201
320.487
656.521
146.202
149.559
489.747
151.917
146.201
146.203
1933.25
146.572
146.209
146.23
168.868
146.201
190.582
196.07
146.207
146.21
146.201
146.204
361.596
146.201
344.181
146.206
146.202
258.77
146.359
1500.49
426.45
146.201
146.904
146.202
146.201
781.309
146.201
146.878
146.201
146.542
751.867
3164.58
146.201
146.201
146.201
146.962
146.204
146.532
146.201
147.004
146.914
1165.55
146.201
173.872
153.477
146.213
1404.8
206.439
146.201
146.206
146.201
146.202
146.201
146.201
146.201
146.201
146.201
146.201
146.201
5411.65
146.201
146.202
146.201
461.142
147.934
146.206
203.904
146.201
146.201
146.203
146.201
146.201
146.201
146.201
146.201
146.205
146.201
831.379
146.201
146.24
309.407
166.599
146.201
585.541
146.216
146.201
146.201
4932.55
146.201
146.201
146.201
146.201
146.201
146.203
146.201
146.201
146.201
146.201
149.778
340.917
146.201
146.576
146.201
1693.92
180.689
146.201
146.201
147.189
146.201
157.632
146.201
481.743
150.47
146.201
146.201
146.547
263.463
146.201
146.771
146.201
146.201
150.869
884.594
146.201
146.199
146.22
146.2
146.201
293.575
151.252
910.109
146.364
146.201
146.201
156.611
1743.18
146.201
146.201
146.201
146.201
146.201
146.201
146.201
1119.35
154.661
146.201
147.186
263.738
148.979
146.201
204.672
277.56
146.201
169.036
9808.84
146.201
1030.16
146.373
146.202
146.201
146.201
932.806
171.216
146.204
146.204
146.202
146.201
146.207
159.811
149.104
730.402
146.201
146.201
146.202
223.072
146.204
146.201
146.201
147.335
248.067
146.201
146.19
146.201
146.164
282.355
909.619
146.359
905.323
146.201
153.177
146.201
146.201
2132.46
146.201
146.201
146.201
146.201
146.202
146.201
146.201
146.203
146.201
146.206
146.202
146.201
146.839
146.247
146.201
641.107
146.201
146.201
146.201
147.406
146.232
146.427
146.201
146.201
146.201
146.201
146.2
146.202
303.461
146.201
146.201
146.637
972.617
920.769
146.195
146.201
238.431
211.171
187.025
205.195
163.765
146.201
146.513
146.233
146.201
146.201
146.201
146.201
146.201
146.201
2741.98
150.217
146.414
146.261
149.321
146.201
146.206
146.206
580.168
146.223
194.687
146.245
152.372
588.544
146.201
146.875
146.517
146.201
146.201
148.947
146.201
146.201
312.78
1925.45
146.201
146.201
146.201
146.201
146.201
146.201
146.201
146.225
1899.81
146.201
146.201
146.203
148.445
159.758
146.201
146.201
146.201
154.44
146.201
146.201
264.018
146.201
146.201
146.201
146.201
146.392
146.2
146.201
146.201
146.201
146.201
146.195
146.2
146.201
150.241
146.216
146.201
561.307
146.201
146.201
146.201
146.201
146.201
146.201
146.201
146.201
146.201
146.396
146.201
150.55
146.201
146.201
146.201
146.201
146.201
146.201
160.221
147.095
146.252
148.908
241.98
147.383
147.839
147.083
150.551
155.15
146.284
146.201
146.201
146.201
146.201
146.201
146.201
314.861
147.143
146.201
1651.62
146.201
146.201
146.201
146.201
163.665
146.201
153.224
146.992
149.909
146.201
146.201
146.201
146.217
146.201
146.202
811.089
146.201
661.791
146.201
146.201
167.11
472.334
684.03
616.856
384.316
1098.06
170.376
2141.42
146.23
630.891
146.201
146.201
146.201
146.201
225.08
147.349
543.857
249.583
147.356
147.404
146.201
147.322
1791.41
146.201
146.201
146.201
247.955
146.42
146.263
146.201
241.284
151.549
1129.12
159.52
146.34
307.247
1891.73
146.201
146.22
1780.4
271.345
146.201
146.201
166.287
146.201
146.201
1887.94
146.201
146.201
147.555
146.201
1794.24
146.869
146.201
146.214
146.344
146.35
146.21
146.346
170.713
146.368
146.214
146.201
146.351
146.221
146.301
146.302
146.204
924.75
146.239
152.371
208.679
146.201
146.204
146.335
146.201
146.603
146.201
146.201
146.201
146.332
146.202
146.208
146.201
146.201
1279.86
146.316
146.316
161.876
146.201
1725.09
146.616
1852.88
146.201
146.263
4662.56
146.375
146.517
146.201
146.282
146.201
146.201
146.201
146.201
146.201
146.201
146.201
146.553
146.201
153.769
146.201
146.201
146.201
146.201
146.201
452.793
344.23
146.201
146.201
146.384
146.201
146.571
146.205
146.201
146.28
146.201
146.201
146.201
146.552
146.201
146.201
146.205
146.383
146.202
146.201
178.221
146.201
146.201
146.201
146.201
146.201
146.203
146.201
146.217
146.201
146.19
146.201
146.238
146.201
146.201
146.202
1824.16
146.202
146.202
146.202
146.201
1020.68
146.204
146.201
146.201
146.201
146.201
147.252
146.201
146.201
146.201
146.202
146.201
313.421
146.201
146.201
146.201
146.204
146.201
146.201
146.201
146.201
146.201
146.201
146.201
186.823
146.201
146.201
146.201
146.201
146.201
146.201
148.442
146.203
146.201
146.201
146.201
428.943
146.201
146.248
210.352
146.207
302.953
146.201
146.201
146.201
146.201
147.255
146.201
146.201
147.255
146.201
146.201
146.201
146.201
146.201
146.199
1606.36
146.201
146.201
146.201
147.341
147.386
147.413
196.308
146.293
1095.82
146.202
146.201
146.201
147.415
146.201
146.201
146.201
146.202
230.371
146.201
146.201
146.201
314.44
147.531
870.519
146.234
146.201
146.57
248.99
146.201
146.207
146.201
146.201
146.201
146.201
146.201
146.202
146.201
568.475
1133.85
906.794
3084.25
158.289
150.674
146.201
146.201
146.201
146.358
146.201
146.201
146.201
146.201
154.988
146.215
146.185
146.35
146.201
146.543
146.247
146.23
146.184
146.201
146.23
146.201
146.201
146.201
146.358
161.515
152.477
146.201
146.475
146.201
146.201
146.201
146.201
146.201
148.327
146.273
146.201
146.201
146.244
234.582
146.201
148.382
146.201
146.201
280.739
146.201
146.201
146.201
146.255
146.201
146.201
146.201
146.201
151.406
146.201
1347.75
146.201
146.208
146.201
146.194
146.288
146.201
146.201
146.201
604.95
150.937
146.282
157.769
146.276
146.201
147.385
146.234
146.201
146.201
174.452
146.407
146.201
146.396
147.427
146.201
146.193
146.201
146.421
146.201
146.201
146.201
146.201
211.798
146.201
8445.68
146.201
217.422
146.201
146.201
370.716
146.201
146.232
146.201
146.201
164.532
422.522
146.319
591.22
146.342
146.346
146.348
146.201
146.201
146.201
146.274
737.503
1107.96
146.219
146.201
750.497
146.358
210.06
813.927
146.201
2504.1
776.499
146.321
146.201
146.729
1027.05
1020.03
1883.4
146.243
146.224
361.019
146.202
235.066
146.201
1029.4
246.047
150.968
439.245
146.201
146.202
146.309
960.457
146.14
170.565
146.201
146.201
332.272
146.201
146.201
146.201
146.201
406.268
146.201
28646.9
152.91
146.201
146.201
413.692
152.971
1002.76
1225.43
441.307
150.746
146.201
146.201
146.416
146.201
146.201
146.201
146.201
146.193
435.909
146.201
146.201
146.389
2430.12
146.201
146.201
526.607
146.201
146.199
2396.82
146.201
146.201
146.201
146.433
284.426
146.259
146.201
146.202
146.201
146.299
2370.08
146.216
176.765
146.201
146.201
146.201
146.204
146.201
149.493
146.26
146.201
732.055
146.201
146.201
146.23
146.201
192.681
146.201
146.498
153.315
146.201
146.201
162.521
161.268
146.201
146.317
170.38
146.201
146.201
146.201
146.201
146.201
146.201
146.201
146.201
146.201
146.201
146.2
3310.44
146.201
146.26
8139.74
146.321
3330.34
146.201
641.888
146.201
146.201
3168.1
146.647
399.728
3842.74
141.914
146.497
146.201
163.813
293.755
146.661
2203.06
219.171
146.201
6666.25
146.201
146.201
146.201
146.211
429.945
146.205
146.605
146.201
146.201
146.201
148.105
1854.17
146.201
5066
916.393
291.456
2111.1
3914.04
146.201
146.201
147.552
146.201
146.201
146.201
146.201
146.201
146.264
146.201
201.886
146.24
147.934
166.574
153.415
860.299
146.201
146.201
146.201
146.674
146.201
146.201
146.201
146.883
146.353
488.032
678.916
146.956
146.365
146.578
146.196
681.818
146.201
146.201
256.762
1295.02
342.197
146.201
146.201
146.458
658.636
146.201
1136.83
868.019
1362.1
1527.47
146.201
146.201
147.405
179.21
146.201
1780.95
626.683
174.875
146.201
1115.64
213.155
147.936
146.201
146.201
146.221
146.353
146.201
146.201
1677.88
146.362
1815.24
146.201
146.201
1060.33
723.906
146.201
146.201
146.201
1217.12
148.316
19912.4
2797.93
146.201
146.339
146.365
146.285
146.201
146.199
146.201
146.201
146.201
1567.71
146.201
146.198
146.472
146.358
146.201
146.201
146.201
146.201
146.287
146.301
146.201
146.345
146.149
146.201
146.201
146.201
146.201
146.343
356.629
146.201
146.201
580.06
146.201
146.201
146.201
146.201
146.201
3396.6
146.202
211.426
146.201
146.201
146.201
3287.49
146.201
146.201
146.37
146.201
146.186
146.201
146.201
151.999
146.201
151.713
146.164
360.286
146.201
146.201
146.201
146.201
146.201
146.201
146.198
2994.79
692.812
146.201
146.201
146.201
146.201
146.201
146.201
146.201
146.201
146.201
146.201
146.201
146.201
146.236
1869.96
146.304
146.219
148.432
146.213
146.201
1231.36
146.201
709.516
146.208
146.261
146.201
146.201
146.201
146.201
146.201
146.201
146.203
146.651
146.201
146.201
146.201
146.191
146.201
146.201
146.201
146.201
146.201
146.223
146.203
146.22
146.201
146.201
146.204
146.204
146.221
146.201
146.199
146.201
277.519
146.201
404.251
146.301
146.201
146.204
146.247
146.63
146.204
5235.82
355.187
146.201
9129.85
146.201
4723.52
146.201
1589.15
175.072
1181.37
147.238
146.201
146.201
146.201
146.314
572.596
146.201
1064.76
147.982
342.854
146.201
146.201
146.201
146.201
1945.52
146.201
146.201
146.201
146.201
146.201
146.201
5933.62
1505.1
156.682
146.201
146.201
208.886
146.201
146.201
146.208
319.027
146.213
146.201
146.201
146.291
146.203
146.201
146.201
146.367
4550.14
146.252
146.201
6700.47
147.922
146.201
146.201
146.201
146.201
146.201
146.207
146.201
146.201
146.201
146.201
146.201
146.201
146.201
146.201
146.201
146.201
146.201
146.201
146.201
146.201
146.201
146.201
146.371
401.555
229.134
146.201
146.201
146.201
146.201
146.227
146.201
146.201
146.201
146.201
146.201
146.201
155.09
146.201
146.201
146.201
146.201
146.201
146.224
146.201
146.219
146.218
146.252
146.201
146.201
146.237
146.201
146.201
146.201
146.201
146.201
146.201
146.201
146.201
146.201
146.201
146.303
146.279
146.201
146.201
146.201
146.201
146.201
146.201
146.201
146.201
146.246
1406.32
146.201
1412.94
146.201
146.201
554.54
611.5
146.201
639.25
146.244
146.201
146.201
146.201
146.201
146.201
570.005
146.201
583.215
146.201
146.201
146.201
2915.85
2934.36
2536.88
146.201
146.201
146.201
146.201
146.201
146.201
146.201
146.201
146.201
146.201
1922.99
146.201
146.201
146.201
146.201
146.201
146.201
146.201
797.196
146.236
913.366
146.201
146.201
146.201
146.201
146.202
146.201
146.201
146.201
146.3
146.201
146.201
146.201
149.425
146.201
146.236
146.201
146.201
146.202
146.201
146.203
737.19
146.206
146.767
146.201
146.204
146.205
146.201
146.201
146.201
146.201
146.203
146.201
146.201
146.204
146.339
736.843
147.45
146.201
146.201