/*--------------------------------*- C++ -*----------------------------------*\
| =========                 |                                                 |
| \\      /  F ield         | OpenFOAM: The Open Source CFD Toolbox           |
|  \\    /   O peration     | Version:  v2012                                 |
|   \\  /    A nd           | Website:  www.openfoam.com                      |
|    \\/     M anipulation  |                                                 |
\*---------------------------------------------------------------------------*/
FoamFile
{
    version     2.0;
    format      ascii;
    class       volScalarField;
    location    "3";
    object      ILambda_14_0;
}
// * * * * * * * * * * * * * * * * * * * * * * * * * * * * * * * * * * * * * //

dimensions      [1 0 -3 0 0 0 0];


internalField   nonuniform List<scalar> 
108993
(
146.037
146.203
146.201
146.199
146.195
146.201
146.211
146.196
146.201
146.242
146.21
146.203
146.198
146.202
146.177
146.291
146.233
146.208
146.199
146.201
146.099
146.2
146.203
145.903
146.198
146.201
146.201
146.201
146.201
146.201
146.201
146.208
146.201
146.024
146.2
146.179
146.201
146.134
6851
1888.81
146.201
146.201
146.202
146.199
146.269
1355.57
146.201
146.215
146.202
146.201
146.201
146.525
146.202
146.201
146.216
145.878
146.201
146.201
146.196
146.201
146.201
146.201
146.2
146.201
146.2
146.201
146.2
146.197
146.207
146.417
145.894
146.197
146.18
146.197
146.202
146.201
146.201
146.225
146.201
146.199
146.201
146.208
146.199
146.201
146.21
146.204
146.202
146.204
146.199
146.2
146.201
146.201
146.201
146.195
146.201
146.221
146.201
146.184
146.201
146.201
146.201
146.2
146.104
146.245
146.169
146.201
146.199
146.2
146.2
1688.77
146.329
146.201
146.438
146.569
146.202
146.763
146.195
146.251
146.213
146.201
146.201
146.201
147.671
146.224
146.131
146.301
146.201
146.124
146.201
146.201
146.221
146.201
146.196
146.572
146.201
146.201
146.201
146.195
146.201
146.202
146.224
146.201
146.214
146.201
146.201
146.17
146.169
1551.38
146.224
148.162
147.972
146.201
146.202
147.791
146.198
146.316
146.139
146.201
146.201
146.252
147.828
146.201
146.201
145.865
146.213
146.487
146.201
146.201
146.201
146.212
146.197
145.968
146.313
146.201
146.201
146.202
146.32
146.201
146.204
146.2
146.22
146.199
146.2
146.224
146.22
146.083
146.2
146.198
146.193
146.224
146.235
146.201
146.225
146.29
146.207
146.209
146.201
146.174
146.179
146.224
146.201
146.303
145.963
146.201
146.334
148.194
146.201
319.393
146.197
1029.22
146.38
146.163
146.321
147.367
1666.05
146.16
146.148
146.201
146.201
146.201
146.203
148.114
146.151
146.293
146.201
146.201
146.201
146.201
146.579
146.201
154.758
145.828
146.201
146.201
146.201
146.201
146.201
146.201
146.273
146.201
146.201
146.2
146.201
146.201
146.201
146.4
147.082
147.407
146.201
146.2
146.201
146.2
146.2
146.209
146.201
146.201
146.201
146.203
146.201
146.201
146.201
146.202
146.232
146.338
146.201
146.201
146.201
146.202
146.201
146.198
146.2
146.201
231.31
4915.68
1121.23
146.207
146.201
148.129
146.251
146.202
146.202
164.939
200.73
146.202
146.201
146.214
146.198
146.202
146.238
1455.31
146.202
146.201
146.202
146.201
146.201
146.201
146.201
146.201
146.222
146.201
147.512
147.32
146.178
146.201
146.2
146.201
146.201
146.202
146.202
181.435
146.201
146.201
146.256
146.182
146.201
147.722
146.201
146.268
4245.12
146.2
146.201
146.201
146.201
146.201
146.156
148.562
7771.67
147.985
146.201
146.206
146.201
147.804
147.634
146.201
784.561
146.133
146.201
146.201
146.201
146.201
146.2
146.466
146.203
146.189
146.216
146.211
146.201
146.201
146.201
146.201
146.201
146.201
146.978
172.038
146.201
146.191
146.192
146.744
146.201
146.201
146.263
146.203
146.201
146.201
146.202
146.201
146.201
146.201
146.212
14128.2
146.21
146.22
146.201
147.885
146.201
348.573
146.238
146.201
168.733
146.221
171.094
180.377
146.202
146.426
146.205
146.207
146.214
2273.43
146.202
847.289
260.562
146.207
238.342
146.202
372.312
146.202
7495.25
146.2
146.344
146.201
146.202
149.792
158.545
146.201
146.203
146.207
146.206
146.146
146.202
1848.3
146.201
146.201
19540.3
146.077
146.204
146.201
147.109
146.227
146.351
146.201
2495.54
146.202
2621.8
146.201
146.201
1689.17
146.082
147.645
4899.43
146.2
6415.89
3440.69
5901.63
146.201
146.201
146.235
146.201
146.202
146.201
146.201
146.194
146.201
146.2
146.201
146.52
146.215
146.206
146.309
146.201
146.201
146.204
146.201
146.201
146.122
146.201
146.126
146.202
146.201
146.237
146.201
147.598
146.205
147.604
148.026
146.215
146.201
146.202
147.6
146.201
146.201
146.228
146.194
146.201
146.202
146.201
146.247
146.201
146.4
146.772
146.248
146.185
146.201
146.201
146.201
146.201
146.201
146.201
146.201
146.243
146.834
146.198
146.198
146.331
146.201
146.286
146.201
146.21
146.201
146.201
146.201
146.201
146.201
146.201
146.201
146.27
147.214
146.201
146.201
1944.69
146.201
146.266
146.207
146.201
146.245
146.201
146.201
146.201
146.201
146.202
146.201
146.201
146.201
146.204
146.206
146.201
146.239
146.208
146.203
146.242
146.206
146.205
146.181
146.234
146.201
146.175
146.202
146.414
146.225
146.197
200.596
146.2
538.675
146.199
146.2
146.211
146.198
146.2
146.231
146.23
146.201
147.445
146.205
242.238
146.179
146.196
146.2
146.201
146.201
150.909
146.201
146.013
146.201
146.201
146.204
146.269
161.436
146.15
146.201
146.201
146.201
146.208
146.204
7697.09
146.273
148.315
146.205
146.21
146.278
6868.33
146.298
146.238
145.919
146.201
146.2
146.186
146.349
979.907
146.285
146.212
146.201
146.201
145.881
146.202
146.201
3847.73
146.201
146.201
145.871
146.205
146.216
146.201
146.228
4672.28
146.24
146.201
145.869
4957.95
145.868
146.242
146.202
146.956
146.203
146.211
146.202
146.202
146.201
146.287
145.865
146.86
146.201
146.562
146.201
146.043
148.681
146.202
146.2
146.201
146.392
359.869
146.322
147.904
146.201
146.772
146.501
146.304
146.201
145.861
580.454
146.28
146.397
146.205
146.427
146.201
146.212
146.201
146.315
146.214
146.356
146.239
146.322
146.317
146.314
146.442
146.646
146.247
146.202
147.064
146.704
159.865
146.71
146.657
146.201
146.237
146.201
146.201
146.201
146.234
146.249
146.36
147.574
146.244
146.219
146.535
146.651
146.698
146.201
146.273
146.233
146.201
1561.16
146.205
146.293
146.171
146.293
1459.46
146.298
341.249
146.228
146.233
147.087
146.201
146.206
146.288
146.216
146.201
161.888
146.213
725.614
146.222
340.952
146.44
146.201
146.201
146.201
146.22
146.201
146.237
146.201
146.201
146.201
146.24
667.781
2463.51
146.2
816.659
146.201
146.371
146.185
146.201
146.374
146.202
146.334
146.35
146.361
146.223
146.335
146.252
146.344
146.467
146.187
146.364
146.339
146.291
146.34
146.209
146.201
146.376
146.201
146.201
146.204
146.201
146.337
1820.38
979.834
146.243
146.226
146.238
146.246
146.237
146.132
146.15
146.201
146.201
146.247
146.201
146.227
146.201
146.222
146.235
146.202
146.297
146.201
146.239
146.271
192.722
146.201
146.202
380.217
146.198
146.201
146.269
146.405
146.2
147.384
147.362
146.206
146.269
12156.7
149.737
146.2
146.201
146.789
146.273
146.269
146.215
146.201
146.223
146.193
146.199
188.649
146.201
1902.51
146.201
146.247
1918.75
146.305
177.12
146.226
905.124
146.201
146.217
146.306
146.2
146.206
146.279
146.201
146.11
146.201
146.197
146.199
146.203
146.201
146.201
192.878
146.229
146.609
146.201
146.243
147.361
146.201
147.257
146.21
146.202
146.246
19193.9
146.237
146.201
245.339
146.533
146.202
146.289
301.999
200.519
146.238
146.27
146.201
146.213
239.803
1408.7
146.205
146.25
146.246
146.274
146.243
146.201
306.718
146.241
146.203
284.655
146.267
285.067
146.187
229.706
146.264
146.21
146.221
146.311
146.436
146.231
146.221
146.221
231.36
146.208
257.198
146.201
146.201
146.203
146.274
146.231
146.316
146.198
146.2
146.375
148.428
146.201
146.242
146.341
146.584
146.201
146.444
146.89
271.065
146.258
146.639
146.203
147.337
146.201
147.298
1743.8
288.875
146.201
146.201
146.305
146.23
146.401
146.201
146.184
146.327
146.955
146.201
146.479
146.21
146.202
147.367
146.201
145.903
147.889
320.663
146.202
146.205
146.192
146.201
146.232
146.452
147.365
146.155
147.309
157.737
146.227
146.202
146.202
146.245
146.214
146.202
146.2
146.239
146.201
146.505
146.202
146.201
146.378
146.201
146.265
146.305
146.244
146.238
146.201
166.126
145.961
261.669
146.201
146.202
146.201
146.4
146.534
146.201
146.228
146.881
146.497
146.607
146.201
146.241
146.493
147.23
146.204
259.604
637.088
146.234
146.217
146.234
146.201
146.506
1281.02
146.556
146.436
146.271
146.251
146.219
146.201
146.205
146.365
148.063
146.229
146.201
146.204
146.453
146.201
145.937
146.201
146.475
146.223
146.201
146.221
146.204
146.264
146.211
146.202
146.992
146.208
146.202
146.22
146.199
1872.36
146.201
146.201
146.204
146.201
146.204
1977.97
146.21
146.201
146.221
146.198
146.575
146.207
146.462
146.201
146.219
146.277
146.202
146.277
146.307
146.456
146.201
146.219
146.219
145.97
146.205
146.222
146.201
146.201
146.218
146.201
147.367
146.215
146.222
146.201
146.206
146.243
146.377
146.222
146.225
146.206
146.201
146.206
146.29
146.222
146.201
146.201
3601.49
146.207
146.241
146.201
176.163
146.326
146.201
147.095
146.45
146.219
146.219
1708.38
146.245
146.293
146.225
147.375
146.202
146.072
146.002
146.376
146.572
231.278
146.211
146.203
146.234
146.201
149.73
146.24
158.644
146.49
151.179
146.066
146.791
146.371
146.261
146.2
146.201
146.201
146.201
146.201
146.196
146.301
147.029
146.201
1406.56
145.842
146.259
146.201
146.234
146.961
146.201
147.254
146.182
146.281
146.201
146.243
148.632
146.325
146.201
146.312
146.201
146.2
146.195
146.201
146.201
146.201
9173.52
146.294
146.198
146.193
146.201
146.231
146.212
146.201
147.87
146.2
146.187
146.201
146.188
146.191
145.997
146.203
146.201
146.201
146.097
147.979
146.228
146.34
146.639
146.557
1438.85
146.249
146.187
146.242
146.2
146.205
146.231
146.201
146.201
146.25
146.517
146.214
146.217
146.201
146.201
146.227
146.212
11889.2
2931.05
146.145
146.193
146.201
146.203
146.202
146.201
146.411
146.201
146.202
146.201
146.201
146.201
146.216
149.719
146.201
146.436
146.202
146.202
146.206
197.955
146.226
148.299
146.201
146.202
148.169
146.197
146.263
146.209
146.209
146.205
148.269
146.271
146.201
158.787
146.199
181.587
164.296
146.206
146.201
146.201
146.279
146.201
146.219
146.192
147.746
1608.29
167.228
146.201
146.201
190.226
146.202
146.201
146.202
146.201
146.202
146.9
193.497
146.669
146.204
146.233
146.181
146.213
146.433
146.201
146.201
199.972
146.287
146.481
177.238
146.306
146.512
146.201
146.2
146.227
146.2
146.342
6002.79
146.201
146.344
146.187
154.802
146.21
146.201
146.209
146.201
146.399
208.194
146.201
146.247
145.936
146.284
145.898
145.99
146.2
146.245
146.201
146.64
146.213
145.853
146.766
145.958
146.201
146.2
146.243
983.394
146.203
146.218
146.357
7543.14
153.045
146.201
146.189
146.34
146.199
146.312
146.274
146.266
146.377
146.267
146.201
146.313
146.316
146.207
146.207
146.202
146.334
146.199
146.201
146.201
146.208
146.201
146.201
146.201
146.355
146.2
146.199
146.202
145.587
146.202
146.201
146.201
146.383
152.171
146.201
146.977
146.205
146.201
146.202
146.202
146.243
146.202
146.201
146.432
146.201
146.015
145.849
146.201
145.649
152.857
145.905
146.236
146.089
146.214
146.467
145.838
146.201
146.205
146.201
145.867
146.201
146.201
146.29
146.205
146.233
146.202
147.997
145.765
146.469
459.813
146.201
147.054
146.201
146.205
146.205
146.205
146.205
449.939
181.533
146.364
146.434
1142.27
146.524
146.18
146.01
146.193
145.784
145.878
146.204
147.979
146.2
146.201
146.202
146.134
146.206
146.201
146.211
1351.37
1493.83
146.184
146.201
146.683
146.202
146.201
146.29
146.209
146.285
146.201
146.201
146.201
146.126
1562.46
146.216
146.227
146.647
146.339
146.201
146.262
147.392
146.201
146.223
146.22
146.397
146.289
146.195
146.212
146.417
146.363
272.56
146.212
146.214
1165.88
146.208
146.201
673.101
146.214
146.201
146.213
146.215
1751.47
146.201
145.834
146.673
146.219
1643.75
146.21
196.116
146.218
146.215
164.943
157.123
146.214
223.422
146.252
146.202
146.625
146.201
146.201
146.003
1411.37
146.38
146.201
147.169
146.201
347.303
1297.58
147.822
158.016
2388.59
146.2
161.711
146.2
146.201
146.201
146.201
146.201
146.201
146.201
146.201
146.463
148.365
146.305
146.383
146.201
146.202
146.202
146.201
146.201
146.201
282.504
210.621
146.202
146.201
146.201
146.491
146.207
146.201
146.545
146.201
146.201
146.201
146.249
1917.01
146.569
235.898
146.754
146.201
149.938
148.333
146.2
146.201
146.202
149.117
816.36
146.416
711.002
146.201
146.201
30510.1
146.201
146.25
146.202
146.201
146.206
146.201
146.23
146.188
146.249
510.124
146.526
146.25
146.68
146.327
146.201
146.533
146.201
146.155
146.201
146.201
146.201
146.199
146.203
146.2
146.206
148.012
146.988
147.923
146.201
146.201
3393.33
148.331
146.201
147.726
146.201
146.196
146.248
146.649
6586.3
151.744
146.201
1980.89
3342.44
147.994
146.201
176.171
146.238
146.252
489.77
146.211
3132.86
146.246
146.201
146.232
150.257
146.233
146.266
146.499
146.309
146.205
146.937
3608.79
5049.72
146.201
146.201
9406.75
146.201
146.203
147.535
146.201
157.468
146.258
146.201
146.544
146.201
146.201
146.258
147.83
202.833
147.073
179.435
146.197
146.644
146.302
146.221
146.234
146.202
146.379
146.202
146.203
146.205
146.264
146.201
146.201
146.29
564.869
146.282
146.228
254.868
146.301
146.203
148.111
146.201
146.229
146.201
146.201
146.197
146.147
164.754
146.701
146.469
146.612
2376.74
146.207
146.247
146.313
147.818
146.23
1427.13
146.202
146.173
146.201
147.942
146.211
146.468
146.235
146.201
146.187
146.197
146.588
146.2
146.302
146.201
449.722
147.818
146.201
146.201
506.16
148.189
150.524
147.819
146.201
147.624
4173.25
146.201
146.213
146.291
146.333
146.307
146.201
146.294
148.63
147.736
146.313
1525.97
165.456
146.297
146.225
507.184
148.539
146.255
290.801
146.209
232.323
146.771
146.236
275.237
146.268
146.217
146.201
146.204
147.447
146.201
146.204
146.203
146.202
146.201
146.235
146.203
146.202
886.934
362.399
146.218
201.8
181.221
146.201
146.342
148.412
336.181
146.527
146.423
377.526
147.166
17369.3
146.67
146.202
1478.61
146.201
146.214
146.261
1033.28
146.204
154.97
146.721
146.844
146.998
157.296
146.202
146.275
146.206
146.202
146.201
146.202
146.201
146.203
146.247
173.981
169.512
1001.53
146.247
4399.72
146.241
161.409
146.276
146.563
146.552
146.972
146.202
146.202
146.197
146.201
146.201
146.201
146.205
182.012
146.254
430.122
146.351
146.406
1339.49
157.122
204.64
305.772
146.184
146.941
146.32
146.201
146.235
148.65
146.83
146.201
146.202
146.202
146.23
146.191
148.011
147.634
147.571
148.607
146.201
148.801
146.68
146.201
146.33
146.201
146.226
292.845
146.213
146.217
147.271
146.226
146.237
146.227
146.228
146.201
146.201
147.229
146.21
146.201
147.293
146.466
159.235
146.246
146.203
146.202
146.202
146.257
146.16
146.952
1243.87
145.955
146.2
2097.56
145.98
146.201
145.715
145.712
146.516
1450.87
341.787
147.965
147.018
146.2
900.027
145.735
155.794
1032.01
146.2
352.724
146.201
146.201
1421.9
146.2
146.202
1312.72
591.762
1320.46
1394.15
146.201
147.679
148.016
146.387
146.208
146.214
692.935
1315.34
182.722
500.282
146.22
146.231
146.761
267.079
353.383
147.759
146.677
1390.56
146.202
146.201
21545.8
1190.75
148.16
147.181
147.993
806.798
1930.83
146.199
146.471
146.202
1309.3
146.201
146.446
146.887
146.201
371.236
146.201
1082.67
1315.75
146.202
146.201
819.785
146.201
146.201
146.201
146.201
634.609
146.201
1320.92
321.24
146.201
146.2
612.504
146.207
146.202
148.564
146.202
146.202
146.201
146.238
146.252
146.253
1842.56
146.212
146.202
224.292
146.201
346.235
304.261
146.201
146.201
146.204
146.201
287.386
146.199
146.201
146.201
146.201
146.201
496.571
158.444
146.219
146.202
15975.8
146.201
146.42
146.2
147.912
146.203
154.108
146.369
146.204
146.136
146.202
146.539
146.717
146.199
149.325
147.962
146.201
146.217
189.835
146.201
146.23
146.201
1364.51
146.201
146.199
146.201
146.202
146.201
942.92
204.101
146.199
146.199
146.832
146.201
146.639
146.081
146.201
466.887
1792.85
146.355
146.201
145.955
158.091
1587.91
146.201
1557.75
146.201
1637.76
146.556
146.201
1626.08
988.967
812.708
447.174
146.999
146.21
146.201
146.201
211.091
279.126
146.207
156.252
146.202
146.167
146.201
147.13
1144.81
500.256
146.201
146.58
146.377
146.201
145.124
146.201
146.201
146.201
1515.61
149.193
242.789
146.202
146.202
146.2
880.525
146.211
1913.1
146.201
146.201
146.975
147.528
146.156
146.201
2182.8
146.201
146.202
146.232
1638.06
146.53
146.628
146.161
496.978
1965.8
149.042
148.231
146.222
147.237
146.201
146.26
1066.5
1261.37
196.811
147.198
150.961
147.021
146.172
12745.7
158.617
148.134
146.161
146.69
217.996
146.201
620.669
155.363
146.201
773.469
146.172
1896.74
146.62
146.623
147.471
939.874
146.201
146.172
146.202
146.206
15430.3
146.202
497.279
146.284
146.201
146.201
146.201
146.199
146.205
146.185
146.28
146.201
1554.9
146.201
373.464
146.201
146.365
146.201
146.235
146.378
146.201
146.201
146.201
146.274
146.219
7944
9511.03
170.453
146.335
146.202
146.205
146.201
146.207
146.233
146.212
146.228
146.706
146.44
10565
146.206
146.202
146.201
146.504
146.214
146.201
146.257
146.213
146.286
8239.14
146.274
147.915
146.201
146.215
146.848
147.45
146.202
146.219
146.257
146.201
146.304
146.212
146.201
146.322
146.201
146.201
146.213
146.212
146.54
146.198
173.053
146.201
146.283
146.196
146.196
146.337
147.284
146.534
146.205
146.202
146.202
146.73
232.35
146.201
149.138
248.984
146.208
146.266
146.205
146.222
232.489
146.201
146.219
146.324
146.217
258.217
146.259
146.201
146.231
146.252
146.192
146.201
146.201
146.196
146.201
146.51
146.201
146.201
146.323
146.201
146.238
147.611
146.197
146.201
162.06
149.196
146.198
146.218
146.201
146.202
146.413
146.201
146.249
146.54
146.211
146.194
146.197
146.181
146.216
146.209
146.227
146.339
1347.78
146.629
1102.08
146.237
146.243
146.217
146.201
1357.82
146.214
146.235
167.994
146.217
1285.7
146.201
146.214
146.237
146.247
147.208
146.272
147.261
146.201
146.238
147.711
146.214
146.564
146.198
146.254
146.288
146.302
147.6
146.252
148.772
146.268
148.682
146.237
146.156
146.201
146.521
146.197
146.322
146.268
146.204
146.284
146.201
146.253
146.215
146.201
146.201
146.201
146.27
146.415
146.201
146.213
146.967
146.201
146.308
146.201
146.335
146.204
146.247
146.208
146.201
146.226
146.201
146.201
146.201
146.213
146.202
146.201
146.62
146.202
146.27
491.643
146.201
146.206
146.141
146.201
146.201
146.201
146.201
146.201
146.337
146.296
146.224
146.245
146.188
146.201
146.284
146.492
146.201
146.201
146.322
146.201
146.201
146.398
146.201
146.22
146.221
146.202
146.201
146.206
1303.01
146.691
145.869
146.201
146.201
146.072
146.275
146.202
146.201
146.201
146.226
914.164
146.201
146.201
146.201
149.448
146.252
146.09
146.82
146.243
146.227
146.243
146.261
146.204
146.204
648.575
146.277
146.246
146.366
147.112
146.24
146.234
147.82
146.547
162.655
146.252
146.225
146.217
146.202
146.073
146.25
145.948
146.223
146.225
146.684
146.236
146.204
146.368
146.81
146.215
146.251
146.716
146.207
146.43
146.877
147.726
146.286
146.202
147.744
146.943
147.5
339.72
146.201
146.171
146.365
146.201
146.347
149.97
146.202
146.204
146.202
150.418
146.202
146.201
146.206
146.197
146.298
146.201
146.754
1726.47
146.203
173.764
149.972
1627.54
146.212
146.378
2355.35
146.201
146.966
146.304
146.449
146.149
146.797
146.201
146.201
146.064
146.201
482.056
146.229
146.226
1824.95
146.498
146.201
146.256
146.232
146.231
145.892
146.201
146.242
146.252
147.529
146.182
146.688
1953.75
146.228
146.205
609.01
146.285
146.201
146.226
146.53
146.463
146.482
146.231
146.457
146.341
146.381
611.154
146.254
146.206
146.371
146.245
146.376
146.231
146.251
146.251
146.221
146.238
146.431
1426.68
146.363
146.201
155.697
146.201
146.202
205.924
146.201
189.711
146.201
147.984
379.722
1728.7
146.201
146.138
146.178
148.538
146.261
148.632
146.435
153.849
196.515
146.481
146.201
161.608
146.418
146.278
718.348
360.068
146.221
146.241
146.211
146.27
146.201
146.202
146.201
146.202
146.205
146.201
146.057
14162.8
146.246
146.263
146.215
146.492
146.497
146.203
146.28
146.201
146.221
146.232
146.204
146.273
146.204
146.229
146.201
146.222
146.161
6387.74
146.201
146.362
146.302
1827.2
146.202
146.432
146.861
146.202
146.202
20441.1
146.201
146.29
146.202
146.212
146.278
146.22
146.202
146.202
146.244
146.198
146.455
651.894
146.202
146.211
146.202
146.536
146.378
146.2
146.201
1694.58
146.204
146.219
146.197
146.378
146.208
146.201
146.201
1722.08
1938.44
146.202
146.248
146.199
146.201
146.208
146.552
146.199
146.202
221.159
146.201
146.199
146.465
146.208
373.737
146.725
146.201
146.201
146.221
146.644
146.199
146.202
146.201
146.201
146.201
146.201
146.201
147.469
146.213
146.203
146.227
696.216
884.851
146.202
146.255
146.481
146.202
146.278
43935.6
146.201
148.233
147.12
146.202
146.201
146.202
146.529
146.267
146.206
146.204
146.201
146.247
146.21
146.316
146.282
146.527
146.331
146.201
146.262
630.749
146.205
146.203
146.201
950.965
918.914
146.201
146.202
146.201
146.205
146.261
1898.67
146.202
146.565
146.371
146.234
146.201
146.212
1337.43
146.201
146.201
146.202
146.201
184.884
146.024
146.207
146.186
146.222
146.201
146.201
146.202
1397.86
148.238
146.201
146.455
146.202
146.202
146.201
1681.87
200.648
990.036
145.789
146.084
146.2
146.202
146.218
171.858
149.126
146.202
146.202
146.202
671.596
2103.35
146.211
146.202
149.889
151.058
146.264
147.235
154.061
146.212
148.191
147.465
146.201
146.221
146.201
146.227
146.021
146.172
1113.75
1768.13
147.996
150.337
150.772
150.599
146.235
146.237
146.705
146.205
217.071
146.216
200.906
162.587
146.201
267.968
149.812
146.204
146.194
1744.97
146.214
146.201
442.31
190.38
146.185
146.207
146.204
146.205
146.123
146.201
146.1
163.661
1533.42
146.181
146.218
146.224
152.032
156.559
146.202
146.201
146.189
156.366
146.182
146.201
146.363
146.201
146.202
146.201
146.205
149.175
146.212
146.201
146.197
146.201
146.215
146.202
146.208
146.201
146.236
146.201
146.2
146.401
146.201
145.944
146.201
146.222
146.203
146.201
146.217
146.201
146.201
742.721
146.202
146.941
146.227
146.201
146.2
146.095
146.072
146.23
146.267
146.877
198.839
146.907
146.261
203.005
146.222
146.829
146.963
146.273
146.547
146.201
146.227
146.2
146.2
146.201
146.185
146.247
149.782
146.201
146.527
146.202
146.203
146.216
146.201
146.218
146.202
146.255
1623.78
146.393
146.202
146.201
146.205
146.872
146.206
146.173
1584.76
146.216
1686.13
146.179
146.17
146.245
1548.47
1544.47
1549.69
1687.99
250.434
146.46
147.122
167.671
1815.69
146.22
146.201
146.201
146.201
146.275
1402.53
146.379
146.27
1333.08
1335.21
146.213
1404.47
146.609
146.161
146.194
146.201
147.039
147.8
146.299
146.2
147.008
563.619
146.487
1912.26
147.778
146.534
146.812
146.089
146.316
146.799
146.272
146.07
146.202
146.573
146.202
146.202
146.769
146.201
146.201
149.844
146.203
146.769
148.824
146.204
146.329
147.818
147.82
146.215
147.863
146.553
147.842
146.209
146.185
147.831
276.024
147.843
147.763
146.222
146.557
146.234
146.283
833.495
146.2
146.202
151.752
145.887
151.154
145.924
146.199
146.198
150.58
146.201
146.236
146.201
146.189
146.534
150.26
150.276
146.234
146.201
146.563
185.569
146.753
146.2
272.204
16176.8
147.978
531.074
146.226
150.439
146.201
146.204
145.984
146.201
146.202
146.202
146.202
372.323
146.201
146.232
146.201
146.201
146.201
146.177
146.201
146.397
146.492
146.201
146.201
146.934
146.201
169.636
146.226
146.201
176.361
146.243
146.201
146.201
169.507
146.209
146.201
146.226
146.209
146.201
146.201
146.309
146.204
146.198
146.198
146.201
146.201
146.201
146.255
148.407
146.201
146.212
146.201
146.278
146.201
148.233
146.201
146.564
146.201
146.201
146.201
146.203
146.464
146.202
146.2
146.203
146.2
146.201
1753.31
146.201
146.201
145.829
146.201
146.172
146.491
146.205
146.209
146.201
146.285
146.2
146.203
146.201
146.121
146.201
146.199
146.203
146.399
146.2
146.206
146.2
146.217
146.195
146.204
1760.71
146.227
146.223
145.84
146.216
146.403
145.941
146.334
146.261
146.206
146.399
146.198
146.2
146.2
146.202
1516.15
146.279
146.199
1520.78
146.207
146.2
146.202
146.201
146.202
146.201
13600.8
146.202
146.199
146.2
1519.9
1546.05
1552.96
146.272
147.674
237.621
146.202
146.174
146.202
1556.38
146.201
146.205
146.2
146.201
1924.76
146.202
146.201
146.201
146.317
146.233
146.448
146.782
146.201
147.246
153.096
146.201
200.659
146.201
146.201
146.201
146.201
146.201
146.249
146.201
390.997
147.487
155.859
146.742
204.359
146.239
146.201
146.203
146.201
146.223
146.201
146.201
146.201
146.204
179.454
146.271
146.211
146.448
146.201
207.34
146.281
146.871
146.212
146.201
156.715
146.201
146.201
146.201
819.194
373.147
206.986
146.187
209.09
146.201
146.218
146.202
146.414
146.159
209.234
146.446
146.201
146.201
146.566
146.318
146.201
147.398
146.201
146.201
1647.49
146.201
146.227
146.201
146.339
146.202
146.178
146.202
146.201
146.24
146.202
277.857
146.201
269.907
146.202
146.203
521.768
146.201
146.202
146.201
1396.61
146.204
147.276
167.123
146.997
146.201
1559.5
146.345
146.202
146.202
1513.72
146.572
146.201
146.411
187.291
146.202
146.205
146.202
146.494
146.195
146.174
146.2
146.205
149.103
146.205
165.439
146.201
146.563
146.204
146.201
146.41
146.204
146.207
146.202
146.201
146.325
602.443
146.332
442.216
146.392
427.682
146.373
146.202
146.201
146.201
295.734
2008.21
145.333
146.455
146.244
329.347
146.405
1884.74
506.995
146.201
1873.05
1543.97
146.336
146.201
150.643
145.257
146.481
184.948
152.262
146.694
714.446
146.202
1050.38
146.215
142.848
146.278
175.683
944.083
146.201
146.201
147.552
149.853
146.218
153.523
146.183
146.201
1135.96
145.65
146.203
146.201
146.201
146.391
146.201
27081.3
159.469
146.201
146.202
1159.68
146.24
330.867
1558.9
655.642
146.239
146.201
146.201
548.041
146.201
146.201
146.285
146.245
146.204
1230.59
146.215
146.207
148.974
147.011
146.054
146.201
864.756
146.201
146.201
146.993
146.201
146.201
145.901
397.775
747.461
237.954
146.202
146.229
146.2
146.396
405.976
146.957
8135.77
146.201
145.977
146.201
146.286
146.201
147.608
412.17
146.201
146.742
146.201
146.201
146.245
146.204
146.324
146.043
777.027
8408.89
146.201
146.201
146.378
147.158
146.202
146.251
262.103
146.201
146.25
146.089
146.201
146.201
146.202
146.201
146.201
146.201
146.13
146.202
146.705
146.202
468.605
14112.5
147.003
146.718
146.2
146.414
146.204
146.201
146.731
1141.91
146.869
146.748
237.917
148.666
146.201
146.424
1031.03
147.631
146.79
146.566
146.201
146.969
146.201
146.201
146.201
146.216
146.53
146.201
146.944
146.201
146.211
146.202
1462.61
146.24
146.202
146.917
147.188
146.294
147.228
146.905
146.201
146.202
148.249
146.208
146.201
146.201
146.203
146.201
146.207
146.2
216.33
171.856
148.052
146.595
146.389
146.52
146.201
146.201
146.201
147.333
146.115
146.202
146.097
146.731
146.228
1972.55
147.185
146.559
146.583
430.636
146.206
147.082
146.202
146.201
146.369
397.952
146.883
146.202
146.201
146.202
595.194
146.203
146.703
207.568
146.644
147.425
146.201
146.202
148.487
169.93
146.202
147.337
146.415
146.455
146.201
147.114
146.23
147.062
146.218
146.201
146.482
146.274
146.035
146.202
146.485
146.77
146.719
146.205
146.225
146.521
146.723
146.218
146.201
146.202
1812.34
148.939
6724.63
146.651
146.228
146.829
146.771
146.202
146.228
146.206
146.202
146.204
146.208
2225.69
146.202
146.209
146.202
146.757
146.201
146.201
146.201
146.201
149.558
340.438
146.202
146.806
146.217
146.355
146.202
146.352
146.201
146.842
146.834
146.205
146.206
146.465
146.205
146.204
146.201
146.202
146.202
146.686
146.201
146.4
146.201
146.202
146.206
146.698
146.201
146.209
147.48
146.202
146.203
146.202
146.207
1788.04
146.202
146.416
146.205
146.426
146.208
146.202
146.203
146.202
146.208
146.214
146.202
146.69
923.736
146.201
146.202
146.202
146.202
146.204
146.201
146.201
146.202
146.205
146.204
146.204
146.201
146.266
880.54
147.052
146.327
146.807
146.205
146.201
478.445
146.204
1968.12
146.23
146.511
146.202
146.201
146.201
146.201
146.204
146.201
146.234
148.031
146.202
146.203
146.201
146.204
146.201
146.21
146.201
146.204
146.202
146.377
146.234
146.302
146.203
146.202
146.235
146.239
146.268
146.203
146.201
146.203
146.285
146.201
146.381
146.257
146.215
146.238
146.286
148.808
146.237
146.919
385.762
146.203
300.016
146.202
147.128
146.201
147.155
146.462
146.943
600.808
146.202
146.201
146.202
146.368
2159.08
146.201
146.888
146.242
146.87
146.202
146.202
146.117
146.202
146.997
146.201
146.201
146.202
146.202
146.201
146.201
146.809
146.791
146.443
146.201
146.201
146.565
146.202
146.201
146.26
146.697
146.27
146.201
146.203
148.307
146.26
146.201
146.201
146.582
146.793
209.376
146.201
146.971
146.22
146.083
146.205
146.192
146.201
146.202
146.202
146.201
146.201
146.201
146.201
146.202
146.201
146.202
146.201
146.201
146.202
146.204
146.203
146.2
146.201
146.199
146.201
146.533
146.679
146.557
146.201
146.201
146.201
146.201
146.367
146.202
146.202
146.201
146.201
146.201
146.201
146.256
146.202
146.197
146.201
146.201
146.201
146.287
146.201
146.288
146.288
146.293
146.201
146.201
146.31
146.201
146.201
146.201
146.202
146.201
146.202
146.199
146.201
146.202
146.202
149.444
150.218
146.201
146.202
146.201
146.197
146.201
146.201
146.201
146.195
159.596
183.535
146.201
183.413
146.203
146.202
177.844
165.634
146.209
146.433
147.59
146.21
146.201
146.2
146.202
146.201
182.518
146.202
166.977
146.201
146.201
146.201
146.592
146.592
146.55
146.201
146.201
146.201
146.201
146.201
146.201
146.201
146.203
146.202
146.201
146.526
146.201
146.202
146.202
146.201
146.201
146.144
146.201
146.518
148.636
146.548
146.213
146.201
146.203
146.201
146.201
146.213
146.201
146.211
148.648
146.203
146.201
146.202
146.31
146.201
146.378
146.202
146.202
146.362
146.202
146.372
1557.43
212.714
146.229
146.198
146.396
201.252
146.202
146.2
146.201
146.202
146.391
146.201
146.245
188.023
601.126
147.303
626.667
146.201
146.201
601.993
146.201
146.202
146.201
146.203
146.202
146.201
146.718
1607.21
146.685
146.252
146.375
146.201
146.202
146.201
645.769
146.601
146.202
1729.18
146.201
147.397
146.203
146.315
146.203