/*--------------------------------*- C++ -*----------------------------------*\
| =========                 |                                                 |
| \\      /  F ield         | OpenFOAM: The Open Source CFD Toolbox           |
|  \\    /   O peration     | Version:  v2012                                 |
|   \\  /    A nd           | Website:  www.openfoam.com                      |
|    \\/     M anipulation  |                                                 |
\*---------------------------------------------------------------------------*/
FoamFile
{
    version     2.0;
    format      ascii;
    class       volScalarField;
    location    "3";
    object      ILambda_0_0;
}
// * * * * * * * * * * * * * * * * * * * * * * * * * * * * * * * * * * * * * //

dimensions      [1 0 -3 0 0 0 0];


internalField   nonuniform List<scalar> 
108993
(
146.201
146.201
146.201
146.201
146.201
146.201
146.199
146.201
146.201
146.201
146.201
146.201
146.201
146.201
146.201
146.201
146.203
146.201
146.201
146.201
146.201
146.201
146.201
146.201
146.201
146.201
146.201
146.201
146.201
146.201
146.201
146.201
146.201
146.201
146.201
146.201
146.201
146.201
277.17
1664.05
146.201
146.201
146.201
146.201
146.38
149.453
146.201
146.196
146.201
146.201
146.201
147.004
146.201
146.201
146.201
146.201
146.201
146.201
146.201
146.201
146.201
146.201
146.201
146.201
146.201
146.201
146.201
146.201
146.201
146.191
146.201
146.201
146.201
146.201
146.201
146.201
146.201
146.201
146.201
146.201
146.201
146.201
146.201
146.201
146.201
146.201
146.201
146.201
146.201
146.201
146.201
146.201
146.201
146.201
146.201
146.201
146.201
146.201
146.201
146.201
146.201
146.201
146.201
146.201
146.201
146.201
146.201
146.201
146.201
159.616
146.453
146.201
146.626
146.772
146.201
146.411
146.201
146.201
146.203
146.201
146.201
146.201
146.227
146.201
146.201
146.205
146.201
146.201
146.201
146.201
146.201
146.201
146.201
146.584
146.201
146.201
146.201
146.201
146.201
146.201
146.201
146.201
146.224
146.201
146.201
146.201
146.201
146.732
146.201
146.922
146.986
146.201
146.201
146.966
146.201
146.213
146.201
146.201
146.201
191.175
146.978
146.201
146.201
146.201
146.201
146.497
146.201
146.201
146.201
146.201
146.201
146.201
147.25
146.201
146.201
146.201
146.218
146.201
146.201
146.201
146.201
146.201
146.201
146.201
146.201
146.201
146.201
146.201
146.201
146.201
146.201
146.201
146.201
146.203
146.201
146.201
146.201
146.201
146.201
146.201
146.201
146.21
146.201
146.201
146.015
146.475
146.201
146.275
146.201
147.197
234.48
146.201
146.21
146.287
2103.91
146.201
146.201
146.201
146.201
146.201
146.201
146.874
146.201
146.203
146.201
146.201
146.201
146.201
157.922
146.201
1348.15
146.201
146.201
146.201
146.201
146.201
146.201
146.201
504.619
146.201
146.201
146.201
146.201
146.201
146.201
146.201
146.296
146.246
146.201
146.201
146.201
146.201
146.201
146.201
146.201
146.201
146.201
146.201
146.201
146.201
146.201
146.201
146.206
146.212
146.201
146.201
146.201
146.201
146.201
146.201
146.201
146.201
146.227
156.158
146.353
146.201
146.201
146.217
146.201
146.201
146.201
233.164
275.808
146.201
146.201
146.202
146.201
146.201
146.201
147.029
146.201
146.201
146.201
146.201
146.201
146.201
146.201
146.201
146.208
146.201
146.295
146.695
146.201
146.201
146.201
146.201
146.201
146.201
146.201
146.225
146.201
146.201
146.204
146.201
146.201
146.553
146.201
146.203
151.188
146.201
146.201
146.201
146.201
146.201
146.201
148.7
147.791
146.468
146.201
146.201
146.201
146.33
147.752
146.201
147.479
146.201
146.201
146.201
146.201
146.201
146.201
146.339
146.201
146.201
146.201
146.201
146.201
146.201
146.201
146.201
146.201
146.201
164.56
146.241
146.201
146.201
146.201
150.787
146.201
146.201
146.201
146.201
146.201
146.201
146.201
146.201
146.201
146.201
146.201
552.089
146.201
146.201
146.201
147.285
146.201
146.669
146.201
146.201
146.583
146.201
146.531
146.583
146.201
146.201
146.201
146.202
146.201
548.685
146.201
146.276
146.6
146.202
146.6
146.201
146.248
146.201
159.999
146.201
146.242
146.201
146.201
146.218
146.228
146.201
146.201
146.203
146.202
146.201
146.201
172.055
146.201
146.201
3571.41
146.201
146.201
146.201
146.773
146.218
146.289
146.201
166.76
146.201
146.883
146.201
146.201
147.944
146.201
146.278
147.909
146.201
159.314
212.884
159.651
146.201
146.201
146.201
146.201
146.201
146.201
146.201
146.201
146.201
146.201
146.201
282.646
146.202
146.202
147.012
146.201
146.201
146.201
146.201
146.201
146.201
146.201
146.201
146.201
146.201
146.201
146.201
146.217
146.201
146.217
146.665
146.213
146.201
146.201
146.217
146.201
146.201
146.21
146.201
146.201
146.201
146.201
146.236
146.201
183.136
146.407
146.205
146.201
146.201
146.201
146.201
146.201
146.201
146.201
146.201
146.849
146.201
146.201
146.201
146.266
146.201
146.238
146.201
146.201
146.201
146.201
146.201
146.201
146.201
146.201
146.201
146.356
146.599
146.201
146.201
596.518
146.201
146.201
146.202
146.201
146.201
146.201
146.201
146.201
146.201
146.201
146.201
146.202
146.202
146.202
146.202
146.201
146.248
146.201
146.201
146.288
146.202
146.201
146.201
146.241
146.201
146.201
146.201
146.3
146.201
146.201
146.233
146.201
146.278
146.201
146.201
146.201
146.201
146.201
146.265
146.201
146.201
146.27
146.201
358.864
146.201
146.201
146.201
146.201
146.201
148.488
146.201
146.201
146.201
146.201
146.202
216.457
146.39
146.201
146.201
146.201
146.201
146.201
146.201
4353.89
220.779
146.325
146.202
146.201
221.069
147.92
146.188
146.201
146.201
146.201
146.201
146.201
146.439
150.362
254.607
146.201
146.201
146.201
146.201
146.201
146.201
161.856
146.201
146.201
146.201
146.201
146.21
146.201
146.201
146.839
146.205
146.201
146.201
163.485
146.201
146.202
146.201
149.994
146.201
146.804
146.201
146.202
146.201
146.201
146.201
146.264
146.201
146.819
146.201
146.201
146.39
146.201
146.201
146.201
146.266
3668.21
146.201
146.529
146.201
146.29
148.106
146.201
146.201
146.201
834.153
146.234
146.949
146.201
146.923
146.201
146.201
146.201
146.201
146.201
147.121
146.377
146.201
146.201
146.243
146.273
1874.48
146.212
146.201
146.239
1856.07
151.614
1858.16
1859.93
146.201
146.201
146.201
146.201
146.201
146.2
146.204
146.256
146.313
146.206
146.201
146.533
1686.45
1883.38
146.201
146.202
146.207
146.201
146.671
146.201
556.464
146.212
146.201
147.017
146.202
193.024
146.207
146.207
147.008
146.201
146.201
146.737
146.201
146.201
496.975
146.204
146.843
146.204
188.892
146.373
146.201
146.201
146.201
146.208
146.201
146.339
146.201
146.201
146.201
146.202
146.26
11289.1
146.201
490.192
146.201
146.827
146.21
146.201
146.826
146.201
146.201
146.249
146.201
146.201
146.201
146.205
146.49
146.313
146.201
146.929
146.201
146.201
146.201
146.201
146.201
301.738
146.201
146.201
146.2
146.201
146.201
1356.61
147.089
146.201
146.203
146.201
146.201
146.201
146.203
146.201
146.201
146.201
146.201
146.201
146.202
146.201
146.201
146.21
146.201
146.201
146.201
146.201
146.201
146.207
146.201
146.201
146.245
146.201
146.201
146.201
171.147
146.201
146.295
146.387
146.201
146.201
157.549
146.276
146.201
146.201
146.234
146.201
146.201
146.202
146.201
146.202
146.201
146.201
146.206
146.201
148.141
146.201
146.201
908.662
146.202
148.843
146.204
147
146.201
146.202
146.212
146.201
146.201
146.204
146.201
146.201
146.201
146.201
146.201
146.201
146.201
146.201
146.207
146.201
199.398
146.201
146.201
5821.51
146.201
1131.93
146.201
146.201
146.201
1778.78
146.201
146.201
146.206
147.053
146.201
146.136
146.244
146.206
146.201
146.431
146.201
146.201
146.214
1483.2
146.201
146.201
146.201
146.14
146.201
146.201
146.22
146.201
146.201
148.164
146.201
362.482
146.201
208.494
146.201
146.202
146.207
146.202
146.245
146.201
146.208
146.21
148.439
146.202
3075.24
146.201
146.201
146.201
146.212
146.203
146.203
146.201
146.201
146.218
3021.42
146.201
146.204
146.422
146.381
146.201
146.404
1356.38
2600.11
146.203
146.886
146.202
147.467
146.201
147.831
148.183
422.542
146.201
146.201
146.203
146.21
146.375
146.201
146.201
146.331
146.415
146.201
149.898
146.202
146.201
147.386
146.201
146.201
258.583
300.496
146.201
146.201
146.201
146.201
146.206
146.493
167.765
146.201
165.414
146.205
146.207
146.201
146.201
146.202
146.205
146.201
146.201
146.201
146.201
146.507
146.201
146.201
146.277
146.201
146.631
146.415
146.202
146.208
146.201
146.522
146.201
1395.44
146.201
146.201
146.201
146.416
146.555
146.201
146.202
157.607
146.767
146.383
146.201
146.205
146.338
146.627
146.201
146.214
147.21
146.206
146.202
146.205
146.201
146.593
146.403
146.632
146.217
146.206
146.203
146.208
146.202
146.202
146.213
146.567
146.202
146.201
146.201
146.215
146.201
146.201
146.201
146.214
146.201
146.201
146.201
146.201
146.201
146.201
146.201
147.131
146.201
146.201
146.201
146.201
203.803
146.201
146.201
146.201
146.201
146.201
1352.43
149.974
146.201
146.201
146.201
146.632
146.516
146.295
146.201
146.201
146.247
146.201
146.204
146.248
267.635
146.201
146.201
146.201
146.201
146.201
146.202
146.201
146.201
146.201
146.201
146.239
146.201
146.202
146.201
146.201
146.202
148.735
146.203
146.203
146.201
146.201
146.201
146.218
146.201
146.201
146.201
2084.39
146.201
146.203
146.201
146.206
146.201
146.201
243.65
146.482
146.21
146.202
1191.15
146.207
146.208
146.202
161.569
146.201
146.201
146.201
147.108
146.202
2363.93
146.223
146.202
146.201
146.201
146.207
146.201
146.21
146.684
146.208
146.201
146.401
147.102
147.302
146.201
146.201
146.201
146.201
146.201
146.201
146.201
165.603
146.201
1395.83
146.201
146.201
146.201
146.728
147.237
146.201
146.201
146.201
146.203
146.201
146.202
147.346
146.245
146.201
146.25
146.201
146.201
146.201
146.201
146.201
146.201
10528.5
146.298
146.201
146.201
146.201
146.201
146.201
146.201
146.201
146.201
146.201
146.201
146.201
146.201
146.201
146.201
146.201
146.201
146.201
146.201
146.201
199.294
146.845
146.714
147.578
146.201
146.201
146.201
146.201
146.201
146.201
146.201
146.201
146.201
147.143
146.201
146.202
146.201
146.201
146.201
146.201
146.279
147.43
146.201
146.201
146.201
146.202
146.201
146.201
146.39
146.201
146.201
146.201
146.201
146.201
146.199
146.202
146.201
146.411
146.201
146.201
146.201
146.654
146.202
146.201
146.201
146.201
146.973
146.201
147.213
146.203
146.203
146.203
147.316
146.206
146.201
146.217
146.201
146.236
146.217
146.202
146.201
146.201
146.201
146.201
146.201
146.201
146.522
780.269
146.212
146.201
146.201
146.212
146.201
146.201
146.201
146.201
146.201
320.894
146.225
146.251
146.201
146.337
146.201
146.292
146.282
146.201
146.201
146.229
146.201
273.924
146.251
146.138
147.587
146.201
146.201
146.202
146.201
146.201
2235.96
146.201
146.201
146.201
146.651
146.201
146.201
146.202
146.201
146.311
146.315
146.201
146.202
146.201
146.214
146.201
146.201
146.201
146.202
146.201
146.474
146.207
146.201
146.274
146.201
146.201
146.201
146.205
147.718
146.201
146.447
146.547
148.408
146.185
146.201
146.201
146.243
146.201
146.248
146.25
146.246
146.296
146.249
146.201
146.251
146.25
146.202
146.202
146.201
146.526
146.201
146.201
146.201
146.202
146.201
146.201
146.201
146.415
146.201
146.201
146.202
146.201
146.202
146.202
146.201
146.241
150.85
146.202
382.758
146.201
146.201
146.2
146.201
146.259
146.201
146.201
146.273
146.202
146.201
146.201
146.201
146.201
146.689
146.201
146.266
146.201
146.211
146.498
146.201
146.201
146.201
146.201
146.201
146.201
146.201
146.201
146.201
146.205
146.202
146.534
146.201
146.365
146.237
146.201
146.221
146.201
146.201
146.201
146.201
146.201
146.246
146.235
152.837
146.201
330.288
146.328
146.201
146.201
146.201
146.201
146.201
146.202
146.854
146.201
146.201
146.202
146.201
146.201
146.201
146.201
3819.7
1625.71
146.201
146.201
146.385
146.201
146.201
146.202
146.201
146.22
146.201
146.201
146.201
146.201
1054.12
146.21
146.201
146.389
147.617
146.201
146.341
148.39
146.201
146.201
146.201
146.256
146.258
146.201
146.201
146.922
146.27
146.23
146.201
146.201
146.798
146.201
146.201
146.242
146.201
146.201
146.201
146.201
187.375
146.201
146.201
150.241
146.201
147.516
146.201
146.371
146.201
146.209
146.263
146.203
146.21
256.53
146.202
146.201
147.09
146.201
146.201
146.201
147.296
146.841
146.201
146.222
146.201
153.133
147.343
146.64
146.204
1744.94
146.201
704.489
146.201
146.201
146.201
146.201
146.201
146.201
146.201
146.201
146.221
147.985
146.268
147.217
146.201
146.201
146.201
146.201
146.201
146.201
1085.11
149.283
146.201
146.201
146.201
147.085
146.201
146.201
146.609
146.201
146.201
146.201
146.202
2615.65
146.326
146.229
148.532
146.201
146.201
147.719
146.201
146.201
146.201
146.309
146.378
223.509
233.57
146.201
146.201
13967.9
146.201
146.202
146.201
146.201
146.201
146.201
146.201
146.201
146.202
269.471
146.211
146.202
146.28
146.426
146.201
147.043
146.201
146.201
146.201
146.201
146.201
146.201
146.202
146.201
146.208
602.722
146.566
146.278
146.201
146.201
215.25
147.983
146.201
146.226
146.201
146.201
310.262
146.293
158.239
146.231
146.201
1830.59
319.856
146.466
146.201
146.228
307.83
241.777
146.518
146.204
175.252
229.529
146.202
225.146
146.221
290.816
146.114
228.287
146.123
146.201
146.26
211.684
170.794
146.201
146.201
9468.6
146.201
146.201
147.143
146.201
162.156
146.103
146.201
146.201
146.201
146.201
146.135
146.279
153.418
146.216
149.986
146.201
146.903
146.118
146.204
146.201
146.201
146.201
146.201
146.201
146.201
146.243
146.201
146.201
146.202
146.808
146.132
173.063
607.639
146.307
146.201
148.855
146.201
146.201
146.201
146.201
146.201
146.201
146.225
146.56
146.459
167.737
1270.02
146.256
146.201
398.252
146.471
146.202
916.221
146.201
146.203
146.201
146.592
146.202
174.872
146.201
146.201
146.201
146.201
148.103
146.201
409.42
146.201
223.45
146.548
146.201
146.201
1173.65
146.558
146.298
146.399
146.201
146.993
15568.9
146.201
146.202
146.258
146.265
490.947
146.201
492.531
147.044
146.327
403.675
349.755
146.227
490.715
146.201
4044.56
5512.24
146.212
323.816
146.201
146.207
151.243
146.201
333.422
146.325
146.206
146.201
146.201
156.637
146.201
146.201
146.201
146.201
146.201
146.201
146.202
146.201
3520.5
370.07
146.203
206.054
146.202
146.201
146.228
146.586
146.48
146.204
146.202
146.749
148.003
17174.5
146.706
146.201
246.958
146.201
146.201
146.201
67.2732
146.201
212.914
146.22
147.003
147.115
1344.09
146.201
504.002
146.201
146.201
146.201
146.201
146.201
146.201
146.227
146.755
342.08
5189.61
146.221
5491.62
146.206
147.116
146.201
174.128
148.415
277.272
146.201
146.201
146.201
146.201
146.201
146.201
146.715
146.425
146.206
261.058
462.05
146.485
306.562
1143.43
2634.72
500.54
146.201
147.333
146.251
146.201
146.201
146.614
146.267
146.201
146.201
146.201
146.204
146.201
147.228
147.041
147.496
146.688
146.201
2319.08
146.639
146.201
146.328
146.201
146.202
297.267
146.206
146.203
731.151
146.204
146.201
146.202
146.201
146.201
146.201
146.239
146.201
146.202
146.642
146.431
146.276
146.206
146.202
146.201
146.201
146.201
146.201
146.294
147.486
146.201
146.201
932.162
146.201
146.201
146.201
146.201
149.562
147.005
6388.09
146.384
146.82
146.201
146.289
146.201
146.22
146.507
146.201
146.381
146.201
146.201
146.818
146.201
146.201
146.839
146.457
146.817
146.918
146.201
146.251
146.244
146.25
146.202
146.712
146.304
146.854
146.234
1081.6
146.201
146.201
146.231
146.584
146.234
146.515
146.321
146.908
146.201
146.201
9517.37
146.379
146.244
146.444
146.22
146.98
1223.02
146.201
146.243
146.201
146.515
146.201
146.284
146.499
146.201
146.385
146.201
146.677
146.786
146.201
146.201
146.431
146.201
146.201
146.201
146.201
146.293
146.201
146.807
267.666
146.201
146.201
759.554
146.201
146.201
146.227
146.201
146.201
146.201
146.201
445.503
451.339
229.121
146.201
146.201
146.247
146.201
159.315
274.429
146.201
146.201
146.201
146.201
146.378
146.201
146.201
146.201
146.201
146.201
447.155
203.62
146.205
146.201
557.121
146.201
146.977
146.201
146.248
146.201
147.771
146.256
146.201
146.201
146.201
146.913
146.346
146.201
146.216
146.202
146.201
146.211
146.211
146.201
146.203
146.201
146.378
146.201
146.201
146.201
146.201
146.201
146.309
275.857
146.201
146.201
146.276
146.201
147.537
146.201
146.201
7103.52
185.819
146.754
146.201
146.201
146.207
146.485
146.201
147.613
146.201
152.791
146.391
146.201
292.407
146.383
954.765
4732.08
146.288
146.201
146.201
146.201
146.243
146.211
147.485
687.305
146.201
146.365
146.201
146.242
146.342
146.259
146.201
146.912
302.818
146.201
1368.99
146.201
146.201
146.201
146.953
146.296
146.232
146.201
146.201
146.201
1227.67
146.201
430.024
146.201
146.201
1319.01
148.144
146.201
146.201
1245.34
146.201
146.201
146.201
147.509
147.135
146.418
146.201
2026.86
351.298
147.456
147.544
146.204
159.478
146.201
307.077
955.663
1136.99
153.721
165.009
147.127
604.749
146.201
17194.1
146.343
147.762
146.201
177.159
3843.02
146.201
146.239
213.835
146.201
186.677
146.201
165.811
146.262
146.933
146.303
146.811
146.201
146.201
146.201
146.201
10116.6
146.201
146.315
486.944
146.201
146.201
146.201
146.201
146.201
146.201
146.202
146.201
147.445
146.201
452.143
146.201
146.22
146.201
146.204
155.629
146.201
146.201
146.201
146.201
146.203
399.524
324.03
643.025
146.205
146.203
146.201
146.201
146.202
146.217
146.202
146.201
146.993
146.591
199.036
146.201
146.203
146.201
146.458
146.265
146.201
146.162
146.204
146.403
191.633
146.199
148.367
146.201
146.204
147.754
148.38
146.201
146.213
146.218
146.201
146.262
146.203
146.201
146.244
146.201
146.201
146.201
146.205
147.845
146.201
148.221
146.201
146.242
146.201
146.201
146.251
175.029
147.419
146.201
146.201
146.201
1845.84
194.154
146.201
199.737
135.044
146.201
146.206
146.784
146.223
195.007
146.201
146.203
146.051
146.201
142.512
146.202
146.201
146.201
146.201
146.201
146.201
146.201
146.201
146.201
146.385
146.201
146.201
146.351
146.201
146.206
146.305
146.201
146.201
146.383
146.299
146.201
146.214
146.201
146.201
146.195
146.201
146.201
146.266
146.201
146.201
146.201
146.201
146.201
146.201
146.353
146.25
158.006
147.272
148.295
146.353
151.697
146.212
146.201
147.698
146.21
146.201
146.511
146.208
147.368
146.201
146.207
146.201
257.944
146.224
160.835
146.224
146.201
161.289
146.261
146.201
146.235
146.201
146.205
154.29
146.345
146.248
150.99
146.22
146.205
146.227
159.157
146.201
146.201
150.449
146.204
146.201
146.201
146.201
151.267
146.201
146.206
146.232
146.201
146.201
146.202
146.201
159.295
146.201
146.206
146.201
146.201
146.168
146.201
146.273
146.201
146.201
146.201
146.201
146.203
146.201
146.201
146.201
146.21
146.201
146.201
146.85
146.201
146.205
183.884
146.201
146.201
146.201
146.201
146.201
146.201
146.201
146.201
146.432
146.205
146.207
146.201
146.201
146.201
146.22
150.857
146.201
146.201
170.376
146.201
146.201
146.446
146.201
146.22
195.459
146.201
146.201
149.562
1466.05
1668.37
146.201
146.201
146.201
146.201
146.268
146.201
146.201
146.201
146.201
146.401
146.201
146.201
146.201
2124.74
249.989
146.214
2076.67
165.16
146.201
146.201
146.203
146.201
146.201
147.284
146.236
146.201
189.091
2254.58
146.201
146.201
2716.98
146.572
2590.41
146.201
146.203
146.201
146.201
263.221
146.201
280.47
146.203
146.201
549.635
146.201
146.201
146.254
551.735
146.201
146.206
296.142
146.201
146.201
551.142
146.22
146.201
146.201
146.221
146.959
146.217
1426.92
146.201
146.201
146.466
146.202
146.431
146.24
146.201
146.201
146.201
146.304
146.201
146.202
146.202
146.201
146.203
146.201
146.317
904.193
146.201
146.217
146.51
790.389
146.201
146.272
2413.93
146.201
146.225
146.352
146.79
146.201
146.448
146.201
146.201
146.201
146.201
622.385
146.205
146.206
858.472
202.486
146.201
146.201
146.206
146.201
146.201
146.201
147.522
146.201
146.202
146.201
146.741
804.533
146.206
146.202
477.13
460.88
146.201
146.208
146.857
146.517
152.142
146.392
244.933
146.203
152.739
287.384
171.331
146.55
146.201
167.289
591.17
146.201
146.214
171.463
146.203
146.206
146.414
1501.55
146.242
146.201
262.361
146.202
146.201
276.795
146.201
332.297
146.201
147.455
536.712
425.648
146.201
146.201
146.201
233.279
146.205
147.201
146.201
269.975
342.089
146.397
146.201
147.973
226.082
216.667
320.277
417.892
146.201
146.206
146.201
146.202
146.201
146.201
146.201
146.201
146.201
146.201
146.201
12146.2
146.201
146.204
146.201
146.372
146.605
146.202
502.507
146.201
146.201
146.207
146.201
146.201
146.201
146.201
146.201
146.208
146.201
3094.36
146.201
146.224
152.629
201.064
146.201
146.222
146.219
146.201
146.201
11522.9
146.201
146.201
146.201
146.201
146.201
146.207
146.201
146.201
146.201
146.201
146.725
207.6
146.201
150.677
146.201
146.573
146.616
146.201
146.201
146.469
146.201
146.197
146.201
146.213
146.2
146.201
146.201
148.083
288.972
146.201
234.913
146.201
146.201
146.199
146.354
146.201
146.202
146.231
146.201
146.201
167.234
146.199
592.997
146.348
146.201
146.201
146.197
1911.24
146.201
146.201
146.201
146.201
146.201
146.201
146.201
157.266
146.197
146.201
146.189
264.66
205.808
146.201
506.359
458.405
146.201
514.481
16394.6
146.201
167.015
146.49
146.202
146.201
146.202
147.69
521.826
146.204
146.204
146.201
146.201
146.206
146.514
205.698
147.654
146.201
146.201
146.202
200.878
146.205
146.202
146.201
148.596
337.34
146.201
146.2
146.201
146.202
360.496
1065.43
146.201
146.297
146.202
256.989
146.201
146.201
3861.72
146.201
146.201
146.201
146.201
146.204
146.201
146.201
146.203
146.201
146.201
146.201
146.201
148.545
146.253
146.201
146.217
146.201
146.201
146.201
146.641
146.227
148.094
146.201
146.201
146.201
146.201
151.855
146.202
160.024
146.201
146.201
146.199
1622.92
1049.52
153.578
146.201
158.302
158.144
333.904
158.889
150.167
146.199
146.403
146.269
146.201
146.201
146.201
146.201
146.201
146.201
507.125
156.803
146.527
146.233
147.256
146.201
146.223
146.213
146.543
149.319
168.905
152.571
147.907
201.66
146.201
159.197
146.472
146.201
146.201
157.095
146.201
146.201
198.692
2010.61
146.201
146.201
146.201
146.201
146.201
146.201
146.201
151.058
3559.14
146.201
146.201
146.205
147.488
321.809
146.201
146.201
146.201
149.947
146.201
146.201
146.223
146.201
146.202
146.201
146.201
146.54
149.294
146.201
146.201
146.201
146.201
146.201
148.842
146.201
146.203
146.201
146.201
146.237
146.201
146.201
146.201
146.201
146.201
146.201
146.201
146.201
146.201
146.325
146.201
167.056
146.201
146.201
146.201
146.201
146.201
146.202
396.093
148.127
146.258
188.818
146.202
155.614
209.849
148.21
167.168
255.57
146.257
146.201
146.201
146.201
146.201
146.201
146.201
146.207
149.583
146.201
1984.27
146.201
146.201
146.202
146.201
146.202
146.201
146.176
149.321
176.902
146.201
146.201
146.201
146.696
146.201
146.202
706.896
146.202
713.602
146.201
146.201
146.202
512.981
922.495
574.238
495.036
1704.53
238.839
1490.66
146.23
545.543
146.201
146.201
146.201
146.201
310.393
146.975
191.835
316.97
146.971
146.985
146.201
146.932
148.639
146.201
146.201
146.201
147.943
146.349
146.269
146.201
148.033
165.213
147.364
197.18
146.354
147.977
1882.29
146.201
148.143
1827.15
154.186
146.201
146.201
146.6
146.201
146.201
1880.52
146.201
146.201
148.248
146.201
1838.12
146.989
146.201
146.2
146.315
146.313
148.825
146.316
146.692
146.322
146.201
146.201
146.321
146.224
146.302
146.302
146.206
146.482
146.409
485.843
444.133
146.201
146.201
146.289
146.201
187.107
146.201
146.201
146.201
146.286
146.201
146.418
146.201
146.201
146.416
146.252
146.252
177.553
146.201
147.132
186.19
1453.94
146.201
146.241
7665.51
146.565
167.302
146.201
146.292
146.201
146.201
146.201
146.201
146.201
146.201
146.201
187.418
146.201
146.199
146.201
146.201
146.201
146.201
146.201
174.93
399.458
146.201
146.201
146.499
146.201
192.85
146.207
146.201
146.292
146.201
146.201
146.201
169.686
146.201
146.201
146.214
146.201
146.201
146.201
146.12
146.201
146.201
146.201
146.201
146.201
146.201
146.201
146.216
146.201
146.199
146.201
146.247
146.201
146.201
146.201
147.197
146.201
146.201
146.201
146.201
146.338
146.201
146.201
146.201
146.201
146.201
147.309
146.201
146.201
146.201
146.201
146.201
479.484
146.201
146.201
146.201
146.204
146.201
146.201
146.201
146.201
146.201
146.201
146.201
182.728
146.201
146.201
146.201
146.201
146.201
146.201
148.478
146.203
146.201
146.201
146.201
153.976
146.201
146.232
508.962
146.212
146.288
146.201
146.201
146.201
146.201
147.038
146.201
146.201
147.038
146.201
146.201
146.201
146.201
146.201
146.201
1009.66
146.201
146.201
146.201
147.1
147.281
147.279
146.21
146.408
1581.89
146.202
146.201
146.201
147.17
146.201
146.201
146.201
146.201
164.083
146.201
146.201
146.201
146.23
146.202
169.005
146.266
146.201
146.704
612.663
146.201
146.67
146.201
146.201
146.201
146.201
146.201
146.201
146.201
433.094
299.239
447.491
155.866
154.688
146.192
146.201
146.201
146.201
146.214
146.201
146.201
146.201
146.201
148.285
146.203
159.615
246.2
146.201
146.258
146.249
146.229
146.202
146.201
146.221
146.201
146.201
146.201
146.247
154.373
149.695
146.201
146.232
146.201
146.201
146.201
146.201
146.201
155.532
146.315
146.201
146.201
210.877
147.304
146.201
148.351
146.201
146.201
344.521
146.201
146.201
146.201
146.272
146.201
146.201
146.201
146.201
146.202
146.201
5289.94
146.201
146.209
146.201
146.201
146.244
146.201
146.201
146.201
735.096
146.202
146.388
148.835
146.262
146.201
147.058
146.25
146.201
146.201
195.546
146.432
146.201
146.389
146.983
146.202
146.2
146.201
146.402
146.201
146.201
146.201
146.201
147.619
146.201
2671.4
146.201
146.755
146.201
146.201
148.134
146.201
146.202
146.201
146.201
145.974
311.331
146.309
417.3
146.319
146.251
146.316
146.201
146.201
146.201
146.235
633.331
1057.68
146.335
146.201
516.853
146.324
235.127
679.617
146.201
8141.2
824.328
146.304
146.201
146.449
1372.62
1377.94
1981.36
146.241
146.223
326.908
146.203
350.237
146.201
1513.73
146.201
162.538
401.27
146.201
146.203
146.407
1423.07
146.202
353.113
146.201
146.201
430.446
146.201
146.201
146.201
146.201
146.177
146.201
26190.7
200.417
146.201
146.201
388.508
146.202
5839.85
1080.19
201.255
146.201
146.201
146.201
146.262
146.201
146.201
146.201
146.201
146.202
409.492
146.201
146.201
146.322
1505.35
146.201
146.201
856.637
146.201
146.202
1540.4
146.201
146.201
146.201
146.305
2806.84
146.282
146.201
146.202
146.201
146.292
251.176
146.219
1010.8
146.201
146.201
146.201
146.202
146.201
147.043
146.239
146.201
880.533
146.201
146.201
146.23
146.201
146.165
146.201
146.324
164.421
146.201
146.201
146.819
147.419
146.201
146.221
1683.98
146.201
146.201
146.202
146.201
146.201
146.201
146.201
146.201
146.202
146.201
146.202
447.373
146.201
146.23
9962.18
146.394
483.435
146.201
149.089
146.201
146.201
351.735
147.064
619.949
453.72
139.672
147.198
146.201
146.316
274.061
146.775
148.184
146.965
146.201
260.261
146.201
146.201
146.201
146.973
146.526
146.202
147.025
146.201
146.201
146.201
153.71
1941.61
146.201
188.119
147.145
530.214
148.04
220.268
146.201
146.201
147.822
146.201
146.201
146.201
146.201
146.201
146.199
146.201
149.174
146.243
149.088
146.623
146.984
146.614
146.201
146.201
146.201
147.498
146.201
146.201
146.201
148.259
146.202
846.073
147.566
146.619
146.39
146.331
146.202
147.618
146.201
146.201
146.247
200.596
147.434
146.202
146.201
146.201
541.138
146.201
231.078
1284.64
230.483
147.309
146.201
146.201
147.848
328.244
146.201
147.53
146.588
146.342
146.201
147.752
146.203
148.713
146.201
146.201
146.251
146.268
146.201
146.201
146.462
146.339
147.233
146.202
146.201
146.525
147.711
146.201
146.201
146.201
1180.19
148.871
6940.74
147.103
146.201
146.342
146.335
146.201
146.201
146.202
146.201
146.201
146.201
1530.18
146.201
146.202
146.201
146.345
146.201
146.201
146.201
146.201
146.318
146.313
146.201
146.35
146.201
146.201
146.201
146.201
146.201
146.347
149.948
146.201
146.201
146.997
146.201
146.201
146.201
146.201
146.201
147.142
146.201
148.017
146.201
146.201
146.201
147.041
146.201
146.201
146.306
146.201
146.2
146.201
146.201
152.994
146.201
223.989
146.201
149.569
146.201
146.201
146.201
146.201
146.201
146.201
146.201
147.026
513.156
146.201
146.201
146.201
146.201
146.201
146.201
146.201
146.201
146.201
146.201
146.201
146.201
146.392
1780.38
146.273
146.211
147.933
146.201
146.201
1609.43
146.201
643.589
146.202
146.324
146.201
146.201
146.201
146.201
146.201
146.201
146.209
147.337
146.201
146.201
146.201
146.201
146.201
146.202
146.201
146.201
146.201
146.395
146.21
146.362
146.201
146.201
146.21
146.21
146.368
146.201
146.202
146.201
146.209
146.201
146.134
146.216
146.201
146.21
146.253
147.513
146.21
187.919
273.545
146.201
862.513
146.201
161.706
146.201
147.307
146.341
147.317
146.708
146.201
146.201
146.201
146.307
780.682
146.201
147.09
146.185
537.861
146.201
146.201
146.201
146.201
147.185
146.201
146.201
146.201
146.201
146.201
146.201
243.025
338.496
146.33
146.201
146.201
147.678
146.201
146.201
199.689
520.768
216.276
146.201
146.201
146.397
207.801
146.201
146.201
146.358
148.626
146.239
146.201
159.817
146.211
146.201
146.201
146.201
146.201
146.201
146.201
146.201
146.201
146.201
146.201
146.201
146.201
146.201
146.201
146.201
146.201
146.201
146.201
146.201
146.201
146.201
146.201
146.42
147.741
146.627
146.201
146.201
146.201
146.201
146.232
146.201
146.201
146.201
146.201
146.201
146.201
146.171
146.201
146.201
146.201
146.201
146.201
146.402
146.201
146.326
146.264
146.238
146.201
146.201
146.553
146.201
146.201
146.201
146.201
146.201
146.201
146.201
146.201
146.201
146.201
146.273
146.267
146.201
146.201
146.201
146.201
146.201
146.201
146.201
146.201
146.246
247.593
146.201
248.075
146.201
146.201
180.596
221.953
146.201
146.251
146.235
146.201
146.201
146.201
146.201
146.201
228.369
146.201
263.028
146.201
146.201
146.201
146.828
146.911
146.708
146.201
146.201
146.201
146.201
146.201
146.201
146.201
146.201
146.201
146.201
146.812
146.201
146.201
146.201
146.201
146.201
146.201
146.201
146.422
154.688
146.299
146.201
146.201
146.201
146.201
146.201
146.201
146.201
146.201
163.629
146.201
146.201
146.201
146.499
146.201
146.247
146.201
146.201
146.202
146.201
146.203
861.933
146.207
146.202
146.201
146.204
146.206
146.201
146.201
146.201
146.201
146.204
146.201
146.201
146.205
146.303