/*--------------------------------*- C++ -*----------------------------------*\
| =========                 |                                                 |
| \\      /  F ield         | OpenFOAM: The Open Source CFD Toolbox           |
|  \\    /   O peration     | Version:  v2012                                 |
|   \\  /    A nd           | Website:  www.openfoam.com                      |
|    \\/     M anipulation  |                                                 |
\*---------------------------------------------------------------------------*/
FoamFile
{
    version     2.0;
    format      ascii;
    class       volScalarField;
    location    "3";
    object      ILambda_5_0;
}
// * * * * * * * * * * * * * * * * * * * * * * * * * * * * * * * * * * * * * //

dimensions      [1 0 -3 0 0 0 0];


internalField   nonuniform List<scalar> 
108993
(
146.201
146.204
146.201
146.201
146.201
146.201
146.203
146.201
146.201
146.209
146.193
146.195
146.201
145.777
146.201
146.82
146.225
146.2
146.201
146.202
146.201
146.201
146.201
146.201
146.201
146.201
146.201
146.201
146.204
146.201
146.201
145.98
146.201
146.201
146.201
146.201
146.201
146.201
939.652
967.387
146.201
146.201
145.868
146.201
146.578
919.499
146.201
146.201
146.201
146.203
146.201
146.257
146.202
146.201
146.201
146.201
146.201
146.201
146.201
146.201
146.201
146.201
146.201
146.201
146.201
146.201
146.201
146.201
146.067
147.156
146.201
146.201
146.201
146.201
146.201
146.201
146.201
146.208
146.201
146.201
146.201
146.189
146.201
146.2
146.2
145.94
146.201
146.191
146.201
146.201
146.201
146.201
146.201
146.201
146.201
146.438
146.201
146.201
146.201
146.201
146.201
146.201
146.201
146.161
146.201
146.201
146.201
146.201
146.201
155.229
146.254
146.201
146.233
146.234
146.201
146.704
146.201
146.201
317.632
146.201
146.143
146.201
146.219
146.201
146.201
231.741
146.201
146.201
146.201
146.201
145.961
146.201
146.201
147.057
146.201
146.201
146.201
146.201
146.201
145.88
146.201
146.201
302.746
146.201
146.201
146.201
146.201
147.059
146.201
147.089
147.172
146.201
146.201
147.489
146.201
146.203
146.2
146.201
146.201
162.609
147.449
146.201
146.201
146.201
146.11
146.226
146.201
146.201
146.201
146.201
146.201
146.201
146.256
146.201
146.202
146.201
146.206
146.201
146.201
146.201
146.19
146.201
146.201
146.201
146
146.201
146.201
146.198
146.199
146.201
146.201
146.201
146.201
146.205
146.201
146.201
146.201
146.201
146.201
146.201
146.201
146.204
146.201
146.201
146.202
146.281
146.201
146.415
146.201
147.734
146.223
146.201
146.207
146.295
10800.7
146.201
146.201
146.201
146.201
146.201
146.201
146.965
146.2
146.204
146.201
146.201
146.201
146.201
147.261
146.201
172.753
146.201
146.201
146.201
146.201
146.201
146.201
146.201
146.217
146.201
146.201
146.201
146.201
146.201
146.201
149.708
146.283
146.224
146.201
146.201
146.201
146.201
146.201
146.201
146.201
146.201
146.201
146.2
146.201
146.201
146.201
146.201
663.395
207.442
146.201
146.201
146.201
146.202
146.201
146.201
146.201
146.201
146.228
444.476
146.89
146.201
146.201
146.227
146.2
146.201
146.201
1794.59
1898.17
146.201
146.201
245.967
146.201
146.201
146.193
146.848
146.113
146.201
146.201
146.201
146.201
146.201
146.201
146.201
146.626
146.201
146.238
146.476
146.201
146.201
146.201
146.201
146.201
146.201
146.201
146.235
146.201
146.201
219.933
146.201
146.201
146.369
146.201
290.517
165.1
146.201
146.202
146.201
146.201
146.201
146.201
413.77
157.428
146.387
146.201
146.201
146.201
146.291
148.758
146.201
146.689
146.201
146.201
146.201
146.201
146.201
146.201
146.258
146.202
146.201
146.199
146.201
146.201
146.201
146.201
146.201
146.201
146.201
466.277
146.274
146.201
146.201
146.201
146.915
146.198
146.201
148.668
146.202
146.201
146.201
146.201
146.202
146.201
146.201
146.198
2359.01
146.201
184.538
146.201
149.567
146.203
147.435
146.168
146.201
146.454
146.201
146.492
146.477
146.202
188.443
146.201
146.204
146.052
2114.14
146.201
146.602
146.579
146.205
146.572
145.781
146.247
146.201
152.449
146.201
216.63
146.201
146.201
146.227
146.229
146.201
146.201
146.207
146.204
146.201
146.201
223.416
146.141
146.201
4109.36
146.201
146.171
146.201
149.739
147.049
146.29
146.201
232.81
146.204
148.522
146.201
146.201
148.435
146.201
146.346
149.015
146.201
151.814
715.069
151.371
146.201
146.201
146.217
146.201
146.201
146.201
146.201
146.199
146.201
146.201
146.201
155.865
146.203
146.202
146.257
146.201
146.201
146.202
146.201
146.201
146.197
146.201
146.201
146.196
146.201
146.2
146.201
146.217
146.201
146.217
146.956
177.035
146.201
146.201
146.217
146.201
146.201
146.286
146.201
146.201
146.202
146.201
173.45
146.201
146.214
146.423
941.762
146.201
146.201
146.201
146.201
146.201
146.201
146.201
146.201
146.258
146.201
146.196
146.201
176.081
146.201
260.319
146.201
146.201
146.201
146.201
146.202
146.201
146.201
146.201
146.201
146.488
146.428
146.201
146.201
1591.59
146.201
180.252
146.202
146.201
169.072
146.201
146.201
146.201
146.201
146.203
146.201
146.202
146.201
146.202
146.201
146.201
598.696
146.206
146.201
545.949
146.201
146.206
146.201
567.249
145.915
146.201
146.201
146.211
146.164
146.219
146.24
146.201
146.431
146.201
146.201
146.2
146.201
146.201
518.193
146.201
146.201
146.233
146.205
1751.21
146.201
146.199
146.201
146.201
146.203
148.139
146.202
146.201
146.201
146.201
146.201
146.313
146.292
146.201
146.201
146.201
146.201
146.201
146.201
5448.26
146.351
146.382
146.202
146.2
146.301
150.217
146.205
146.454
146.201
146.201
146.201
146.201
148.607
1384.41
146.352
145.976
146.201
146.201
146.201
146.204
146.201
430.838
146.201
146.201
146.201
146.202
245.681
146.201
146.187
3066.44
609.458
145.917
146.201
794.675
146.201
228.173
146.2
150.784
146.2
411.626
146.201
146.201
146.201
164.119
146.201
146.57
146.201
146.262
146.201
146.201
146.818
146.206
146.201
146.201
146.23
2585.1
222.817
146.497
146.201
146.257
147.778
162.002
146.201
146.201
703.997
304.559
146.258
146.2
146.257
146.201
146.202
146.201
163.44
149.447
146.24
152.508
234.096
237.565
233.182
146.412
146.602
146.36
146.203
543.937
146.658
146.217
146.611
146.649
146.201
171.048
146.201
146.201
146.203
146.206
272.612
146.316
146.378
597.616
146.201
146.241
146.604
146.599
146.201
146.202
146.392
146.201
146.948
146.205
146.237
174.777
223.417
146.723
453.808
161.91
146.289
146.378
186.802
146.201
146.201
146.258
146.204
146.201
1061.89
146.217
146.437
146.259
1075.53
146.205
146.201
146.201
146.201
481.593
146.201
146.416
146.201
146.201
146.201
146.202
146.268
2464.89
146.201
1046.36
146.201
146.248
238.439
146.201
146.253
146.203
150.6
146.21
156.459
146.199
218.71
146.202
146.248
146.245
146.201
146.256
150.518
147.645
166.41
146.278
146.201
146.206
146.201
146.201
146.202
146.196
184.157
1245.7
146.624
149.707
146.201
150.766
189.784
152.027
146.044
146.2
146.201
146.201
146.554
146.201
146.202
146.201
146.204
473.356
146.201
146.329
146.201
146.557
146.156
146.207
146.201
146.202
146.242
146.201
146.201
146.167
146.212
146.201
146.255
146.262
145.884
146.119
226.176
146.271
146.157
146.201
155.263
146.132
146.052
146.201
146.202
146.202
146.201
146.201
146.206
146.201
192.613
146.201
146.201
872.804
408.093
175.293
146.202
146.85
146.201
146.202
226.688
146.201
146.199
294.991
146.201
146.201
146.071
146.201
146.201
146.201
146.201
146.201
146.208
146.201
359.448
146.201
146.162
180.139
146.201
153.298
146.149
145.949
206.43
1754.27
146.203
146.201
146.207
146.213
146.205
146.206
146.38
146.212
146.201
146.196
146.201
146.201
146.214
1480.24
146.201
146.201
145.944
146.204
146.179
146.201
146.224
145.999
146.164
8985.88
146.194
9669.27
146.196
9216.89
146.187
146.202
146.209
820.086
146.213
146.036
146.217
146.219
149.083
146.201
1110.53
146.201
146.201
146.191
1203.38
431.367
743.795
146.201
146.201
166.265
494.253
146.201
318.468
146.29
146.225
146.201
146.216
146.701
1072.81
146.202
146.268
146.201
149.518
146.201
149.237
202.685
795.447
146.201
146.201
159.065
373.797
146.205
146.201
146.201
171.412
146.251
146.201
197.564
146.203
146.202
149.621
146.201
146.201
151.921
711.911
146.201
146.204
146.201
146.163
824.983
146.223
151.557
146.201
152.204
146.104
803.236
146.205
145.976
448.215
146.208
146.204
146.201
172.067
146.201
146.231
146.201
146.201
146.231
146.201
146.271
149.388
437.091
573.929
146.201
146.441
146.201
294.612
146.201
146.201
146.201
146.206
146.234
146.201
146.209
152.54
146.241
146.349
146.201
598.921
146.245
146.376
146.119
146.218
146.481
638.844
146.213
631.581
146.201
146.234
147.394
146.241
347.517
515.564
146.288
455.036
146.203
146.203
517.671
146.487
146.209
146.201
146.203
653.026
146.201
146.201
146.201
706.709
146.199
146.201
146.199
146.203
146.199
146.2
146.202
146.279
146.199
146.196
146.223
146.201
194.522
146.201
146.201
146.204
146.201
146.203
1024.49
196.784
146.201
146.197
146.201
146.236
202.098
146.222
146.202
146.199
146.275
146.17
146.206
343.198
146.205
146.201
146.199
146.199
146.201
152.65
146.202
146.03
146.201
146.201
146.201
146.275
146.201
146.202
146.201
146.201
146.202
146.366
146.203
146.201
146.201
146.201
146.202
146.205
146.201
146.201
146.201
1565.62
148.227
146.202
146.201
146.2
146.484
146.201
957.691
146.242
332.769
146.202
763.837
648.991
707.514
146.202
385.063
146.201
146.201
146.201
146.245
146.688
924.291
442.009
146.202
147.774
146.201
151.633
146.201
144.996
146.238
146.052
146.22
153.257
146.272
146.325
146.201
146.201
146.201
146.201
146.201
146.201
146.202
168.941
146.202
1756.67
146.205
146.2
146.201
146.303
146.612
146.201
146.205
146.201
287.801
146.201
353.517
148.182
153.358
146.201
146.276
146.201
146.201
146.201
146.201
146.201
146.201
10494
146.275
146.201
146.201
146.201
147.208
148.107
146.201
146.201
146.201
146.201
146.201
146.201
146.201
146.201
146.201
146.201
146.201
146.201
146.201
146.2
193.667
146.232
146.233
146.853
146.2
146.201
149.608
146.201
146.202
146.2
146.201
146.201
146.199
146.286
148.983
146.201
146.201
146.201
146.201
145.842
154.863
157.481
146.201
146.201
146.201
146.201
146.202
146.201
146.416
146.201
146.201
146.201
146.201
146.201
146.209
146.207
146.205
146.389
146.202
146.201
146.201
146.398
146.202
146.204
146.201
146.201
146.894
146.201
146.244
146.204
146.206
146.205
201.367
146.203
146.201
206.524
146.201
280.068
145.741
146.204
146.201
146.201
146.212
146.201
146.174
146.201
146.56
1059.64
146.108
146.201
146.201
146.224
146.201
146.201
146.201
146.201
146.201
907.265
146.815
146.297
146.2
146.264
146.201
154.72
146.284
146.201
146.201
146.485
152.763
146.205
216.1
146.214
146.543
146.201
146.201
146.27
146.201
146.201
4776.66
146.201
146.201
146.201
147.602
146.201
146.201
146.202
146.201
146.249
146.505
146.201
146.202
146.201
146.223
146.201
146.201
146.201
146.202
146.201
146.275
154.189
146.201
146.594
146.201
146.201
146.201
146.202
147.916
146.165
146.825
146.249
153.557
146.508
146.201
146.201
162.431
146.201
146.266
146.272
146.266
146.319
146.267
146.201
146.274
146.272
146.204
146.206
146.201
146.252
146.201
146.201
146.201
146.204
146.201
146.201
146.201
146.889
146.201
146.201
146.201
146.201
146.201
146.201
146.201
146.206
178.573
146.201
146.282
146.203
146.201
146.201
146.203
294.925
146.193
146.201
146.213
146.201
146.201
146.201
146.201
146.201
148.55
146.201
146.288
146.2
435.17
146.279
146.196
146.201
146.205
146.201
146.198
146.201
146.201
147.994
146.205
495.203
146.203
146.459
146.195
146.438
146.355
146.201
146.216
146.201
146.205
146.206
148.67
145.864
146.403
146.253
146.431
146.203
458.141
146.233
146.201
146.201
146.201
146.203
146.187
146.201
147.221
146.201
146.201
146.202
146.229
146.206
146.201
146.201
2370.03
1413.12
146.234
146.201
146.291
146.202
146.201
149.023
146.201
146.205
146.201
146.201
146.175
146.231
2082.32
343.79
146.216
146.245
146.209
146.201
179.392
148.518
146.201
146.201
146.204
146.214
178.146
146.201
146.203
146.26
146.232
146.333
146.202
146.203
146.456
146.204
146.201
146.412
146.203
146.201
146.204
146.189
349.345
146.201
146.201
191.217
146.204
149.308
146.205
146.804
146.203
353.316
146.573
146.204
340.889
2371.04
146.224
146.203
146.264
146.201
146.201
146.201
146.889
146.267
146.201
146.215
146.201
146.362
146.695
146.93
146.232
2433.31
146.201
1228.6
146.201
146.201
146.201
146.201
146.201
146.201
146.201
146.201
146.233
148.286
146.236
146.205
146.201
146.201
146.201
146.201
146.201
146.201
293.379
161.4
146.201
146.201
146.201
146.272
146.201
146.201
146.234
146.201
146.201
146.201
146.204
2025.26
146.22
146.316
156.271
146.201
146.202
148.285
146.201
146.201
146.201
146.335
147.178
146.212
1145.21
146.201
146.201
14704.1
146.201
146.203
146.2
146.201
146.201
146.201
146.202
146.201
146.202
874.862
200.24
146.203
146.225
150.25
146.201
146.261
146.201
146.201
146.201
146.201
146.201
146.201
146.201
146.201
208.057
1430.91
146.303
146.258
146.201
146.201
1064.68
148.115
146.201
146.219
146.201
146.201
146.216
146.356
658.995
146.266
146.201
3294.51
1065.95
146.791
146.201
146.27
146.224
146.215
146.689
146.206
921.068
146.219
146.203
146.228
146.228
146.233
146.228
146.212
146.215
146.203
146.535
599.855
889.036
146.201
146.201
5923.6
146.201
146.202
147.162
146.201
265.576
146.237
146.201
146.201
146.201
146.201
146.236
146.263
146.958
146.234
177.594
146.201
147.119
146.216
146.202
146.199
146.201
146.201
146.201
146.201
146.201
146.202
146.201
146.201
247.336
147.593
146.219
382.206
2215.86
186.315
146.202
146.236
146.201
146.201
146.206
146.201
146.201
146.201
146.268
146.635
146.209
155.942
1313.49
283.467
146.201
146.346
146.353
146.202
2332.85
146.201
150.304
146.201
146.486
146.201
146.205
146.2
146.201
146.201
146.201
149.461
146.201
146.324
146.201
2259.51
146.375
146.201
146.201
288.435
146.563
146.365
146.404
146.201
147.547
6763.11
146.201
146.201
146.252
191.675
146.357
146.201
146.311
148.798
146.353
146.352
395.444
146.227
146.311
146.201
2541.93
618.668
605.502
1521.08
146.19
146.208
146.244
145.996
1651.95
183.144
182.055
146.202
146.204
146.245
146.203
146.202
146.201
146.202
146.201
146.199
146.202
146.201
1439.76
2054.88
155.269
676.992
146.202
146.201
183.84
146.797
147.065
247.057
518.31
146.449
254.638
9375.47
146.842
146.202
289.659
146.201
146.201
146.166
147.151
146.202
168.491
160.234
146.276
148.611
319.845
146.202
146.222
146.201
146.201
146.201
146.202
146.201
146.202
197.389
165.822
2048.44
3030.55
234.481
2354.07
146.202
153.958
146.855
210.822
148.736
417.351
146.201
146.201
146.201
146.201
146.201
146.201
206.007
146.22
146.202
813.402
146.213
146.265
299.846
313.8
2104.01
531.015
146.201
171.485
146.287
146.201
146.198
147.466
146.777
146.201
147.011
146.092
146.202
146.201
266.106
251.096
228.715
147.682
146.201
1664.17
146.216
146.201
146.265
146.201
146.214
1481.02
146.252
146.213
150.177
146.202
146.201
146.214
146.201
146.201
146.201
146.222
146.201
146.203
146.386
146.453
146.39
146.202
146.201
146.204
146.201
146.201
146.201
146.579
146.579
146.201
146.201
2810.59
146.201
146.201
146.201
146.201
146.286
146.891
1668.12
146.467
146.968
146.201
146.404
146.201
146.227
146.295
146.201
146.263
146.201
146.201
146.598
146.201
146.202
146.713
146.26
146.569
146.937
146.201
146.255
146.23
146.358
146.201
175.721
146.285
146.408
146.283
448.492
146.202
146.202
146.236
154.287
146.235
146.536
146.232
146.88
146.201
146.201
11707.4
146.434
146.264
146.587
146.275
147.945
737.583
146.201
146.296
146.201
146.521
146.201
146.386
146.728
146.201
147.274
146.201
146.477
146.588
146.201
146.201
146.288
146.201
146.201
146.201
146.201
146.249
146.201
146.633
2113.51
146.201
146.201
418.745
146.201
146.063
146.221
146.059
146.068
146.201
146.201
146.246
146.23
253.998
146.201
146.201
146.579
146.201
146.352
473.385
146.201
146.201
146.203
146.203
146.608
146.201
146.201
146.201
146.201
146.201
299.881
531.402
146.203
146.201
495.138
146.203
146.266
146.201
146.264
146.201
151.254
146.363
146.162
146.201
146.201
146.266
146.529
146.201
146.258
146.232
146.201
323.403
146.2
146.201
146.201
146.201
146.654
146.201
146.201
146.201
146.201
146.201
146.37
250.72
146.201
146.201
146.794
146.201
146.211
146.202
146.201
2238.32
191.584
146.204
146.202
146.201
146.208
147.216
146.201
147.918
146.201
169.156
146.425
146.201
2591.4
146.428
1022.67
1563.25
146.911
146.201
146.201
146.201
147.242
146.214
333.219
146.193
146.201
249.308
146.201
771.904
146.707
146.642
146.201
146.274
146.208
146.201
220.449
146.201
146.201
146.201
146.902
146.328
146.316
146.201
146.201
146.201
257.206
146.203
989.653
146.201
146.201
146.688
147.644
146.201
146.201
2906.42
146.201
146.201
146.204
147.645
146.284
146.245
146.201
2403.03
1883.05
146.234
147.814
146.201
586.402
146.201
146.211
1310.94
1483.58
1444.19
735.426
530.616
1379.58
146.201
18668.1
146.654
148.122
146.201
153.93
1074.96
146.201
146.273
1272.45
146.201
1442.68
146.201
368.621
146.431
146.628
146.337
146.456
146.201
146.201
146.201
146.201
13827
146.201
146.413
146.321
146.201
146.201
146.201
146.201
146.201
146.201
146.202
146.201
147.063
146.201
603.408
146.201
146.204
146.134
662.976
146.206
146.201
146.201
146.201
146.207
146.234
974.097
1072.36
885.68
146.203
146.203
146.203
146.201
146.204
232.687
146.202
146.169
146.254
146.283
1078.18
146.202
146.203
146.203
146.22
218.085
146.201
146.201
217.256
148.265
654.805
146.205
394.314
146.201
146.226
148.385
149.08
146.201
146.201
146.203
146.201
146.205
146.201
146.205
146.235
146.206
146.203
146.187
229.336
148.938
146.201
146.224
146.203
146.236
146.201
146.201
146.233
329.614
146.27
146.201
146.201
146.201
146.667
10257.5
146.201
146.174
10250.2
148.606
146.875
242.241
147.794
9303.81
146.204
146.202
146.208
146.19
9524.64
146.239
146.201
147.06
146.21
146.201
146.201
146.201
146.201
146.201
146.217
146.203
146.201
146.259
146.201
622.993
146.272
146.201
146.201
146.309
146.302
146.201
146.214
146.201
146.201
146.206
146.201
146.201
164.836
146.202
146.201
146.201
146.201
150.301
146.185
152.547
259.25
149.768
146.443
147.049
155.962
308.641
146.209
146.203
147.154
146.213
146.199
146.421
146.209
147.036
146.014
146.211
146.202
146.216
146.223
146.214
146.227
146.203
146.218
146.252
146.176
1163.1
146.197
146.305
146.215
173.739
146.242
146.22
146.28
515.898
146.281
146.22
146.202
146.201
282.13
146.407
150.511
146.156
146.726
146.216
146.203
638.583
302.362
146.201
146.201
146.203
357.873
146.214
146.201
190.494
146.202
146.201
146.204
146.201
146.203
146.099
146.249
146.169
146.201
146.211
146.201
146.201
146.201
305.64
146.201
146.201
146.617
146.201
323.465
710.643
146.201
146.201
156.425
146.201
146.201
146.203
146.201
146.201
147.524
1182.11
476.809
146.201
146.979
146.201
299.088
146.34
146.201
146.201
149.229
146.201
146.201
148.221
146.201
151.349
153.794
146.201
146.201
203.053
1507.67
146.665
146.201
146.201
146.201
146.201
146.203
146.201
146.201
146.201
146.197
146.291
146.201
146.201
146.201
356.535
146.436
270.893
218.286
146.24
146.197
146.203
403.582
146.205
146.201
148.967
146.203
146.201
146.208
191.138
146.201
146.201
355.476
146.219
891.183
146.201
148.309
146.201
146.201
146.796
146.201
146.752
225.421
146.178
146.712
146.206
146.077
146.207
146.764
146.743
890.029
146.721
157.405
315.081
146.769
146.217
153.498
146.203
146.217
147.738
146.217
639.742
146.201
146.201
146.244
146.203
146.244
146.21
146.133
146.201
146.202
146.211
146.204
146.203
146.202
146.201
146.269
146.201
146.209
1072.88
146.201
146.216
146.211
1085.26
146.201
146.209
1979.42
146.201
146.209
151.878
146.236
146.201
146.21
146.201
146.201
146.204
146.201
462.85
146.351
146.287
1002.82
146.239
146.086
146.212
146.352
146.167
146.201
146.201
194.225
149.539
146.658
146.201
146.223
792.288
146.268
146.202
1271.7
146.349
146.202
146.292
147.062
146.269
146.364
146.085
146.203
154.656
146.203
306.696
146.323
327.756
235.425
146.284
146.209
146.141
146.203
146.319
148.498
146.203
147.013
1404.45
146.206
146.201
2488.21
146.203
146.203
181.921
146.201
2501.6
146.201
150.261
684.595
1599.51
146.201
146.201
146.201
2442.67
146.353
148.248
146.201
2414.56
2428.97
146.224
146.201
793.435
146.206
146.33
1115.17
215.488
146.199
959.605
146.079
653.102
146.201
146.169
146.201
146.205
161.603
146.201
146.2
13590.8
146.201
252.985
146.171
146.216
146.243
146.202
146.257
146.201
145.972
554.807
146.202
146.2
146.112
146.787
146.201
166.586
146.21
11508.8
146.201
146.203
146.231
691.583
146.201
146.209
146.217
146.201
146.177
12089.1
146.201
162.042
146.201
146.174
146.199
432.882
146.201
146.174
146.201
146.201
146.268
2108.9
146.201
160.288
146.201
146.243
146.243
146.201
146.201
147.325
146.187
146.208
146.201
146.207
146.202
146.201
146.201
702.105
345.637
146.201
146.356
146.201
146.201
146.205
146.224
146.201
146.202
146.197
146.202
146.201
146.204
146.204
389.019
146.67
146.204
146.201
146.205
146.61
146.201
146.201
146.201
146.201
146.201
146.201
146.201
147.865
146.207
146.201
146.202
344.653
154.854
146.201
146.249
165.327
146.201
146.29
15524.3
146.201
149.119
146.587
146.202
146.201
146.202
146.241
146.259
146.202
146.203
146.202
146.182
146.205
146.204
352.849
146.212
157.023
146.201
146.203
242.25
146.204
146.202
146.201
147.061
338.805
146.201
146.201
146.201
146.201
146.213
857.352
146.201
146.221
146.231
185.499
146.201
146.118
3060.21
146.201
146.201
146.201
146.201
146.203
146.064
146.201
146.321
146.226
146.201
146.201
146.201
148.069
146.296
146.201
146.209
146.201
146.201
146.201
147.43
146.228
889.92
146.201
146.201
146.201
146.203
297
146.204
482.693
146.201
146.201
146.202
320.816
1980.73
211.724
146.201
531.345
475.8
157.567
353.176
199.529
146.203
146.894
146.286
146.201
146.201
146.201
146.198
146.201
146.199
763.058
150.479
148.351
146.265
170.822
146.201
146.342
146.318
146.624
238.987
214.652
344.035
232.748
1397.29
146.201
146.774
147.706
145.937
146.201
940.692
147.785
146.201
446.563
151.303
146.201
146.124
146.201
146.203
146.201
146.201
146.201
146.213
2983.18
146.201
146.691
146.236
150.852
254.223
146.201
146.201
146.201
161.99
146.201
146.203
146.204
146.201
146.206
146.201
146.201
147.058
289.683
146.201
146.201
146.201
146.184
146.201
190.407
146.201
146.202
146.201
146.201
146.211
146.201
146.201
146.201
146.438
146.192
146.201
146.211
146.201
146.201
146.26
146.201
458.546
146.208
146.201
146.201
146.201
146.201
146.208
146.932
246.506
146.439
337.987
146.204
147.072
232.363
209.413
339.206
249.483
146.259
146.201
146.208
146.201
146.201
146.201
146.201
146.203
147.715
146.201
146.506
146.202
146.202
146.212
146.201
146.202
146.201
146.203
957.407
146.208
146.202
146.201
146.203
146.213
146.201
146.319
1059.07
146.212
816.633
146.201
146.201
146.203
591.82
961.408
893.244
347.755
560.864
146.207
150.72
146.236
884.27
146.155
146.202
146.201
146.201
146.22
146.575
146.557
146.216
146.612
146.574
146.013
146.53
152.121
146.201
146.201
146.201
147.501
146.431
146.237
146.201
149.251
149.177
146.228
1597.24
146.302
150.662
146.792
146.201
354.886
146.689
146.24
146.201
146.204
146.225
146.201
146.201
146.765
146.201
146.201
265.186
146.203
146.718
153.302
146.204
146.205
146.293
146.293
150.762
146.309
146.294
146.422
146.201
146.201
146.339
146.252
146.284
146.291
146.516
146.224
146.085
146.338
2218.75
146.201
146.201
146.268
146.201
452.233
146.201
146.201
146.201
146.273
146.201
146.379
146.201
146.201
146.22
146.274
146.277
146.714
146.201
146.313
1388.73
145.636
146.201
146.266
10128.2
147.014
1348.05
146.197
146.405
146.2
146.201
146.201
146.201
146.201
146.204
146.201
1200.2
146.201
146.201
146.201
146.201
146.201
146.201
146.201
146.57
146.207
146.201
146.201
146.923
146.202
871.832
519.503
146.201
146.543
146.201
146.201
146.201
416.545
146.202
146.201
146.977
146.201
146.201
146.201
146.202
146.201
146.201
146.201
146.201
146.201
146.201
146.204
146.244
146.201
146.202
146.201
146.271
146.201
146.203
146.203
146.442
146.201
146.201
146.201
146.202
146.221
146.201
146.201
146.201
146.201
146.201
147.794
146.201
146.201
146.201
146.201
146.197
146.207
146.201
146.201
146.203
447.075
146.201
150.116
146.201
146.196
146.201
146.201
146.201
146.206
146.201
146.152
146.201
146.176
146.201
146.18
155.22
428.146
146.208
146.201
146.199
146.207
146.201
146.206
146.244
172.283
146.208
146.201
146.201
146.201
146.205
146.793
146.198
146.201
146.907
146.164
146.201
146.201
146.201
146.201
146.201
516.337
146.032
146.201
146.201
146.939
147.24
147.113
146.204
147.202
553.13
146.203
146.201
146.205
146.982
146.201
146.204
146.201
146.203
251.667
146.201
146.201
146.201
146.206
146.205
146.217
146.296
146.201
146.744
847.679
146.201
146.213
146.201
146.201
146.201
146.204
146.201
146.204
146.201
2053.07
146.984
140.948
161.794
155.511
146.203
146.201
146.201
146.201
146.209
146.201
146.201
146.201
146.204
916.938
146.206
163.016
146.3
146.201
146.923
146.255
146.27
146.203
146.201
146.246
146.201
146.201
146.201
146.367
153.687
149.728
146.201
146.853
146.201
146.202
146.201
168.917
146.201
147.021
146.299
146.201
146.201
1168.83
146.208
146.201
148.346
146.201
146.201
584.038
146.201
146.205
146.201
146.281
146.202
146.201
146.202
146.201
146.204
146.202
2881.17
146.201
146.208
146.202
146.201
146.254
146.201
146.202
146.201
751.169
146.202
146.695
258.328
146.313
146.201
147.073
146.337
146.201
146.201
172.188
146.244
146.201
146.393
152.27
146.202
146.201
146.201
146.439
146.2
146.201
146.201
146.204
524.882
146.204
1057.92
146.201
146.231
146.204
146.201
146.253
146.204
146.202
146.201
146.201
146.202
326.74
146.332
179.583
146.334
146.271
146.352
146.201
146.201
146.201
146.309
987.873
146.277
146.214
146.203
435.805
146.352
262.746
272.431
146.201
1913.49
422.617
146.333
146.201
148.019
176.182
280.553
166.273
146.299
146.242
393.595
146.203
329.686
146.202
142.557
146.203
147.384
494.58
146.201
146.203
146.278
286.753
146.203
448.093
146.201
146.201
506.083
146.198
146.201
146.202
146.201
146.205
146.201
4842.42
339.985
146.201
146.202
432.995
146.204
2234.75
853.669
401.567
146.204
146.201
146.201
146.51
146.201
146.201
176.215
146.202
146.201
488.749
146.204
146.202
148.452
146.718
146.201
146.201
800.311
146.201
146.202
146.907
146.201
146.201
146.201
146.281
6912.23
146.397
146.201
146.203
146.201
146.295
881.423
146.225
2023.06
146.201
146.188
146.201
146.204
146.201
168.128
146.241
146.201
147.584
146.201
146.201
146.23
146.201
146.204
146.199
146.482
800.863
146.201
146.201
146.277
335.705
146.201
146.202
3671.36
146.201
146.203
146.323
146.201
146.201
146.201
146.201
146.201
146.203
146.201
146.201
627.44
146.201
146.3
7591.5
146.339
609.32
146.201
146.217
146.202
146.201
417.84
146.706
147.831
415.787
147.698
148.543
146.201
146.208
554.155
146.675
150.441
146.251
146.201
159.374
146.201
146.201
146.201
191.304
146.686
146.201
146.951
146.201
146.202
146.201
149.137
146.136
146.201
158.659
148.623
146.212
150.015
165.649
146.201
146.201
147.303
146.203
146.201
146.201
146.201
146.201
146.201
146.201
195.415
146.302
148.797
146.21
146.202
146.23
146.202
146.201
146.201
149.517
146.201
146.201
146.201
153.038
146.203
751.954
149.111
146.284
146.242
146.375
146.203
149.039
146.201
146.201
146.205
1421.1
146.928
146.202
146.201
146.201
685.993
146.201
170.81
230.835
313.965
148.618
146.201
146.201
147.49
342.846
146.204
149.486
146.22
146.207
146.201
149.3
146.202
148.833
146.233
146.201
146.216
146.206
146.201
146.201
146.23
146.653
146.602
146.202
146.482
146.236
150.621
146.724
146.201
146.201
1884.76
147.875
4059.2
149.71
146.22
146.689
146.688
146.201
146.226
146.202
146.201
146.201
146.202
1501.91
146.201
146.203
146.201
146.745
146.201
146.201
146.201
146.201
146.488
146.503
146.201
146.746
146.204
166.627
146.201
147.645
146.201
146.735
157.85
146.201
146.201
146.263
146.205
146.203
146.206
146.201
146.201
147.404
146.202
146.202
146.201
146.201
146.201
147.079
146.201
146.201
146.912
146.201
146.201
146.201
146.201
168.657
146.201
146.212
146.202
146.221
146.201
146.204
146.201
146.201
146.201
146.203
146.202
146.628
762.561
146.201
146.201
146.202
146.201
146.205
146.201
146.201
146.203
146.205
146.202
146.204
146.201
146.488
1172.32
146.649
146.203
147.528
146.201
146.202
490.714
146.204
2237.69
146.203
146.351
146.201
146.201
146.201
146.201
146.204
146.201
146.389
147.934
146.201
146.201
146.201
146.202
146.202
146.203
146.201
146.201
146.201
152.227
146.312
160.564
146.201
146.201
146.39
146.352
148.669
146.202
146.201
146.201
146.206
146.201
146.208
146.202
146.204
146.294
146.258
148.807
146.274
161.47
2212.63
146.201
1374.9
146.201
151.356
146.201
149.439
146.209
149.334
147.194
146.201
146.201
146.201
146.311
393.27
146.201
148.88
146.201
149.288
146.201
146.202
146.201
146.201
147.475
146.201
146.201
146.201
146.201
146.204
146.201
221.27
155.071
146.208
146.201
146.201
147.097
146.201
146.201
146.314
146.904
146.351
146.201
146.201
146.833
146.317
146.201
146.201
146.379
153.47
146.395
146.201
151.088
146.206
146.201
146.205
146.201
146.201
146.202
146.201
146.201
146.201
146.201
146.201
146.203
146.201
146.201
146.201
146.201
146.201
146.201
146.201
146.201
146.201
146.201
146.201
146.367
147.633
146.537
146.201
146.201
146.201
146.201
146.241
146.201
146.201
146.202
146.201
146.201
146.201
146.201
146.201
146.201
146.201
146.201
146.201
151.197
146.201
178.262
212.107
146.287
146.201
146.201
152.665
146.201
146.201
146.201
146.201
146.201
146.201
146.201
146.201
146.204
146.201
146.601
146.426
146.201
146.201
146.201
146.201
146.201
146.201
146.201
146.201
146.275
1714.48
146.201
1720.4
146.201
146.201
1444.31
1485.93
146.201
146.213
146.275
146.201
146.201
146.201
146.204
146.201
1760.91
146.201
1748.51
146.201
146.201
146.201
146.278
146.512
146.245
146.201
146.201
146.201
146.201
146.201
146.201
146.201
146.201
146.201
146.201
146.693
146.201
146.201
146.201
146.201
146.201
146.201
146.201
146.216
1040.56
146.219
146.201
146.203
146.201
146.201
146.201
146.201
146.201
146.201
1069.91
146.206
146.201
146.203
146.246
146.201
146.236
146.201
146.204
734.085
146.201
736.915
1025.4
146.208
146.202
146.201
374.773
146.208
146.202
146.201
146.201
146.201
371.079
146.202
146.203
146.204
146.294
1680.12
147.245
146.201
146.201
146.255
146.201
146.201