/*--------------------------------*- C++ -*----------------------------------*\
| =========                 |                                                 |
| \\      /  F ield         | OpenFOAM: The Open Source CFD Toolbox           |
|  \\    /   O peration     | Version:  v2012                                 |
|   \\  /    A nd           | Website:  www.openfoam.com                      |
|    \\/     M anipulation  |                                                 |
\*---------------------------------------------------------------------------*/
FoamFile
{
    version     2.0;
    format      ascii;
    class       volScalarField;
    location    "3";
    object      ILambda_10_0;
}
// * * * * * * * * * * * * * * * * * * * * * * * * * * * * * * * * * * * * * //

dimensions      [1 0 -3 0 0 0 0];


internalField   nonuniform List<scalar> 
108993
(
146.201
148.992
146.201
146.201
146.201
146.201
146.253
146.201
146.201
146.212
146.201
146.201
146.201
146.201
146.201
146.22
146.226
146.201
146.201
154.413
146.201
146.201
146.432
146.201
146.201
146.201
146.201
151.342
146.529
146.201
146.201
146.201
146.201
146.201
146.201
146.201
146.201
146.201
180.254
2652.34
147.275
146.201
146.201
146.201
146.253
146.429
146.201
146.209
146.202
159.642
146.201
146.201
147.483
146.201
146.201
146.201
146.201
146.201
146.201
146.201
146.201
146.201
146.201
146.201
146.201
146.202
146.201
146.201
146.201
146.235
146.201
146.201
146.201
146.201
146.202
146.201
146.201
146.208
146.201
146.201
146.201
146.201
146.201
146.201
146.201
146.201
146.201
146.201
146.201
146.201
146.201
146.201
146.201
146.201
146.201
146.201
146.201
146.201
146.201
146.201
146.201
146.201
146.201
146.201
146.201
146.201
146.201
146.201
146.201
1165.12
146.302
146.201
146.383
146.261
146.201
3374.38
146.201
146.201
146.212
146.201
146.201
146.201
146.273
146.201
146.201
146.234
147.548
146.201
146.201
146.201
146.201
146.201
146.201
146.491
146.201
146.201
146.201
146.201
146.201
146.201
146.201
146.201
146.222
146.201
146.201
146.201
146.201
147.298
146.201
3919.69
4040.08
146.201
146.201
4948.53
146.201
146.216
146.201
146.201
146.201
146.21
5424.26
146.201
146.201
146.201
146.201
146.221
146.201
146.201
146.201
146.201
146.201
146.201
146.206
146.201
146.963
146.201
283.205
146.201
146.201
146.201
146.207
146.201
146.201
146.201
146.201
146.201
146.201
146.201
146.201
146.201
146.201
146.201
146.201
307.829
146.201
146.201
147.96
146.201
146.201
146.201
146.201
223.169
146.201
146.201
146.357
146.509
146.201
164.614
146.201
1002.73
146.278
146.201
296.998
153.132
137.309
146.201
146.201
146.201
146.201
146.201
146.145
1785.75
146.201
190.258
146.201
146.201
146.201
146.201
146.273
146.201
160.623
146.201
146.201
146.34
146.201
146.201
146.201
146.201
146.314
146.201
146.201
146.201
146.201
146.201
146.201
146.218
156.807
146.293
146.201
146.201
146.201
146.201
146.201
146.201
146.201
146.201
146.201
146.201
146.201
146.201
146.201
146.201
146.253
146.237
146.201
146.201
146.201
146.216
146.201
146.201
146.201
146.201
146.552
184.774
147.155
146.201
146.201
146.533
146.201
146.209
146.178
146.834
146.782
146.201
146.201
146.223
146.201
148.066
146.201
147.242
146.201
146.201
152.279
146.201
146.201
146.201
146.201
146.201
146.222
146.201
146.325
153.736
146.201
146.201
146.201
146.208
146.037
146.201
146.211
146.78
146.201
146.201
146.213
146.201
146.22
181.287
146.201
146.217
147.306
146.201
196.799
146.201
146.212
146.208
146.201
4457.8
190.073
151.635
146.201
146.201
146.178
151.008
147.072
146.201
147.841
146.201
146.201
146.201
146.201
146.201
146.201
169.123
252.255
146.201
146.201
146.201
146.201
146.201
146.201
146.201
146.201
146.201
146.739
146.568
146.154
146.201
146.201
507.145
146.201
146.201
146.205
229.165
146.201
146.201
146.202
272.731
146.201
146.201
146.201
9234.95
146.201
146.211
146.201
4223.11
256.374
147.379
146.201
146.201
146.647
146.201
146.751
146.706
258.764
146.221
146.201
146.224
146.204
3589.85
146.196
147.88
146.698
146.218
146.76
146.201
146.32
184.124
1313.23
146.201
146.239
146.201
184.507
146.362
146.317
146.201
146.039
146.215
146.231
146.201
146.201
157.368
146.201
146.254
9651.09
146.201
146.201
146.201
2205.3
146.226
177.684
146.201
169.642
162.729
155.129
146.201
146.201
148.307
146.201
911.516
148.773
146.201
1062.27
177.443
168.436
146.201
146.201
146.213
146.022
146.201
146.201
146.201
146.201
146.201
146.201
146.202
146.237
330.211
346.546
146.21
146.201
146.202
146.201
146.201
146.201
146.202
146.201
146.201
146.201
146.203
146.201
146.201
146.222
146.201
146.229
3639.18
146.246
146.201
146.201
146.24
146.201
146.201
146.226
146.201
146.201
146.206
146.1
146.228
146.201
146.252
148.101
146.23
146.201
146.201
146.201
146.201
146.202
146.201
146.201
146.201
146.212
146.201
146.201
146.201
146.232
146.201
146.265
146.201
146.202
146.201
146.201
146.909
146.201
146.201
146.201
146.201
146.297
350.213
146.201
146.201
2081.5
146.201
146.206
277.923
146.201
146.209
146.201
146.201
146.201
146.201
146.212
146.262
159.372
157.48
314.093
146.473
146.265
146.229
146.301
146.201
146.227
146.471
146.211
146.201
146.228
146.201
146.201
146.201
146.56
146.201
146.216
146.562
146.201
146.671
146.201
146.201
146.201
146.201
146.201
146.225
146.201
146.201
146.306
146.212
147.306
146.201
146.201
146.201
146.201
202.844
10382.2
146.506
146.202
146.201
146.201
167.577
146.253
146.743
146.201
146.201
157.4
147.505
146.201
146.188
10789.5
146.245
549.062
147.478
146.201
146.269
149.641
189.649
146.201
146.201
146.201
146.201
146.201
146.243
146.417
146.247
146.201
146.201
149.924
146.201
146.21
146.201
184.878
146.201
146.201
146.201
146.205
146.223
146.201
146.201
169.632
146.267
146.201
146.201
184.317
146.201
146.205
146.201
146.441
146.201
146.22
146.201
175.697
146.201
146.21
146.201
866.16
146.201
146.25
146.201
146.201
363.285
146.419
146.201
146.201
147.605
167.193
146.234
392.429
146.283
191.936
523.019
146.219
146.201
146.201
2225.34
146.256
146.223
146.202
146.22
146.201
146.255
146.201
146.227
146.204
146.231
146.228
146.231
146.231
146.266
265.362
148.274
146.243
146.21
146.231
147.497
146.241
148.749
147.385
146.201
146.204
146.201
146.201
146.72
146.247
146.231
215.025
150.319
146.254
146.658
146.235
147.913
149.986
146.201
146.438
146.218
146.201
147.558
146.809
146.269
146.258
146.233
147.38
146.252
156.632
146.22
146.217
8583.94
146.201
146.201
146.228
146.207
146.225
16953.3
146.211
147.539
146.216
4350.91
146.295
146.201
146.201
146.201
146.247
146.201
146.269
146.445
146.201
146.201
146.324
146.845
181.975
146.201
9098.83
146.201
146.306
146.244
146.201
146.245
146.212
146.216
149.043
146.225
146.201
146.234
182.585
146.311
151.361
146.201
146.217
146.215
146.226
146.229
146.202
146.201
146.328
146.201
146.201
146.26
146.201
146.227
979.878
147.97
146.203
154.571
146.202
146.209
146.202
146.224
146.201
146.201
146.201
146.201
146.201
261.683
146.201
146.208
146.256
146.201
146.203
146.201
146.202
146.201
146.205
148.441
146.233
146.415
146.201
146.201
146.201
330.978
146.201
218.22
147.103
146.201
146.201
277.819
146.52
146.207
146.201
146.245
146.201
146.201
150.348
147.409
323.282
146.201
146.201
146.204
146.201
147.092
146.201
146.201
2177.61
146.251
421.165
146.496
147.139
146.201
285.806
146.23
146.201
146.201
146.236
146.201
146.201
146.201
146.201
146.201
146.201
147.504
146.201
146.206
146.201
146.271
146.206
146.201
11804.3
146.21
15176.2
146.209
146.201
146.219
4409.72
178.433
146.21
146.203
146.279
146.342
146.226
153.696
146.208
146.201
146.222
146.204
146.201
146.207
2506.98
146.201
146.201
146.201
146.567
146.201
146.222
146.21
146.201
146.201
229.05
146.201
421.43
146.201
229.023
146.201
295.158
146.238
146.227
146.564
146.201
146.232
146.231
146.228
147.139
313.642
146.161
146.161
146.201
146.232
146.247
146.225
146.201
146.201
146.244
191.725
146.201
146.216
146.237
146.824
146.362
146.384
146.968
460.711
146.284
146.269
146.283
286.128
146.201
147.314
148.944
2582.92
146.201
146.201
146.206
146.225
146.289
146.081
146.201
146.24
146.434
146.201
146.266
304.107
146.207
212.71
146.191
146.201
455.24
4600.84
146.202
146.388
146.201
146.201
146.256
146.884
817.112
146.201
359.479
146.219
146.256
146.217
146.201
146.225
146.258
146.228
146.201
146.206
146.201
146.3
146.209
146.201
146.294
146.201
146.218
146.255
146.221
146.257
146.201
146.695
146.201
734.184
146.205
146.201
146.201
146.321
146.679
146.201
146.214
2676.23
146.25
508.255
146.201
146.256
149.747
147.168
146.201
146.212
147.767
146.266
146.213
146.25
146.202
146.384
165.643
146.224
146.224
146.224
146.236
146.238
146.466
146.861
146.225
547.42
146.214
146.201
146.205
146.232
146.201
146.201
146.201
146.232
146.201
146.201
146.201
146.206
146.201
146.201
146.206
146.349
146.201
146.201
146.214
146.201
1367.83
146.201
146.201
146.207
146.201
146.207
2415.02
146.211
146.118
146.201
146.201
146.316
146.208
146.281
154.694
146.201
604.577
146.201
230.35
146.254
157.576
146.201
146.201
146.201
146.201
146.206
149.309
146.201
146.201
146.201
146.201
436.649
146.201
148.845
146.201
146.201
146.152
146.185
146.408
146.493
146.201
146.201
146.244
146.45
146.201
146.201
146.201
7821.16
146.203
205.032
146.201
146.214
146.212
146.201
146.801
146.333
146.229
149.474
2385.28
146.286
146.263
190.125
146.69
146.211
146.201
146.201
146.216
146.219
728.227
146.223
146.353
146.202
146.616
146.235
146.201
146.223
146.449
146.215
146.211
146.261
146.219
146.209
146.201
146.201
146.201
146.201
146.201
146.201
146.202
157.686
146.458
1417.93
146.205
146.201
146.201
146.21
146.412
146.201
146.205
146.201
146.223
146.201
146.218
14053.1
146.245
146.201
518.694
146.201
146.201
146.201
146.201
146.201
146.46
16943.6
146.236
146.201
146.201
146.201
146.202
146.202
146.201
146.201
146.201
146.201
146.201
146.201
146.201
146.201
146.201
146.045
146.201
146.201
146.201
146.201
146.227
146.268
146.308
147.658
146.201
146.201
146.218
146.201
146.202
146.201
146.211
146.201
146.201
146.234
146.203
146.113
146.206
146.207
146.201
146.201
154.513
176.53
146.201
146.201
146.201
146.353
146.209
146.201
147.01
146.201
146.201
146.201
146.201
146.201
146.219
146.205
146.215
148.295
167.203
147.595
147.78
146.7
213.535
146.206
146.201
146.209
2696.04
146.201
146.216
146.225
146.219
146.216
7951.08
306.178
146.201
146.239
146.201
146.245
146.238
146.228
146.201
146.201
146.201
146.2
146.202
146.201
804.458
1959.7
146.224
146.201
146.201
146.218
146.202
146.201
146.202
146.201
146.203
12776.2
146.237
243.88
146.201
146.23
146.201
146.222
341.189
146.291
146.144
146.237
146.209
154.522
146.236
146.24
153.636
146.201
146.201
146.227
146.201
146.201
4807.61
146.201
146.201
146.201
146.861
146.201
146.201
266.593
146.201
160.014
517.514
146.201
146.129
146.201
146.229
146.201
146.202
146.201
146.224
146.201
151.038
146.265
146.201
495.324
146.201
146.018
146.201
146.237
148
146.201
146.212
146.306
150.967
146.234
146.387
146.201
146.242
146.201
206.345
201.052
209.32
654.121
203.382
146.201
202.369
211.359
146.228
146.221
146.201
146.295
146.201
146.201
146.201
146.26
146.201
146.189
146.189
146.241
146.201
146.201
155.06
146.201
158.503
154.199
146.201
146.234
159.226
160.236
546.767
146.413
146.342
146.208
146.213
146.247
146.201
147.09
146.368
162.166
146.201
146.201
146.054
146.201
337.527
146.201
146.244
146.201
146.221
146.259
146.204
146.201
146.209
146.201
146.204
146.201
146.201
146.205
146.211
146.239
146.458
351.625
146.202
1094.99
148.065
146.201
146.314
146.201
146.221
146.211
146.203
146.201
146.998
146.873
146.214
146.204
1941.83
146.51
146.201
146.201
146.201
146.204
146.205
146.423
1357.94
146.201
146.201
146.21
146.216
146.209
146.202
146.203
1704.23
2371.91
146.213
146.201
210.084
146.353
146.222
146.233
146.202
146.319
146.201
146.783
146.201
146.217
2044.83
146.242
146.215
146.49
424.189
146.362
146.24
4585.88
146.118
146.201
146.205
146.29
146.228
146.201
146.204
146.229
146.281
147.621
146.203
146.204
147.619
146.203
146.201
148.494
146.204
146.201
146.205
146.201
273.239
146.201
146.201
154.919
146.206
147.202
146.205
243.491
146.204
146.222
147.348
146.202
146.217
146.776
146.221
146.452
146.266
146.201
146.202
146.201
147.636
146.226
146.201
146.244
146.201
146.302
147.832
274.72
146.209
2232.1
146.201
21504.6
146.201
146.201
146.21
146.201
146.201
146.201
146.201
146.202
220.422
15244.4
146.341
147.145
146.202
146.201
146.201
146.202
146.203
146.201
377.042
146.23
146.201
146.201
146.201
146.23
146.201
146.201
146.44
146.201
146.201
146.201
146.202
3050.96
146.43
148.971
9693.69
146.201
146.202
15038.3
146.201
146.201
146.201
146.561
201.834
146.306
1522.97
146.201
146.201
5520.71
146.201
146.202
146.201
146.201
146.12
146.201
146.202
146.201
146.202
9988.36
146.261
146.202
146.296
146.247
146.201
146.253
146.201
146.201
146.201
146.201
146.201
146.201
146.393
146.201
146.225
146.26
147.077
189.026
146.201
146.201
148.829
13979.1
146.201
146.244
146.201
146.201
146.27
196.175
146.81
147.682
146.201
2542.38
216.083
1447.07
146.201
148.021
146.275
146.267
150.17
146.237
146.851
146.247
159.353
146.242
146.307
146.247
146.234
165.571
146.241
146.294
553.47
175.635
146.903
146.201
146.201
846.419
146.201
146.206
6019.27
146.201
6388.63
146.241
146.201
146.201
146.201
146.201
146.241
146.467
1215.27
152.784
448.214
146.201
146.605
146.244
146.483
146.201
146.471
146.201
146.201
151.398
146.201
146.285
146.201
146.201
146.244
147.473
146.242
146.217
146.921
146.246
146.203
160.927
146.201
146.201
146.225
146.201
146.201
146.201
148.073
147.903
146.304
176.208
2349
146.21
146.201
146.317
183.244
190.428
760.308
146.033
146.206
146.193
210.383
146.42
152.496
146.201
146.201
146.201
146.201
2495
146.201
146.305
146.198
1756.3
169.248
146.201
146.665
2714.86
152.222
208.629
176.933
146.201
9914.92
505.181
146.201
146.435
224.363
146.227
146.35
146.201
146.331
13058.3
148.077
146.336
633.838
146.287
146.303
146.201
147.77
26243.4
146.256
723.198
146.205
146.206
146.264
146.201
2778.36
146.243
146.228
146.469
146.968
189.964
184.644
146.21
146.449
146.204
146.201
146.201
208.701
146.201
298.765
287.993
146.227
10060.6
146.202
146.201
146.231
267.181
264.315
146.228
146.24
148.046
11357.4
10800.7
146.804
146.201
348.17
146.214
146.201
146.201
1916.7
146.222
149.844
146.238
146.404
232.014
193.388
146.206
146.316
146.202
146.202
146.201
146.201
146.201
146.201
146.22
438.772
2117.13
147.581
146.221
10603.7
146.429
1472.1
146.203
146.282
4310.58
26541.7
154.836
146.201
146.201
146.201
146.201
146.054
146.205
146.222
146.354
512.287
146.337
146.252
238.804
158.722
147.219
156.237
146.201
17520.9
694.087
146.201
146.201
7813.78
1488.73
146.201
146.202
146.201
146.5
146.201
11976.8
13380
8450.51
8864.63
146.201
6454.31
146.314
146.201
146.267
146.201
146.215
159.156
146.212
146.214
16205.4
146.517
146.201
146.216
146.201
146.201
146.201
146.722
146.204
158.437
183.581
151.627
159.65
146.428
146.519
146.24
146.201
146.201
146.201
2252.42
147.686
146.201
146.201
396.14
146.201
146.201
146.201
146.201
284.476
147.254
248.618
1988.46
5167.04
146.201
147.803
146.201
147.004
146.841
146.201
146.691
146.201
146.201
147.592
146.201
146.423
147.094
146.667
147.255
147.202
146.201
203.645
146.256
270.394
146.456
146.211
146.789
147.149
147.295
414.063
146.201
146.202
220.278
195.324
146.507
213.313
146.476
147.099
146.201
146.201
18696.9
147.327
151.085
2305.48
196.63
152.944
2368.99
146.201
672.227
146.201
147.334
146.201
1322.86
3606.95
146.201
174.317
146.201
146.761
147.093
146.201
146.201
146.96
146.201
146.201
146.201
146.201
146.336
146.202
147.203
146.742
146.201
146.201
2020.66
146.447
146.201
146.232
146.201
146.201
146.201
146.201
146.31
146.306
1101.04
146.201
146.198
146.82
146.201
146.968
3339.04
146.201
146.201
146.499
146.785
419.342
146.201
146.201
146.201
146.201
146.201
235.475
6899
146.369
146.133
10969.7
146.477
146.228
146.201
146.471
146.199
577.326
260.828
146.201
146.201
146.201
146.25
169.831
146.201
147.271
146.209
146.201
146.218
146.215
146.201
146.418
146.201
147.768
146.201
146.201
146.202
146.205
146.201
147.486
162.639
146.201
146.201
923.441
146.201
146.251
146.203
146.201
451.47
573.694
146.278
146.268
146.201
146.207
147.623
146.201
147.612
146.201
159.733
148.962
146.201
5476.24
147.107
835.257
257.488
1017.94
146.154
146.201
146.201
146.239
146.207
146.211
1765.07
146.201
146.242
146.201
146.233
147.058
147.17
146.201
146.256
146.351
146.201
156.3
146.201
146.201
146.201
147.417
175.972
151.045
146.201
146.202
146.201
2225.25
147.264
581.664
146.201
146.201
149.845
883.972
146.201
146.201
1302.22
146.201
146.201
146.212
147.498
146.25
146.449
146.201
355.646
2255.54
147.407
11957.9
146.368
17018.6
148.175
146.245
1205.03
1110.3
17601.3
19841
15722.1
23556
146.201
24398.9
255.854
14030.6
146.201
7041.97
33778.9
146.201
146.925
21274.4
146.201
3763.17
146.201
209.807
1189.44
158.769
159.149
147.607
146.201
146.201
146.226
146.201
1315.59
146.201
148.526
146.304
146.203
146.202
146.203
146.201
146.201
146.201
146.356
146.201
147.499
146.201
161.157
146.203
146.544
146.201
146.268
230.233
146.203
146.203
146.201
146.201
146.214
187.308
157.945
153.877
146.398
146.934
146.532
146.201
146.25
146.221
146.51
146.201
146.265
146.245
150.983
146.301
146.797
150.325
146.261
146.214
146.261
146.219
146.209
146.233
153.575
146.291
11181.7
154.42
146.212
146.328
12858.2
146.201
146.287
146.484
146.166
146.511
146.471
149.977
146.265
146.265
153.585
146.201
146.213
753.4
146.201
146.224
150.134
146.269
146.201
146.201
146.263
146.263
146.688
146.372
146.201
146.201
146.931
232.389
146.205
217.9
389.527
146.202
146.266
146.209
146.229
235.815
153.665
146.462
146.228
146.201
433.284
146.232
147.029
146.201
146.202
146.201
147.234
146.201
146.201
149.152
146.729
146.604
147.324
146.303
150.033
146.275
238.222
146.201
148.068
146.685
146.584
146.201
146.237
146.021
146.211
146.315
146.256
146.201
146.275
146.409
146.201
146.201
146.201
146.204
146.201
146.22
146.268
148.258
146.273
148.369
146.224
146.22
146.25
156.787
148.071
146.234
146.203
146.577
146.256
148.099
146.201
146.243
146.209
146.249
148.036
146.227
150.744
147.341
146.226
224.072
146.201
146.236
146.201
146.221
146.227
146.232
187.156
146.222
155.912
146.266
169.05
146.222
146.202
146.201
146.272
146.243
146.211
146.201
146.202
146.224
146.474
146.287
146.225
146.201
146.201
146.883
146.223
146.25
146.201
146.212
146.202
146.201
146.241
146.201
146.276
146.201
146.202
146.201
146.201
146.233
146.201
146.201
146.201
146.219
146.201
146.201
153.013
146.201
146.226
9541.03
146.201
146.27
146.209
146.201
146.201
146.681
146.201
146.201
146.249
146.24
146.236
146.201
146.202
146.201
146.244
146.434
146.201
146.201
146.21
146.201
146.201
146.245
146.201
146.227
146.217
146.201
146.201
146.205
1622.86
146.805
146.201
146.201
146.201
146.201
146.53
146.402
146.201
146.201
146.205
146.723
146.201
146.201
146.201
238.063
146.236
146.247
196.082
146.215
146.202
160.508
146.242
201.767
146.445
796.576
146.522
146.201
146.265
205.455
146.201
146.201
292.934
146.564
381.08
146.201
146.255
146.201
146.456
754.435
146.201
819.564
146.214
146.201
465.708
146.209
146.201
171.203
654.853
146.202
146.251
375.117
146.204
146.226
841.149
146.222
146.205
146.422
146.243
159.689
146.22
1422.18
146.201
146.201
146.324
146.792
146.334
146.21
146.201
146.201
146.229
146.214
146.349
146.859
146.278
146.201
146.21
147.149
146.212
1770.18
146.204
146.21
146.218
1953.5
146.201
146.423
1046.44
146.201
146.21
146.286
146.326
146.201
146.217
146.201
146.201
146.21
146.201
429.238
146.215
146.215
1749.79
195.515
146.201
146.214
146.217
146.201
146.201
146.191
146.228
146.202
146.232
146.201
146.313
1793.76
146.22
146.278
2086.15
146.323
147.108
146.215
146.465
146.247
146.261
146.22
146.429
146.242
148.376
165.992
146.24
146.225
146.234
146.243
146.377
146.201
146.501
146.24
146.242
146.314
146.256
2129.09
146.151
146.202
146.939
146.979
146.211
256.302
146.203
146.912
146.201
16456.5
2734.02
2000.94
146.201
146.201
146.201
147.016
146.245
14161.7
146.201
147.004
146.962
146.435
146.201
17718.4
146.357
146.252
1631.58
220.476
146.201
146.234
146.201
146.256
146.198
146.202
146.201
146.39
146.204
146.201
146.201
1167.12
146.201
146.22
146.201
146.265
146.312
146.353
146.341
146.201
146.201
146.241
146.202
146.201
146.201
146.201
146.201
146.256
146.209
126.258
146.201
147.427
146.26
193.822
146.201
146.47
146.705
146.201
146.201
4776.35
146.201
146.212
146.201
146.201
146.201
146.231
146.201
146.201
146.201
146.201
146.247
1958.03
146.201
146.205
146.201
146.229
146.297
146.201
146.201
164.774
146.201
146.221
146.201
146.441
146.223
146.201
146.201
146.45
849.572
146.201
146.238
146.201
146.214
146.219
146.52
146.201
195.343
146.225
147.112
146.201
146.299
146.215
341.662
157.627
146.387
157.462
146.227
165.193
146.201
146.201
146.201
146.201
146.201
146.201
146.201
167.085
146.212
146.201
146.209
182.774
148.366
146.201
146.326
157.239
147.54
146.341
701.406
146.048
199.355
1780.59
146.281
251.576
154.257
146.651
146.333
146.32
146.316
191.672
146.201
146.279
169.934
146.273
146.285
146.213
146.201
148.525
174.009
146.283
150.092
146.202
149.035
176.265
146.201
146.204
146.189
147.87
146.281
2193.47
146.427
146.501
146.207
146.219
146.201
146.201
1720.34
146.201
146.201
146.201
146.201
146.202
146.212
146.201
146.239
146.216
146.416
146.203
146.201
391.881
149.467
146.201
146.326
146.201
146.201
146.201
159.709
146.338
146.43
146.201
146.201
146.201
146.205
146.215
146.203
13088.2
146.201
146.201
146.207
1090.01
1572.6
146.207
146.201
15368.6
17035.2
146.243
16385.7
1429.92
146.241
979.74
541.448
146.201
146.201
146.201
146.201
146.201
146.201
10577.3
983.187
2938.95
146.97
537.581
146.201
146.235
146.249
149.685
146.208
747.16
146.22
3286.25
179.159
146.201
151.782
3189.28
146.202
146.201
147.985
146.202
146.201
980.096
364.086
146.201
146.201
147.432
146.206
146.202
146.201
146.201
146.235
1615.91
146.201
146.201
146.223
2521.02
146.316
146.201
146.201
146.201
1080.63
146.201
146.344
146.803
146.201
146.742
146.201
146.201
199.472
146.216
146.201
146.201
146.201
146.201
146.207
146.208
146.201
161.78
146.458
146.201
146.521
146.201
146.201
146.201
146.201
146.201
146.201
146.21
146.201
146.201
146.606
146.201
20111.5
146.211
146.201
146.201
146.201
146.201
146.212
146.247
23733.8
149.153
24950.8
146.272
165.298
146.215
24221.6
23855.4
146.225
188.904
146.201
146.212
146.201
146.201
146.201
146.201
146.406
3568.67
146.201
393.749
146.647
162.615
146.212
146.201
146.492
146.201
146.221
146.517
146.33
146.218
146.201
147.65
146.221
146.201
146.235
4563.86
146.212
1946.06
146.201
146.201
152.101
1633.44
3810.61
4191.4
779.826
628.634
235.495
174.432
146.902
3703.16
146.201
148.503
146.201
146.201
146.233
147.8
146.234
146.309
147.789
147.716
146.202
147.671
146.517
146.201
146.201
146.201
150.369
159.996
146.274
146.201
156.145
888.747
148.721
165.65
146.353
146.272
147.097
146.201
146.243
147.234
146.22
146.201
146.759
146.547
146.201
146.199
146.924
146.201
146.2
13831.3
146.205
146.94
7137.31
146.303
148.802
146.504
147.63
146.22
146.566
146.544
157.108
146.197
146.201
153.22
146.218
147.259
146.47
146.236
146.54
146.221
146.287
198.626
146.201
146.524
146.658
146.201
146.721
146.201
146.201
146.201
146.522
146.583
146.237
146.13
146.201
146.536
147.129
148.396
146.212
146.201
146.746
146.713
1006.48
146.201
146.607
4368.93
1443.64
146.582
146.202
149.782
146.201
146.201
146.201
146.201
146.201
193.855
146.201
146.688
146.201
146.594
146.201
146.201
146.201
146.201
146.201
146.194
148.98
146.201
146.201
167.511
146.819
146.696
146.22
146.201
165.528
146.203
146.201
146.201
146.568
146.36
146.201
146.228
146.289
146.205
146.201
146.24
146.201
146.201
146.201
146.201
146.201
146.205
146.209
147.302
146.201
146.334
146.201
626.163
146.201
146.204
146.872
146.264
146.207
146.206
146.204
162.441
146.244
146.165
146.201
146.201
146.201
146.201
147.215
146.201
146.201
146.201
146.206
146.201
150.435
146.201
146.201
146.538
146.258
146.201
146.202
146.201
146.202
146.201
146.201
146.201
239.972
146.201
146.201
146.201
146.201
146.201
146.201
261.888
146.214
146.21
146.201
146.201
182.587
146.201
211.571
146.336
146.257
146.232
146.201
146.201
146.201
146.254
147.379
146.201
146.201
147.397
146.201
146.201
146.201
146.201
146.205
146.208
2241.98
146.201
146.201
146.201
147.469
147.408
147.456
175.292
4070.42
575.938
146.932
146.201
146.895
147.466
146.201
146.208
146.201
163.111
199.341
146.201
146.201
146.202
150.413
250.594
272.593
721.98
146.217
2737.24
148.047
146.216
146.229
147.902
146.201
146.216
146.862
146.22
146.204
146.215
451.197
158.354
417.042
321.922
508.37
163.75
146.216
146.201
147.834
146.246
146.214
146.055
146.046
146.209
14731.7
243.273
146.209
146.266
146.201
378.062
346.033
335.499
232.522
146.076
146.81
146.199
146.053
146.201
147.744
302.699
505.395
146.201
419.667
146.201
146.238
146.201
146.23
146.201
442.286
427.857
146.201
146.201
146.238
351.643
146.201
7682.51
146.125
146.201
745.203
146.201
146.601
146.123
366.769
156.591
146.201
155.157
146.201
200.211
152.845
393.435
146.201
146.206
154.306
146.268
146.754
146.201
151.658
146.201
4168.58
146.345
3594.63
9129.22
258.75
146.201
147.422
864.531
151.308
146.227
979.549
146.485
146.201
147.171
412.961
146.344
146.22
146.201
147.219
146.201
146.201
146.201
146.208
15900.1
146.208
27276.1
151.572
146.266
146.21
146.201
146.2
146.209
146.326
146.201
146.201
146.457
172.001
172.173
213.06
178.349
147.024
171.911
146.039
146.201
146.201
146.906
1776.6
927.053
146.343
185.981
231.755
177.012
721.875
2227.79
146.201
339.829
2316.38
177.261
146.201
203.809
270.724
769.16
366.498
181.287
250.668
554.109
146.401
220.822
146.229
212.195
146.329
420.737
2238.89
146.183
146.748
172.864
1064
162.908
146.894
146.201
146.201
2092.35
146.206
146.202
199.686
146.201
146.28
146.201
45146.1
150.423
146.201
146.215
1430.19
200.793
373.768
1937.09
4103.34
208.833
146.201
146.201
147.056
146.201
146.201
146.213
146.202
148.529
1895.28
146.214
146.201
1435.43
147.87
146.201
146.277
2224.89
146.146
147.142
147.179
146.201
146.201
146.205
147.085
150.893
168.738
146.201
423.469
146.201
170.597
10023.8
157.435
147.552
146.201
146.205
146.201
146.205
146.201
9834.17
146.542
146.201
469.76
146.201
146.201
260.784
146.201
166.704
146.204
146.791
190.379
146.201
146.201
146.231
17816.1
146.201
146.516
148.403
146.2
151.827
146.207
146.201
146.201
146.201
146.201
146.201
165.009
146.201
148.081
146.323
146.201
147.106
12913.1
433.582
146.716
146.201
146.299
196.743
146.201
146.6
185.177
307.792
146.41
3587.48
11383.6
146.214
146.265
1102.76
1477.06
846.77
146.253
186.824
669.129
146.201
146.201
146.201
146.227
146.802
146.365
224.021
146.201
146.214
146.202
148.14
186.353
146.201
620.398
227.519
146.271
905.084
1417.61
146.201
146.145
3338.41
214.37
146.2
146.201
146.142
146.201
146.207
146.201
2882.42
146.836
13420.2
146.36
146.369
146.259
146.266
146.201
146.201
14286.2
146.201
146.201
146.201
19454.2
146.402
1867.08
146.445
146.265
146.428
147.857
207.076
146.596
146.215
146.539
146.368
659.236
150.039
170.832
147.372
146.439
367.264
148.807
2193.09
443.684
146.282
228.103
146.204
146.206
6535.2
152.21
146.213
146.489
169.417
146.321
146.201
147.068
146.358
14972.6
146.209
146.201
146.351
146.293
146.201
146.201
146.456
162.09
146.319
150.66
146.211
146.36
146.316
146.214
146.201
146.201
2669.17
9136.41
17168.3
146.633
146.206
164.902
169.186
146.437
146.207
233.481
146.213
146.204
146.206
1518.72
146.201
228.854
146.354
156.999
146.201
146.201
146.201
146.201
147.228
194.974
146.205
159.741
166.964
146.23
146.201
146.211
146.201
163.968
146.282
146.201
146.201
146.226
217.571
191.324
146.215
146.199
146.188
146.312
159.647
146.388
146.203
146.2
146.201
146.329
146.201
146.201
1026.04
146.201
146.252
146.15
146.201
508.678
145.915
146.316
146.696
474.662
146.201
181.563
146.202
146.201
146.201
312.701
146.568
146.325
1733.39
146.204
146.145
248.139
146.201
146.212
146.201
146.202
146.231
146.212
230.57
146.212
146.201
146.232
2574.97
690.271
158.959
1285.74
146.34
178.811
1521.5
146.218
4718.64
360.409
895.576
150.859
146.201
146.1
146.201
146.21
146.214
146.23
12936
146.202
146.198
147.769
146.84
178.619
146.753
146.132
149.071
146.204
146.252
146.235
146.245
209.505
146.2
146.23
146.241
146.229
189.42
148.926
146.397
146.345
146.204
146.258
146.518
156.444
146.248
268.603
15139.6
146.244
331.678
357.391
146.201
7655.32
146.185
438.512
146.127
902.049
146.318
1004.17
362.281
146.201
146.197
147.8
173.339
2212.19
146.201
451.036
146.216
347.833
146.201
146.205
146.201
146.103
146.681
146.184
146.119
146.298
146.191
174.274
146.201
146.37
12161.7
146.4
146.205
146.201
189.687
146.199
146.201
146.24
419.331
146.24
146.201
145.97
3659.95
146.257
146.201
146.201
154.137
146.343
147.02
146.183
146.43
146.23
146.201
224.106
146.201
146.201
146.474
146.292
146.201
146.201
146.201
147.075
146.459
146.201
146.199
146.228
146.201
146.201
146.2
146.122
146.201
146.201
146.201
146.201
690.876
165.384
155.234
146.201
146.201
146.201
146.201
280.249
146.201
146.203
146.375
146.201
146.202
146.201
146.356
146.2
146.201
146.222
146.201
146.197
146.235
146.042
146.244
146.245
266.824
146.201
146.189
146.233
145.984
146.201
146.204
146.201
146.201
146.178
146.201
146.552
146.24
157.331
556.414
350.863
146.051
158.105
147.888
146.201
146.201
146.201
146.221
146.201
146.603
9403.84
146.201
14038.8
146.203
146.201
17767.6
18976.9
146.201
146.5
188.042
146.201
146.201
146.201
162.548
146.201
13897.1
147.61
12723.7
146.206
146.201
146.622
146.315
146.338
146.372
146.401
146.12
146.201
146.201
146.201
146.201
146.201
146.201
146.201
146.201
146.504
146.194
150.085
158.127
146.234
146.204
146.201
146.202
146.551
146.26
146.421
146.201
165.498
146.285
146.044
147.657
146.201
146.429
146.201
146.333
226.971
146.201
147.339
146.29
146.201
164.425
158.79
146.833
146.229
146.18
146.229
2264.87
146.205
235.497
146.201
146.22
146.204
151.005
146.201
146.135
146.202
146.217
150.747
148.24
146.203
146.4
242.437
147.463
146.201
146.215
146.444
150.336
147.786
146.272
146.201
146.195
152.778
146.469
164.816
146.351