/*--------------------------------*- C++ -*----------------------------------*\
| =========                 |                                                 |
| \\      /  F ield         | OpenFOAM: The Open Source CFD Toolbox           |
|  \\    /   O peration     | Version:  v2012                                 |
|   \\  /    A nd           | Website:  www.openfoam.com                      |
|    \\/     M anipulation  |                                                 |
\*---------------------------------------------------------------------------*/
FoamFile
{
    version     2.0;
    format      ascii;
    class       volScalarField;
    location    "3";
    object      ILambda_8_0;
}
// * * * * * * * * * * * * * * * * * * * * * * * * * * * * * * * * * * * * * //

dimensions      [1 0 -3 0 0 0 0];


internalField   nonuniform List<scalar> 
108993
(
146.202
146.334
146.201
146.201
146.201
146.2
146.64
146.201
146.201
146.219
146.201
146.201
146.201
146.201
146.201
146.203
146.235
146.201
146.201
146.265
146.201
146.201
146.203
146.201
146.201
146.2
146.201
146.28
146.317
146.201
146.201
146.201
146.201
146.208
146.201
146.201
146.201
146.201
5426.6
2734.28
146.308
146.201
146.201
146.201
146.284
148.296
146.201
146.426
146.355
146.201
146.201
146.278
146.501
146.201
146.201
146.201
146.201
146.201
146.201
146.201
146.201
146.201
146.201
146.201
146.201
146.201
146.201
146.201
146.201
146.222
146.201
146.201
146.201
146.201
146.291
146.201
146.201
146.216
146.201
146.201
146.201
146.201
146.201
146.201
146.201
146.201
146.201
146.201
146.201
146.201
146.201
146.201
146.201
146.201
146.201
146.203
146.201
146.201
146.201
146.201
146.201
146.201
146.201
146.202
146.201
146.201
146.201
146.201
146.201
6237.04
146.335
146.201
146.435
146.622
146.201
147.112
146.201
146.201
146.233
146.201
146.201
146.201
146.298
146.201
146.201
146.214
146.317
146.201
146.201
146.201
146.202
146.201
146.201
146.986
146.201
146.201
146.201
146.201
146.201
146.201
146.201
146.201
146.216
146.201
146.201
146.201
146.201
731.553
146.201
149.023
149.607
146.201
146.201
161.952
146.201
146.572
146.201
146.201
146.201
146.209
151.364
146.201
146.201
146.201
146.201
146.388
146.201
146.201
146.201
146.201
146.201
146.201
146.234
146.201
146.208
146.201
146.524
146.201
146.201
146.201
146.205
146.201
146.201
146.201
146.202
146.201
146.201
146.201
146.201
146.201
146.201
146.201
146.201
146.526
146.201
146.201
146.302
146.201
146.201
146.201
146.201
146.547
146.201
146.201
146.356
146.559
146.201
928.445
146.201
203.189
146.222
146.201
146.538
149.901
166.672
146.201
146.201
146.201
146.201
146.201
146.201
149.35
146.211
146.477
146.201
146.201
146.201
146.201
146.387
146.201
157.424
146.201
146.201
146.338
146.201
146.201
146.201
146.201
146.24
146.201
146.201
146.201
146.201
146.201
146.201
146.207
155.324
146.386
146.201
146.201
146.201
146.201
146.201
146.201
146.201
146.201
146.201
146.201
146.201
146.201
146.201
146.242
146.24
146.23
146.201
146.201
146.201
146.293
146.201
146.201
146.201
146.201
152.266
138.692
1307.13
146.201
146.201
146.403
146.201
146.213
146.205
146.939
146.98
146.201
146.201
146.207
146.201
146.202
146.201
160.839
146.201
146.201
146.203
146.201
146.201
146.201
146.201
146.201
146.233
146.201
146.367
146.879
146.201
146.201
146.201
146.269
146.201
146.165
146.27
149.058
146.201
146.201
146.269
146.201
146.29
146.882
146.201
146.261
806.144
146.201
146.482
146.201
146.378
146.377
146.201
146.987
205.927
146.918
146.201
146.201
146.201
146.713
147.732
146.201
213.701
146.201
146.201
146.201
146.201
146.201
146.201
146.363
146.202
146.201
146.201
146.201
146.201
146.201
146.201
146.201
146.201
146.201
146.813
285.352
146.201
146.201
146.201
1595.77
146.201
146.201
146.203
146.202
146.201
146.201
146.3
146.202
146.201
146.201
146.201
3209.88
146.219
146.207
146.201
1124.56
146.201
147.302
146.204
146.201
146.808
146.201
146.8
146.832
146.203
146.231
146.201
146.222
146.208
1725.36
146.202
1011.24
146.775
146.214
146.837
146.201
148.066
146.202
1598.05
146.201
146.262
146.201
146.202
146.414
146.371
146.201
146.201
146.214
146.228
146.201
146.201
182.708
146.201
146.201
9468.52
146.201
146.201
146.201
1148.12
146.225
199.014
146.201
193.62
146.513
189.236
146.201
146.201
151.762
146.201
147.466
151.708
146.201
2159.75
3156.3
717.366
146.201
146.201
146.216
146.201
146.201
146.201
146.201
146.201
146.201
146.201
146.203
146.224
146.648
146.563
146.236
146.201
146.203
146.201
146.201
146.201
146.213
146.201
146.201
146.201
146.202
146.201
146.201
146.236
146.201
146.265
147.642
146.224
146.201
146.183
146.263
146.201
146.201
146.225
146.201
146.201
146.201
146.201
146.237
146.201
146.245
735.392
146.241
146.201
146.201
146.201
146.201
146.201
146.201
146.201
146.201
146.221
146.212
146.201
146.202
146.278
146.201
146.374
146.201
146.201
146.201
146.201
146.491
146.201
146.201
146.201
146.201
146.301
146.815
146.201
146.201
1229.42
146.201
146.21
146.542
146.201
146.214
146.201
146.201
146.201
146.201
146.36
146.407
146.202
146.202
146.556
146.469
146.275
146.263
146.239
146.201
146.258
146.456
146.266
146.201
146.262
146.201
146.201
146.201
146.537
146.201
146.215
194.921
146.201
246.791
146.201
146.201
146.201
146.201
146.201
146.255
146.201
146.201
146.353
146.26
147.467
146.201
146.201
146.201
146.201
146.208
346.211
146.423
146.211
146.201
146.201
146.478
146.245
146.636
146.201
146.201
146.237
146.26
146.201
146.321
5079.18
146.243
148.317
146.251
146.201
146.254
161.413
165.525
146.215
146.201
146.201
146.201
146.201
146.43
147.27
146.245
146.202
146.201
146.292
146.201
146.327
146.201
141.202
146.201
146.201
146.201
153.989
146.221
146.201
146.201
127.13
146.233
146.201
146.201
132.639
146.201
146.269
146.201
146.754
146.201
146.222
146.201
146.488
146.201
146.204
146.201
156.891
146.201
146.497
146.201
146.201
2158.94
146.308
146.201
146.201
146.301
194.796
146.205
148.091
146.308
146.407
146.519
146.202
146.201
146.201
4998.67
146.36
146.273
146.202
146.274
146.201
146.246
146.201
146.202
146.203
146.244
146.257
146.205
146.205
146.395
275.388
160.24
146.228
146.261
146.286
152.221
147.203
167.917
148.789
146.2
146.261
146.201
146.201
146.201
146.25
146.209
158.703
385.317
146.218
146.494
146.358
167.691
165.562
146.201
146.484
146.227
146.2
1362.78
147.655
146.3
146.227
146.206
178.253
146.21
206.222
146.225
146.228
8529.74
146.201
146.201
146.258
146.209
146.38
4318.74
146.218
212.11
146.246
9139.85
146.411
146.201
146.201
146.201
146.234
146.201
146.262
146.339
146.201
146.201
146.514
185.77
5859.41
146.201
18244.3
146.202
146.312
146.245
146.201
146.285
146.256
146.202
146.382
146.207
146.201
146.207
146.505
146.37
146.362
146.201
146.249
146.202
146.204
146.204
146.201
146.201
146.245
146.201
146.201
146.352
146.201
146.207
7451.93
269.086
146.211
146.523
146.214
146.212
146.217
146.255
146.201
146.201
146.201
146.208
146.201
146.564
146.201
146.201
146.25
146.18
146.204
146.201
146.208
146.201
146.24
146.217
146.402
150.183
146.201
146.201
146.202
171.377
146.201
146.56
146.613
146.203
146.202
434.746
146.398
146.209
146.201
146.293
146.202
146.202
146.541
146.201
146.548
146.201
146.201
146.236
146.201
850.786
146.201
146.201
6885.25
146.21
171.79
146.461
147.286
146.201
146.584
146.226
146.201
146.201
146.21
146.201
146.201
146.201
146.201
146.201
146.201
146.255
146.201
146.24
146.201
146.434
146.285
146.201
1463.88
146.286
1232.71
146.206
146.201
146.223
6283.1
146.674
146.272
146.247
146.395
146.324
146.501
496.355
146.25
146.201
146.255
146.275
146.201
146.256
4484.64
146.201
146.202
146.206
182.638
146.205
146.27
146.253
146.203
146.201
216.889
146.201
218.609
146.205
223.144
146.202
146.564
146.236
146.257
146.533
146.201
146.23
146.23
146.301
146.471
311.217
146.201
146.201
146.201
146.276
146.213
146.249
146.201
146.201
146.263
188.544
146.201
146.235
146.258
291.144
146.394
146.459
147.033
346.748
146.426
146.616
146.203
147.356
146.201
147.487
1135.33
760.865
146.201
146.201
146.217
146.258
146.379
146.201
146.201
146.396
146.507
146.201
146.378
146.635
146.391
147.268
146.201
146.201
139.922
1581.14
146.233
146.371
146.201
146.201
146.228
146.484
143.926
146.201
147.242
146.239
146.229
146.319
146.201
146.216
146.234
146.342
146.201
146.217
146.208
146.481
146.204
146.201
146.304
146.201
146.238
146.375
146.219
146.262
146.201
146.913
146.201
355.979
146.437
146.201
146.201
146.437
146.338
146.201
146.231
147.347
146.309
146.433
146.2
146.25
146.37
146.804
146.201
146.245
239.209
146.266
146.225
146.249
146.201
146.45
4723.65
146.293
146.261
146.248
146.236
146.224
146.202
146.229
146.25
147.206
146.232
146.201
146.218
146.26
146.201
146.201
146.201
146.273
146.202
146.201
146.201
146.218
146.201
146.201
146.391
147.211
146.201
146.201
146.215
146.201
7397.38
146.201
146.195
146.223
146.193
146.221
1980.34
146.206
146.201
146.201
146.201
146.607
146.212
146.441
146.201
146.201
146.643
146.201
158.067
146.375
210.14
146.2
146.202
146.202
146.201
146.202
146.503
146.201
146.201
146.201
146.201
147.855
146.201
146.534
146.201
146.201
146.509
146.226
146.286
146.457
146.201
146.201
146.279
146.434
146.201
146.201
146.201
5474.24
146.202
146.507
146.201
146.243
146.201
146.201
146.874
146.453
146.225
146.434
1507.08
146.259
146.305
146.594
146.78
146.22
146.201
146.201
146.238
146.242
367.373
146.233
146.209
146.212
146.321
146.243
146.201
146.239
146.45
146.229
146.224
146.369
146.255
146.219
146.201
146.201
146.201
146.201
146.201
146.201
146.222
147.792
146.234
4046.62
146.241
146.201
146.201
146.22
147.219
146.201
146.241
146.202
146.252
146.201
146.225
148.448
146.249
146.201
146.404
146.2
146.201
146.201
146.201
146.201
146.338
10628.1
146.256
146.201
146.201
146.201
146.204
146.203
146.201
146.217
146.203
146.201
146.201
146.201
146.201
146.201
146.201
146.201
146.201
146.201
146.218
146.201
146.21
146.749
146.461
233.509
146.201
146.201
146.201
146.201
146.203
146.201
146.38
146.201
146.201
146.365
146.203
146.505
146.377
146.378
146.201
146.202
232.98
188.803
146.201
146.201
146.201
146.49
146.201
146.201
942.212
146.201
146.201
146.201
146.201
146.201
146.221
146.25
146.298
931.758
146.29
146.275
146.349
146.806
146.428
146.247
146.2
146.312
148.049
146.201
146.226
146.228
146.217
146.217
8131.61
146.493
146.201
146.242
146.201
146.398
146.243
146.228
146.204
146.201
146.201
146.201
146.221
146.201
147.031
2440.31
146.243
146.201
146.201
146.243
146.205
146.201
146.205
146.201
146.203
179.413
146.243
153.129
146.201
146.233
146.201
146.217
146.344
146.22
146.201
146.244
146.205
170.654
146.258
146.412
146.542
146.201
146.201
146.215
146.201
146.217
2556.28
146.201
146.215
146.201
146.802
146.201
146.201
146.587
146.201
146.322
1051.09
146.201
146.578
146.21
146.305
146.201
146.208
146.201
146.573
146.201
146.487
146.226
146.201
361.871
146.201
146.201
146.201
146.543
150.046
146.201
146.216
146.376
183.771
146.228
146.201
146.201
146.262
146.202
148.624
149.444
148.708
146.405
148.908
146.201
149.873
149.886
146.216
146.212
146.196
146.349
146.202
146.201
146.201
146.221
146.201
146.201
146.201
146.322
146.201
146.201
146.201
146.215
146.202
146.201
146.201
146.604
146.597
146.202
208.035
146.204
146.207
146.426
146.328
146.307
146.201
146.206
146.493
146.202
146.21
146.214
146.201
146.213
346.587
146.212
146.237
146.213
146.232
146.473
146.232
146.201
146.251
146.201
146.233
146.201
146.201
146.203
146.251
146.224
146.202
147.175
146.223
146.534
319.169
146.201
146.344
146.201
146.26
146.26
146.202
146.201
516.086
147.203
146.241
146.243
4521.33
146.381
146.201
146.202
146.201
146.235
146.235
146.49
153.319
146.201
146.201
146.202
146.227
146.259
146.201
146.201
1338.68
6045.5
146.228
146.201
146.467
146.209
146.203
146.207
146.201
146.512
146.201
146.203
146.21
146.225
1043.69
146.219
146.216
146.469
150.539
146.204
146.356
146.961
146.201
146.201
146.229
146.411
146.258
146.201
146.216
146.357
146.295
274.794
146.22
146.224
247.638
146.206
146.199
449.358
146.207
146.201
146.209
146.201
3833.61
146.199
146.201
146.598
146.21
398.96
146.206
3306.55
146.208
146.213
1180.25
146.24
146.214
147.166
146.242
146.201
146.63
146.201
146.201
146.201
488.572
146.346
146.197
146.311
146.201
147.499
431.428
155.145
146.249
1699.67
146.201
2522.22
146.201
146.202
146.358
146.201
146.201
146.201
146.201
146.202
146.388
148.347
146.272
332.437
146.202
146.201
146.196
146.202
146.202
146.201
377.322
146.291
146.201
146.201
146.201
146.373
146.215
146.202
146.466
146.201
146.202
146.202
206.752
2137.62
146.529
225.325
147.449
146.202
146.233
148.347
146.201
146.201
146.226
515.363
4600.62
190.632
9039
146.201
146.201
12322.9
146.201
182.312
146.201
146.201
146.245
146.201
163.389
146.201
160.018
20422.8
146.359
163.657
146.337
146.399
146.201
146.356
146.201
146.201
146.201
146.201
146.201
146.201
146.492
146.201
146.258
146.373
146.652
146.62
146.202
146.201
2725.19
148.352
146.201
146.271
146.201
146.201
146.248
460.73
648.081
146.524
146.201
1550.7
4685.41
204.072
146.201
148.07
146.248
146.25
352.326
146.23
733.317
146.246
146.202
146.24
146.313
146.24
146.314
148.933
146.343
146.225
192.116
4137.06
938.962
146.201
146.201
8840.71
146.201
147.198
147.404
146.201
6801.01
146.284
146.206
146.206
146.213
146.21
146.315
146.451
1715.93
146.457
169.885
146.201
147.069
146.366
146.479
146.201
146.36
146.212
146.208
146.202
146.213
146.274
146.213
146.21
146.206
147.437
146.36
146.215
149.021
146.352
146.216
301.739
146.208
146.205
146.402
146.204
146.201
146.202
149.622
146.808
146.568
147.439
1417.52
146.209
146.204
146.288
146.803
146.583
475.243
146.201
146.213
146.201
147.341
146.495
314.934
146.201
146.201
146.201
146.201
147.005
146.201
146.279
146.201
207.516
146.89
146.199
146.201
2012.29
147.124
619.111
147.011
146.201
147.964
8388.41
146.201
146.371
146.262
146.275
146.299
146.201
146.286
154.845
451.799
146.303
5159.32
146.359
146.281
146.215
166.491
4356.39
146.285
285.159
146.204
146.249
146.217
146.203
321.878
146.349
146.218
146.309
146.593
356.379
146.495
146.235
146.383
146.201
146.201
146.201
146.502
146.184
779.378
241.941
146.218
18793.2
146.247
146.201
146.246
164.343
4642.76
146.274
146.319
210.643
150.731
20297.3
147.134
146.201
8314.96
146.39
146.201
146.202
178.144
146.201
151.69
146.304
147.196
147.509
412.701
146.201
146.244
156.944
146.207
146.201
146.201
146.204
146.201
146.229
176.863
147.148
236.141
146.229
10351.2
146.521
355.463
146.204
146.384
147.317
2705.81
146.207
146.201
146.201
146.201
146.201
146.201
146.206
146.237
146.515
194.546
146.279
146.414
6221
208.685
148.906
157.957
146.201
6116.89
146.43
146.201
146.201
151.314
152.869
146.201
146.202
146.201
146.456
146.201
7178.48
7758.68
8822.25
149.624
146.201
165.817
146.875
146.201
146.32
146.201
146.233
159.804
146.215
146.227
779.003
146.459
146.201
146.234
146.201
146.201
146.202
146.403
146.23
146.202
146.863
146.561
739.348
146.522
146.49
146.394
146.201
146.221
146.205
147.287
182.895
146.205
146.201
958.213
146.214
146.201
146.213
146.215
147.885
162.403
229.273
147.682
147.223
146.201
351.955
146.219
147.275
151.888
146.201
150.034
146.201
146.201
329.926
146.201
146.406
158.627
150.916
169.411
164.7
146.201
146.578
146.275
154.816
146.345
146.22
160.149
157.25
194.826
475.194
152.667
146.206
146.418
147.27
158.562
147.708
146.382
155.145
146.201
146.201
20374.8
223.611
146.576
146.959
146.659
152.773
5747.4
146.201
146.773
146.202
279.052
146.205
146.695
147.096
146.201
4914.21
146.205
148.533
166.418
146.19
146.204
156.238
146.204
146.201
146.201
146.201
147.058
146.201
169.235
147.599
146.201
146.201
1435.3
146.293
146.201
146.249
146.201
146.201
146.2
146.201
146.27
146.264
8149.46
146.201
146.201
1134.29
146.201
155.877
5393.6
146.201
146.201
146.204
146.202
749.306
146.201
146.197
146.201
146.201
146.201
497.014
4149.01
146.213
146.201
11346.2
146.201
146.354
146.201
146.455
146.201
211.07
165.198
146.202
146.201
146.999
146.554
1521.6
146.201
146.524
146.242
146.201
146.242
146.24
146.201
146.506
146.201
951.81
146.201
146.201
146.2
146.235
146.2
286.947
159.367
146.201
146.201
248.323
146.201
280.276
146.21
146.201
529.873
5642.08
227.031
146.431
146.202
146.238
3023.33
146.201
276.886
146.201
4261.46
1200.89
146.187
261.994
259.099
1502.99
440.323
357.644
146.253
146.201
146.201
146.271
146.249
146.211
2040.52
146.201
146.222
146.201
146.304
763.105
935.474
146.201
146.583
146.704
146.201
167.05
146.201
146.201
146.2
203.893
511.437
230.253
146.201
146.201
146.201
3074.7
147.849
4210.87
146.201
146.201
180.243
146.495
146.201
146.201
1204.04
146.201
146.201
242.363
177.872
146.468
146.456
146.201
248.417
1890.95
251.878
148.25
146.238
8277.78
146.205
146.229
2001.3
947.333
480.742
5344.68
4766.77
535.898
146.201
20472.8
2243.41
148.256
146.201
150.702
8066.05
146.201
191.644
873.824
146.201
431.325
146.201
2128.71
147.17
146.805
278.342
229.548
146.202
146.201
146.336
146.223
2575.42
146.201
348.093
146.247
146.201
146.201
146.201
146.201
146.5
146.201
146.63
146.212
213.689
146.201
171.786
146.201
146.852
146.201
146.23
222
146.201
146.201
146.201
146.201
146.233
6423.9
3997.22
147.137
146.858
146.202
146.203
146.196
146.218
146.22
146.319
146.201
146.739
146.413
2341.84
146.21
146.205
146.201
146.444
146.215
146.201
146.429
146.209
146.318
2490.75
146.347
148.931
146.212
146.225
146.528
147.494
146.201
146.235
146.465
146.214
146.532
146.263
146.45
146.268
146.401
146.201
146.201
146.208
147.186
146.201
194.261
146.201
146.258
146.201
146.201
146.272
146.24
146.291
146.294
146.194
146.201
146.747
217.438
146.205
413.297
217.168
146.204
146.265
146.207
146.223
232.629
146.201
146.327
146.444
146.201
227.255
146.229
146.201
146.205
146.201
146.202
146.201
146.201
146.201
146.201
300.688
146.201
146.201
146.308
146.201
146.244
146.688
146.201
146.201
146.592
146.482
146.206
146.227
146.201
146.247
146.415
146.204
146.201
146.428
146.279
146.207
146.207
146.207
146.202
146.201
146.252
146.413
2487.85
146.57
256.933
146.269
146.247
146.23
146.201
526.77
146.227
146.204
146.634
146.234
834.17
146.201
146.232
146.246
146.244
146.4
146.255
146.442
146.201
146.244
146.596
146.201
146.311
146.201
146.236
146.277
146.347
146.534
146.26
146.569
146.256
146.608
146.236
146.213
146.201
146.417
146.224
146.202
146.201
146.202
146.285
146.201
146.259
146.219
146.201
146.201
146.201
146.209
227.831
146.201
146.219
146.223
146.201
146.486
146.201
146.468
146.21
146.202
146.201
146.201
146.226
146.201
146.201
146.201
146.21
146.201
146.201
146.806
146.201
146.239
5005.91
146.201
146.454
146.227
146.201
146.194
146.468
146.201
146.201
146.419
146.281
146.217
146.201
146.223
146.201
146.238
146.282
146.201
146.201
146.217
146.201
146.201
146.443
146.201
146.226
146.211
146.194
146.201
146.206
6757.87
146.819
146.207
146.201
146.201
146.201
146.297
146.381
146.201
146.201
146.203
150.824
146.204
146.201
146.201
240.977
146.225
146.241
180.88
146.215
146.202
146.676
146.239
146.202
146.219
1076.24
146.441
146.201
146.295
157.697
146.201
146.201
200.515
146.58
339.587
146.201
146.22
146.201
146.432
1984.81
146.201
2007.52
146.211
146.201
2120.5
146.211
146.201
146.375
2123.56
146.202
146.261
2105.02
146.204
146.268
2038.06
146.237
146.208
146.253
146.265
147.304
146.231
595.936
146.201
146.201
146.375
146.202
146.362
175.472
146.201
146.215
146.243
175.35
146.313
146.201
146.231
146.201
146.238
146.201
210.28
4845.08
146.26
153.86
189.067
4989.35
146.201
146.417
7160.67
146.201
176.639
146.301
146.361
146.201
210.249
146.201
146.201
146.231
146.201
425.852
146.226
146.221
2078.82
147.335
146.201
146.225
146.226
146.204
146.201
146.201
146.215
146.221
146.228
146.203
147.1
6161.3
146.222
146.266
2424.11
146.271
146.354
146.221
146.837
146.5
146.215
146.231
146.848
146.23
146.924
519.454
146.231
146.211
146.228
146.232
146.799
146.201
146.453
146.229
146.22
146.505
146.375
5060.47
146.579
146.216
147.053
146.201
146.392
195.346
146.247
147.291
146.201
148.823
691.314
1313.89
146.195
146.201
146.201
147.053
146.266
148.862
146.213
147.442
147.383
146.372
146.201
439.786
166.619
146.217
2787.9
212.446
146.201
146.237
146.202
146.214
146.201
146.201
146.201
146.395
146.204
146.201
146.204
3471.72
146.201
146.255
146.201
146.734
146.458
146.224
146.309
146.201
146.208
146.23
146.202
146.201
146.201
146.213
146.201
146.223
146.221
250.325
146.201
146.542
146.265
1365.37
146.201
146.47
146.342
146.201
146.201
11542.6
146.201
146.205
146.201
146.201
146.201
146.221
146.201
146.201
146.201
146.201
146.48
168.858
146.201
146.208
146.201
146.35
146.326
146.201
146.201
5280.16
146.201
146.235
146.201
146.536
146.246
146.201
146.201
179.9
4549.91
146.209
146.226
146.201
146.201
146.233
146.547
146.201
146.487
146.241
146.447
146.201
146.282
146.235
373.285
1437.93
146.398
146.202
146.247
467.162
146.201
146.385
146.201
146.202
146.202
146.201
146.201
150.013
146.231
146.79
146.501
557.568
528.881
146.201
146.275
146.62
146.201
146.294
28878.4
146.201
156.719
146.837
146.203
146.232
146.202
146.261
146.287
146.212
146.206
146.205
146.201
146.215
150.113
146.236
146.355
146.202
146.223
146.352
441.929
146.207
146.234
146.224
463.847
1467.31
146.201
146.433
146.201
146.457
146.247
3295.43
146.27
146.557
146.237
146.208
146.201
146.201
1117.32
146.201
146.201
146.201
146.201
146.246
146.255
146.557
146.224
146.213
146.302
146.347
146.201
5253.19
147.076
146.2
146.499
146.201
146.201
146.201
4004.71
146.775
146.95
146.207
146.201
146.201
146.372
146.207
146.245
16727.5
146.155
146.201
146.251
2369.58
5320.58
146.205
146.201
16873.2
16295.9
146.28
11048.4
737.584
147.151
984.141
146.88
146.199
146.201
146.199
146.201
146.201
146.203
14297.3
7108.12
834.57
146.425
315.25
146.222
146.234
146.23
146.846
146.206
600.143
146.211
261.792
155.549
146.201
213.46
872.479
146.203
146.201
516.315
146.204
146.201
639.293
1357.14
146.201
146.201
146.201
146.231
146.219
146.201
146.201
201.238
1439.7
146.201
146.218
146.234
1499.35
151.622
146.201
146.201
146.201
659.883
146.201
146.422
146.733
146.201
146.329
146.201
146.201
2569
146.207
146.201
146.201
146.201
146.202
146.437
146.206
146.201
146.373
146.415
146.201
146.515
146.201
146.201
146.201
146.204
146.201
146.201
146.221
146.201
146.201
149.985
146.201
399.93
146.224
146.201
146.201
146.201
146.201
146.228
146.44
969.204
927.734
1222.85
146.315
268.728
146.206
933.839
1208.84
146.213
147.781
146.201
146.23
146.201
146.201
146.201
146.201
146.527
147.691
146.201
911.105
146.201
146.563
146.218
146.201
146.351
146.192
146.515
281.464
156.077
146.297
146.201
146.405
245.122
146.283
146.225
7561.54
146.224
7198.93
146.201
146.201
146.388
6062.49
9914.8
8274.98
6017.02
592.91
348.363
218.958
154.29
4977.61
146.201
146.279
146.198
146.19
146.213
425.14
146.228
146.246
402.677
239.865
146.206
352.548
146.516
146.201
146.201
146.201
146.922
146.886
146.276
146.201
146.886
2547.31
146.276
312.083
146.702
146.394
146.006
146.201
146.34
146.266
146.227
146.201
146.345
146.575
146.201
146.201
146.151
146.2
146.201
164.769
146.351
146.332
149.692
146.248
287.57
146.534
146.629
146.211
146.62
146.827
146.793
146.259
146.201
146.695
146.244
146.571
146.541
146.244
146.547
146.231
146.25
291.523
146.201
146.458
146.433
146.201
146.823
146.201
146.201
146.201
146.433
146.209
146.233
146.201
146.201
146.557
146.431
146.522
146.208
146.201
146.559
147.231
1921.83
146.201
218.776
13685
204.329
146.816
146.202
562.372
146.201
146.239
146.201
146.201
146.205
146.201
146.201
147.175
146.201
146.478
146.201
146.201
146.2
146.201
146.203
146.226
147.4
146.201
146.201
1590.36
146.293
146.84
146.255
146.201
1986.31
146.203
146.201
146.201
146.836
146.261
146.201
146.23
146.421
146.32
146.201
146.487
146.201
146.201
146.201
146.201
146.201
146.319
146.212
146.48
146.201
146.402
146.201
146.584
146.201
146.244
146.201
146.454
146.297
146.297
146.301
146.202
146.368
146.224
146.201
146.201
146.201
146.202
184.704
146.201
146.201
146.201
146.322
146.203
155.517
146.201
146.201
146.263
146.272
146.201
146.202
146.201
146.215
146.201
146.201
146.201
221.317
146.201
146.201
146.201
146.201
146.201
146.201
4602.14
146.235
146.211
146.21
146.201
149.048
146.201
190.579
146.26
146.224
146.59
146.201
146.201
146.201
146.35
165.984
146.201
146.201
177.202
146.201
146.201
146.201
146.201
146.254
146.409
2486.66
146.201
146.201
146.201
178.523
164.287
171.458
146.352
152.459
519.584
146.201
146.202
146.441
184.869
146.201
146.25
146.201
146.202
223.761
146.201
146.201
146.253
146.378
146.298
152.349
146.646
146.201
147.012
146.71
146.201
146.235
146.201
146.201
146.201
146.201
146.201
241.929
146.201
351.001
149.314
163.704
146.8
659.223
146.326
146.201
146.219
146.202
146.235
146.201
146.201
146.201
146.287
200.418
156.121
146.208
146.233
146.2
445.559
146.299
147.397
146.392
146.201
146.685
146.201
146.201
146.2
355.24
555.449
710.93
146.201
542.631
146.201
146.208
146.201
146.224
146.201
2552.96
146.353
146.201
146.201
146.38
152.722
146.201
147.975
146.201
146.201
9707.24
146.201
194.539
146.201
146.321
146.202
146.201
146.202
146.201
146.278
146.201
478.826
146.192
146.248
146.202
146.451
169.532
146.201
146.201
146.201
8364.48
146.26
147.362
2182.39
182.657
146.201
276.085
146.779
146.201
146.219
4482.85
146.44
146.201
827.309
887.7
146.202
146.457
146.201
1117.53
146.201
146.201
146.201
146.225
4427.43
146.225
8521.18
146.257
146.604
146.223
146.201
146.232
146.223
146.252
146.2
146.199
146.339
493.85
358.404
317.37
404.614
160.369
421.177
146.262
146.201
146.201
323.555
785.017
2078.68
326.996
146.534
193.412
435.773
5725.31
1374.04
146.201
953.909
5076.85
359.338
146.201
148.007
170.249
356.266
1363.86
172.058
146.645
1997.14
146.203
1194.8
146.268
159.711
146.481
2533.1
5060.4
146.201
146.202
146.679
375.728
146.338
146.372
146.201
146.201
4362.65
146.239
146.794
146.461
146.201
146.544
146.201
36947.7
151.18
146.201
146.299
3593.7
146.326
265.159
1551.78
5878.24
146.283
146.201
146.164
568.399
146.201
146.201
146.204
146.278
146.455
4892.9
207.314
146.205
239.997
147.324
146.201
146.201
5876.69
146.203
146.458
147.045
146.201
146.201
146.234
162.788
155.571
903.814
146.332
146.56
146.201
205.097
23538.1
146.42
2310.8
146.201
146.227
146.201
199.094
146.201
4057.43
151.928
146.201
2064.12
146.201
146.201
146.64
146.243
147.291
146.221
247.921
742.979
146.201
146.2
146.336
4475.03
146.201
146.299
149.2
146.201
146.283
146.223
146.201
146.207
146.201
146.206
146.205
146.202
146.201
146.463
146.489
146.201
232.666
10031.1
146.533
146.5
146.201
146.335
146.202
146.205
146.531
1996.28
2041.87
146.513
135.873
147.379
146.242
146.664
560.506
147.045
147.166
146.587
146.204
146.853
146.205
146.206
146.201
146.214
147.173
146.445
1558.18
146.201
146.224
146.211
744.56
822.25
146.201
146.874
147.556
146.24
147.459
148.468
146.201
146.201
147.917
146.569
146.201
146.201
146.201
146.201
146.486
146.201
3676.59
350.057
149.527
146.859
146.299
146.315
146.382
146.201
146.201
221.453
146.201
146.201
146.201
302.481
146.36
4705.52
146.576
146.507
146.447
232.419
146.456
146.562
146.205
146.399
146.875
161.369
146.922
146.224
146.215
146.298
267.967
146.201
149.037
392.262
146.428
147.748
146.217
146.235
150.421
158.256
146.401
146.661
146.473
146.808
146.2
147.136
146.534
149.144
146.201
146.201
305.249
146.283
146.201
146.184
146.583
1313.05
146.718
146.3
146.201
146.941
146.458
146.201
146.201
146.201
5158.09
149.183
31932
146.901
146.201
1339.13
1334.59
146.318
146.201
146.485
146.267
147.99
146.222
1488.31
146.204
146.472
146.27
1388.74
146.195
146.196
146.201
146.201
929.96
1551.76
146.302
1394.84
146.317
146.209
146.201
146.201
146.201
1447.85
146.437
146.201
146.201
146.356
146.202
146.202
146.399
146.201
146.203
146.508
146.209
146.314
146.223
146.201
146.201
146.682
146.201
146.201
351.687
146.211
146.431
146.201
146.2
4828.64
146.201
220.757
146.448
150.571
146.201
146.201
146.23
146.199
146.201
146.581
146.444
146.663
1265.18
146.204
146.205
146.235
146.201
146.309
146.201
146.203
146.409
146.307
146.201
146.322
146.201
146.261
2619.31
317.016
146.515
146.514
146.231
146.202
881.732
146.316
765.017
146.571
146.518
146.202
146.201
146.201
146.201
146.32
146.202
146.229
148.257
146.242
146.201
146.201
146.428
146.211
146.235
146.201
146.201
146.206
146.38
146.229
146.339
146.202
146.201
146.229
146.23
146.294
146.201
146.455
146.201
146.317
146.201
146.424
146.337
146.428
146.231
146.279
147.655
146.231
146.724
266.524
146.202
4370.72
146.201
146.946
146.201
147.321
146.786
147.315
1382.83
146.203
146.201
146.201
215.46
6055.89
146.201
147.376
146.494
2260.11
146.201
146.247
146.201
146.224
147.301
146.201
146.201
146.207
146.202
146.201
146.201
146.503
302.802
146.834
146.222
146.201
146.949
146.201
146.201
146.246
2159.76
146.237
146.201
146.201
156.11
146.254
146.201
146.201
406.788
146.644
614.891
146.201
146.677
146.227
146.201
146.202
146.201
146.201
146.207
146.425
146.201
146.201
146.202
146.202
146.215
146.196
146.201
146.201
146.201
146.201
146.205
146.201
146.201
146.201
146.201
146.197
146.429
147.121
146.664
146.201
146.201
146.2
146.2
146.433
146.2
146.205
146.348
146.2
146.217
146.2
146.417
146.201
146.201
146.216
146.2
146.201
146.335
146.201
146.351
146.343
147.767
146.201
146.201
146.3
146.201
146.201
146.201
146.201
146.199
146.201
146.201
146.232
146.405
146.258
345.904
376.608
146.201
146.297
146.201
146.201
146.2
146.201
146.201
146.201
298.751
188.763
146.198
202.512
148.277
146.201
291.53
321.831
147.053
146.466
149.811
147.689
146.2
146.201
146.527
146.201
205.161
146.201
205.542
146.201
146.201
146.201
146.563
146.593
146.644
146.309
146.201
146.201
146.201
146.2
146.201
146.199
146.201
146.199
146.201
146.797
146.201
146.275
146.308
146.201
146.201
146.201
146.2
146.541
146.355
146.529
146.811
146.479
146.202
146.201
146.237
147.375
146.201
148.604
146.372
146.202
146.201
146.475
146.312
146.201
146.286
146.246
146.325
146.277
146.201
146.279
4938.23
146.236
146.583
146.201
146.269
146.226
146.201
146.201
146.201
146.345
146.269
146.201
147.407
146.235
147.472
146.597
147.599
146.201
146.201
148.441
146.202
146.461
146.219
146.202
146.201
146.507
146.512
4023.64
146.543
146.212
344.925
146.201
146.208