/*--------------------------------*- C++ -*----------------------------------*\
| =========                 |                                                 |
| \\      /  F ield         | OpenFOAM: The Open Source CFD Toolbox           |
|  \\    /   O peration     | Version:  v2012                                 |
|   \\  /    A nd           | Website:  www.openfoam.com                      |
|    \\/     M anipulation  |                                                 |
\*---------------------------------------------------------------------------*/
FoamFile
{
    version     2.0;
    format      ascii;
    class       volScalarField;
    location    "3";
    object      ILambda_9_0;
}
// * * * * * * * * * * * * * * * * * * * * * * * * * * * * * * * * * * * * * //

dimensions      [1 0 -3 0 0 0 0];


internalField   nonuniform List<scalar> 
108993
(
146.201
199.2
146.201
146.201
146.201
146.201
208.104
146.201
146.201
146.213
146.201
146.201
146.201
146.201
146.201
146.201
146.227
146.201
146.201
154.377
146.201
146.201
146.285
146.201
146.201
146.2
146.201
147.308
206.751
146.201
146.201
146.201
146.201
146.201
146.201
146.201
146.201
146.201
283.187
2278.63
146.349
146.201
146.201
146.201
146.303
146.408
146.201
147.893
146.688
146.241
146.201
146.231
146.554
146.201
146.201
146.201
146.201
146.201
146.201
146.201
146.201
146.201
146.201
146.201
146.201
146.194
146.201
146.201
146.201
146.24
146.201
146.201
146.201
146.201
146.065
146.201
146.201
146.211
146.201
146.201
146.201
146.201
146.201
146.201
146.201
146.201
146.201
146.201
146.201
146.201
146.201
146.201
146.201
146.201
146.201
146.202
146.201
146.201
146.201
146.201
146.201
146.201
146.201
146.201
146.201
146.201
146.201
146.201
146.201
1025.81
146.319
146.201
146.391
146.357
146.201
248.504
146.201
146.201
146.246
146.201
146.201
146.201
146.262
146.201
146.201
146.209
146.345
146.201
146.201
146.201
146.201
146.201
146.201
146.434
146.201
146.201
146.201
146.201
146.201
146.201
146.201
146.201
146.218
146.201
146.201
146.201
146.201
147.673
146.201
780.336
813.438
146.201
146.201
1907.37
146.201
146.419
146.201
146.201
146.201
146.206
2130.25
146.201
146.201
146.201
146.201
146.273
146.201
146.201
146.201
146.201
146.201
146.201
146.215
146.201
152.403
146.2
150.015
146.201
146.201
146.201
146.204
146.201
146.201
146.201
146.201
146.201
146.201
146.201
146.201
146.201
146.201
146.201
146.201
158.324
146.201
146.201
146.346
146.201
146.201
146.201
146.201
146.859
146.201
146.201
146.673
146.515
146.201
302.737
146.201
394.819
146.216
146.201
152.693
165.573
136.825
146.201
146.201
146.201
146.201
146.201
146.209
481.76
146.203
146.776
146.201
146.201
146.201
146.201
146.31
146.201
182.902
146.201
146.201
146.314
146.201
146.201
146.201
146.201
146.266
146.201
146.201
146.201
146.201
146.201
146.201
146.204
190.596
146.296
146.201
146.201
146.201
146.201
146.201
146.201
146.201
146.201
146.201
146.201
146.201
146.201
146.201
146.075
146.271
146.212
146.201
146.201
146.201
150.214
146.201
146.201
146.201
146.201
146.446
168.925
148.24
146.201
146.201
146.289
146.201
146.2
146.213
146.89
146.849
146.201
146.201
146.21
146.201
146.269
146.201
147.233
146.201
146.201
146.303
146.201
146.201
146.201
146.201
146.201
146.226
146.201
146.324
147.039
146.201
146.201
146.201
146.364
146.202
146.197
146.371
146.536
146.201
146.201
146.231
146.201
146.424
147.175
146.201
146.241
148.106
146.201
161.278
146.201
150.694
151.566
146.201
937.515
156.587
146.772
146.201
146.201
146.201
146.571
148.376
146.201
147.863
146.201
146.201
146.201
146.201
146.201
146.201
146.419
146.422
146.201
146.201
146.201
146.201
146.201
146.201
146.201
146.201
146.201
146.739
147.503
146.206
146.201
146.201
2033.93
146.201
146.201
146.204
146.394
146.201
146.201
146.017
146.559
146.201
146.201
146.201
5667.74
146.201
146.207
146.201
2231.28
146.494
147.025
146.201
146.201
146.654
146.201
146.698
146.684
146.542
146.212
146.201
146.228
146.203
3523.48
146.202
150.565
146.697
146.219
146.728
146.201
146.307
146.378
436.333
146.201
146.226
146.201
146.385
146.302
146.314
146.201
146.202
146.216
146.24
146.201
146.201
164.881
146.201
146.205
13034.2
146.201
146.201
146.201
916.354
146.236
372.579
146.201
165.453
227.126
158.576
146.201
146.201
148.534
146.201
182.155
148.196
146.201
330.287
172.782
163.811
146.201
146.201
146.214
146.202
146.195
146.201
146.201
146.201
146.201
146.201
146.848
146.221
146.584
146.59
146.216
146.201
146.661
146.201
146.201
146.201
146.201
146.201
146.201
146.201
146.04
146.201
146.201
146.221
146.201
146.231
526.344
146.233
146.201
146.198
146.237
146.201
146.201
146.225
146.201
146.201
146.201
146.201
146.23
146.201
146.226
174.096
146.261
146.201
146.201
146.201
146.201
146.201
146.201
146.201
146.201
146.214
146.201
146.201
146.201
146.248
146.201
146.23
146.201
146.201
146.201
146.201
147.12
146.201
146.201
146.201
146.201
146.319
147.693
146.201
146.201
1762.55
146.201
146.219
146.587
146.201
146.21
146.201
146.201
146.201
146.201
162.314
146.443
146.203
146.203
148.915
146.381
146.309
146.261
146.308
146.201
146.259
146.405
224.295
146.201
146.26
146.201
146.201
146.201
146.541
146.201
146.213
146.71
146.201
147.148
146.201
146.201
146.201
146.201
146.201
146.257
146.201
146.201
146.305
218.487
147.328
146.201
146.201
146.201
146.201
146.542
2761.82
154.196
146.201
146.201
146.201
146.364
146.239
146.669
146.201
146.201
146.393
146.353
146.201
146.189
6999.46
146.238
151.436
146.457
146.201
146.251
148.395
346.271
146.204
146.201
146.201
146.201
146.201
146.378
146.407
146.243
146.201
146.201
146.363
146.201
171.962
146.201
171.711
146.201
146.201
146.201
146.324
146.215
146.201
146.201
138.456
146.247
146.201
146.201
152.738
146.201
146.227
146.201
146.444
146.201
146.229
146.201
146.299
146.201
146.209
146.201
989.166
146.201
146.312
146.201
146.201
979.247
274.452
146.201
146.201
146.352
167.973
146.209
149.058
146.063
146.559
169.94
146.205
146.201
146.201
4212.55
146.237
146.234
146.202
146.236
146.201
146.253
146.201
146.205
146.203
146.232
146.242
146.209
146.21
146.239
869.096
154.128
146.23
169.463
146.257
148.725
146.245
153.412
147.825
146.199
146.214
146.201
146.201
146.204
146.25
146.21
438.452
169.213
146.231
146.25
146.267
153.32
154.845
146.201
146.248
146.222
146.195
147.965
230.463
146.253
146.229
146.209
147.427
146.216
175.759
146.218
146.221
5222.36
146.201
146.201
146.238
146.207
149.364
26384.3
146.216
147.567
146.227
14561
146.578
146.201
146.201
146.201
146.26
146.201
146.282
146.439
146.201
146.201
146.47
146.929
553.537
146.201
10980.2
146.201
146.305
146.243
146.201
146.255
161.278
146.204
146.263
146.204
146.201
146.208
146.358
146.337
146.41
146.201
146.223
146.204
146.203
146.205
146.201
146.201
146.455
146.201
146.201
166.476
146.201
146.21
619.432
147.913
146.209
146.304
146.211
146.22
146.213
146.209
146.201
146.201
146.201
146.206
146.201
146.339
146.201
146.201
146.237
146.194
146.205
146.201
146.206
146.201
146.229
146.358
161.549
146.357
146.201
146.201
146.201
350.428
146.201
146.699
146.624
146.201
146.202
175.696
146.435
146.202
146.201
146.22
146.202
146.202
146.311
146.203
146.807
146.201
146.201
146.228
146.201
147.191
146.201
146.201
1275.88
146.214
222.222
146.503
147.17
146.201
146.463
146.215
146.201
146.201
146.21
146.201
146.201
146.201
146.201
146.201
146.201
146.353
146.201
146.229
146.201
146.253
146.415
146.201
5445.64
146.42
8151.41
146.207
146.201
146.22
4461.55
146.416
146.381
146.218
146.298
246.347
146.293
191.051
146.209
146.201
146.245
146.395
146.201
146.228
1739.46
146.201
146.201
146.204
239.941
146.203
146.396
146.225
146.202
146.201
227.194
146.201
233.668
146.201
227.157
146.201
146.163
146.252
146.241
146.558
146.201
146.235
146.233
146.239
146.362
347.26
146.201
146.201
146.201
146.266
146.222
146.249
146.201
146.201
146.23
143.276
146.201
146.242
146.256
186.225
146.555
146.405
149.106
366.889
146.652
146.472
146.264
147.9
146.201
147.355
149.567
1001.37
146.201
146.201
146.222
146.262
146.487
146.201
146.201
146.283
146.45
146.201
146.262
146.586
149.893
147.494
146.201
146.201
176.179
2388.99
146.16
217.056
146.201
146.201
146.27
146.306
197.105
146.201
169.153
146.212
146.274
199.778
146.201
146.237
146.262
200.529
146.201
146.22
146.198
146.304
146.244
146.201
146.303
146.201
146.223
146.332
146.235
146.283
146.201
146.684
146.201
661.633
146.517
146.201
146.201
146.51
146.252
146.201
146.224
623.947
146.258
146.633
146.197
146.266
146.425
146.907
146.201
146.211
156.882
146.285
146.216
146.267
146.201
146.401
185.603
146.238
146.249
146.256
146.241
146.249
146.248
146.577
146.256
150.439
146.224
146.201
175.178
146.263
146.201
146.201
146.201
146.26
146.201
146.201
146.201
177.265
146.201
146.201
155.606
146.834
146.201
146.201
146.214
146.201
941.435
146.201
146.201
190.118
146.201
181.982
5517.4
146.209
146.251
146.201
146.201
146.518
146.208
146.301
146.21
146.201
178.311
146.201
298.941
146.243
281.213
146.201
146.201
146.201
146.201
146.202
146.391
146.201
146.201
146.201
146.201
164.448
146.201
146.362
146.201
146.201
146.498
146.218
146.374
146.502
146.201
146.201
146.434
146.278
146.201
146.201
146.201
6689.79
146.202
146.289
146.201
146.208
146.202
146.201
146.836
146.421
146.229
146.302
4330.74
146.282
146.23
146.377
146.711
146.184
146.201
146.201
146.222
146.209
456.666
146.263
146.342
146.207
146.369
146.225
146.201
146.221
146.435
146.217
146.209
146.255
146.236
146.215
146.201
146.201
146.201
146.201
146.201
146.201
146.201
151.09
153.458
1450.03
146.203
146.201
146.201
146.216
146.693
146.201
146.203
146.201
146.233
146.201
146.23
3139.6
146.24
146.201
148.52
146.116
146.201
146.201
146.201
146.201
146.386
12318.6
146.241
146.201
146.201
146.201
146.202
146.202
146.201
146.202
146.201
146.201
146.201
146.201
146.201
146.201
146.201
146.201
146.201
146.201
146.202
146.201
146.22
146.526
146.363
147.749
146.201
146.201
146.202
146.201
146.202
146.201
153.923
146.201
146.201
146.276
146.203
146.351
150.04
153.533
146.201
146.201
147.64
155.398
146.201
146.201
146.201
146.394
146.201
146.201
236.602
146.201
146.201
146.201
146.201
146.201
146.221
146.204
213.716
229.165
146.344
146.253
146.237
146.702
154.131
146.203
146.201
146.098
524.344
146.201
146.22
146.237
146.222
146.22
4388.35
148.208
146.201
146.236
146.201
146.249
146.225
146.237
146.201
146.201
146.201
146.201
146.202
146.201
159.807
7783.82
146.216
146.201
146.201
146.215
149.193
146.201
149.268
146.201
147.042
4088.45
146.222
316.91
146.201
146.237
146.201
146.223
146.419
146.453
146.201
146.228
146.21
254.718
146.236
146.295
147.037
146.201
146.201
146.212
146.201
146.201
3084.28
146.201
146.201
146.201
146.843
146.201
146.201
146.437
146.201
146.364
798.871
146.201
146.345
146.201
146.258
146.201
146.201
146.201
146.424
146.201
146.541
146.238
146.201
1668.14
146.201
146.202
146.201
146.358
148.438
146.201
146.216
146.333
154.779
146.252
146.204
146.201
146.237
146.201
267.258
318.446
263.976
146.677
272.132
146.201
321.054
327.456
146.224
146.218
146.2
146.317
146.201
146.201
146.201
146.248
146.201
146.201
146.201
146.298
146.201
146.201
146.202
146.201
146.203
146.202
146.201
146.366
147.608
146.203
449.592
146.246
146.411
146.406
166.865
146.229
146.201
146.271
146.311
146.204
146.201
146.201
146.201
146.201
172.505
146.201
146.245
146.201
146.264
146.395
146.201
146.201
217.004
146.201
146.201
146.201
146.201
146.206
217.621
146.229
146.411
149.096
146.201
147.077
153.642
146.201
146.263
146.201
214.689
220.368
146.202
146.201
147.662
146.84
146.225
146.202
2722.96
146.412
146.201
146.201
146.201
146.202
146.202
146.37
511.447
146.201
146.201
146.201
146.221
221.741
146.201
146.201
1000.64
1362.47
146.227
146.201
146.497
152.845
146.215
146.205
146.201
146.375
146.201
146.234
146.203
146.221
5695.98
146.234
146.215
146.493
365.174
146.217
146.252
314.255
146.21
146.201
146.217
146.277
146.233
146.201
146.21
146.265
146.285
150.802
146.21
146.211
147.788
146.205
146.196
151.633
146.205
146.201
146.205
146.201
300.093
146.201
146.201
147.146
146.207
147.204
146.205
439.173
146.205
146.216
157.607
146.215
146.217
146.92
146.231
146.392
146.406
146.201
146.199
146.201
147.842
146.248
146.201
146.245
146.201
146.273
148.245
155.723
146.222
3506.51
146.201
26912.7
146.201
146.201
146.76
146.201
146.201
146.201
146.201
146.014
147.228
929.02
146.289
229.323
146.592
146.201
146.197
146.236
146.728
146.201
359.234
146.239
146.201
146.201
146.201
146.264
146.201
146.201
146.43
146.201
146.201
146.201
146.531
2051.93
146.449
175.201
1578.78
146.201
146.203
924.716
146.201
146.201
146.148
151.798
213.487
153.753
7504.96
146.201
146.201
4921.8
146.201
146.202
146.201
146.201
146.203
146.201
146.202
146.201
146.202
12479.8
146.227
146.202
146.309
146.319
146.201
146.259
146.201
146.201
146.201
146.201
146.201
146.201
146.369
146.201
146.228
146.281
146.735
146.548
145.919
146.201
148.239
346.19
146.201
146.242
146.201
146.201
146.259
514.501
146.766
146.556
146.201
3449.3
208.652
210.386
146.201
153.348
146.261
146.256
353.835
146.244
147.07
146.253
146.203
146.248
146.27
146.248
146.26
175.257
146.285
146.262
855.897
174.823
147.05
146.201
146.201
2877.55
146.201
146.067
166.007
146.201
2172.2
146.259
146.201
146.201
146.201
146.201
146.259
146.375
2869.56
146.405
243.74
146.201
146.392
146.298
146.51
146.201
146.473
146.201
146.201
146.283
146.201
146.458
146.201
146.201
146.209
147.059
146.292
146.217
146.98
146.25
157.653
234.092
146.201
146.201
261.25
146.201
146.201
146.201
155.114
146.637
146.675
150.845
3098.15
146.21
146.201
146.291
147.136
146.363
498.738
146.203
146.221
146.201
147.895
146.464
260.331
146.201
146.201
146.201
146.201
493.04
146.201
146.277
146.201
606.124
147.216
146.201
146.223
3961.61
147.294
654.698
146.924
146.201
638.339
2197.37
146.201
146.462
146.312
146.234
146.305
146.201
146.29
7357.42
155.604
146.304
3293.47
146.279
146.284
146.201
148.119
12549.4
146.235
527.34
146.204
146.213
146.238
146.202
4707.47
146.249
146.218
154.022
187.525
225.035
177.914
152.679
146.48
146.201
146.201
146.201
147.783
146.201
449.593
265.288
146.219
12391.1
146.212
146.201
146.229
148.635
503.374
146.212
146.22
194.133
3714.35
12331.7
146.442
146.201
759.418
146.078
146.201
146.201
568.307
146.203
150.424
146.211
146.876
148.229
340.333
146.202
146.27
146.22
149.73
146.201
146.201
146.201
146.201
146.219
169.573
459.802
148.033
146.217
19619.3
146.462
4037.48
146.205
146.292
308.596
19311.2
146.309
146.201
146.201
146.201
146.201
146.201
146.206
146.242
146.35
212.549
146.341
146.326
1335.15
236.299
147.385
156.067
146.201
11477.7
150.893
146.201
146.201
4262.54
1351.41
146.201
146.202
146.201
146.5
146.201
10791.5
11863.8
5517.66
5371.55
146.201
4741.12
146.808
146.201
146.291
146.201
146.227
153.089
146.214
146.216
8934.38
146.505
146.201
146.229
146.201
146.201
146.195
146.348
146.2
146.434
146.971
146.818
196.219
146.482
146.354
182.5
146.201
146.201
146.201
472.189
147.708
146.201
146.201
463.111
146.201
146.201
146.201
146.201
166.944
147.265
237.78
233.98
203.907
146.201
149.895
146.201
146.493
146.818
146.201
146.648
146.201
146.201
147.736
146.201
145.953
147.092
146.647
147.291
147.265
146.201
146.516
146.255
510.724
146.504
146.216
146.833
147.117
149.869
324.338
146.204
146.203
146.835
145.818
146.499
147.712
146.421
147.132
146.2
146.201
19306.6
147.357
146.414
179.723
146.771
147.548
1612.27
146.201
177.908
146.063
147.423
146.201
162.646
237.725
146.201
260.037
146.201
146.761
147.141
146.198
146.201
146.94
146.201
146.201
146.201
146.201
146.337
145.991
147.281
146.862
146.201
146.201
5407.44
146.503
146.201
146.232
146.201
146.201
146.194
146.201
146.288
146.29
807.461
146.201
146.201
152.069
146.201
147.899
2504.01
146.201
146.201
146.381
146.237
592.123
146.201
146.199
146.201
146.201
146.201
435.096
3867.4
146.373
146.232
7513.69
146.375
146.252
146.201
146.371
146.201
261.257
587.539
146.201
146.201
146.187
146.335
343.208
146.201
146.476
146.219
146.201
146.242
146.209
146.201
146.305
146.201
149.21
146.201
146.201
146.168
146.179
146.201
147.748
155.377
146.201
146.201
2589.46
146.201
147.772
146.203
146.201
487.933
556.839
177.636
162.014
146.201
146.234
151.052
146.201
147.61
146.201
163.974
248.374
146.201
7080.45
147.298
1359.5
253.685
2611.25
146.207
146.201
146.199
146.226
146.226
146.213
2661.32
146.201
146.222
146.201
146.263
147.553
149.229
146.201
146.354
147.189
146.201
176.428
146.201
146.201
146.2
147.48
401.847
172.16
146.201
146.197
146.201
1986.6
160.202
464.567
146.201
146.201
166.829
201.729
146.201
146.201
660.611
146.201
146.201
160.177
147.491
146.314
146.463
146.201
222.346
3699.39
185.962
552.178
146.443
22049.4
147.231
146.236
2984.67
811.265
20951.6
24961.6
18867.6
17154.5
146.201
19360.6
517.058
401.368
146.201
2102.65
44459.8
146.201
146.892
27214.8
146.201
14599.5
146.201
217.012
291.435
146.618
222.84
147.704
146.201
146.201
146.096
146.201
1686.75
146.2
280.422
146.248
145.95
145.936
146.015
146.201
146.201
146.201
146.32
146.181
147.508
146.201
166.59
145.926
146.409
146.201
146.255
355.493
146.022
146.014
146.201
146.201
146.225
321.553
278.96
147.469
146.431
146.369
146.419
146.199
146.236
146.217
146.547
146.201
146.546
146.278
276.939
146.522
146.493
146.414
146.322
146.214
146.205
146.581
146.209
146.274
160.876
146.355
2512.12
146.349
146.219
146.353
1752.65
146.201
146.375
146.496
146.422
146.532
146.505
242.11
146.281
265.28
146.352
146.201
146.209
181.759
146.201
150.806
146.288
146.271
146.201
146.201
146.275
146.243
146.252
146.439
146.198
146.201
146.981
226.149
146.063
207.393
230.99
146.202
146.271
146.209
146.227
234.664
146.232
146.445
146.277
146.201
236.453
146.227
146.201
146.202
146.202
146.201
146.201
146.201
146.201
146.202
188.282
146.244
146.201
146.293
146.202
146.257
146.769
146.201
146.201
146.65
146.504
146.201
146.237
146.201
146.113
146.277
146.427
146.201
146.271
146.406
146.201
146.201
146.201
146.202
146.201
146.228
146.237
158.658
146.375
148.251
146.234
146.229
146.257
146.422
149.432
146.237
146.203
146.575
146.262
150.079
146.201
146.259
146.203
146.248
146.337
146.237
146.358
146.427
146.228
146.565
146.201
146.266
146.201
146.227
146.244
146.25
146.497
146.228
146.539
146.223
146.627
146.228
146.206
146.201
146.26
146.222
146.206
146.201
146.201
146.243
146.231
146.282
146.222
146.201
146.201
146.229
146.221
147.492
146.201
146.213
146.203
146.201
146.35
146.201
146.573
146.202
146.202
146.201
146.201
146.232
146.201
146.201
146.201
146.213
146.201
146.201
146.556
146.201
146.253
14992.2
146.201
146.358
146.216
146.201
146.201
165.39
146.201
146.201
146.394
146.247
146.225
146.201
146.205
146.201
146.217
146.247
146.201
146.201
146.21
146.201
146.201
146.397
146.201
146.23
146.213
146.195
146.201
146.205
2655.32
146.927
146.201
146.201
146.201
146.201
146.387
146.461
146.201
146.201
146.203
146.746
146.201
146.201
146.201
223.503
146.229
146.249
147.584
146.212
146.202
146.449
146.242
146.226
146.483
746.463
146.542
146.201
146.66
150.301
146.201
146.201
162.16
146.568
346.349
146.201
146.224
146.201
146.398
2125.71
146.201
2400.87
146.212
146.201
2147.93
146.208
146.201
169.04
2198.61
146.202
146.251
2133.14
146.204
146.215
2352.87
146.221
146.216
179.994
146.239
146.898
146.22
1020.82
146.201
146.201
146.34
146.214
146.34
146.251
146.201
146.201
152.046
146.252
183.478
146.262
146.556
146.201
146.244
146.207
146.36
6919.36
146.328
146.233
146.333
7336.47
146.201
146.432
1350.79
146.201
146.268
146.3
146.321
146.201
146.365
146.201
146.201
146.203
146.201
392.442
146.219
146.216
5083.21
160.451
146.201
146.217
146.218
146.201
146.201
146.226
146.23
146.205
146.252
146.201
146.699
4133.5
146.216
146.311
3523.87
146.239
159.904
146.216
146.409
146.387
146.231
146.23
152.006
146.214
165.855
166.21
146.234
146.215
146.211
146.234
150.443
146.201
146.51
146.234
146.218
146.362
146.383
1541.6
146.338
146.189
147.012
146.335
161.849
204.105
146.125
146.994
146.201
7774.25
1251.55
1700.77
146.198
146.201
146.201
147.016
146.26
6579.65
146.202
147.065
147.054
146.265
146.201
17087.8
155.984
146.229
9794.95
204.848
146.201
146.268
146.201
146.236
146.204
146.201
146.201
253.081
146.204
146.201
146.201
1231.27
146.201
146.236
146.201
146.406
146.418
146.35
146.319
146.201
146.202
146.233
146.202
146.201
146.201
146.205
146.201
146.234
146.213
93.716
146.201
146.35
146.258
210.914
146.201
146.477
146.302
146.201
146.201
4741.13
146.201
146.208
146.201
146.201
146.201
146.222
146.201
146.201
146.201
146.201
146.309
585.51
146.201
146.206
146.201
146.264
146.307
146.201
146.201
190.409
146.201
146.233
146.201
146.536
146.293
146.201
146.201
146.433
631.045
146.098
146.232
146.201
146.166
146.245
146.516
146.201
147.296
146.224
154.016
146.201
146.344
146.246
327.781
459.683
196.094
146.353
146.254
279.78
146.201
146.198
146.201
146.201
146.201
146.201
146.201
161.188
146.235
146.2
146.37
449.402
154.301
146.201
146.298
148.867
146.237
146.313
3324.07
146.201
171.11
169.314
146.203
146.523
146.203
146.295
146.303
146.264
146.243
146.483
146.201
146.245
287.19
146.254
146.257
146.206
146.178
147.576
423.851
146.234
146.516
146.14
159.859
625.528
146.201
146.398
146.209
146.941
146.268
4115.45
146.412
146.519
146.239
146.21
146.201
146.201
1386.71
146.201
146.201
146.201
146.201
146.215
146.204
146.201
146.224
146.213
146.419
146.435
146.201
371.544
149.698
146.201
146.345
146.201
146.201
146.201
160.587
146.305
146.428
146.201
146.201
146.201
181.217
146.215
146.205
14732.7
146.187
146.201
146.303
1868.29
1124.54
146.206
146.201
22897.4
18580.2
146.231
15095.7
338.532
204.548
2548.96
152.534
146.177
146.201
146.184
146.201
146.201
146.201
9885.12
901.043
377.432
146.479
322.532
146.202
146.235
146.233
146.577
146.207
413.25
146.215
8470.35
163.394
146.201
183.208
395.262
146.202
146.201
148.505
146.202
146.201
672.782
1182.8
146.201
146.201
146.217
177.578
146.201
146.201
146.201
146.746
1486.58
146.201
146.205
146.231
347.653
146.454
146.201
146.201
146.201
218.862
146.201
179.938
146.378
146.201
296.948
146.201
146.201
1037.87
146.215
146.201
146.201
146.201
146.201
146.434
146.207
146.201
153.523
146.426
146.201
146.512
146.201
146.201
146.201
146.202
146.201
146.201
146.214
146.201
146.201
146.589
146.201
8991.1
146.218
146.201
146.201
146.201
146.201
146.22
146.246
12679.3
154.753
13678.2
146.333
197.102
146.209
11386.5
13578.5
146.213
179.23
146.201
146.22
146.201
146.201
146.201
146.201
146.436
616.273
146.201
529.188
146.203
146.431
146.215
146.201
146.447
146.192
146.314
146.932
153.151
151.981
146.201
170.175
147.466
146.201
146.222
7884.89
146.215
5607.93
146.201
146.201
149.282
3737.43
6250.14
6275.71
3508.08
498.345
334.091
169.649
147.208
6345.99
146.201
155.145
146.201
146.194
146.217
148.589
146.209
146.282
148.494
147.775
146.201
148.321
146.352
146.201
146.201
146.201
147.368
147.396
146.273
146.201
147.541
1871.21
146.641
157.584
146.562
146.293
147.7
146.201
146.243
148.992
146.216
146.201
244.004
146.558
146.201
146.201
147.524
146.18
146.201
8222.51
188.675
148.13
8212.68
189.939
202.724
146.414
146.504
146.216
146.496
146.932
147.259
146.451
146.201
146.582
146.216
146.458
146.416
146.257
146.512
146.233
146.251
228.395
146.201
146.355
146.531
146.201
146.711
146.201
146.201
146.201
146.511
146.397
146.236
146.201
146.201
146.553
146.504
146.637
146.206
146.201
146.361
146.707
2067.68
146.201
146.955
8467.03
210.146
146.586
146.202
166.777
146.201
146.201
146.201
146.201
146.166
146.264
146.201
146.675
146.061
146.31
146.201
146.201
146.201
146.201
146.201
146.205
165.534
146.201
146.201
1349.62
150.099
146.676
146.27
146.201
208.772
146.203
146.201
146.201
146.611
146.245
146.201
146.23
146.412
146.426
146.201
146.338
146.201
146.201
146.201
146.201
146.201
146.432
146.207
146.405
146.201
154.26
146.201
161.313
146.201
146.202
146.329
146.328
146.423
146.424
146.425
146.213
146.265
146.442
146.201
146.201
146.201
146.201
147.2
146.201
146.201
146.201
146.423
146.201
180.653
146.201
146.201
189.095
146.261
146.201
146.202
146.201
146.201
146.201
146.201
146.201
352.946
146.201
146.201
146.201
146.201
146.201
146.201
338.066
146.253
146.209
146.201
146.201
204.365
146.201
295.324
146.291
146.234
146.365
146.201
146.201
146.201
223.022
147.4
146.201
146.201
147.449
146.201
146.201
146.201
146.201
146.208
146.505
1649.51
146.201
146.201
146.201
147.511
147.438
147.487
161.31
4138.1
496.681
146.338
146.201
237.668
147.506
146.201
179.687
146.201
146.508
178.084
146.201
146.201
146.134
146.798
291.827
221.024
154.205
146.2
156.451
146.86
146.204
146.247
146.204
146.201
146.204
146.205
146.231
149.116
146.212
425.035
164.914
269.599
163.989
500.385
166.773
146.212
145.994
146.215
146.246
146.213
146.204
146.205
182.091
10732.2
391.93
146.208
146.232
146.199
394.778
146.942
180.613
187.742
146.205
146.839
146.201
146.204
146.201
148.825
540.44
489.366
146.201
422.505
146.201
146.206
146.201
146.205
146.201
1531.22
146.423
146.201
146.201
146.229
383.527
146.201
197.503
146.207
146.201
612.069
146.201
198.877
146.207
146.433
146.202
146.201
146.202
146.201
196.89
146.202
418.368
146.2
146.21
146.202
146.408
146.691
146.201
146.202
146.201
5124.7
146.334
502.833
10503
427.484
146.201
147.515
202.636
146.202
146.355
1850.12
146.449
146.201
251.924
163.405
146.219
146.4
146.201
237.057
146.201
146.201
146.201
195.44
19497.4
196.457
40198.4
146.393
146.395
187.414
145.966
146.215
192.528
146.345
146.201
146.196
147.536
411.852
398.937
208.361
458.439
147.008
367.067
146.218
146.201
146.201
147.185
11124.8
2277.64
153.281
146.516
219.81
387.436
573.475
5161.04
146.201
289.11
1787.14
429.694
146.201
154.751
319.056
685.631
1066.79
280.456
150.288
1647.33
146.208
589.041
146.208
220.188
146.502
1693.99
2950.9
146.203
146.228
146.789
653.686
184.537
146.319
146.201
146.201
3483.61
146.202
146.127
147.656
146.201
146.419
146.201
48893.4
150.831
146.201
148.489
2575.27
197.612
334.008
6677.59
4830.12
222.291
146.201
146.198
147.572
146.201
146.201
146.209
146.21
147.208
2807.4
170.196
146.201
4056.21
165.952
146.201
146.238
3397.05
146.208
149.375
149.288
146.201
146.201
146.202
147.157
146.503
353.301
146.181
150.644
146.201
348.569
12568.4
146.372
168.133
146.201
146.202
146.201
146.418
146.201
5833.89
146.473
146.201
2001.73
146.201
146.201
160.743
146.201
198.299
146.203
147.125
152.619
146.201
146.201
146.258
16051.8
146.201
146.495
148.044
146.201
146.882
146.212
146.201
146.201
146.201
146.201
146.201
146.207
146.201
147.185
146.296
146.201
147.308
9994.24
147.175
146.29
146.201
146.3
146.385
146.201
146.346
295.576
2000.47
146.347
834.752
4869.59
146.116
146.578
379.817
157.892
188.327
146.358
146.422
215.436
146.201
146.201
146.201
146.23
146.773
146.509
1799.28
146.201
146.199
146.166
148.491
868.874
146.201
215.021
147.88
146.245
219.598
359.683
146.201
146.202
292.592
154.945
146.201
146.201
146.201
146.201
146.378
146.201
808.661
148.032
3478.15
146.9
147.427
146.252
146.146
146.201
146.201
7638.81
146.201
146.201
146.201
7987.17
146.635
2451.61
146.512
146.413
146.437
184.954
154.779
146.557
146.135
146.181
146.413
532.208
146.601
146.401
147.215
146.419
342.543
146.218
644.533
363.321
146.271
147.93
146.068
146.177
753.98
151.476
224.03
146.517
146.795
146.655
146.201
147.146
146.411
2161.05
146.201
146.201
173.937
146.298
146.201
146.196
146.334
553.329
146.421
146.47
146.201
146.47
146.318
146.201
146.201
146.201
1899.56
761.437
31053.2
146.327
146.201
672.025
666.329
146.434
146.201
151.174
146.134
146.241
146.189
1383.28
146.201
179.688
146.369
791.307
146.201
146.194
146.201
146.2
159.962
683.013
145.966
819.203
206.757
146.205
146.201
146.203
146.201
864.54
146.257
146.201
146.201
146.25
146.248
146.358
225.522
146.201
146.201
146.364
146.417
147.1
146.109
146.201
146.201
146.381
146.201
146.201
2711.4
146.024
146.367
146.201
146.198
457.536
146.207
158.711
148.973
222.787
146.201
146.239
146.023
146.201
146.201
152.091
155.761
146.396
6883.72
146.174
146.206
146.502
146.201
211.747
146.196
145.898
160.257
217.62
146.462
199.698
146.2
146.266
1597.44
1801.38
146.406
177.354
146.46
146.476
564.117
196.557
10106.1
147.515
148.514
146.259
146.201
146.201
146.201
205.742
146.389
146.226
1049.86
146.108
146.201
146.204
155.814
146.394
146.425
146.204
146.213
146.183
146.296
146.225
146.261
146.511
146.201
146.227
146.228
146.252
146.501
146.292
146.227
146.359
146.064
146.311
146.497
177.561
146.229
146.393
3502.46
146.229
184.965
271.1
146.201
15748.1
146.201
157.981
146.201
223.287
146.734
222.764
892.789
146.201
146.201
146.211
330.77
1687.77
146.201
155.142
146.375
2058.72
146.201
152.597
146.201
146.224
146.555
146.201
146.217
146.24
146.203
146.216
146.201
146.333
4903.93
146.898
146.19
146.201
150.37
146.201
146.201
146.239
2060.9
146.235
146.201
146.201
1156.17
146.256
146.201
146.201
215.212
146.336
149.395
146.201
146.49
146.232
146.201
146.328
146.201
146.201
153.583
146.347
146.201
146.201
146.2
146.208
162.662
146.197
146.201
146.204
146.201
146.2
146.201
146.202
146.201
146.201
146.201
146.2
146.518
149.493
146.624
146.201
146.201
146.201
146.201
148.448
146.201
146.907
151.398
146.201
146.13
146.201
146.485
146.201
146.201
146.189
146.201
146.199
146.277
146.202
146.25
146.243
256.846
146.201
146.202
146.253
146.202
146.201
146.041
146.201
146.198
146.201
146.201
146.389
182.703
146.303
1389.22
760.185
146.201
146.299
146.207
146.201
146.201
146.201
146.055
146.201
147.71
6360.69
146.199
8250.85
146.164
146.201
21299.3
20655.6
146.201
146.476
187.05
146.201
146.201
146.201
187.168
146.201
9307.04
146.201
9128.23
145.887
146.201
146.204
146.371
146.375
146.377
146.055
146.202
146.201
146.201
146.194
146.201
146.201
146.201
146.201
146.201
146.42
146.201
146.24
146.27
146.072
146.196
146.201
146.127
146.55
146.27
146.446
146.201
177.17
146.23
146.201
146.323
146.201
146.202
146.201
146.355
146.28
146.201
165.395
146.305
146.201
146.41
146.312
194.305
146.236
146.203
146.235
1899.13
146.228
146.39
146.201
146.23
146.228
146.206
146.201
146.201
146.416
146.228
146.205
154.518
146.225
146.413
147.527
147.518
146.201
146.225
146.446
146.411
147.754
146.432
146.201
146.201
148.685
146.391