/*--------------------------------*- C++ -*----------------------------------*\
| =========                 |                                                 |
| \\      /  F ield         | OpenFOAM: The Open Source CFD Toolbox           |
|  \\    /   O peration     | Version:  v2012                                 |
|   \\  /    A nd           | Website:  www.openfoam.com                      |
|    \\/     M anipulation  |                                                 |
\*---------------------------------------------------------------------------*/
FoamFile
{
    version     2.0;
    format      ascii;
    class       volScalarField;
    location    "3";
    object      ILambda_4_0;
}
// * * * * * * * * * * * * * * * * * * * * * * * * * * * * * * * * * * * * * //

dimensions      [1 0 -3 0 0 0 0];


internalField   nonuniform List<scalar> 
108993
(
146.201
146.202
146.201
146.201
146.201
146.201
146.203
146.201
146.201
146.203
146.201
146.201
146.201
146.201
146.201
145.966
146.209
146.201
146.201
146.204
146.201
146.201
146.201
146.201
146.201
146.201
146.201
146.204
146.205
146.201
146.201
146.201
146.201
146.201
146.201
146.201
146.201
146.201
317.072
678.802
146.202
146.201
146.201
146.201
630.68
159.639
146.201
146.201
146.201
146.202
146.201
148.796
146.201
146.201
146.201
146.201
146.201
146.201
146.201
146.201
146.201
146.201
146.201
146.201
146.201
146.201
146.201
146.201
146.201
146.246
146.201
146.201
146.201
146.201
146.201
146.201
146.201
146.201
146.201
146.201
146.201
146.201
146.201
146.201
146.201
146.2
146.201
146.201
146.201
146.201
146.201
146.201
146.201
146.201
146.201
146.2
146.201
146.201
146.201
146.201
146.201
146.201
146.201
146.201
146.201
146.201
146.201
146.201
146.201
149.29
146.287
146.201
146.245
146.228
146.201
146.607
146.201
146.201
146.196
146.201
146.201
146.201
146.221
146.201
146.201
152.584
146.202
146.201
146.201
146.201
146.199
146.201
146.201
615.103
146.201
146.201
146.201
146.201
146.201
146.201
146.201
146.201
167.807
146.201
146.201
146.201
146.201
147.092
146.201
148.647
149.67
146.201
146.201
150.15
146.201
146.206
146.201
146.201
146.201
264.277
150.504
146.201
146.201
146.201
146.201
146.245
146.201
146.201
146.201
146.201
146.201
146.201
150.286
146.201
146.203
146.201
146.206
146.201
146.201
146.201
146.202
146.201
146.201
146.201
146.201
146.201
146.201
146.201
146.201
146.201
146.201
146.201
146.201
146.203
146.201
146.201
146.203
146.201
146.201
146.201
146.201
146.206
146.201
146.201
146.202
146.377
146.201
146.535
146.201
204.858
146.218
146.201
146.205
146.289
1785.86
146.201
146.201
146.201
146.201
146.201
146.201
148.047
146.201
146.202
146.201
146.201
146.201
146.201
523.446
146.201
289.085
146.201
146.201
146.201
146.201
146.201
146.201
146.201
146.295
146.201
146.201
146.201
146.201
146.201
146.201
146.094
146.288
146.223
146.201
146.201
146.201
146.201
146.201
146.201
146.201
146.201
146.201
146.201
146.201
146.201
146.201
146.201
146.067
189.826
146.201
146.201
146.201
146.201
146.201
146.201
146.201
146.201
146.229
392.985
146.948
146.201
146.201
146.222
146.201
146.201
146.201
239.577
318.849
146.201
146.201
146.068
146.201
146.201
146.201
147.131
146.201
146.201
146.201
146.201
146.201
146.201
146.201
146.201
146.222
146.201
146.24
146.982
146.201
146.201
146.201
146.201
146.201
146.201
146.201
146.229
146.201
146.201
146.202
146.201
146.201
146.643
146.201
146.196
152.532
146.201
146.205
146.201
146.201
146.201
146.201
1651.6
474.448
147.131
146.201
146.201
146.201
146.386
822.715
146.201
146.571
146.201
146.201
146.201
146.201
146.201
146.201
146.241
146.201
146.201
146.201
146.201
146.201
146.201
146.201
146.201
146.201
146.201
146.725
146.26
146.201
146.201
146.201
146.918
146.201
146.201
146.17
146.201
146.201
146.201
146.201
146.202
146.201
146.201
146.201
1037.53
146.201
146.151
146.201
193.592
146.202
186.749
146.201
146.201
147.917
146.201
149.271
148.713
146.202
145.957
146.201
146.203
146.202
2023.88
146.201
146.549
152.056
146.204
153.236
146.201
146.25
146.201
439.883
146.201
292.481
146.201
146.201
146.224
146.229
146.201
146.201
146.206
146.203
146.201
146.201
264.131
146.201
146.202
7274.68
146.201
146.201
146.201
186.071
146.265
146.292
146.201
278.972
146.203
270.817
146.201
146.201
234.797
146.201
146.318
300.41
146.201
381.572
557.292
326.174
146.201
146.201
146.203
146.201
146.201
146.201
146.201
146.201
146.201
146.201
146.201
146.414
146.203
146.203
150.308
146.201
146.201
146.198
146.201
146.201
146.201
146.201
146.201
146.201
146.201
146.201
146.201
146.217
146.201
146.218
146.693
146.251
146.201
146.201
146.218
146.201
146.201
146.239
146.201
146.201
146.201
146.201
224.548
146.201
146.216
146.43
155.883
146.201
146.201
146.201
146.201
146.201
146.201
146.201
146.201
162.74
146.201
146.201
146.201
333.001
146.201
766.183
146.201
146.201
146.201
146.201
146.201
146.201
146.201
146.201
146.201
657.116
146.349
146.201
146.201
1448.05
146.201
146.176
146.204
146.201
146.191
146.201
146.201
146.201
146.201
146.202
146.201
146.203
146.203
146.204
146.201
146.201
222.726
146.204
146.201
215.797
146.201
146.206
146.201
218.607
146.201
146.201
146.201
146.217
146.201
146.201
146.237
146.201
146.485
146.201
146.201
146.201
146.201
146.201
212.636
146.201
146.201
146.237
146.205
682.152
146.201
146.201
146.201
146.201
146.203
192.502
146.201
146.201
146.201
146.201
146.205
146.275
146.268
146.201
146.201
146.203
146.202
146.201
146.201
5093.87
146.312
146.521
146.204
146.201
146.282
350.813
146.204
146.199
146.201
146.201
146.201
146.201
967.448
323.481
146.345
146.2
146.201
146.204
146.201
146.203
146.201
448.993
146.201
146.201
146.201
146.202
146.277
146.201
146.201
1197.06
146.036
146.201
146.201
384.247
146.201
146.2
146.201
1394.05
146.2
216.444
146.201
146.205
146.201
146.168
146.201
146.509
146.201
146.122
146.201
146.201
146.965
146.206
146.201
146.201
146.225
1199.14
145.583
147.276
146.201
146.245
284.183
145.955
146.201
146.201
560.033
827.193
146.376
146.201
146.377
146.201
146.201
146.201
145.781
146.178
146.284
305.478
145.618
145.943
785.052
146.401
146.606
146.277
146.203
147.374
146.625
146.215
146.606
146.622
146.201
146.202
146.201
146.201
146.202
146.212
147.677
146.307
146.368
150.338
146.202
146.266
146.606
146.606
146.201
146.201
146.238
146.201
146.995
146.203
146.333
146.228
145.759
147.039
146.455
148.817
146.233
146.229
512.63
146.201
146.201
146.375
146.203
146.201
1171.69
146.21
146.376
146.207
1434.73
146.206
146.201
146.201
146.201
146.38
146.201
484.252
146.201
146.201
146.201
146.203
146.278
1890.52
146.201
1301.53
146.201
146.285
146.33
146.201
146.293
146.202
146.023
146.215
146.522
146.201
144.308
146.205
146.191
146.236
146.201
146.425
146.022
146.434
145.726
146.197
146.201
146.225
146.201
146.201
146.202
146.2
145.3
2173.63
146.51
146.196
146.205
146.197
146.178
146.197
146.206
146.201
146.201
146.201
146.2
146.201
146.205
146.201
146.199
224.719
146.201
146.2
146.201
146.2
146.2
146.205
146.201
146.202
146.247
146.201
146.201
146.2
146.212
146.201
146.285
146.324
146.201
146.2
538.084
146.243
146.201
146.201
374.065
146.198
146.197
146.205
146.202
146.204
146.201
146.201
146.204
146.201
151.605
146.201
146.201
1660.68
149.275
184.409
146.202
156.698
146.201
146.204
185.476
146.201
146.196
148.839
146.201
146.201
146.201
146.201
146.201
146.201
146.202
146.201
146.205
146.201
1433.4
146.201
146.201
637.992
146.201
390.838
146.203
146.201
146.161
3919.61
146.202
146.201
146.204
146.211
146.205
146.213
146.427
146.206
146.201
431.298
146.201
146.201
146.212
2558.1
146.201
146.201
146.195
146.204
146.201
146.201
146.211
146.199
146.201
13610.6
146.201
13725.1
146.201
13575.4
146.2
146.204
146.205
158.808
146.215
146.201
146.209
146.216
146.231
146.204
1726.75
146.201
146.201
146.198
375.992
146.043
168.246
146.201
146.201
260.508
208.621
146.201
146.282
244.923
146.224
146.202
146.222
146.668
1221.07
146.204
155.095
146.202
883.988
146.201
853.093
158.563
575.536
146.201
146.201
146.199
146.227
146.208
146.201
146.201
679.316
146.268
146.201
1275.02
146.203
146.201
947.911
146.201
146.201
710.556
879.053
146.201
146.204
146.201
146.201
146.105
146.234
717
146.201
836.226
146.211
145.939
146.204
146.2
146.102
146.204
146.204
146.201
146.19
146.201
146.244
146.201
146.201
146.223
146.201
174.685
769.707
146.098
146.096
146.201
148.402
146.201
479.497
146.201
146.201
146.201
146.211
146.251
146.201
146.209
652.951
146.257
146.277
146.201
146.128
146.236
146.747
146.201
146.212
146.428
146.083
146.213
146.108
146.201
146.25
147.355
146.26
146.271
147.342
146.204
156.974
146.201
146.203
147.802
146.879
146.207
146.201
146.203
150.349
146.201
146.201
146.201
148.627
146.201
146.201
146.201
146.203
146.201
146.201
146.202
154.418
146.201
146.199
146.204
146.201
184.508
146.201
146.201
146.204
146.201
146.203
1046.33
147.827
146.201
146.201
146.201
146.25
292.48
146.228
146.203
146.201
146.262
146.201
146.204
1017.08
146.206
146.201
146.201
146.201
146.201
146.14
146.204
146.2
146.201
146.201
146.201
146.31
146.201
146.204
146.201
146.201
146.204
184.636
146.202
146.202
146.201
146.201
146.204
146.208
146.201
146.201
146.201
2432.67
146.187
146.205
146.201
146.208
146.182
146.201
149.054
146.234
152.158
146.204
815.354
146.033
519.05
146.204
146.725
146.201
146.201
146.201
146.471
146.206
3366.16
156.108
146.201
146.198
146.202
146.225
146.2
146.22
146.258
146.21
146.201
1196.39
171.856
220.539
146.201
146.201
146.201
146.201
146.201
146.201
146.201
402.733
146.202
2191.66
146.202
146.201
146.201
239.695
633.105
146.201
146.202
146.201
146.183
146.201
146.165
148.639
231.399
146.201
146.262
146.201
146.201
146.201
146.201
146.201
146.201
11983
201.601
146.201
146.201
146.201
146.198
146.199
146.201
146.201
146.201
146.201
146.201
146.201
146.201
146.201
146.201
146.201
146.201
146.201
146.201
146.201
148.391
146.238
146.251
147.037
146.201
146.201
146.069
146.201
146.202
146.201
146.202
146.201
146.201
152.159
146.192
146.204
146.201
146.201
146.201
146.201
522.399
479.059
146.201
146.201
146.201
146.202
146.201
146.201
146.444
146.201
146.201
146.201
146.201
146.201
146.209
146.202
146.205
146.402
146.201
146.201
146.201
147.51
146.205
146.202
146.201
146.201
147.566
146.201
146.725
146.203
146.204
146.205
500.735
146.205
146.201
146.25
146.201
146.362
146.239
146.203
146.201
146.201
146.198
146.201
146.201
146.201
146.407
1044.12
146.216
146.201
146.201
146.217
146.201
146.201
146.201
146.201
146.201
910.207
146.229
146.302
146.201
328.768
146.201
146.284
146.262
146.201
146.201
146.239
146.186
146.207
146.262
146.226
146.762
146.201
146.201
146.202
146.201
146.201
4357.01
146.201
146.201
146.201
149.058
146.201
146.201
146.204
146.201
146.233
146.674
146.201
146.205
146.201
146.23
146.201
146.201
146.201
146.204
146.201
146.286
146.219
146.201
146.553
146.201
146.201
146.201
146.204
188.971
146.198
324.967
146.175
382.03
146.215
146.201
146.201
270.468
146.201
146.27
146.272
146.265
146.292
146.266
146.201
146.277
146.277
146.204
146.205
146.201
146.143
146.201
146.201
146.201
146.203
146.201
146.201
146.201
879.519
146.201
146.201
146.203
146.201
146.203
146.201
146.201
146.211
692.772
146.202
146.367
146.201
146.201
146.201
146.203
498.321
146.201
146.201
146.217
146.203
146.201
146.201
146.201
146.201
202.721
146.201
350.099
146.201
148.156
204.421
146.201
146.201
146.205
146.201
146.201
146.201
146.201
146.185
146.205
146.062
146.202
146.877
146.201
146.386
146.316
146.201
146.216
146.201
146.205
146.206
146.184
146.2
146.386
146.241
284.633
146.202
427.577
146.238
146.201
146.201
146.201
146.201
146.201
146.202
150.092
146.201
146.201
146.201
146.201
146.206
146.201
146.201
2319.28
2251.43
146.201
146.201
146.259
146.202
146.201
146.173
146.201
146.207
146.201
146.201
146.201
146.202
2236.45
153.232
146.201
146.268
146.209
146.201
764.909
177.67
146.201
146.201
146.202
146.219
289.504
146.201
146.201
146.243
146.223
146.313
146.201
146.202
146.401
146.204
146.201
146.396
146.203
146.201
146.205
146.196
279.954
146.201
146.201
927.065
146.203
147.162
146.205
147.295
146.203
145.98
146.579
146.201
145.942
339.615
146.203
146.203
155.684
146.201
146.201
146.201
146.958
146.411
146.201
146.216
146.201
146.238
146.806
153.957
146.203
1674.37
146.201
1066.02
146.201
146.201
146.201
146.201
146.201
146.201
146.201
146.201
146.238
148.34
146.234
146.209
146.201
146.201
146.201
146.201
146.201
146.201
360.92
146.762
146.201
146.201
146.201
146.231
146.201
146.201
146.251
146.201
146.201
146.201
146.203
1555.89
146.221
146.286
677.342
146.201
146.201
148.34
146.201
146.201
146.201
146.33
147.384
146.225
1451.15
146.201
146.201
21459.8
146.201
146.203
146.201
146.201
146.201
146.201
146.202
146.201
146.202
1546.09
581.599
146.203
146.224
1089.92
146.201
147.714
146.201
146.201
146.201
146.201
146.201
146.201
146.202
146.201
146.227
1398.39
146.442
146.288
146.201
146.201
904.959
148.035
146.201
146.22
146.201
146.201
146.237
146.378
318.2
146.242
146.201
2061.95
1011.76
148.277
146.201
146.246
146.254
146.227
146.489
146.203
479.464
146.228
146.203
146.233
146.225
146.239
146.234
146.21
146.227
146.203
146.469
485.45
461.981
146.201
146.201
2041.15
146.201
146.201
146.963
146.201
546.249
146.238
146.201
146.201
146.201
146.201
146.241
146.245
147.033
146.242
172.57
146.201
1216.93
146.229
146.202
146.201
146.201
146.201
146.201
146.201
146.201
146.204
146.201
146.201
146.416
192.762
146.234
278.798
825.113
818.907
146.202
146.235
146.201
146.201
146.207
146.201
146.201
146.201
146.252
193.49
146.207
345.434
1701
156.469
146.201
146.35
146.596
146.205
2114.99
146.201
146.205
146.201
147.377
146.202
146.209
146.201
146.201
146.201
146.201
543.133
146.201
146.376
146.201
2101.47
146.74
146.201
146.201
241.729
149.284
146.428
146.881
146.201
147.414
2849.88
146.201
146.201
146.246
340.631
146.37
146.201
146.389
162.171
146.358
146.35
260.124
146.229
146.394
146.201
1834.43
779.492
454.138
1676.69
146.202
146.205
146.248
146.197
1620.76
764.383
146.222
146.203
146.202
146.244
146.205
146.202
146.201
146.201
146.201
146.201
146.205
146.201
2375.33
1797.77
146.212
1074.73
146.202
146.201
264.632
155.491
147.485
168.629
260.249
146.451
878.274
17312.5
979.994
146.201
223.916
146.201
146.201
146.2
198.319
146.201
376.826
152.376
154.236
789.308
282.286
146.201
146.289
146.201
146.201
146.201
146.201
146.201
146.201
208.056
258.374
1371.39
1672
208.443
3588.01
146.203
151.724
146.196
786.418
295.268
721.866
146.201
146.201
146.201
146.201
146.201
146.201
247.884
146.207
146.204
797.184
146.257
146.116
200.877
342.709
2012.5
338.354
146.201
426.042
146.273
146.201
146.201
148.594
146.667
146.201
146.2
146.2
146.202
146.201
564.987
565.648
532.084
149.42
146.201
1001.89
146.215
146.201
148.987
146.201
146.21
1478.9
146.212
146.213
273.902
146.202
146.201
146.208
146.201
146.201
146.201
146.224
146.201
146.202
146.579
217.995
146.443
146.204
146.202
146.203
146.201
146.201
146.201
146.44
146.643
146.201
146.201
2114.37
146.201
146.201
146.201
146.201
146.318
147.13
3153.95
146.41
146.866
146.201
146.347
146.201
146.223
146.354
146.201
146.259
146.201
146.201
146.714
146.201
146.201
146.937
146.268
146.818
147.13
146.201
146.277
146.226
146.34
146.201
349.508
146.352
146.678
146.266
792.871
146.201
146.201
146.239
215.299
146.237
149.213
146.239
147.063
146.201
146.201
14188.7
146.542
146.255
146.437
146.276
202.734
1154.7
146.201
146.263
146.201
146.71
146.201
146.341
146.64
146.201
147.447
146.201
146.654
146.798
146.201
146.201
146.285
146.201
146.201
146.201
146.201
146.267
146.201
146.839
365.294
146.201
146.201
299.299
146.201
146.2
146.22
146.2
146.2
146.201
146.201
146.3
146.288
285.058
146.201
146.201
146.567
146.201
146.249
631.587
146.201
146.201
146.202
146.201
146.727
146.201
146.201
146.201
146.201
146.201
171.099
848.329
146.202
146.201
1856.09
146.202
146.243
146.201
146.241
146.201
172.296
146.354
146.201
146.201
146.201
146.922
146.66
146.201
146.231
146.202
146.201
147.192
146.212
146.201
146.204
146.201
146.64
146.201
146.201
146.201
146.201
146.201
146.317
224.907
146.201
146.201
146.696
146.201
146.209
146.201
146.201
2765.62
212.387
146.204
146.202
146.201
146.203
147.21
146.201
147.232
146.201
157.755
146.476
146.201
1409.24
146.571
1185.65
2947.05
146.836
146.201
146.201
146.201
146.259
146.21
257.742
146.943
146.201
151.404
146.201
157.314
146.807
146.614
146.201
166.063
146.224
146.201
159.635
146.201
146.201
146.201
147.109
146.397
146.293
146.201
146.201
146.201
363.94
146.201
949.601
146.201
146.201
147.071
167.022
146.201
146.201
2960.83
146.201
146.201
146.205
147.337
167.525
146.267
146.201
1154.53
1785.36
146.235
147.713
146.202
716.594
146.202
146.244
1254.21
1994.16
924
735.943
710.51
872.432
146.201
26594.2
146.884
147.946
146.201
535.256
1312.13
146.201
146.252
929.871
146.201
1233.53
146.201
336.173
146.387
224.549
146.371
146.393
146.201
146.201
146.201
146.201
10073.9
146.201
146.414
146.395
146.201
146.201
146.201
146.201
146.201
146.201
146.202
146.201
147.32
146.201
324.262
146.201
146.203
146.201
146.108
146.205
146.201
146.201
146.201
146.2
146.206
346.427
346.138
961.416
146.203
146.202
146.202
146.201
146.204
175.055
146.203
146.2
146.147
158.815
313.892
146.203
146.202
146.202
146.239
236.821
146.201
146.201
146.18
706.151
257.582
146.211
1347.66
146.202
146.21
1498.13
213.511
146.201
146.203
146.204
146.201
146.207
146.201
146.206
146.231
146.206
146.202
146.201
146.119
727.847
146.201
146.217
146.202
146.234
146.201
146.201
146.228
202.532
149.449
146.201
146.201
146.201
146.646
12722.2
146.201
146.17
12839.7
146.2
146.208
149.445
146.275
14161.8
146.202
146.202
146.217
146.201
14421
146.204
146.201
146.2
146.195
146.201
146.201
146.201
146.201
146.201
146.218
146.202
146.201
147.914
146.201
145.918
146.325
146.201
146.201
146.273
146.264
146.201
146.21
146.201
146.201
146.207
146.201
146.201
1374.34
146.201
146.201
146.201
146.201
146.176
146.201
316.66
1011.6
147.853
591.081
146.876
302.892
245.911
146.205
146.202
147.074
146.211
146.201
146.942
146.205
146.788
146.201
146.206
146.201
146.237
146.228
146.219
146.235
146.202
146.221
146.297
146.201
452.754
146.201
146.234
146.218
602.907
146.266
146.222
146.245
280.666
146.254
146.22
146.201
146.201
1416.04
146.204
146.164
146.197
146.2
146.221
146.202
145.973
173.468
146.201
146.201
146.202
146.032
146.222
146.201
146.216
146.201
146.201
146.209
146.201
146.206
146.201
146.194
146.2
146.201
146.209
146.201
146.201
146.201
145.942
146.201
146.201
226.689
146.201
146.448
789.066
146.201
146.201
146.206
146.201
146.201
146.202
146.201
146.201
1114.19
331.229
148.84
146.201
146.202
146.201
216.345
178.803
146.201
146.201
219.958
146.201
146.201
1036.32
146.201
146.274
149.163
146.201
146.201
264.252
1542.05
146.668
146.201
146.201
146.201
146.201
146.203
146.201
146.201
146.201
146.201
146.336
146.201
146.201
146.201
343.381
146.362
146.327
151.844
146.619
146.201
146.202
146.152
146.204
146.201
226.137
146.203
146.201
146.215
161.647
146.201
146.201
205.115
146.226
949.672
146.201
146.208
146.201
146.201
146.825
146.201
146.799
146.172
146.201
147.128
146.202
146.201
146.207
147.534
146.197
301.211
146.874
146.196
155.18
147.034
146.217
146.198
146.204
146.219
1115.91
146.217
781.701
146.201
146.201
146.24
146.201
146.231
146.209
146.201
146.201
146.202
146.209
146.202
146.202
146.203
146.201
146.208
146.201
146.208
928.291
146.201
146.215
146.208
953.021
146.201
146.211
2626.1
146.201
146.209
434.822
146.239
146.201
146.208
146.201
146.201
146.201
146.201
485.865
146.222
146.225
956.202
146.284
146.201
146.203
146.222
146.201
146.201
146.202
146.337
146.2
146.221
146.201
146.239
532.405
146.225
146.202
677.996
146.397
146.205
146.225
383.961
148.632
146.269
364.905
146.211
186.382
146.203
152.502
146.27
161.908
149.32
146.253
146.236
146.201
146.204
146.266
146.208
146.204
1257.82
1706.76
146.213
146.201
392.585
146.202
146.202
389.241
146.201
640.505
146.201
209.36
368.624
1453.13
146.201
146.201
146.201
406.134
146.206
157.758
146.201
716.545
766.294
146.238
146.201
822.327
146.218
146.337
1200.18
248.786
146.2
164.209
146.201
145.977
146.201
146.201
146.201
146.204
146.196
146.201
146.201
10857.3
146.201
146.198
146.201
146.226
146.24
146.201
146.303
146.201
146.201
145.858
146.202
146.201
146.201
146.201
146.201
146.229
146.201
2207.66
146.201
146.203
146.221
464.721
146.201
146.216
146.218
146.201
146.199
12399.4
146.201
146.174
146.201
146.201
146.201
146.053
146.201
146.2
146.201
146.201
147.908
1542.66
146.201
292.679
146.201
146.27
146.263
146.201
146.201
147.342
146.201
146.209
146.201
146.21
146.202
146.201
146.201
160.452
471.521
146.201
146.387
146.201
146.201
146.205
146.226
146.201
146.205
146.235
146.203
146.201
146.206
146.205
429.531
146.707
146.205
146.201
146.208
146.578
146.201
146.201
146.201
146.201
146.201
146.201
146.201
158.618
146.209
146.201
146.202
236.175
147.642
146.201
146.305
222.346
146.201
146.348
18495.8
146.201
158.943
146.42
146.202
146.203
146.203
146.255
146.339
146.202
146.202
146.202
146.201
146.203
146.204
280.112
146.208
146.005
146.201
146.202
168.6
146.203
146.203
146.201
146.552
150.925
146.201
146.201
146.201
146.203
146.25
813.67
146.201
146.223
146.208
161.471
146.201
146.201
3861.82
146.201
146.201
146.201
146.201
146.202
146.203
146.201
146.203
146.203
146.201
146.201
146.201
147.44
146.272
146.201
146.209
146.201
146.201
146.201
147.486
146.231
146.539
146.201
146.201
146.201
146.203
150.084
146.202
840.099
146.201
146.201
146.202
193.561
2537.7
154.949
146.201
796.555
784.229
160.819
658.54
344.018
146.203
146.857
146.298
146.201
146.201
146.201
146.201
146.201
146.201
2056.57
151.77
156.621
146.239
237.518
146.201
146.256
146.258
194.192
213.252
298.642
226.799
264.093
1707.69
146.201
146.436
156.873
146.201
146.201
363.344
146.2
146.201
403.056
161.818
146.201
146.201
146.201
146.203
146.201
146.201
146.201
146.21
3550.27
146.201
146.201
146.208
176.095
156.065
146.201
146.201
146.201
301.871
146.201
146.204
146.208
146.201
146.205
146.201
146.201
147.187
149.688
146.201
146.201
146.201
146.201
146.201
147.766
146.201
146.204
146.201
146.201
146.215
146.201
146.201
146.201
146.2
146.201
146.201
146.21
146.201
146.201
146.318
146.201
809.199
146.207
146.201
146.201
146.201
146.201
146.208
146.379
626.263
146.503
705.885
146.212
146.959
181.889
591.085
709.429
352.431
146.274
146.201
146.209
146.201
146.201
146.201
146.201
146.204
164.032
146.201
146.562
146.201
146.201
146.212
146.201
146.202
146.201
146.205
231.741
146.215
146.201
146.201
146.201
146.211
146.201
146.203
1045.39
146.212
672.276
146.201
146.201
146.204
422.515
797.781
725.416
236.953
678.745
146.21
165.581
146.239
788.054
146.201
146.205
146.201
146.201
146.263
146.569
151.031
146.241
146.598
146.579
146.201
146.577
826.566
146.201
146.201
146.201
443.938
146.967
146.229
146.201
697.317
149.531
146.231
641.431
146.44
1350.89
146.668
146.201
809.865
146.634
146.295
146.201
146.205
146.237
146.201
146.201
146.717
146.201
146.201
806.575
146.203
146.672
209.127
146.205
146.204
146.311
146.317
146.334
146.341
146.406
146.645
146.203
146.201
146.559
146.226
146.3
146.299
146.208
146.234
357.968
146.402
457.052
146.201
146.202
146.243
146.201
146.771
146.201
146.201
146.201
146.243
146.201
146.253
146.201
146.201
146.231
146.244
146.253
151.992
146.201
221.153
168.758
150.809
146.201
146.265
4528.15
148.664
211.01
146.201
146.402
146.201
146.201
146.201
146.201
146.201
146.202
146.201
172.226
146.201
146.202
146.201
146.201
146.201
146.201
146.201
152.034
146.211
146.201
146.201
146.937
146.203
146.629
146.162
146.201
146.829
146.201
146.201
146.201
146.627
146.201
146.201
146.271
146.201
146.201
146.201
146.203
146.201
146.201
146.201
146.201
146.201
146.201
146.202
146.23
146.201
146.202
146.201
146.262
146.201
146.202
146.202
493.405
146.201
146.201
146.201
146.201
146.23
146.202
146.201
146.201
146.201
146.201
147.194
146.201
146.201
146.201
146.201
146.201
146.211
146.201
146.201
146.203
146.179
146.201
146.192
146.201
146.201
146.201
146.201
146.201
146.206
146.201
146.201
146.201
146.2
146.201
146.2
158.521
146.186
146.203
146.201
146.201
146.206
146.201
146.204
146.308
146.235
146.214
146.201
146.201
146.201
146.206
147.139
146.2
146.201
147.202
146.2
146.201
146.201
146.201
146.201
146.201
1819.18
146.201
146.201
146.201
147.157
147.38
147.389
146.206
147.366
670.53
146.202
146.201
146.203
147.224
146.201
146.203
146.201
146.202
453.704
146.201
146.201
146.201
146.209
146.205
146.216
146.261
146.201
146.573
693.87
146.201
146.208
146.201
146.201
146.201
146.201
146.202
146.205
146.201
2245.92
151.966
280.683
1391.07
160.71
146.204
146.201
146.201
146.201
146.205
146.201
146.201
146.201
146.204
1051.23
146.204
151.102
146.324
146.201
147.8
146.251
146.278
146.205
146.201
146.231
146.201
146.201
146.201
146.306
157.452
152.292
146.201
147.878
146.201
146.201
146.201
149.196
146.201
147.234
146.268
146.201
146.201
1245.54
146.207
146.201
157.255
146.201
146.201
599.542
146.201
146.203
146.201
146.267
146.202
146.201
146.202
146.201
146.205
146.202
3124.44
146.201
146.207
146.202
146.201
146.253
146.201
146.201
146.201
523.447
146.202
146.507
517.224
146.326
146.201
147.226
146.31
146.201
146.201
160.184
146.271
146.201
146.415
298.13
146.201
146.201
146.201
146.47
146.201
146.201
146.201
146.204
706.741
146.204
1260.92
146.201
146.241
146.204
146.201
147.005
146.204
146.202
146.201
146.201
146.202
179.201
146.338
164.619
146.346
146.248
146.364
146.201
146.201
146.201
146.286
1150.8
147.581
146.214
146.202
252.757
146.359
219.078
360.511
146.201
2240.1
934.599
146.336
146.201
151.73
309.02
439.005
207.972
146.336
146.273
372.716
146.201
211.359
146.201
224.06
146.204
147.882
446.518
146.201
146.201
146.373
502.996
146.204
259.267
146.201
146.201
384.91
146.202
146.201
146.202
146.201
146.21
146.201
15766.7
180.653
146.201
146.201
362.731
146.205
3329.05
868.068
541.107
146.205
146.201
146.201
146.517
146.201
146.201
146.149
146.201
146.203
432.729
146.204
146.201
147.492
147.035
146.201
146.201
597.884
146.201
146.203
146.905
146.201
146.201
146.202
146.259
2714.56
146.505
146.201
146.203
146.201
146.313
2360.54
146.233
863.142
146.201
146.202
146.201
146.204
146.201
342.189
146.248
146.201
150.768
146.201
146.201
146.23
146.201
146.204
146.201
146.556
384.033
146.201
146.201
146.475
651.961
146.201
146.202
1775.6
146.201
146.201
146.204
146.201
146.201
146.201
146.201
146.201
146.203
146.201
146.203
1551.93
146.201
146.262
5053.05
146.27
1511.26
146.201
146.215
146.201
146.201
1442.53
147.004
148.625
1444.22
173.607
170.341
146.201
146.212
679.84
146.534
897.651
146.181
146.202
1033.99
146.201
146.201
146.201
146.457
175.067
146.201
146.967
146.201
146.201
146.201
147.359
146.472
146.201
1007.66
782.989
146.281
635.608
957.123
146.201
146.201
149.729
146.202
146.201
146.201
146.201
146.201
146.201
146.201
580.091
146.282
180.109
146.221
146.202
146.242
146.201
146.201
146.201
191.184
146.201
146.201
146.201
272.245
146.203
501.72
1007.71
271.722
146.264
146.32
146.205
965.41
146.201
146.201
146.206
1617.48
383.126
146.202
146.201
146.201
1090.39
146.201
928.356
368.458
1495.3
826.67
146.201
146.201
153.43
202.501
146.205
1011.11
146.237
146.208
146.201
879.311
146.203
191.93
146.191
146.201
146.217
146.204
146.201
146.201
146.187
146.685
646.392
146.202
146.178
146.347
1541.53
146.168
146.201
146.201
2455.53
157.414
6424.72
1478.25
146.199
146.72
146.69
146.201
146.196
146.205
146.201
146.201
146.201
1275.91
146.201
146.205
146.201
146.764
146.201
146.201
146.201
146.201
146.501
146.647
146.201
146.772
146.205
146.511
146.201
146.189
146.201
146.777
1482.25
146.201
146.201
146.356
146.204
146.202
146.206
146.201
146.201
1257.19
146.203
146.202
146.201
146.201
146.201
987.522
146.201
146.201
146.84
146.201
146.201
146.201
146.201
160.01
146.201
146.221
146.202
146.226
146.201
146.201
146.201
146.201
146.201
146.202
146.202
815.883
509.665
146.201
146.201
146.202
146.201
146.205
146.201
146.201
146.202
146.205
146.202
146.204
146.201
466.29
1835.9
146.608
146.202
159.891
146.202
146.201
709.56
146.204
1577.47
146.204
146.311
146.201
146.201
146.201
146.201
146.204
146.201
146.254
147.735
146.201
146.201
146.201
146.203
146.201
146.202
146.201
146.201
146.201
1093.25
146.246
804.957
146.201
146.201
146.266
146.266
548.969
146.202
146.204
146.201
146.205
146.201
146.219
146.202
146.202
146.255
146.253
158.655
146.25
1171.38
2313.08
146.201
1658.2
146.201
990.153
146.201
566.332
146.207
559.73
147.21
146.201
146.201
146.201
146.324
266.334
146.201
754.904
146.202
151.25
146.201
146.202
146.201
146.201
1084.16
146.201
146.202
146.201
146.201
146.202
146.201
1467.68
483.837
146.206
146.201
146.201
429.517
146.201
146.201
146.275
147.651
146.302
146.201
146.201
146.991
146.283
146.201
146.201
146.388
1566.96
146.369
146.201
1408.31
146.203
146.201
146.203
146.201
146.201
146.202
146.201
146.201
146.201
146.201
146.201
146.203
146.201
146.201
146.201
146.201
146.201
146.201
146.201
146.201
146.201
146.201
146.201
146.32
929.672
181.403
146.201
146.201
146.201
146.201
146.245
146.201
146.201
146.202
146.201
146.201
146.201
146.201
146.201
146.201
146.201
146.201
146.201
753.905
146.201
817.958
815.178
146.277
146.201
146.201
667.443
146.201
146.201
146.201
146.201
146.201
146.201
146.201
146.201
146.203
146.201
146.538
146.42
146.201
146.201
146.201
146.201
146.201
146.201
146.201
146.201
146.257
1177.01
146.201
1126.48
146.201
146.201
940.174
937.122
146.201
146.215
146.304
146.201
146.201
146.201
146.202
146.201
1045.97
146.201
1031.53
146.201
146.201
146.201
180.24
180.056
153.437
146.201
146.201
146.201
146.201
146.201
146.201
146.201
146.201
146.201
146.201
148.603
146.201
146.201
146.201
146.201
146.201
146.201
146.201
146.224
900.474
146.219
146.201
146.203
146.201
146.201
146.201
146.201
146.201
146.201
871.566
146.204
146.201
146.202
146.214
146.201
146.227
146.201
146.202
161.397
146.201
162.572
1654.61
146.206
146.204
146.201
146.563
146.206
146.201
146.201
146.201
146.201
146.255
146.203
146.201
146.204
146.321
1495.43
180.248
146.201
146.202
146.308
146.201
146.203
146.201
146.201
146.201