/*--------------------------------*- C++ -*----------------------------------*\
| =========                 |                                                 |
| \\      /  F ield         | OpenFOAM: The Open Source CFD Toolbox           |
|  \\    /   O peration     | Version:  v2012                                 |
|   \\  /    A nd           | Website:  www.openfoam.com                      |
|    \\/     M anipulation  |                                                 |
\*---------------------------------------------------------------------------*/
FoamFile
{
    version     2.0;
    format      ascii;
    class       volScalarField;
    location    "3";
    object      k;
}
// * * * * * * * * * * * * * * * * * * * * * * * * * * * * * * * * * * * * * //

dimensions      [0 2 -2 0 0 0 0];


internalField   nonuniform List<scalar> 
108993
(
8.09267e-05
7.62215e-05
9.04943e-05
7.84272e-05
7.70606e-05
6.57917e-05
7.45819e-05
7.3502e-05
7.86518e-05
7.5804e-05
7.78705e-05
7.74591e-05
7.63563e-05
7.40545e-05
7.53205e-05
7.41492e-05
8.15835e-05
7.56481e-05
7.53873e-05
7.60881e-05
0.000104586
8.15197e-05
7.29729e-05
7.88224e-05
8.12119e-05
7.53703e-05
0.000100357
7.70934e-05
7.9056e-05
6.87596e-05
8.33184e-05
7.76567e-05
0.000142747
7.81032e-05
0.000148244
7.71527e-05
7.98456e-05
8.66277e-05
0.269368
0.240274
7.94788e-05
7.86458e-05
7.56336e-05
0.000159854
7.72007e-05
0.0500582
0.000140666
0.000123034
8.25319e-05
7.73235e-05
8.01245e-05
0.000114042
7.63819e-05
7.89265e-05
7.76495e-05
7.81226e-05
8.93842e-05
7.62503e-05
7.31479e-05
7.91926e-05
7.73284e-05
7.8e-05
7.62351e-05
7.48799e-05
8.38714e-05
7.87421e-05
0.000108248
7.80763e-05
7.92375e-05
8.18981e-05
7.58765e-05
7.70171e-05
7.67043e-05
7.72406e-05
7.74537e-05
7.8961e-05
8.28885e-05
7.91087e-05
9.3596e-05
8.21264e-05
7.50426e-05
7.47323e-05
7.45132e-05
9.8463e-05
7.82216e-05
7.53084e-05
7.84923e-05
7.53608e-05
7.60207e-05
8.21692e-05
7.74812e-05
7.50226e-05
7.97677e-05
9.07898e-05
7.91791e-05
7.69407e-05
7.42386e-05
7.08005e-05
7.44041e-05
7.71997e-05
7.80904e-05
8.151e-05
7.88919e-05
7.81695e-05
7.25122e-05
8.65787e-05
7.81042e-05
0.000150242
8.06656e-05
0.0400487
8.31924e-05
7.95105e-05
0.000198315
7.78475e-05
7.70858e-05
0.00447211
7.47311e-05
7.35466e-05
8.56824e-05
7.69941e-05
7.59554e-05
7.73562e-05
0.000478429
7.01283e-05
9.14652e-05
7.65013e-05
7.76558e-05
7.46567e-05
7.94374e-05
8.58139e-05
7.5048e-05
8.00167e-05
7.84798e-05
0.00156638
7.70036e-05
7.32781e-05
7.65231e-05
7.37026e-05
7.5411e-05
7.54723e-05
7.24752e-05
7.74862e-05
0.000120632
7.69114e-05
7.812e-05
7.83838e-05
7.30929e-05
0.08189
7.53982e-05
0.000366327
0.000352467
7.28342e-05
7.46269e-05
0.000493642
7.58995e-05
7.63922e-05
7.89399e-05
8.41538e-05
0.000283198
0.000183548
0.000435974
0.000308316
7.88762e-05
7.72717e-05
7.58248e-05
8.34818e-05
7.62369e-05
7.86584e-05
7.98975e-05
7.84939e-05
7.77579e-05
7.7344e-05
8.7696e-05
7.68155e-05
8.41096e-05
7.54951e-05
0.0196254
7.41381e-05
7.71452e-05
8.02477e-05
7.45296e-05
7.35387e-05
9.3289e-05
5.20948e-05
7.89224e-05
7.65628e-05
9.39021e-05
7.69293e-05
7.64878e-05
5.56579e-05
7.66319e-05
9.38128e-05
7.45081e-05
0.000966998
7.71041e-05
7.64426e-05
7.87372e-05
7.6657e-05
7.71201e-05
5.66037e-05
7.76781e-05
0.00013491
0.000124355
8.20577e-05
7.83192e-05
0.0132837
7.67773e-05
0.000346824
7.65359e-05
0.0322613
8.30675e-05
9.30024e-05
0.0115598
0.0245695
0.180738
7.01284e-05
7.48103e-05
7.65483e-05
8.38866e-05
8.1283e-05
7.79413e-05
0.000368954
0.000160971
0.000580339
7.59269e-05
7.21354e-05
8.6446e-05
7.80498e-05
0.000570587
7.30239e-05
0.297576
7.67923e-05
7.49114e-05
7.66636e-05
7.57981e-05
7.9249e-05
7.77395e-05
7.64964e-05
7.74895e-05
8.68373e-05
7.88094e-05
7.70009e-05
6.88334e-05
8.65943e-05
8.60528e-05
7.90676e-05
0.0414217
0.000285525
9.23389e-05
7.82222e-05
8.94649e-05
8.37511e-05
7.60153e-05
7.74183e-05
8.27398e-05
9.52164e-05
8.17828e-05
7.6048e-05
8.29889e-05
6.86772e-05
7.65667e-05
9.23891e-05
7.87417e-05
7.56543e-05
0.000182513
7.67617e-05
7.76259e-05
7.96579e-05
6.8411e-05
7.54364e-05
7.06312e-05
8.16175e-05
0.0169615
0.0605924
0.0386506
7.55807e-05
7.82385e-05
0.0012829
7.80376e-05
7.65809e-05
7.63973e-05
0.0370338
0.0443278
7.49903e-05
7.80385e-05
7.69359e-05
7.4477e-05
7.83291e-05
7.86064e-05
0.0484834
7.56122e-05
7.35328e-05
7.91574e-05
7.70597e-05
7.91038e-05
7.33914e-05
8.08078e-05
7.59576e-05
0.000132248
6.66798e-05
0.00434469
0.000930117
7.78919e-05
7.1864e-05
7.72914e-05
7.38828e-05
8.10507e-05
7.49416e-05
7.1891e-05
0.0202424
7.79066e-05
7.84185e-05
7.4013e-05
7.59028e-05
7.80516e-05
0.000235314
8.46201e-05
7.47391e-05
0.0906514
7.93496e-05
7.42468e-05
7.24944e-05
7.136e-05
8.97017e-05
7.21968e-05
0.0119536
0.0858979
0.000493841
7.66202e-05
7.89252e-05
8.03711e-05
0.00043928
0.0165827
7.72766e-05
0.139985
9.07252e-05
7.63234e-05
7.85364e-05
7.66603e-05
7.5802e-05
7.67415e-05
0.000396068
7.61574e-05
7.70099e-05
7.53035e-05
7.62714e-05
7.44911e-05
7.52304e-05
7.53377e-05
7.63279e-05
7.67501e-05
6.96717e-05
0.00562505
0.000378338
7.99131e-05
7.62059e-05
7.45922e-05
0.0694678
8.41276e-05
6.68012e-05
7.9823e-05
7.57426e-05
8.08896e-05
7.53935e-05
8.04642e-05
7.86186e-05
7.75364e-05
7.46966e-05
8.33718e-05
0.0673457
7.824e-05
7.80826e-05
7.55146e-05
0.000314025
8.04197e-05
0.0139738
7.8508e-05
8.11375e-05
0.020881
7.81345e-05
0.0119894
0.00889726
7.8522e-05
8.15373e-05
7.58655e-05
6.94367e-05
7.50632e-05
0.948192
7.48599e-05
0.000366999
0.0579677
7.01353e-05
0.0178634
7.47388e-05
0.00627387
8.18379e-05
0.00337926
7.7763e-05
7.58014e-05
7.74843e-05
8.11658e-05
0.038666
0.0314996
7.64849e-05
7.83757e-05
7.24133e-05
7.42544e-05
6.80617e-05
7.61619e-05
0.0767157
7.51014e-05
7.59346e-05
1.20897
7.55796e-05
7.67875e-05
7.80397e-05
0.0016717
7.79504e-05
0.00286978
7.80913e-05
0.0315033
7.58134e-05
0.000461045
7.26162e-05
7.78878e-05
0.0206689
7.70958e-05
0.00040635
0.046765
6.90351e-05
0.00541972
0.142776
0.00445838
8.33348e-05
7.54374e-05
7.61257e-05
8.46381e-05
7.71097e-05
8.01697e-05
7.46806e-05
7.55418e-05
7.53487e-05
7.85638e-05
6.98801e-05
0.000118537
7.96942e-05
7.49102e-05
8.65854e-05
7.54638e-05
7.16431e-05
7.61055e-05
7.64973e-05
7.74594e-05
8.12506e-05
7.96187e-05
7.59181e-05
7.60622e-05
7.52297e-05
7.90077e-05
7.41195e-05
0.0224002
7.70319e-05
0.0101165
0.000228034
7.71207e-05
7.1183e-05
8.5892e-05
0.00443446
7.10483e-05
7.45016e-05
0.000283109
7.72205e-05
8.00863e-05
7.70165e-05
8.47192e-05
0.000120246
7.30117e-05
7.86967e-05
0.00119544
8.38015e-05
7.50204e-05
7.8829e-05
7.80393e-05
7.72364e-05
0.000364226
7.63878e-05
7.40058e-05
8.37585e-05
8.52197e-05
8.06945e-05
7.64081e-05
7.76234e-05
0.000126077
8.52632e-05
7.86457e-05
6.92459e-05
0.000236007
7.75123e-05
7.13419e-05
7.69174e-05
8.48396e-05
7.6382e-05
7.28267e-05
7.60347e-05
8.10182e-05
0.000563119
7.40372e-05
7.31282e-05
0.383386
7.56289e-05
7.98676e-05
7.82705e-05
7.70342e-05
7.84681e-05
7.57557e-05
8.6905e-05
7.3572e-05
7.64558e-05
7.88415e-05
7.90654e-05
0.000273801
0.0009747
7.79576e-05
7.74767e-05
7.95207e-05
0.000144935
7.69564e-05
7.67473e-05
0.000115737
7.8109e-05
8.43895e-05
7.54984e-05
0.00010621
7.51389e-05
9.64571e-05
7.86851e-05
7.51382e-05
7.70045e-05
7.79655e-05
0.0037325
9.54912e-05
0.0107343
7.69218e-05
7.84265e-05
7.8251e-05
7.63638e-05
7.2321e-05
0.000119137
7.82265e-05
7.21204e-05
0.00390982
7.40754e-05
0.0752079
7.9161e-05
7.78666e-05
9.67707e-05
8.01726e-05
7.90268e-05
0.0304866
7.53354e-05
7.85187e-05
7.65213e-05
9.86422e-05
7.68538e-05
8.15811e-05
0.0477421
7.69706e-05
7.31646e-05
8.06505e-05
7.85902e-05
7.67965e-05
7.22394e-05
0.104775
7.61801e-05
0.0010172
7.66394e-05
7.85942e-05
0.000178473
0.078758
9.20834e-05
7.89597e-05
7.45452e-05
7.8535e-05
8.08208e-05
7.68673e-05
8.36919e-05
0.087199
7.63805e-05
7.82219e-05
7.24798e-05
7.89231e-05
7.13297e-05
7.93616e-05
7.49982e-05
0.0685777
7.68776e-05
7.92648e-05
7.93335e-05
7.95766e-05
7.8314e-05
7.63122e-05
7.8146e-05
0.133511
7.41075e-05
7.39055e-05
8.02908e-05
0.06147
0.000110095
7.64948e-05
7.7237e-05
0.000944639
7.72105e-05
0.000133052
7.57509e-05
7.95744e-05
7.87275e-05
7.90995e-05
0.000118857
0.0314131
7.38646e-05
9.74509e-05
7.5732e-05
7.73669e-05
0.0018622
7.92567e-05
7.84613e-05
7.92989e-05
0.000105962
0.373265
7.75809e-05
0.000670742
7.60257e-05
0.000118213
0.000754554
7.70788e-05
7.34692e-05
7.15239e-05
0.239974
8.28888e-05
8.01985e-05
7.51451e-05
8.01986e-05
8.04463e-05
7.66028e-05
7.3813e-05
7.6349e-05
7.64536e-05
9.09494e-05
7.62542e-05
7.70651e-05
7.74346e-05
7.70266e-05
0.0633423
0.000489777
8.12799e-05
0.000110014
0.000441994
0.000463378
9.16087e-05
0.000344835
0.000888656
7.67086e-05
7.29198e-05
7.58841e-05
7.5863e-05
0.000210055
7.42795e-05
8.05029e-05
0.0541751
0.00367267
7.95788e-05
7.9469e-05
8.10815e-05
0.000647695
0.00066256
8.0271e-05
0.000224584
7.34839e-05
7.63141e-05
0.00543449
7.61778e-05
0.000105653
7.94528e-05
7.77639e-05
0.017437
8.21015e-05
0.0589001
0.000203369
6.91895e-05
0.00758597
9.94569e-05
7.68915e-05
0.000100351
7.32085e-05
9.38029e-05
0.0459036
0.000204503
0.0430571
7.3553e-05
0.0314912
0.000152519
0.000101706
6.72067e-05
7.33727e-05
8.04935e-05
7.49397e-05
7.85345e-05
7.39724e-05
7.68706e-05
7.42471e-05
7.76315e-05
0.000374116
0.131492
7.79698e-05
0.0800098
7.31259e-05
0.000209266
8.22253e-05
7.11603e-05
7.8781e-05
8.31916e-05
7.83868e-05
8.72035e-05
7.62756e-05
7.50267e-05
7.78379e-05
8.38569e-05
7.53882e-05
8.26282e-05
7.74635e-05
7.93585e-05
7.77059e-05
7.59191e-05
7.50747e-05
7.78158e-05
7.20028e-05
7.86533e-05
7.31977e-05
7.67766e-05
7.97401e-05
7.67245e-05
7.34939e-05
0.221707
0.000506326
7.90937e-05
8.01992e-05
8.28086e-05
8.18118e-05
7.86828e-05
8.58254e-05
7.76467e-05
7.15014e-05
7.42144e-05
8.23232e-05
7.21112e-05
7.82858e-05
7.2797e-05
0.000314866
8.13258e-05
7.70087e-05
8.57254e-05
7.61653e-05
8.46591e-05
7.58516e-05
7.95639e-05
7.87858e-05
8.29081e-05
0.00338914
8.36996e-05
7.7376e-05
7.53533e-05
0.000883012
7.67046e-05
0.000350065
0.000215148
7.95748e-05
7.66266e-05
0.0311667
0.0184833
7.50052e-05
9.58307e-05
0.00296281
7.87324e-05
7.66367e-05
7.74468e-05
0.000227435
7.93234e-05
7.26198e-05
7.76622e-05
0.000340365
7.60368e-05
0.00597021
7.78924e-05
7.5634e-05
0.265285
8.05154e-05
0.0489887
7.86035e-05
0.0285116
7.7472e-05
7.65827e-05
7.58767e-05
7.97879e-05
7.98261e-05
7.72249e-05
7.78353e-05
7.72241e-05
7.54656e-05
7.31894e-05
7.46035e-05
0.000117043
7.74739e-05
7.68086e-05
7.53347e-05
7.29972e-05
0.00876512
7.4764e-05
7.61466e-05
0.00181518
7.23132e-05
0.011107
8.89344e-05
7.60529e-05
7.80549e-05
0.420331
8.42321e-05
8.62781e-05
9.26187e-05
7.28986e-05
7.96636e-05
8.36204e-05
0.000206035
8.27321e-05
8.04443e-05
8.23336e-05
8.88862e-05
9.49194e-05
0.000309092
0.30969
0.000165425
7.28007e-05
7.90342e-05
7.95462e-05
8.48426e-05
7.70222e-05
9.3486e-05
7.65152e-05
7.76923e-05
0.026307
7.73095e-05
0.0189976
7.96136e-05
0.033847
7.86126e-05
7.82461e-05
6.67544e-05
8.79935e-05
7.69815e-05
8.02687e-05
6.70566e-05
6.95711e-05
0.000353019
7.75397e-05
0.809357
7.56917e-05
7.86306e-05
7.67364e-05
9.90284e-05
7.85024e-05
0.000118941
7.47161e-05
7.5569e-05
7.77169e-05
0.282929
7.54746e-05
9.77037e-05
7.91151e-05
0.000471128
7.55451e-05
0.000118802
0.00185098
0.787635
7.37891e-05
7.94824e-05
0.000103568
0.0110113
7.62412e-05
0.0321929
0.119148
0.464517
7.67573e-05
7.95263e-05
0.000134806
7.60606e-05
0.000135018
8.27825e-05
7.77629e-05
7.83247e-05
0.000120597
8.08698e-05
0.000200416
7.77022e-05
7.53394e-05
0.00877457
8.10398e-05
7.65232e-05
0.0252414
0.0581811
7.76518e-05
7.78927e-05
7.64482e-05
7.76974e-05
8.17216e-05
9.97996e-05
0.00993606
7.31983e-05
0.00779931
8.83613e-05
8.00643e-05
0.000103289
7.22178e-05
7.89647e-05
7.46185e-05
7.78777e-05
0.00012028
7.97733e-05
7.22438e-05
9.60646e-05
7.69394e-05
9.15347e-05
8.73928e-05
7.42071e-05
7.54821e-05
7.9517e-05
8.03222e-05
7.42645e-05
7.52426e-05
0.000472378
7.75335e-05
0.300847
8.67342e-05
7.75868e-05
8.65646e-05
0.000125126
9.10211e-05
7.38262e-05
7.16916e-05
0.00176392
7.80269e-05
0.000103864
7.64448e-05
7.7546e-05
0.000112143
0.002347
7.52628e-05
0.000393414
0.0880808
7.52981e-05
9.58152e-05
7.79361e-05
7.74431e-05
7.61271e-05
0.202346
8.2865e-05
0.000387891
0.000254418
7.78628e-05
7.95782e-05
7.98407e-05
7.54763e-05
0.000222056
0.000332661
7.05112e-05
7.67603e-05
7.68911e-05
0.000491226
7.58584e-05
7.6727e-05
8.26265e-05
0.000647646
7.49847e-05
7.43924e-05
7.4462e-05
7.1675e-05
7.47298e-05
7.64072e-05
7.67894e-05
0.000147856
7.83323e-05
8.6725e-05
8.51143e-05
7.88791e-05
0.252414
7.68158e-05
7.43789e-05
0.000105044
8.06383e-05
7.16594e-05
0.21707
7.67955e-05
0.000125028
7.34479e-05
7.52228e-05
0.000119243
0.000136712
8.16162e-05
7.76238e-05
7.48318e-05
0.0136906
7.47885e-05
0.000261428
0.000109328
0.000100766
6.49317e-05
7.6729e-05
7.66407e-05
7.46322e-05
0.000100622
7.74839e-05
7.14039e-05
7.06589e-05
7.46978e-05
7.60695e-05
0.000379664
7.76415e-05
7.87472e-05
0.000173172
7.5175e-05
7.95821e-05
9.97515e-05
7.86507e-05
7.79995e-05
7.71846e-05
7.79766e-05
7.89174e-05
8.24603e-05
7.70196e-05
0.000118703
7.82406e-05
0.999916
7.31623e-05
8.19757e-05
7.76383e-05
0.000145637
0.000105346
0.000102755
0.0464296
0.000113292
0.00014528
7.51652e-05
0.203931
7.5467e-05
8.53467e-05
7.83657e-05
0.0164401
7.69939e-05
7.78687e-05
7.42724e-05
7.17954e-05
8.69226e-05
0.0940909
0.000104554
7.61524e-05
8.1024e-05
8.03837e-05
0.000131325
7.69257e-05
0.000171464
0.000171507
0.00139463
8.0072e-05
0.000912006
9.98625e-05
9.09447e-05
7.91501e-05
7.1441e-05
6.86331e-05
7.58676e-05
7.23234e-05
7.42332e-05
8.71474e-05
0.076168
7.38006e-05
0.604197
8.05266e-05
7.79394e-05
7.79673e-05
8.35497e-05
0.000138407
7.26477e-05
7.90019e-05
7.81662e-05
7.74418e-05
7.14063e-05
8.06452e-05
0.00447673
0.000154416
9.20983e-05
0.000231596
7.64693e-05
8.19721e-05
8.03141e-05
0.000430798
0.000115328
7.83194e-05
0.155835
7.42273e-05
7.4794e-05
7.78418e-05
7.26427e-05
7.87427e-05
7.52826e-05
6.79412e-05
0.000628737
7.84602e-05
8.1086e-05
7.18756e-05
7.71134e-05
7.86527e-05
7.52944e-05
7.47601e-05
7.7151e-05
6.93319e-05
7.47606e-05
0.00204539
7.77372e-05
0.000166865
7.54501e-05
7.75948e-05
0.0826141
7.60461e-05
8.45043e-05
7.60157e-05
7.72469e-05
7.85276e-05
7.84557e-05
7.11853e-05
7.71278e-05
7.85018e-05
9.72275e-05
7.73379e-05
7.87758e-05
0.000138967
9.19385e-05
7.73572e-05
7.98248e-05
0.0532197
0.0520611
7.7282e-05
7.68546e-05
7.77473e-05
7.92344e-05
8.91062e-05
7.61706e-05
0.000423177
7.69284e-05
7.6523e-05
7.73513e-05
7.87614e-05
7.08693e-05
7.40208e-05
8.08487e-05
0.000114538
0.000323169
7.73222e-05
7.54573e-05
7.69161e-05
0.0195184
8.01661e-05
7.82201e-05
6.93856e-05
7.30461e-05
0.000190242
7.77908e-05
0.00013118
7.09345e-05
7.00516e-05
7.22919e-05
0.0254377
9.35259e-05
7.64245e-05
0.000344597
7.92707e-05
0.00326207
0.000562432
7.37816e-05
7.67267e-05
0.000118442
7.50136e-05
7.14278e-05
7.92715e-05
7.52157e-05
0.000173025
0.0855103
0.000116139
7.51929e-05
7.67768e-05
0.000148315
7.25646e-05
7.76433e-05
6.97114e-05
7.4295e-05
7.5878e-05
0.0073168
0.000187158
0.00020153
7.78839e-05
7.48695e-05
7.63942e-05
8.56747e-05
8.68556e-05
7.63292e-05
7.61135e-05
0.00083868
7.91704e-05
0.000107368
0.00298469
7.32985e-05
0.0176292
7.70104e-05
7.59807e-05
7.69283e-05
7.89235e-05
0.000138302
0.205822
7.84692e-05
8.11117e-05
7.71412e-05
0.124402
8.01365e-05
9.96448e-05
7.61086e-05
0.000293527
0.000218942
0.00163913
8.0271e-05
7.93206e-05
7.72441e-05
8.41527e-05
7.57827e-05
8.10118e-05
7.86398e-05
8.01653e-05
7.96331e-05
0.00415896
7.7521e-05
7.54305e-05
0.0524001
7.40022e-05
7.95868e-05
7.75111e-05
7.7608e-05
0.0402189
7.76629e-05
8.37876e-05
7.09658e-05
0.0131813
8.15892e-05
9.76905e-05
7.61137e-05
0.000117704
7.84497e-05
0.034697
0.115055
0.0967886
0.000133089
0.132418
8.05724e-05
0.0399431
0.0459852
6.99576e-05
7.12691e-05
7.59903e-05
7.45693e-05
7.87218e-05
7.80837e-05
7.70143e-05
7.28807e-05
8.09129e-05
7.68507e-05
7.71407e-05
8.65004e-05
7.88845e-05
7.99898e-05
0.0015106
8.8655e-05
0.00104182
0.000643069
7.69898e-05
7.69361e-05
0.0840529
0.00103471
0.0376144
8.25427e-05
7.75867e-05
7.62497e-05
7.65309e-05
7.99356e-05
7.61586e-05
7.21748e-05
7.72355e-05
0.000798591
7.87642e-05
8.63078e-05
0.000325919
8.45788e-05
0.00329571
8.03069e-05
8.60227e-05
8.48836e-05
7.89055e-05
0.000106678
8.09435e-05
7.63862e-05
8.40481e-05
7.60019e-05
8.02101e-05
7.56992e-05
7.85249e-05
8.26532e-05
7.21044e-05
7.58627e-05
7.58052e-05
0.000272332
8.33528e-05
0.000363647
0.000245936
7.69344e-05
0.00218432
7.70586e-05
8.09854e-05
0.000134362
7.40165e-05
7.74258e-05
0.00217422
0.000488679
0.000211648
8.11642e-05
0.217527
0.000111832
7.63203e-05
7.82653e-05
7.79966e-05
8.19498e-05
8.35177e-05
7.98539e-05
0.000420809
7.96085e-05
7.63471e-05
7.5853e-05
7.83306e-05
0.000135146
0.000523068
0.000248906
0.506557
0.322567
8.01948e-05
7.71547e-05
0.000243039
7.64791e-05
7.62315e-05
0.000125257
8.78986e-05
7.68054e-05
8.95031e-05
7.62159e-05
8.24511e-05
7.80731e-05
0.0594903
7.58797e-05
7.61025e-05
0.000224197
0.000174779
7.45295e-05
8.0769e-05
0.00223202
7.88645e-05
7.72177e-05
8.39097e-05
7.84383e-05
7.41458e-05
7.3986e-05
7.88689e-05
7.68073e-05
9.33161e-05
0.000304382
0.000108607
9.76881e-05
0.000914762
7.38324e-05
7.68079e-05
0.000246246
7.16761e-05
7.72361e-05
9.80629e-05
8.09437e-05
0.266841
7.83561e-05
7.70795e-05
0.0263956
7.42627e-05
0.0228755
9.68178e-05
0.00473441
7.34345e-05
6.83613e-05
0.00336576
8.60652e-05
8.85497e-05
0.0159673
7.72971e-05
7.73778e-05
8.26151e-05
6.85512e-05
0.000100498
7.85858e-05
0.00123321
7.94535e-05
7.51018e-05
0.000450085
7.77835e-05
0.00146377
0.0101748
0.000509153
7.95369e-05
0.293416
7.42162e-05
0.0344342
7.87116e-05
7.43032e-05
8.15724e-05
8.77634e-05
8.90725e-05
8.47268e-05
7.6551e-05
7.34661e-05
0.00120002
0.00628722
0.000110683
9.40419e-05
7.66546e-05
7.48762e-05
7.62893e-05
7.49942e-05
7.41951e-05
7.85902e-05
0.623376
0.000272797
7.84903e-05
9.07043e-05
7.98062e-05
8.11932e-05
0.000115022
7.47118e-05
7.70594e-05
7.5329e-05
7.59239e-05
9.42579e-05
8.07663e-05
0.433379
7.46366e-05
0.000237175
0.00176435
7.70207e-05
6.50939e-05
0.0131927
7.42656e-05
7.47695e-05
7.41094e-05
0.000474138
0.0116119
0.000104691
0.0366056
7.53581e-05
7.80965e-05
0.742447
7.8127e-05
0.000449848
7.84325e-05
7.33174e-05
7.60421e-05
7.59107e-05
0.000293061
7.65735e-05
0.000533877
0.0544308
0.000104167
0.000472317
7.17185e-05
7.85681e-05
7.81829e-05
0.000126866
7.84078e-05
7.72886e-05
7.85573e-05
7.70821e-05
7.7095e-05
7.69792e-05
7.9943e-05
7.91537e-05
7.99967e-05
0.0187195
0.000284245
0.000657534
7.82637e-05
7.8537e-05
0.0311171
0.00277675
7.73303e-05
0.0104463
7.5105e-05
7.85204e-05
7.7262e-05
0.000337919
0.0798102
0.00156494
7.41012e-05
0.241146
0.222905
0.00159149
7.62267e-05
0.000160642
0.000113961
7.26812e-05
0.00461758
7.25602e-05
0.0803531
7.76093e-05
0.000136897
0.000342966
0.00578916
0.000239116
9.21994e-05
9.40849e-05
6.96553e-05
7.74094e-05
0.00491066
0.0963217
0.0422008
8.00105e-05
7.73148e-05
1.11455
7.19492e-05
7.59425e-05
0.00476656
8.56772e-05
0.113519
0.0001381
8.19772e-05
7.68256e-05
7.29282e-05
6.86426e-05
0.000159855
0.000175039
0.00228104
0.00155222
0.0774349
7.57017e-05
0.00100042
6.88704e-05
7.69008e-05
7.06625e-05
7.61441e-05
0.000109841
8.55908e-05
8.03382e-05
7.62417e-05
8.81077e-05
9.85389e-05
7.34612e-05
7.90767e-05
0.0349723
7.36079e-05
0.000163635
0.0117513
7.84996e-05
7.2171e-05
0.000748352
6.88623e-05
7.524e-05
7.4306e-05
9.36276e-05
7.92663e-05
7.68207e-05
0.00016612
0.00509938
0.00021069
0.0401136
0.0784647
0.000324942
7.61536e-05
8.69219e-05
0.000254242
7.85174e-05
0.114482
8.07815e-05
0.000199095
9.71186e-05
0.000305546
7.79737e-05
9.97795e-05
7.03718e-05
8.08027e-05
7.6594e-05
7.57945e-05
0.000128184
7.83393e-05
7.35635e-05
7.57082e-05
0.125602
0.000308184
7.25541e-05
0.000308592
0.137397
0.00055052
0.000180732
0.000783131
6.59576e-05
0.00869855
1.35184
7.72928e-05
7.98345e-05
9.0364e-05
7.70864e-05
0.000250736
0.000100448
7.25898e-05
0.000724803
0.00427479
0.000148651
0.161075
0.0187514
7.35054e-05
8.8096e-05
0.0164725
0.00876274
8.23082e-05
0.297063
7.38853e-05
0.000101687
8.28967e-05
7.65445e-05
0.331802
7.83569e-05
7.64787e-05
8.15943e-05
7.63753e-05
0.000607229
7.3269e-05
7.84222e-05
7.66125e-05
6.97094e-05
9.16081e-05
7.27187e-05
7.51942e-05
7.77451e-05
0.460964
0.262626
9.03256e-05
0.0716835
0.000188349
7.70977e-05
8.72375e-05
0.000577957
0.0121643
0.00024847
0.000136776
0.00812492
0.0167985
0.967683
0.000767954
0.000112039
0.242353
7.80524e-05
7.67423e-05
7.38059e-05
0.0478418
7.59141e-05
0.171307
0.00040658
0.000185025
0.00260055
0.0269674
7.13196e-05
7.55709e-05
7.87504e-05
7.13434e-05
8.78001e-05
0.000275177
9.01011e-05
0.000171955
9.05463e-05
0.0228165
0.0175053
0.0211968
7.21711e-05
2.24395
7.48201e-05
0.199339
8.51049e-05
0.00490904
0.000154801
0.0039139
7.4352e-05
0.000314759
7.68049e-05
8.28378e-05
8.0089e-05
8.00576e-05
0.000278021
8.34032e-05
7.5759e-05
0.378269
7.78436e-05
7.96757e-05
0.0534524
0.117399
0.0373341
0.255994
7.75821e-05
0.00191968
0.000802864
9.95405e-05
7.25669e-05
0.000993206
0.111818
7.40493e-05
7.5522e-05
7.24952e-05
7.90182e-05
7.47807e-05
0.0200507
0.0127579
0.0157333
0.000385551
9.93254e-05
0.0824683
0.00010698
7.96187e-05
9.74488e-05
6.89199e-05
7.087e-05
0.0605575
0.00030805
0.000110547
0.0136754
7.80952e-05
7.89892e-05
6.92179e-05
7.97807e-05
0.000170111
7.80777e-05
0.000476725
7.4793e-05
7.78119e-05
0.000755851
0.000309972
0.000451812
7.55262e-05
8.00897e-05
7.64111e-05
8.46597e-05
9.31552e-05
7.80689e-05
0.000241248
0.112429
7.77516e-05
7.52686e-05
1.45449
8.03564e-05
7.96033e-05
7.75612e-05
8.37278e-05
0.0220577
0.044629
0.562321
0.000448472
0.00636811
8.13299e-05
0.000226423
9.52934e-05
0.134808
0.0131973
7.69989e-05
0.0488829
7.61632e-05
7.77547e-05
0.00102333
8.94384e-05
7.57712e-05
0.0349663
0.0720098
0.0281663
0.0647776
7.62332e-05
0.00109119
0.0353
0.104843
7.82491e-05
9.77352e-05
0.000461209
0.0331658
0.000671805
0.193102
0.000154489
7.74654e-05
0.000277215
0.118124
0.000433812
0.00063426
9.44433e-05
0.0621278
7.69038e-05
7.94011e-05
0.172467
0.000635258
0.000438554
0.000166215
0.000859545
0.000274949
0.247826
7.96565e-05
0.00147956
7.63078e-05
0.00261302
9.97511e-05
0.00137918
0.00279252
7.54071e-05
0.0720877
7.64952e-05
0.0352359
0.00493312
7.47918e-05
7.6957e-05
0.0112709
7.61669e-05
7.61649e-05
7.72262e-05
6.52311e-05
0.00917381
7.66379e-05
0.00832608
0.0101119
7.96008e-05
7.35689e-05
0.252588
7.94873e-05
6.85092e-05
0.0373209
6.79498e-05
7.31176e-05
7.79682e-05
7.81246e-05
0.000114825
7.07577e-05
0.360548
7.96435e-05
7.80889e-05
0.0146527
7.83819e-05
0.00228053
0.211189
8.05721e-05
6.8675e-05
0.000120159
0.000242541
0.00233676
7.1842e-05
7.46888e-05
7.02547e-05
0.000562191
7.81865e-05
0.0886783
0.0964921
0.000104695
7.46375e-05
0.181979
7.75919e-05
7.83953e-05
7.0912e-05
0.000608399
7.46197e-05
0.0304027
0.131844
7.59596e-05
8.817e-05
0.000117858
7.40038e-05
0.00154675
7.18368e-05
0.00180579
7.99909e-05
7.92837e-05
7.83499e-05
0.000249633
7.52804e-05
8.03626e-05
7.55245e-05
0.000257535
7.526e-05
7.08895e-05
7.49576e-05
7.69276e-05
8.01863e-05
0.000231666
0.0805782
7.33416e-05
7.44378e-05
0.195488
7.0912e-05
0.000104792
8.2364e-05
7.06412e-05
0.488265
0.957395
0.000105203
7.80896e-05
7.73712e-05
7.96522e-05
0.253896
7.49954e-05
0.0859296
7.37854e-05
0.0250185
0.000415796
8.76662e-05
0.0998475
0.00263011
0.243989
0.386973
0.339888
7.63111e-05
7.69268e-05
7.19279e-05
0.000130731
7.61528e-05
9.37328e-05
0.0537915
0.000115576
0.00010354
7.42244e-05
0.00214844
0.0620995
0.0100008
7.71845e-05
8.02028e-05
7.82132e-05
7.56472e-05
0.0163065
7.86357e-05
8.46679e-05
7.57087e-05
0.0269743
0.000270501
0.000250745
7.64452e-05
7.83721e-05
7.94526e-05
0.364346
7.67476e-05
0.342448
7.47905e-05
7.50352e-05
0.00132591
0.0403713
7.71691e-05
7.66349e-05
1.6125
7.56904e-05
7.75908e-05
8.83895e-05
0.247281
8.18801e-05
0.000429171
0.000100396
0.536668
0.224832
0.000624826
0.000147731
7.44451e-05
0.00879685
0.000162299
7.66458e-05
0.388927
0.098343
0.0187245
0.00816538
0.0148717
0.0105949
7.55143e-05
0.286888
0.000583303
0.0197415
0.000104202
0.000394582
0.101491
7.20156e-05
0.000259942
0.0136752
7.62751e-05
0.035896
7.11271e-05
0.997763
0.00772287
0.00912491
0.00339142
3.83161e-05
9.28099e-05
7.20837e-05
7.83977e-05
0.000101263
1.04898
7.5217e-05
0.000352419
9.41475e-05
7.40485e-05
7.82338e-05
7.92129e-05
7.55492e-05
6.89296e-05
7.87849e-05
0.000419509
7.64537e-05
0.0375092
7.5707e-05
0.447509
7.3502e-05
0.000260417
7.50468e-05
7.61677e-05
0.000108866
7.23284e-05
7.28712e-05
7.93727e-05
7.47136e-05
7.159e-05
0.762091
0.287591
0.032601
9.82182e-05
7.65144e-05
7.61956e-05
7.57462e-05
7.36313e-05
9.63324e-05
7.60964e-05
7.84595e-05
7.96727e-05
7.83604e-05
0.137778
7.39785e-05
7.63447e-05
7.61226e-05
7.86673e-05
0.00013976
0.000106275
7.59434e-05
7.64995e-05
8.18342e-05
0.0845534
7.43607e-05
0.0345543
8.92694e-05
0.000109697
0.000188627
0.000391041
7.97764e-05
0.000103691
7.83034e-05
7.8247e-05
7.80479e-05
7.53444e-05
7.71668e-05
8.17686e-05
7.96839e-05
7.84067e-05
7.65798e-05
7.45528e-05
0.000546595
7.89128e-05
0.000130236
7.77353e-05
9.25858e-05
7.7282e-05
7.81688e-05
8.4206e-05
0.00128931
0.000142809
7.98211e-05
7.46566e-05
7.37642e-05
0.000405812
0.0183253
7.7106e-05
0.0110577
0.0221158
7.34895e-05
8.51495e-05
0.000109771
7.46224e-05
0.0168975
7.62421e-05
7.91392e-05
8.00437e-05
7.75119e-05
0.0183102
7.52009e-05
0.000104437
7.76058e-05
7.37151e-05
8.09794e-05
8.32771e-05
7.87294e-05
7.80908e-05
7.10274e-05
0.000148393
7.15529e-05
7.64158e-05
0.000109143
7.26488e-05
8.16963e-05
0.000454572
7.97573e-05
0.000286609
0.0525962
0.0289892
7.73052e-05
6.82388e-05
7.70876e-05
7.53044e-05
7.93065e-05
7.74647e-05
7.85033e-05
0.000178067
8.0755e-05
7.64656e-05
7.74761e-05
7.7726e-05
7.52068e-05
7.57712e-05
8.03905e-05
7.87795e-05
0.00150864
0.000101842
0.101984
7.82496e-05
0.000251464
6.98061e-05
7.67401e-05
0.00346868
7.00225e-05
7.49984e-05
0.0534551
6.94732e-05
8.17236e-05
7.42037e-05
6.95871e-05
0.000104643
8.38616e-05
0.00161612
7.30659e-05
0.00172601
7.68569e-05
0.000134786
0.000804081
7.66698e-05
0.00102635
7.76362e-05
0.000128996
7.10747e-05
7.94313e-05
0.000664519
0.000317299
0.000494732
7.93043e-05
0.00120201
0.000228646
8.34757e-05
7.71134e-05
0.00043778
7.7269e-05
7.68964e-05
7.61306e-05
7.81168e-05
7.7483e-05
8.44016e-05
8.50701e-05
7.73884e-05
7.85606e-05
7.96835e-05
9.61881e-05
7.83497e-05
0.000191078
7.78878e-05
0.000161439
0.000102191
7.64645e-05
7.52659e-05
7.65133e-05
7.63892e-05
7.81749e-05
7.70204e-05
7.78057e-05
7.70233e-05
7.41772e-05
7.75011e-05
0.00010822
8.0914e-05
8.13977e-05
7.42121e-05
7.79445e-05
0.00427841
7.46544e-05
0.000115307
0.0559112
6.9877e-05
7.62751e-05
8.31454e-05
7.41138e-05
7.62865e-05
7.81025e-05
6.99117e-05
7.46533e-05
8.71536e-05
9.72737e-05
8.14033e-05
7.95196e-05
8.32752e-05
7.85182e-05
8.06791e-05
0.00102658
7.64787e-05
7.43491e-05
0.000473858
9.94537e-05
7.57349e-05
0.000143001
7.7933e-05
9.96961e-05
9.93833e-05
7.53735e-05
0.000109309
9.14929e-05
0.423756
0.000324598
7.89255e-05
7.70368e-05
7.19884e-05
7.68601e-05
8.60981e-05
8.02801e-05
7.59706e-05
7.62566e-05
7.6703e-05
0.00732855
6.94289e-05
7.67495e-05
7.61242e-05
0.254822
8.93128e-05
0.000115888
0.0604771
8.13215e-05
7.5072e-05
9.19357e-05
7.6389e-05
0.000149342
7.5746e-05
0.0010846
7.44317e-05
7.78127e-05
0.000146724
0.0816403
7.89502e-05
7.63139e-05
0.247891
7.94561e-05
0.605974
7.92891e-05
7.49046e-05
7.91652e-05
7.65338e-05
0.145874
7.84454e-05
0.144491
7.75897e-05
7.50375e-05
0.389751
7.70118e-05
7.6548e-05
8.58191e-05
0.164396
7.76335e-05
8.4175e-05
0.451492
7.3731e-05
9.13364e-05
0.115206
0.0248424
7.99899e-05
7.98541e-05
0.00337261
0.000275036
0.0210278
0.3031
8.17454e-05
7.83669e-05
7.19955e-05
0.000115835
9.46398e-05
9.53982e-05
7.84697e-05
7.78984e-05
7.76624e-05
7.74041e-05
7.62822e-05
7.72912e-05
7.63018e-05
7.89039e-05
7.60132e-05
0.000138842
8.88119e-05
0.113518
7.97401e-05
0.000433967
8.2112e-05
0.105789
7.48964e-05
9.67929e-05
0.645819
8.31544e-05
0.000239375
0.000114375
0.000110523
7.56862e-05
7.81864e-05
6.60071e-05
7.74167e-05
7.62837e-05
0.000107717
0.245459
7.15173e-05
0.000162291
0.257976
0.000200287
7.6594e-05
7.65328e-05
8.32723e-05
7.82696e-05
7.67521e-05
7.8261e-05
9.33005e-05
7.49547e-05
8.27605e-05
8.07383e-05
9.30382e-05
0.48436
0.000348395
7.8838e-05
0.603046
0.000113971
7.81761e-05
9.60192e-05
0.00461757
0.000107911
8.03496e-05
7.78593e-05
7.91443e-05
8.0928e-05
7.78905e-05
0.311408
7.4351e-05
8.54452e-05
7.94469e-05
0.000103957
0.000199866
7.46853e-05
7.62377e-05
7.56576e-05
7.3434e-05
7.64893e-05
8.11505e-05
0.284018
7.75391e-05
7.53328e-05
0.0755174
7.76319e-05
8.47198e-05
0.149653
7.92323e-05
0.0378172
7.50558e-05
0.000777703
0.718503
0.403008
7.62646e-05
7.49596e-05
7.47163e-05
0.144591
7.89311e-05
0.000328511
8.56813e-05
0.056554
0.0194664
8.26423e-05
9.73228e-05
0.0136336
8.16341e-05
9.13242e-05
0.0411972
0.13054
7.63787e-05
8.23814e-05
7.69573e-05
8.04373e-05
8.22803e-05
7.34825e-05
0.000149764
7.7705e-05
7.5987e-05
9.67002e-05
7.75717e-05
1.07269
7.99288e-05
7.36265e-05
7.63896e-05
8.04533e-05
7.45611e-05
7.55895e-05
8.15392e-05
0.000178054
7.7598e-05
0.000122683
7.15632e-05
7.92285e-05
7.72586e-05
8.25253e-05
6.89757e-05
7.6806e-05
8.17549e-05
0.0215712
6.88427e-05
0.0117476
0.000200627
0.471049
6.85232e-05
9.63255e-05
0.00821506
6.95481e-05
7.73654e-05
0.935245
7.36245e-05
8.05493e-05
6.92901e-05
7.47658e-05
7.74205e-05
7.77927e-05
6.98677e-05
7.71929e-05
7.92295e-05
7.56033e-05
7.34462e-05
0.0618545
6.75615e-05
0.000106856
6.80409e-05
8.10589e-05
9.49596e-05
7.79275e-05
7.78131e-05
0.0622741
7.79018e-05
7.11868e-05
7.23067e-05
7.38412e-05
7.25215e-05
7.73075e-05
7.28954e-05
0.0736294
2.24228
8.04913e-05
8.80592e-05
8.84035e-05
7.85443e-05
7.2986e-05
0.000140639
9.25952e-05
7.68481e-05
6.3151e-05
7.62461e-05
7.37453e-05
8.08847e-05
6.94856e-05
0.288115
0.0369854
8.02207e-05
0.00106733
7.13e-05
0.00313909
7.47218e-05
0.000102176
7.55191e-05
7.52455e-05
7.73019e-05
7.42965e-05
7.54791e-05
0.0687118
7.38783e-05
7.54671e-05
9.90553e-05
0.126009
0.00615686
7.65552e-05
7.17508e-05
0.0411632
8.3649e-05
0.000130967
0.993649
0.000107333
0.0867467
0.000115578
7.91465e-05
8.06576e-05