/*--------------------------------*- C++ -*----------------------------------*\
| =========                 |                                                 |
| \\      /  F ield         | OpenFOAM: The Open Source CFD Toolbox           |
|  \\    /   O peration     | Version:  v2012                                 |
|   \\  /    A nd           | Website:  www.openfoam.com                      |
|    \\/     M anipulation  |                                                 |
\*---------------------------------------------------------------------------*/
FoamFile
{
    version     2.0;
    format      ascii;
    class       volScalarField;
    location    "3";
    object      nut;
}
// * * * * * * * * * * * * * * * * * * * * * * * * * * * * * * * * * * * * * //

dimensions      [0 2 -1 0 0 0 0];


internalField   nonuniform List<scalar> 
108993
(
9.2139e-05
8.51343e-05
7.35957e-05
9.3938e-05
9.33096e-05
5.00618e-05
8.07139e-05
7.39127e-05
9.31839e-05
8.57343e-05
9.81323e-05
9.71307e-05
7.76693e-05
7.73024e-05
8.24287e-05
6.95194e-05
7.63069e-05
8.33584e-05
7.85248e-05
8.37811e-05
8.07485e-05
9.0834e-05
7.38954e-05
9.35661e-05
9.27324e-05
8.33966e-05
9.16694e-05
8.96367e-05
0.00010036
5.87759e-05
0.000103212
9.62707e-05
0.000110609
9.50826e-05
0.000110243
9.33811e-05
8.2757e-05
9.79462e-05
0.00452786
0.00464861
0.000105566
9.98703e-05
8.49203e-05
0.000132311
8.40156e-05
0.00161694
0.000109793
0.000104027
0.000110255
9.15189e-05
9.49678e-05
0.000124731
8.69694e-05
9.09191e-05
9.57464e-05
9.88826e-05
9.09527e-05
8.7065e-05
7.29714e-05
0.00010109
8.93812e-05
9.12852e-05
8.81043e-05
7.85694e-05
8.94944e-05
0.000100567
8.74458e-05
9.67219e-05
0.000104687
9.46612e-05
8.63567e-05
8.38395e-05
9.20944e-05
8.96893e-05
8.1502e-05
9.91166e-05
7.86627e-05
0.000106976
9.7476e-05
9.10534e-05
8.41554e-05
7.98478e-05
7.75054e-05
8.74479e-05
9.99767e-05
8.31443e-05
0.000100368
8.08127e-05
8.52444e-05
9.96285e-05
8.71991e-05
7.49092e-05
9.79436e-05
7.57775e-05
9.44317e-05
9.17453e-05
7.41422e-05
6.43874e-05
7.26995e-05
7.78029e-05
9.54334e-05
0.000108524
0.000104393
9.98857e-05
6.95986e-05
0.000100738
9.98488e-05
0.000140697
9.94581e-05
0.00227366
8.171e-05
8.75961e-05
0.000136598
9.09353e-05
9.20557e-05
0.000603268
7.92974e-05
7.39164e-05
0.000108645
8.93373e-05
8.72904e-05
8.36554e-05
0.00020985
5.98424e-05
8.99673e-05
8.88073e-05
9.25307e-05
8.02088e-05
7.73303e-05
0.000100298
8.11692e-05
9.81952e-05
0.00010186
0.000340614
8.87654e-05
7.45884e-05
8.4533e-05
7.8794e-05
7.85881e-05
8.44007e-05
7.67336e-05
7.28884e-05
0.000106703
8.62047e-05
9.50437e-05
9.1981e-05
7.36498e-05
0.00243099
8.47619e-05
0.000189665
0.000187234
7.25328e-05
7.30332e-05
0.000239884
9.01994e-05
8.65333e-05
0.000106282
9.73035e-05
0.000174252
0.000137547
0.000228743
0.000165762
0.0001017
8.41947e-05
8.51613e-05
9.84081e-05
8.58473e-05
7.63372e-05
7.5956e-05
0.000102943
9.5014e-05
9.4524e-05
0.000100781
7.98947e-05
9.0544e-05
8.37562e-05
0.00128546
7.8989e-05
9.61144e-05
8.01398e-05
7.97619e-05
7.44241e-05
9.16426e-05
2.69032e-05
0.000104728
9.11729e-05
9.32402e-05
9.10243e-05
9.09474e-05
3.06668e-05
9.08985e-05
9.95613e-05
7.90933e-05
0.000318753
9.6546e-05
8.62117e-05
0.00010185
9.21412e-05
9.84547e-05
3.38694e-05
9.63194e-05
0.000126368
8.7711e-05
8.02426e-05
9.44449e-05
0.000896548
8.1987e-05
0.000194846
8.64405e-05
0.00149962
8.09069e-05
9.22879e-05
0.000930764
0.00148253
0.00353822
6.25409e-05
7.97642e-05
8.97666e-05
8.91002e-05
0.000110295
8.97295e-05
0.000172954
0.000137201
0.000235554
8.0424e-05
6.91403e-05
8.56006e-05
0.000100053
0.000257415
7.3362e-05
0.00302546
9.10204e-05
7.5298e-05
7.54949e-05
8.34472e-05
7.18603e-05
9.46495e-05
8.27705e-05
8.49162e-05
8.82392e-05
6.3563e-05
9.55929e-05
5.83537e-05
9.43461e-05
0.000103884
8.58299e-05
0.00202303
0.00016718
9.90392e-05
9.92932e-05
8.42073e-05
9.30072e-05
8.60116e-05
9.53699e-05
9.47185e-05
9.81802e-05
9.25313e-05
8.68702e-05
0.000105048
5.79182e-05
8.91834e-05
8.45662e-05
0.000100391
7.46274e-05
0.000104832
8.89002e-05
9.90342e-05
0.000104666
5.75512e-05
8.7244e-05
6.35605e-05
7.37599e-05
0.00135521
0.00226598
0.00188698
8.36909e-05
9.59904e-05
0.000417178
9.86516e-05
8.84525e-05
9.5135e-05
0.00157594
0.00151076
8.08415e-05
9.46557e-05
9.02476e-05
7.01388e-05
9.56875e-05
0.000102303
0.00138414
8.64251e-05
7.47227e-05
9.9075e-05
9.40025e-05
9.10073e-05
7.40712e-05
0.000103513
8.73737e-05
9.95435e-05
5.15591e-05
0.000584858
0.000257749
9.64553e-05
6.98364e-05
9.22898e-05
7.30741e-05
6.91885e-05
7.76416e-05
6.78576e-05
0.0015856
9.70491e-05
9.70061e-05
7.68337e-05
8.45419e-05
9.83766e-05
0.000138849
6.87001e-05
7.97339e-05
0.00289467
0.00010527
8.37193e-05
6.49714e-05
6.44008e-05
6.90148e-05
7.14994e-05
0.00104559
0.00279604
0.000254029
8.32187e-05
0.000101635
0.000108302
0.000247727
0.000875786
8.5424e-05
0.00364603
9.08209e-05
8.9983e-05
9.39491e-05
9.19468e-05
8.13744e-05
8.64585e-05
0.00019255
8.16098e-05
9.49123e-05
8.16134e-05
8.49285e-05
7.99152e-05
7.98031e-05
7.85869e-05
7.61549e-05
9.27546e-05
6.16696e-05
0.00055328
0.000187448
8.50088e-05
8.81279e-05
7.99715e-05
0.00181864
8.71338e-05
5.11874e-05
0.000108289
8.07481e-05
7.25923e-05
8.43527e-05
9.26735e-05
9.72448e-05
9.54335e-05
8.01865e-05
8.95825e-05
0.00276943
7.56053e-05
9.56114e-05
7.74034e-05
0.000178262
0.000110477
0.00124646
9.90645e-05
0.000120313
0.00121012
9.5241e-05
0.000858648
0.000771225
9.97832e-05
7.82683e-05
8.50062e-05
5.92419e-05
8.13657e-05
0.0082465
8.41e-05
0.000215175
0.00195991
6.2486e-05
0.00107399
7.71853e-05
0.000680351
0.00012379
0.000535939
9.03171e-05
8.39992e-05
8.79087e-05
0.000121215
0.00185363
0.00150361
9.01396e-05
9.35588e-05
6.4258e-05
8.00638e-05
5.56478e-05
8.28366e-05
0.0023429
8.21633e-05
7.98471e-05
0.00922917
7.89854e-05
9.10589e-05
0.000100186
0.000422156
8.25663e-05
0.000337413
8.42552e-05
0.00177315
8.62946e-05
0.000164558
6.83038e-05
9.62563e-05
0.000969411
9.41177e-05
0.000151637
0.00184878
5.86693e-05
0.00061759
0.00375682
0.000626321
8.6412e-05
8.26876e-05
8.98203e-05
8.50597e-05
9.31939e-05
9.97089e-05
7.98642e-05
8.43666e-05
8.2826e-05
0.000102735
5.96807e-05
0.000115752
9.97094e-05
7.86888e-05
0.000103325
8.42592e-05
6.49505e-05
8.68377e-05
8.90463e-05
9.71968e-05
0.000115523
0.000107622
8.75215e-05
8.76771e-05
8.40628e-05
0.000106194
7.79331e-05
0.000962099
8.72216e-05
0.000679576
0.000155739
8.78103e-05
6.70184e-05
7.90605e-05
0.000540635
6.32508e-05
7.78933e-05
0.000114741
9.41587e-05
9.41319e-05
8.49238e-05
0.000104479
9.88563e-05
7.47607e-05
9.77655e-05
0.000313467
9.87995e-05
7.97568e-05
0.000104364
9.98845e-05
9.48153e-05
0.000136414
7.86014e-05
7.72663e-05
7.49308e-05
8.71264e-05
0.000100688
8.85308e-05
9.74359e-05
9.48056e-05
7.92337e-05
8.67605e-05
6.05427e-05
0.000131204
9.54522e-05
6.76752e-05
8.6117e-05
7.63354e-05
8.89334e-05
6.96901e-05
8.91298e-05
9.68917e-05
0.000254588
8.43514e-05
7.70345e-05
0.00558487
8.69787e-05
9.54125e-05
8.30932e-05
9.56046e-05
0.000101268
8.80564e-05
8.86117e-05
7.51889e-05
8.77421e-05
0.000102728
0.000106738
0.000124859
0.000231212
9.09717e-05
9.37708e-05
0.00010275
0.000114813
8.45932e-05
9.31662e-05
0.000104648
0.000100574
7.5626e-05
8.22503e-05
9.16515e-05
8.09633e-05
9.37344e-05
0.000101243
8.15127e-05
9.33749e-05
9.77211e-05
0.000571216
8.03755e-05
0.00105072
8.67165e-05
0.000101273
0.000100705
8.52504e-05
7.04349e-05
9.8711e-05
9.91628e-05
6.99017e-05
0.000559773
7.40132e-05
0.00233965
0.000107062
9.85591e-05
8.12112e-05
9.70553e-05
0.000102878
0.00163868
7.53632e-05
9.22532e-05
8.95951e-05
8.38996e-05
9.47306e-05
6.55455e-05
0.00201324
9.36307e-05
7.40888e-05
0.000118058
9.8476e-05
9.34881e-05
6.75374e-05
0.00249367
6.65143e-05
0.000322415
8.89747e-05
0.000104213
9.86824e-05
0.00230007
9.79453e-05
0.000101433
8.13364e-05
0.000102319
0.000110519
9.38923e-05
8.03887e-05
0.00264934
6.67979e-05
9.97641e-05
6.46201e-05
0.000106027
6.65259e-05
8.55417e-05
8.68356e-05
0.00228289
8.09222e-05
0.000109602
7.16838e-05
0.000102283
8.5361e-05
9.2368e-05
0.000100747
0.00399781
7.82772e-05
7.60492e-05
6.59967e-05
0.0026192
8.19092e-05
8.72859e-05
9.31824e-05
0.000288458
9.27681e-05
0.000135039
8.55175e-05
0.000109671
8.44024e-05
9.52049e-05
8.51042e-05
0.00155986
7.79163e-05
0.000116493
8.76764e-05
9.41189e-05
0.000466927
0.000100529
9.96011e-05
0.000106713
0.000107907
0.00550352
9.21313e-05
0.000279369
8.73831e-05
0.000115496
0.000238183
8.53085e-05
7.52291e-05
6.73236e-05
0.00562904
8.64879e-05
9.73902e-05
8.36353e-05
9.56106e-05
8.47837e-05
7.93863e-05
7.47796e-05
8.03236e-05
8.85255e-05
8.17424e-05
8.08301e-05
8.5533e-05
9.11967e-05
7.64089e-05
0.00241457
0.000146521
0.000101481
9.68939e-05
0.000162365
0.000126222
9.34141e-05
0.000116741
0.000153165
8.97546e-05
6.79029e-05
8.61537e-05
7.76867e-05
0.00014852
7.11199e-05
9.83009e-05
0.00194763
0.000556601
0.000105589
0.000107358
0.000103134
0.000189301
0.000176942
0.000105883
0.000135877
5.89831e-05
8.98589e-05
0.000827333
8.27423e-05
0.000112949
8.78535e-05
9.23128e-05
0.000885254
0.000122473
0.00286653
9.48927e-05
5.73203e-05
0.000855838
9.09271e-05
8.78656e-05
0.000107216
7.19011e-05
9.88617e-05
0.00180202
0.000116216
0.00181038
7.06859e-05
0.00175467
0.000127388
9.25223e-05
5.16889e-05
5.73884e-05
0.000111776
6.03578e-05
9.36059e-05
7.71348e-05
9.30832e-05
7.83881e-05
9.16842e-05
0.00020657
0.00372234
9.83461e-05
0.00271452
6.95647e-05
0.00012794
9.22536e-05
6.62846e-05
9.75164e-05
0.000101355
9.37748e-05
0.000118177
7.77688e-05
7.85411e-05
9.34907e-05
0.000100688
7.18059e-05
7.98053e-05
9.43822e-05
8.73433e-05
8.99836e-05
7.22368e-05
7.95038e-05
9.5252e-05
7.12189e-05
0.000104268
7.30979e-05
9.29532e-05
0.000107885
7.93339e-05
6.72601e-05
0.00496267
0.000213035
9.79174e-05
0.000101021
0.00010618
0.000116292
9.51354e-05
0.000127417
9.64825e-05
6.51588e-05
7.54177e-05
0.000111194
6.73709e-05
7.98318e-05
7.04602e-05
0.000103364
0.000109588
8.10418e-05
9.06486e-05
8.55136e-05
0.000114234
8.61567e-05
6.28848e-05
9.73734e-05
9.88275e-05
0.000502015
9.67903e-05
9.3254e-05
8.1404e-05
0.000299959
9.23521e-05
0.000205386
0.000140217
0.000108173
8.70382e-05
0.00164259
0.00101802
8.13567e-05
6.5205e-05
0.000432962
9.42869e-05
8.59019e-05
8.75545e-05
0.000135001
9.03496e-05
7.0206e-05
9.3018e-05
0.000129657
8.8799e-05
0.000678061
8.70709e-05
8.61003e-05
0.00584018
0.000112214
0.00202418
9.90389e-05
0.00127303
9.74487e-05
7.93767e-05
8.18433e-05
9.88911e-05
8.5822e-05
9.34756e-05
9.73468e-05
9.33644e-05
8.48877e-05
7.53115e-05
7.88991e-05
9.573e-05
9.07595e-05
9.08212e-05
6.85181e-05
7.24875e-05
0.000885903
7.00565e-05
8.82164e-05
0.000410382
7.03362e-05
0.000938547
7.6836e-05
8.73239e-05
9.41801e-05
0.00639541
8.27161e-05
7.3824e-05
8.31314e-05
7.23004e-05
0.000108495
9.11353e-05
0.000153025
9.32694e-05
0.000112377
8.2387e-05
7.51679e-05
9.33043e-05
0.000136808
0.00666481
0.000114066
7.14628e-05
0.000101939
8.43214e-05
0.000110637
8.98115e-05
9.91675e-05
8.74505e-05
9.71303e-05
0.000926813
9.06326e-05
0.000859299
9.16978e-05
0.00108556
9.53106e-05
9.12791e-05
5.26302e-05
8.97182e-05
8.97505e-05
0.000113447
5.37228e-05
6.07012e-05
0.00017779
8.81757e-05
0.00625073
8.30419e-05
9.71291e-05
8.7741e-05
7.51101e-05
9.85029e-05
9.8121e-05
7.54564e-05
8.23512e-05
7.76618e-05
0.00360623
8.41023e-05
8.95147e-05
9.74369e-05
0.000162193
8.23808e-05
8.56582e-05
0.000252042
0.00628728
7.4813e-05
9.10279e-05
9.36118e-05
0.000710143
8.47647e-05
0.00125108
0.00323827
0.00649456
8.71438e-05
8.37217e-05
9.2091e-05
8.08875e-05
0.000110638
7.78895e-05
8.45011e-05
9.24116e-05
9.5733e-05
0.000112459
0.000140358
8.38735e-05
8.14131e-05
0.000646589
0.000100651
8.949e-05
0.00125684
0.00214326
7.08071e-05
9.88436e-05
8.81783e-05
9.16919e-05
0.000118284
0.000114849
0.000858136
7.3011e-05
0.0007432
9.85259e-05
0.000105216
9.33169e-05
7.01841e-05
9.85309e-05
8.18894e-05
0.000100497
0.000116489
0.000101337
6.99772e-05
0.000121438
8.78138e-05
6.52282e-05
8.08588e-05
7.09019e-05
7.47576e-05
9.73494e-05
0.000115438
7.70497e-05
8.22053e-05
0.000190778
9.50769e-05
0.00364267
7.78213e-05
8.21031e-05
7.93586e-05
0.000105202
9.74259e-05
7.24582e-05
6.45835e-05
0.000360824
0.000100592
9.9708e-05
9.05607e-05
9.43071e-05
9.08505e-05
0.000504932
8.21887e-05
0.000195939
0.00275302
8.35037e-05
7.2011e-05
9.36533e-05
7.94252e-05
7.94281e-05
0.00399534
0.000103885
0.000143589
0.000144892
9.69332e-05
9.26236e-05
8.72106e-05
8.33358e-05
0.00011312
0.00018289
6.52584e-05
8.70214e-05
6.71402e-05
0.000180398
8.29569e-05
9.38151e-05
9.4652e-05
0.000204861
7.92238e-05
7.77387e-05
8.0357e-05
6.83287e-05
8.23694e-05
9.14514e-05
9.12698e-05
0.000113907
9.98534e-05
9.08224e-05
7.77421e-05
9.81982e-05
0.0051259
7.32635e-05
7.84277e-05
8.15223e-05
8.37469e-05
6.59642e-05
0.00492678
7.06475e-05
0.000105291
7.32281e-05
8.33126e-05
9.69603e-05
0.000119429
0.000118994
8.59903e-05
7.77986e-05
0.000960533
7.89362e-05
0.000161463
0.000104386
0.000111091
4.78596e-05
9.0467e-05
9.07639e-05
7.93021e-05
9.03041e-05
8.99629e-05
6.37329e-05
6.65624e-05
8.16187e-05
8.66521e-05
0.000192902
9.77364e-05
0.000100383
0.000131418
8.48231e-05
0.000106249
9.43018e-05
0.000101786
9.77582e-05
9.53139e-05
9.69081e-05
0.000104665
0.000128608
9.43001e-05
0.000109742
9.99546e-05
0.00953813
7.33643e-05
9.29623e-05
9.13148e-05
0.000136422
0.000104126
8.7761e-05
0.00181706
9.79239e-05
0.000113734
8.06801e-05
0.00447726
8.25289e-05
9.93209e-05
8.86861e-05
0.00091719
9.00354e-05
8.72852e-05
7.88355e-05
6.32845e-05
0.000106029
0.00247049
9.69684e-05
8.67812e-05
0.000106254
0.000111348
0.000107667
8.17779e-05
0.00011083
0.000114793
0.000329114
0.000106663
0.00025745
0.000134524
0.000108799
0.000107415
6.73688e-05
5.66177e-05
8.39652e-05
7.05494e-05
8.10198e-05
9.38116e-05
0.00240862
7.30195e-05
0.00814752
9.59908e-05
9.69668e-05
7.24467e-05
9.8007e-05
0.000114129
7.32402e-05
8.7413e-05
9.84873e-05
9.54932e-05
5.97316e-05
0.00011236
0.000717984
0.000102928
9.01114e-05
0.000151918
8.95053e-05
0.000128368
0.000115142
0.000194894
0.000100126
0.000103953
0.00335703
6.8943e-05
7.56704e-05
9.75638e-05
7.18198e-05
0.000101037
8.38137e-05
5.58311e-05
0.000199854
0.000102994
0.000120496
6.63223e-05
9.16846e-05
0.000102614
8.30487e-05
8.13921e-05
8.72784e-05
5.91397e-05
8.01959e-05
0.000294333
9.59448e-05
0.000137551
7.92704e-05
9.45332e-05
0.00228866
8.71165e-05
8.58783e-05
8.44082e-05
9.39255e-05
8.14683e-05
9.62005e-05
6.09803e-05
9.0388e-05
0.000103633
0.000108731
9.50349e-05
9.69216e-05
9.56851e-05
6.45004e-05
9.29998e-05
0.00010816
0.00202585
0.00218473
9.48252e-05
9.10709e-05
9.63616e-05
0.000106323
7.4464e-05
8.76916e-05
0.000145892
8.56322e-05
7.69965e-05
5.73339e-05
9.76969e-05
6.53909e-05
7.72686e-05
0.00010659
9.72256e-05
0.000137889
8.006e-05
8.26066e-05
8.37907e-05
0.00121563
0.000103255
8.42912e-05
6.08903e-05
7.2391e-05
0.000141978
9.71828e-05
0.000116171
6.4914e-05
6.23276e-05
6.40399e-05
0.00153762
9.4968e-05
8.49279e-05
0.000166289
0.000107528
0.000477126
0.000220224
7.74215e-05
9.29009e-05
6.70201e-05
7.86061e-05
6.52531e-05
0.000105665
8.26129e-05
0.000150046
0.00276086
0.000115592
8.72175e-05
8.30696e-05
0.000119248
6.6282e-05
9.46502e-05
6.00804e-05
7.61028e-05
8.45083e-05
0.000774455
0.000143513
0.000127782
9.50276e-05
7.52969e-05
9.06107e-05
8.08378e-05
8.99912e-05
8.67105e-05
8.20125e-05
0.000263374
9.55334e-05
0.000103427
0.000478249
8.07048e-05
0.000985972
9.31836e-05
8.58083e-05
8.73072e-05
0.000102767
0.000104872
0.0038416
9.63667e-05
7.68693e-05
9.41465e-05
0.00288466
0.000113873
8.67613e-05
8.24618e-05
0.000112726
0.000140836
0.000548638
0.00011193
0.000104467
8.99049e-05
7.70026e-05
8.78549e-05
0.000113524
0.000104803
0.000105318
9.57309e-05
0.000637299
9.29579e-05
8.35699e-05
0.00207822
7.59417e-05
9.39049e-05
9.82787e-05
9.66554e-05
0.0016372
9.49316e-05
8.64075e-05
6.23047e-05
0.00108453
9.34585e-05
9.42682e-05
8.62973e-05
9.68311e-05
9.8089e-05
0.00120645
0.00195143
0.00188322
0.000102076
0.00234728
0.000101
0.00118727
0.00152879
6.00939e-05
6.63595e-05
8.42077e-05
7.93757e-05
0.000103889
9.52159e-05
7.86401e-05
7.30185e-05
7.97308e-05
8.68767e-05
8.29024e-05
0.000107361
0.000103195
0.000107609
0.000342226
0.000107358
0.000271841
0.000200806
9.03228e-05
9.21379e-05
0.00136389
0.000276899
0.00178005
8.76003e-05
9.28321e-05
7.92692e-05
8.94491e-05
9.04711e-05
8.89205e-05
7.15404e-05
8.72825e-05
0.000255395
8.99121e-05
9.78853e-05
0.000148838
0.000112287
0.000595853
0.000100547
9.21839e-05
0.000112196
8.46486e-05
9.16451e-05
0.000100396
8.87869e-05
7.04854e-05
8.91742e-05
9.90825e-05
8.29204e-05
8.70793e-05
0.000107139
6.82546e-05
8.53841e-05
8.81218e-05
0.000170378
0.000117329
0.000170316
0.000171544
9.32026e-05
0.000463508
8.53686e-05
9.78989e-05
9.26973e-05
7.4342e-05
9.65135e-05
0.000467642
0.000219618
0.000180683
7.74206e-05
0.00433489
9.64738e-05
8.76466e-05
9.75762e-05
9.18685e-05
0.000103728
0.000104392
0.000112363
0.000185745
0.000101169
8.73804e-05
7.87531e-05
9.65739e-05
9.26717e-05
0.000164454
0.000138949
0.00698177
0.00600691
0.000105855
9.34032e-05
0.000158586
8.33632e-05
7.00612e-05
9.67629e-05
0.000101867
8.84099e-05
9.1508e-05
7.74769e-05
0.000110102
9.585e-05
0.00219958
8.40179e-05
8.26086e-05
0.000137342
0.000137141
7.73869e-05
0.000100889
0.000417128
8.02133e-05
8.8053e-05
9.86756e-05
8.33623e-05
7.30616e-05
7.8086e-05
9.72512e-05
8.26399e-05
7.99986e-05
0.000213613
0.000118414
0.000106777
0.000276653
6.52424e-05
9.09681e-05
0.000160365
6.90134e-05
8.65612e-05
7.39335e-05
0.00011641
0.0053298
0.000100214
9.21355e-05
0.000842064
7.94228e-05
0.00124384
7.32295e-05
0.00078732
6.77482e-05
5.51516e-05
0.000587655
8.22922e-05
6.13207e-05
0.00104938
9.21196e-05
9.3623e-05
8.91203e-05
5.86213e-05
9.70265e-05
0.000102869
0.00031583
8.89943e-05
8.06182e-05
0.00021911
8.06347e-05
0.000299411
0.000902196
0.000255455
9.54846e-05
0.00402756
7.79011e-05
0.00165492
0.000104713
7.90427e-05
7.98593e-05
7.56384e-05
8.44074e-05
9.8034e-05
9.01876e-05
7.29945e-05
0.000318834
0.000748303
9.56752e-05
8.54551e-05
6.7876e-05
8.12138e-05
8.73451e-05
6.72231e-05
7.66754e-05
0.000101299
0.00342213
0.000157029
0.000102924
8.145e-05
0.000109752
9.52173e-05
0.000101424
8.05391e-05
7.91094e-05
8.44757e-05
8.48478e-05
8.84144e-05
6.72305e-05
0.00688526
8.18811e-05
0.000182967
0.000458832
9.56447e-05
8.43872e-05
0.00110017
7.94801e-05
8.23054e-05
7.80949e-05
0.000171073
0.00105664
9.68257e-05
0.00182251
8.40599e-05
9.70683e-05
0.0095864
8.68473e-05
0.000144017
9.19664e-05
7.52144e-05
8.71442e-05
8.55781e-05
0.000112428
8.93541e-05
0.00015652
0.00216677
9.38347e-05
0.000143062
8.06142e-05
8.40858e-05
7.95123e-05
0.000112242
9.93996e-05
9.52165e-05
0.000104059
7.83884e-05
8.50946e-05
8.99198e-05
0.000112713
0.000105281
9.33944e-05
0.00119916
0.000153811
0.000274808
9.97125e-05
0.000102325
0.00192066
0.000455205
9.76279e-05
0.000984788
8.24291e-05
0.000103368
7.09473e-05
0.000184549
0.00220919
0.000388365
7.56743e-05
0.00380252
0.00484757
0.000364022
8.77164e-05
0.000132842
9.17859e-05
6.73228e-05
0.000650001
7.25636e-05
0.00235699
6.81614e-05
0.000128961
0.000146564
0.000706002
0.000122457
6.89913e-05
8.51841e-05
5.47562e-05
8.35932e-05
0.000703835
0.00291295
0.00177964
0.000111958
9.10705e-05
0.0116147
6.88847e-05
8.68464e-05
0.000581075
0.000102183
0.00418008
8.67008e-05
7.88402e-05
8.89876e-05
5.78145e-05
5.6124e-05
9.33865e-05
0.000137607
0.000469623
0.00039935
0.00249458
8.74211e-05
0.00028899
6.0915e-05
9.11667e-05
6.28002e-05
8.66671e-05
9.58713e-05
8.22586e-05
0.000105651
8.45079e-05
8.75063e-05
8.22953e-05
5.87991e-05
0.000102574
0.00181769
6.45453e-05
0.000141531
0.00105144
6.70803e-05
6.44726e-05
0.000199555
5.64742e-05
8.26976e-05
7.49227e-05
8.57162e-05
0.000106448
9.00971e-05
0.000145745
0.000393588
0.000133737
0.00169715
0.00314863
0.000163934
8.69799e-05
6.7663e-05
0.000161434
8.59218e-05
0.00300381
0.000112422
0.000142712
9.4674e-05
0.000168106
9.49614e-05
8.30764e-05
6.34388e-05
0.000104565
8.87353e-05
8.42652e-05
0.000115911
9.36601e-05
6.38675e-05
8.0508e-05
0.00318769
0.000181094
5.8159e-05
0.000165653
0.00374162
0.000250849
0.000146447
0.000278376
5.09815e-05
0.0007575
0.0124679
9.52932e-05
0.00010664
6.79436e-05
9.51417e-05
0.000115492
8.6085e-05
6.86222e-05
0.000263632
0.000604217
8.89797e-05
0.00420366
0.00124464
6.4167e-05
8.2539e-05
0.00122031
0.000846051
0.000104605
0.00465836
7.04066e-05
8.72484e-05
9.16047e-05
8.63787e-05
0.00522682
8.32186e-05
8.42288e-05
9.05585e-05
7.98808e-05
0.000196289
7.8294e-05
9.65832e-05
8.95992e-05
5.79711e-05
7.00792e-05
6.98679e-05
8.37798e-05
8.16481e-05
0.00566752
0.00553739
8.08483e-05
0.00292247
9.14868e-05
9.27744e-05
7.56252e-05
0.000246746
0.00115654
0.000130327
0.000104387
0.00110254
0.00113759
0.0123329
0.000267917
7.14131e-05
0.00520008
9.92649e-05
8.74786e-05
7.36381e-05
0.00194161
6.34322e-05
0.00448975
0.000150147
0.000100631
0.000488719
0.00138993
5.8407e-05
8.00065e-05
8.36551e-05
6.34357e-05
7.83309e-05
0.000101509
6.38433e-05
8.86368e-05
7.62552e-05
0.00141307
0.00132016
0.00145163
6.70155e-05
0.0146117
7.82552e-05
0.00430983
0.000113544
0.00080822
0.000129307
0.000624784
7.58322e-05
0.000140337
8.93132e-05
8.62433e-05
0.000105805
0.000101406
0.000157188
8.11081e-05
8.53844e-05
0.00448134
8.41531e-05
8.56843e-05
0.00234153
0.00226387
0.00178218
0.00436947
8.78549e-05
0.000451799
0.000260643
8.92307e-05
6.93145e-05
0.000278388
0.00320838
7.07017e-05
8.39144e-05
7.07716e-05
0.000103404
7.31695e-05
0.00133091
0.00120056
0.00134548
0.000192526
9.47756e-05
0.00244219
0.000101477
7.96229e-05
8.72152e-05
6.04005e-05
6.18913e-05
0.00239495
0.000118708
7.54048e-05
0.00116533
9.85706e-05
9.8968e-05
6.25796e-05
0.000108323
0.00012755
9.66078e-05
0.000203987
7.54358e-05
9.12296e-05
0.000236186
0.000155496
0.000233786
8.31829e-05
0.000108708
8.54355e-05
9.25181e-05
8.86812e-05
9.66323e-05
0.000147322
0.00305949
9.45703e-05
8.41003e-05
0.0114722
8.6467e-05
8.44948e-05
8.51726e-05
8.79121e-05
0.00131593
0.00135052
0.00592322
0.000239261
0.000687894
9.20263e-05
0.000167882
8.95452e-05
0.00344987
0.000985394
9.25076e-05
0.00196536
8.71541e-05
9.2695e-05
0.000317949
9.20838e-05
8.2891e-05
0.0013065
0.00227886
0.00165258
0.00178801
8.74845e-05
0.00031744
0.00147039
0.00276822
9.64579e-05
0.000106028
0.000280266
0.00171585
0.000318285
0.00231756
8.77717e-05
9.03671e-05
0.000161454
0.00307257
0.000205076
0.000274639
8.98968e-05
0.00171168
9.31005e-05
0.000109611
0.00442942
0.000301977
0.000198958
0.000131396
0.000288883
0.000178446
0.00518813
9.11212e-05
0.000411766
9.01331e-05
0.000533907
9.38997e-05
0.000380063
0.000476883
8.69478e-05
0.00281336
8.37181e-05
0.00121618
0.000531329
7.86963e-05
9.03763e-05
0.000972499
8.69148e-05
8.32049e-05
9.27035e-05
4.92888e-05
0.000842118
9.02991e-05
0.000706443
0.000909113
0.000108837
7.21606e-05
0.00482486
0.000109245
5.74187e-05
0.00159628
5.5912e-05
7.40641e-05
0.000100168
9.71515e-05
9.22623e-05
6.58036e-05
0.00567181
0.00011195
9.59482e-05
0.00122542
0.000100251
0.000386241
0.00463219
0.000115162
5.70397e-05
0.000111096
0.000143399
0.000602171
6.83964e-05
8.14871e-05
6.31074e-05
0.000247992
9.51367e-05
0.00300852
0.00385261
9.38625e-05
8.02347e-05
0.00429038
9.60124e-05
8.56591e-05
6.48685e-05
0.00025457
7.91276e-05
0.0016106
0.00315609
8.68002e-05
9.0501e-05
9.36074e-05
6.77386e-05
0.000402054
6.74088e-05
0.00045777
0.000107006
0.000104682
8.67351e-05
0.000157477
8.32815e-05
0.000105156
8.473e-05
0.000158136
8.44341e-05
6.51138e-05
8.02257e-05
8.84966e-05
8.04584e-05
0.000135782
0.00282056
7.40506e-05
7.78565e-05
0.00378785
6.49237e-05
9.39398e-05
0.000116196
6.32759e-05
0.00636641
0.00841923
9.76621e-05
9.70352e-05
9.68622e-05
9.27169e-05
0.00444041
8.31547e-05
0.00264233
7.49447e-05
0.00146122
0.000181416
7.99328e-05
0.00309123
0.000534702
0.00442714
0.00527739
0.00500369
8.1581e-05
9.31754e-05
7.09527e-05
0.000100856
7.39933e-05
8.73041e-05
0.00216308
8.80954e-05
9.37259e-05
8.5375e-05
0.000361368
0.00223028
0.00109181
9.54885e-05
8.06682e-05
8.79385e-05
7.189e-05
0.00077246
0.000104381
7.82225e-05
8.30121e-05
0.00142354
0.000157507
0.00019219
8.74733e-05
0.000100899
0.000108774
0.0058705
8.07723e-05
0.00582869
7.09309e-05
8.01432e-05
0.000304291
0.00154089
6.58844e-05
9.29079e-05
0.0118098
8.34584e-05
9.63511e-05
0.000100902
0.00389969
8.00365e-05
0.000175449
7.7357e-05
0.00675288
0.00493567
0.000220107
0.000109182
8.03292e-05
0.000911075
0.00012643
6.94774e-05
0.00571409
0.00334812
0.00123169
0.000872603
0.00120287
0.00102269
6.5473e-05
0.00500807
0.000291701
0.00122059
7.86518e-05
0.000172606
0.0030197
6.89698e-05
0.000159576
0.00106715
8.90361e-05
0.00171059
6.5915e-05
0.00915947
0.00086497
0.000551267
0.000507605
5.58513e-05
8.69432e-05
6.90078e-05
9.90233e-05
9.50955e-05
0.0101319
8.38692e-05
0.000166092
0.000114379
7.57786e-05
7.82847e-05
7.36227e-05
8.65581e-05
5.97448e-05
0.000105437
0.000178957
8.88793e-05
0.00149619
8.72192e-05
0.00504004
7.20577e-05
0.000176214
8.31145e-05
8.47534e-05
0.000104826
6.65764e-05
7.16368e-05
0.000108146
7.20296e-05
6.43408e-05
0.00782662
0.00545704
0.00178324
9.59822e-05
8.77214e-05
8.66851e-05
8.46881e-05
7.80586e-05
0.000100881
8.5103e-05
0.000102451
8.36747e-05
8.69078e-05
0.00371423
7.65832e-05
8.9514e-05
8.6464e-05
9.19566e-05
0.000109123
0.000108262
8.40637e-05
8.61189e-05
9.8244e-05
0.00263566
7.96439e-05
0.00183369
0.000128838
8.40334e-05
0.000142169
0.000224788
0.00011015
0.00010143
9.97756e-05
9.66827e-05
9.3662e-05
8.1372e-05
9.26289e-05
6.04192e-05
0.000109872
0.000100313
9.23057e-05
7.94837e-05
0.000232882
0.000102285
9.08658e-05
9.46848e-05
6.09236e-05
9.17864e-05
9.67337e-05
6.98662e-05
0.000337281
0.000103067
0.000111368
7.74918e-05
7.80088e-05
0.000107784
0.000701324
9.29701e-05
0.000778407
0.000862014
7.43111e-05
7.54549e-05
8.10639e-05
8.33097e-05
0.000681368
8.31887e-05
0.000103812
0.000103735
9.42578e-05
0.000826518
8.15745e-05
8.18833e-05
9.52577e-05
7.30922e-05
0.000119735
7.27401e-05
8.23328e-05
9.5951e-05
6.20806e-05
0.000106221
6.89253e-05
6.90482e-05
9.36069e-05
6.60884e-05
8.9904e-05
0.000254476
0.000108069
0.000125268
0.00192178
0.00138136
9.13947e-05
5.66346e-05
6.71922e-05
8.21454e-05
8.74777e-05
9.32796e-05
0.000100387
0.000124175
0.000116443
8.43327e-05
9.1922e-05
9.43792e-05
8.12768e-05
8.30106e-05
9.67833e-05
7.80016e-05
0.000362717
8.64584e-05
0.00298383
8.70555e-05
0.000188971
6.18118e-05
9.34538e-05
0.000516627
6.16552e-05
8.01942e-05
0.00172511
5.98867e-05
8.6808e-05
7.73485e-05
6.21262e-05
9.45609e-05
8.21737e-05
0.000396321
6.25437e-05
0.000434528
8.79859e-05
8.90893e-05
0.000310526
8.99508e-05
0.000276124
9.77779e-05
0.000115782
6.53926e-05
9.74022e-05
0.000233515
0.00013256
0.000208124
9.53385e-05
0.000314789
0.000112561
0.000100421
8.96076e-05
0.000209792
9.30452e-05
8.75235e-05
8.72485e-05
9.90988e-05
7.33324e-05
0.000108747
9.50546e-05
7.47817e-05
0.000101654
0.000108256
0.000101643
9.41607e-05
0.00013009
9.52097e-05
0.000113896
0.000107957
7.01179e-05
8.22834e-05
8.85982e-05
8.88408e-05
8.95102e-05
8.96825e-05
9.68886e-05
9.07336e-05
6.33559e-05
9.55653e-05
0.000109307
0.00012152
8.81601e-05
7.83779e-05
9.64165e-05
0.000370948
7.81059e-05
9.53582e-05
0.00240617
6.14315e-05
8.91347e-05
0.00010727
7.88952e-05
8.71764e-05
9.753e-05
5.33447e-05
8.16618e-05
9.30478e-05
9.98534e-05
8.5708e-05
0.000112035
0.000107213
5.54305e-05
0.000117645
0.000364728
5.35223e-05
8.00062e-05
0.000237494
5.8379e-05
8.72463e-05
0.000108544
9.98e-05
0.000101784
8.36741e-05
8.0787e-05
6.34893e-05
0.000101128
0.00660751
0.000109971
0.000106021
9.11771e-05
5.58329e-05
9.399e-05
9.47819e-05
0.000111024
8.55901e-05
8.69391e-05
8.85699e-05
0.000805513
6.00603e-05
9.35288e-05
8.73566e-05
0.00366453
9.90467e-05
0.000111459
0.00169387
8.04689e-05
8.08602e-05
8.60721e-05
8.61646e-05
0.00011857
8.323e-05
0.000395248
7.94698e-05
9.34186e-05
0.000121538
0.00183805
0.00010605
8.78712e-05
0.00322477
7.63778e-05
0.0053403
0.000106468
7.9623e-05
0.000105813
8.67822e-05
0.0023089
9.9693e-05
0.00244447
9.53678e-05
8.21133e-05
0.00409647
9.27031e-05
8.78371e-05
9.71275e-05
0.00283143
9.65997e-05
9.13709e-05
0.00423585
7.49351e-05
9.04864e-05
0.00234609
0.00102594
8.42508e-05
0.000107354
0.000448257
0.000157837
0.000906929
0.00498408
0.000111941
9.927e-05
6.24137e-05
0.00011342
7.86291e-05
6.46037e-05
0.000100428
8.61707e-05
9.67205e-05
5.69242e-05
9.25087e-05
9.27069e-05
9.01047e-05
0.000100334
8.70742e-05
0.000128953
5.86473e-05
0.00315946
0.000107775
0.000144648
6.11151e-05
0.00319337
8.12079e-05
9.02956e-05
0.00878427
0.000134096
9.07846e-05
9.59558e-05
8.68085e-05
8.64895e-05
5.95007e-05
4.85534e-05
5.35567e-05
8.54546e-05
6.56336e-05
0.00480349
5.58253e-05
8.66915e-05
0.00488937
0.000147084
9.09899e-05
8.85565e-05
6.48801e-05
9.90477e-05
9.10438e-05
9.67752e-05
9.07372e-05
8.21539e-05
0.000113264
0.000110123
0.000104328
0.00720391
0.000135451
0.000104607
0.00845877
0.000120266
9.62822e-05
6.14448e-05
0.000419774
9.22092e-05
8.68556e-05
7.94399e-05
8.8122e-05
7.54237e-05
8.46332e-05
0.00493387
6.39173e-05
6.97116e-05
7.8265e-05
7.16493e-05
0.000139037
7.9908e-05
8.65237e-05
6.49639e-05
8.09745e-05
8.89466e-05
8.19671e-05
0.00543506
9.15374e-05
8.32386e-05
0.00189087
9.56754e-05
9.22541e-05
0.0034632
0.00010705
0.00127575
8.39788e-05
0.000290332
0.008558
0.0054673
8.85674e-05
8.1036e-05
7.96738e-05
0.00281261
8.25489e-05
0.000203087
9.86583e-05
0.00190206
0.000990568
8.57558e-05
6.52954e-05
0.000951236
9.93561e-05
0.000112307
0.00175205
0.00440392
8.75585e-05
9.11777e-05
9.07394e-05
0.000112131
0.000106684
7.20363e-05
8.14207e-05
9.47481e-05
7.42936e-05
6.55681e-05
9.64102e-05
0.0115096
0.000110157
7.635e-05
8.91057e-05
0.00010098
8.06767e-05
8.33617e-05
8.91592e-05
9.14702e-05
9.39159e-05
9.55102e-05
6.62116e-05
0.000103613
9.50454e-05
0.00010892
5.80053e-05
8.67485e-05
0.000118939
0.0014086
6.01837e-05
0.000888296
0.000118138
0.00656424
5.8022e-05
7.98994e-05
0.00080812
5.53457e-05
8.96556e-05
0.0105345
7.85834e-05
0.000112263
6.02114e-05
8.11953e-05
9.24607e-05
9.14172e-05
5.64888e-05
9.61646e-05
8.12825e-05
8.20251e-05
6.60517e-05
0.00258689
5.48997e-05
9.74492e-05
5.67241e-05
0.000106448
9.32757e-05
8.03481e-05
7.46902e-05
0.00285248
9.66499e-05