/*--------------------------------*- C++ -*----------------------------------*\
| =========                 |                                                 |
| \\      /  F ield         | OpenFOAM: The Open Source CFD Toolbox           |
|  \\    /   O peration     | Version:  v2012                                 |
|   \\  /    A nd           | Website:  www.openfoam.com                      |
|    \\/     M anipulation  |                                                 |
\*---------------------------------------------------------------------------*/
FoamFile
{
    version     2.0;
    format      ascii;
    class       volScalarField;
    location    "3";
    object      p_rgh;
}
// * * * * * * * * * * * * * * * * * * * * * * * * * * * * * * * * * * * * * //

dimensions      [1 -1 -2 0 0 0 0];


internalField   nonuniform List<scalar> 
108993
(
0.0687175
0.0548287
0.0473672
0.0211543
0.030656
0.0305252
0.100446
0.0298279
0.030006
0.0740951
0.0667678
0.0662009
0.0255478
0.0744742
0.0729826
-0.0361767
0.071849
0.0795496
0.0239114
0.0399326
0.040516
0.0198011
0.0149755
0.0596021
0.0243933
0.0308707
0.0191909
0.0429925
0.0413787
0.0410559
0.0237182
0.0740195
0.0185264
0.0688193
0.0193621
0.0381997
0.0211446
0.045609
-3.12651
-5.62748
0.0338016
0.0440939
0.0733454
0.0171962
-0.110567
6.5922
0.0197341
0.0962168
0.0385162
0.0159667
0.022998
-0.274148
0.0416838
0.023486
0.0787729
0.06534
0.0191935
0.0302284
0.0352188
0.030052
0.0311931
0.0268544
0.0410789
0.0192899
0.0216938
0.0319945
0.0239475
0.0309048
0.0750231
0.180835
0.0592647
0.0292225
0.0377149
0.0301856
0.0415126
0.0281055
0.0193575
0.0716964
0.018926
0.0244566
0.048126
0.0758452
0.0305855
0.0612735
0.0789082
0.0716392
0.0590363
0.066435
0.0298185
0.0260002
0.0267593
0.0269781
0.0272185
0.0281382
0.0273562
0.0686643
0.026525
0.0511393
0.0248699
0.0294783
0.0276389
0.0255386
0.0672906
0.0715986
0.0468328
0.0268481
0.0437049
0.00845039
0.0225516
1.87081
-0.137926
0.0262287
-0.0509505
-0.117926
0.0451868
1.06457
0.0323882
0.0576829
0.00236711
0.0262916
0.078379
0.0232818
1.47099
0.0542634
0.0431003
-0.0255073
0.0296669
0.0570236
0.0223145
0.0196325
0.0621928
0.0215922
0.0399491
-0.197962
0.0418636
0.0487755
0.0238453
0.0434037
0.041063
0.0743924
0.0541237
0.0336356
-0.071401
0.0226027
0.0206576
0.0402926
0.0487578
4.68956
0.0535157
0.359555
0.297993
0.03008
-0.0252748
0.221473
0.0362115
-0.0469153
0.0684936
0.00684207
0.0123177
-0.279565
0.256261
0.00188965
0.0266964
0.0536576
0.0727332
-0.13594
0.0297356
0.0197269
0.0196445
0.0496571
0.0272801
0.06455
-0.232858
0.055844
0.0290677
0.0274444
-0.140163
0.0198862
0.0496749
0.0338922
0.0671504
0.0331985
0.0118604
0.0548304
0.0730767
0.0541354
0.0148668
0.0773975
0.0759864
0.0547131
0.0607881
0.0150839
0.0628394
-0.0629569
0.0456617
0.0517276
0.0318264
0.0547249
0.0447863
0.0549008
0.0299744
-0.107208
0.046531
0.00227552
0.13365
0.734853
0.0415724
2.91545
0.0462062
-0.0125364
0.0870593
0.0500024
-0.194401
0.703996
4.03092
0.0470723
0.072766
0.0414336
0.0108441
0.0230936
0.0186412
0.401431
0.0450816
-0.0605031
0.0152244
0.0202421
0.00682516
0.0470097
-0.301972
0.0253526
3.33039
0.0581379
0.0200758
0.061253
0.0332504
0.0243167
0.021603
0.0235629
0.436254
0.00659097
0.0279625
0.0447756
0.0296058
0.0044322
0.0130622
-0.0323524
1.02381
1.34033
0.00659536
0.0257292
0.0299298
0.0218485
0.0362403
0.0477997
0.0100608
0.00501206
0.0102002
0.0586167
0.0238102
0.0306935
0.0437891
0.0413269
0.00178989
-0.0343448
0.0120486
0.0260807
0.0433815
0.0370247
0.0307252
0.0422845
0.0295615
0.0467938
3.21626
0.224465
4.61458
0.0489434
0.0264605
1.49139
0.0596206
0.0296568
0.0279233
6.87078
6.43613
0.0277259
0.0257997
0.0258628
0.0257479
0.0246394
0.0595787
4.34688
0.0777272
0.0402592
0.0244655
0.0410248
0.0235475
0.0445323
0.0261468
0.042401
0.0806641
0.0297456
1.14866
0.487194
0.0465362
0.0295643
0.0377937
0.0798268
0.00933111
0.0454702
0.080208
2.57318
0.0305098
0.0283944
0.0360533
0.0406726
0.0790011
0.698262
0.0193176
0.0399564
3.26643
0.0408514
0.039215
0.0191943
0.05811
0.0575929
0.0543442
-0.782078
-0.0097446
0.455444
0.0271195
0.0517167
0.0135593
0.869258
0.0559109
0.0359681
2.02232
0.0492424
0.0393282
0.0295324
0.0456807
0.024314
0.0354892
1.2055
0.0194081
0.0481756
0.0715925
0.0765436
0.0465069
0.0358858
0.0261879
0.0468331
0.0433891
0.0304495
7.03572
4.41176
0.0114237
0.0438084
0.0487337
6.78597
0.0641319
0.0205587
0.0320981
0.0188357
0.0463705
0.0468661
0.0406045
0.0236703
0.0463004
0.02751
0.0741945
1.80225
-0.0199116
0.0382252
0.0465665
0.0848371
0.0197915
-0.327638
0.0652207
0.0454696
0.351725
0.0605864
0.180474
0.28271
0.0248723
-0.0341148
0.0754684
0.0342785
0.0584136
-4.89248
0.0284076
4.26435
0.129345
0.0346459
0.000387403
0.0731006
3.76444
0.0210791
-0.386074
0.0267507
-0.0408486
0.030218
0.0215397
1.4936
1.74914
0.0389653
0.0146559
0.0332325
0.032457
0.0508723
0.0491401
0.656215
0.0794341
0.0168979
-2.47651
0.0523281
0.0682029
0.033351
-0.118921
0.1207
3.68037
0.0305386
1.30176
0.0461979
0.0709131
0.020207
0.0296103
0.080351
0.0457411
1.16239
0.0792804
0.0294385
-0.477021
-3.89753
0.23656
0.0199984
0.0450048
0.0729832
0.00700666
0.0253886
0.0209015
0.036276
0.0759643
0.0471551
0.0497426
0.0266631
0.479872
-0.0211911
-0.000201634
-0.217225
0.047367
0.0265259
0.0643264
0.0287968
0.0477524
0.0654258
0.0212349
0.0699105
0.0758279
0.0262096
0.0602525
0.0312818
1.52315
0.0461272
1.52376
0.64965
0.0312778
0.0471408
0.0358883
1.51597
0.0467493
0.0459728
0.105355
0.0337655
0.0288907
-0.0315903
0.00837
-0.028319
0.0362962
0.167031
4.72672
-0.0296301
0.0448468
0.0312909
0.0344595
0.0453936
0.0301518
0.0485356
0.0469667
0.0471947
-0.212935
0.0668201
0.0770163
0.0560738
-0.041252
0.0464114
-0.0625804
0.0403321
0.0279352
0.0484262
0.0475974
0.0428566
0.0215418
0.0337827
0.0390669
0.0474938
-0.0977043
0.838237
0.0463596
0.037033
-4.86301
0.0467039
-0.00181245
0.0063469
0.0315021
0.0500499
0.0468563
0.00458966
0.0316429
0.0469425
0.0512502
0.0694569
0.00237063
-0.00151928
0.0163165
0.0500415
0.0360555
-0.0690369
0.0730162
0.0515528
-0.0789069
0.0540543
0.038487
0.0394647
-0.0699
0.0748415
0.0474618
0.0461864
-0.0155176
0.0730917
0.0674376
4.20258
0.0437226
4.34033
0.029904
0.0417044
0.0628024
0.0460408
0.038287
-0.083591
0.0536161
0.0295493
1.21917
0.0370449
5.43426
0.047122
0.0767156
0.0428133
0.0261385
0.0114822
-0.542528
0.0434415
0.0666271
0.0323883
0.0488917
0.0260592
0.515923
1.17445
0.0709354
0.0360199
0.0245562
0.0332178
0.0522504
0.024747
7.27979
0.525633
0.8978
-0.0111891
0.0709233
0.537211
0.0502097
0.105488
0.0490192
0.0645523
0.0489627
0.0260793
0.0582028
-0.0710792
6.27574
0.5573
0.0693285
0.0205727
0.0194317
0.0524807
0.0524795
0.0476258
0.251378
0.0300244
0.0326904
0.0519383
0.0742216
0.00495324
0.0490147
0.0664279
-0.477536
0.0177374
0.076535
0.0549858
-0.223981
0.0539317
0.0312076
0.0534686
-0.0221642
0.0494256
-0.143332
0.0516601
0.0255384
0.0488551
-0.000191068
0.0527501
1.55554
0.0287765
-0.172326
0.0287571
0.0597245
5.09098
0.06079
0.0320407
0.0339412
1.29639
0.217187
-0.0100412
0.451865
0.0364611
1.24698
-0.245303
-0.00465896
0.0312872
0.0535752
-5.68398
-0.0781241
-0.159674
0.0800072
-0.163137
0.0476805
-0.0478117
0.0385439
-0.00805651
0.0455319
-0.140846
-0.0953542
-0.00781099
-0.00246494
-0.0660539
3.63539
8.21519
0.176328
0.0532223
0.00371433
8.09707
0.410039
8.09975
8.17364
0.0303813
0.038541
0.0401546
0.0260831
0.00836002
0.0835308
-0.00672795
2.76987
4.17788
-0.0150263
0.059611
-0.131312
8.22531
8.17061
0.0267932
-0.0627117
0.10117
0.0287226
4.45139
0.0724123
0.681716
0.0284377
-0.00241701
4.32425
-0.00630966
-2.89756
0.0994554
0.0973644
-0.576184
0.0143653
0.0514993
-0.162392
0.0765248
0.0599883
-0.423246
0.0765259
2.1123
0.075949
0.150131
-0.0887844
0.03697
0.0182224
0.0180648
-0.0274261
0.0315609
-0.111724
0.0400208
0.0382122
0.0183037
-0.056627
4.01057
2.17367
0.0514567
-2.95573
0.0558095
-0.130135
-0.0172001
0.0296145
-0.136187
0.0519114
-0.0123224
-0.0867003
-0.0317952
0.0774542
-0.0240205
-0.0526906
-0.126825
1.23423
0.0339757
-0.183068
-0.0133581
-0.0390301
-0.0255944
0.0558182
0.0298606
0.313928
0.0198202
0.0486958
0.0827706
0.0625601
-0.0285991
-5.57367
2.22422
0.0301032
-0.0251311
0.0232587
0.0126622
0.028788
0.0370034
0.0701868
0.0198856
0.019368
0.0334004
0.0197366
-0.0342911
0.0193874
-0.0150467
-0.0551244
0.0381102
0.00982032
0.0198969
0.0329535
0.0481306
0.179075
0.0360724
0.0737343
3.79675
0.0231275
0.0470177
0.0475777
-0.00386851
0.0387127
1.25619
0.923811
0.0690385
0.0453436
0.757772
1.36928
0.0646691
0.046095
-0.0501559
0.0432719
0.0453995
-0.0117157
0.0141768
-0.0216868
0.0309901
0.0417968
0.183722
0.0291937
3.61332
0.0398558
0.0594421
-4.61511
-0.0112466
-1.14267
0.0171033
0.113022
0.0412826
-0.025765
-0.0282639
0.0270007
0.0429076
-0.0141211
0.0349834
0.0672997
0.0786282
0.049386
0.0478933
0.0406535
0.0339928
0.030737
0.188005
0.0547942
-0.0582591
0.0775
0.0713665
0.112229
0.0776702
0.280745
0.0681839
0.0742057
0.0375552
1.52358
-0.0434462
0.079084
0.12419
0.127173
0.0718415
0.111372
2.95056
0.0747094
0.0438279
-0.152664
0.0781837
0.0394623
0.222445
-2.89438
0.0394478
0.0586516
0.0421559
0.16631
0.0391026
0.0795891
0.109936
0.0521972
0.0698225
0.522966
0.0472664
0.927268
0.0503536
0.452982
0.0451282
-0.00942978
0.0214003
-0.0276623
0.0587717
0.0707419
0.0216816
0.0213311
0.0205481
-0.00955142
-7.38196
0.0133018
0.0122338
0.0550142
-0.0419096
0.0177491
-0.0196327
0.02795
0.0490934
-0.0501996
2.05094
0.0487202
-0.00291547
-0.139193
0.312708
0.0600394
0.121968
7.79382
-5.67513
-0.0618711
-0.134818
-0.0113775
0.0515147
0.029856
0.0520536
3.68171
-2.47873
0.0269228
0.0253316
-0.00216634
-0.00337241
-0.0677786
0.00514613
0.0337022
-0.058927
0.932339
0.0274437
-0.128961
-0.0162838
0.0449655
0.0443145
0.0157008
0.0620696
0.0584609
-2.08751
0.046075
0.0860617
0.0305093
0.0781821
-0.0163472
-0.162581
0.0956044
0.0625466
0.0782649
0.0321104
-0.017024
0.0563134
0.071541
-6.94653e-05
0.0207139
0.0466066
0.00789092
0.0192459
0.0343583
-0.170085
0.028201
0.0237438
1.25833
0.0235834
-0.171038
-0.0735785
0.00657789
0.00444604
0.0329996
0.293448
0.0633024
0.4833
0.0764675
0.0407216
0.00616482
-0.0546125
-0.189058
0.0239203
0.0725739
0.0937548
-0.123916
1.18422
0.0295096
0.0142061
1.20182
0.502834
0.0772176
0.0585514
1.42838
0.00652875
0.0722844
0.00935277
-0.018491
-0.0776576
5.19903
-0.158645
0.00606258
-0.00259468
0.0666129
-0.052657
-0.00588275
-0.0260299
0.00449333
0.657848
0.0724887
0.0257252
0.0308589
0.000255469
0.0260718
0.0543439
0.0214892
0.00191383
0.0586668
0.0465534
0.0603147
0.0311108
0.0573923
0.0599837
0.0435354
-0.120249
0.0624737
0.0526694
0.0734562
0.0286006
-6.51928
0.0553345
0.0378731
0.0315256
0.034841
0.0319008
-5.5256
0.0328881
0.0218863
0.0587552
0.0332644
-0.101199
-0.173528
-0.0627561
0.015738
0.0579671
1.55952
0.0693432
0.0476902
-0.0950071
0.254175
0.0306246
0.0574752
0.0570098
0.0578871
0.0337675
-0.0354937
0.0708542
0.0306043
0.0527918
0.0349733
1.38392
0.0541466
-0.034752
0.00341873
0.0538559
-0.0477433
-0.29486
0.058862
0.0109936
0.0544372
0.050203
-0.00962034
-0.0362767
0.0598539
0.0211117
0.032532
-2.93696
0.0525829
-0.0379703
0.0459102
0.0417004
-0.0227799
0.0252088
6.93096
-0.11189
-0.0455991
0.0213617
-5.27735
0.00441943
-0.0563722
-0.0372121
7.09079
0.0324501
0.0601708
0.0594617
-0.188126
0.0317929
0.690262
-0.0700556
0.0205902
0.0327919
0.0341218
0.0127795
0.0381108
0.0244666
-0.086649
0.0251998
0.0687813
-0.0581671
-0.222162
-0.226352
0.0449908
0.0204704
0.020986
0.0453439
0.02051
0.0302695
0.0673544
-0.683593
0.034958
-6.79512
0.0657409
0.0594383
0.0469062
-0.206548
-0.113738
0.0204927
0.0674258
0.0578411
0.0445875
0.0209002
0.0191169
0.179404
-0.0544031
0.0574775
1.39633
0.0258306
0.0540515
0.0556029
0.00110456
0.0157231
0.0360153
7.01172
-0.13524
0.0261335
0.0561133
0.0210683
0.0610706
0.0683902
0.0207697
0.066815
0.0578404
0.0569577
0.0288782
0.0603748
0.0599324
0.0581546
0.0520958
0.00940298
0.0447099
0.0555891
0.0668108
0.0554194
0.178873
-0.108709
-0.0839145
3.73913
0.0550679
0.032642
-0.00412543
0.0471851
0.0787868
0.0541594
0.0573552
0.0445118
0.0604153
-0.203105
0.0579905
-0.011658
0.0586981
0.0567983
0.0551809
0.0707972
0.157592
-0.159065
0.0607153
0.0459354
0.0425953
0.0295146
-0.0311759
0.0431434
4.85856
0.0347316
0.0180108
0.0179613
0.0304734
0.0204852
0.0828553
0.0696619
0.0540635
4.85105
-0.00101195
0.00232653
-0.0127179
0.390284
0.00425688
0.063398
0.0330896
0.0453256
0.423985
0.0306531
-0.197396
0.0301024
0.0303989
0.0319799
-0.987809
-0.0724387
0.0248064
0.0101443
0.034996
0.0161014
0.0129953
0.0315498
0.0558008
0.0126428
0.0366048
0.0120468
0.0491249
0.0328249
0.838877
-4.33478
0.0261167
0.0439252
0.0253316
0.03024
0.0276643
0.0258859
0.027796
0.0345585
0.0272329
-0.0661887
0.00432968
1.82572
0.062364
-0.136249
0.0494459
0.113343
1.27925
0.0192587
0.0129199
0.00458492
0.00211103
0.307097
0.0173778
0.106106
-0.456408
0.05044
0.0553631
0.0623126
0.0333802
0.0654283
7.21414
0.051419
0.0650026
0.0478675
-0.123678
0.0541469
0.0390967
-0.0126699
0.0403256
1.24885
0.976275
0.0400795
-0.0352407
0.0654767
0.125225
0.0552768
0.0682424
0.0349401
-0.0545805
0.0258451
1.01488
0.0430574
0.0555454
2.74504
0.0550652
0.00938177
0.0335705
-0.0175142
0.139362
0.0614464
-0.182044
-0.126932
0.12967
0.170621
0.0203611
0.0446417
-0.0487719
0.0557619
2.24242
2.37412
2.24163
1.2807
2.32921
0.015398
2.38297
2.28199
0.0390243
0.0395878
0.0302586
-0.132942
0.0567568
0.0323134
0.0447105
0.0406024
0.02075
0.0163912
0.0186925
-0.117068
0.0322663
0.05464
-0.00327956
0.0609179
0.0050042
-0.00763154
0.0450028
-0.0604637
-1.00615
-0.00364617
-0.0395935
-0.0608745
0.0282485
0.0775793
0.0387335
-0.0792402
0.0669876
0.0159306
0.0247486
-0.00145881
0.0594701
0.0608513
0.00468951
0.0611784
-0.24195
0.0605706
-0.122935
0.0535461
-0.0330848
-0.135723
0.0595487
0.0403315
0.0355601
0.0506182
0.0597704
0.0353288
0.023076
0.0209518
0.0357631
0.030503
-0.018745
0.657755
0.0600946
1.21341
3.01588
0.0371571
1.50122
0.0223922
0.0372641
0.0377156
0.0544913
0.0719782
4.3927
1.8076
-0.309471
0.0603618
-5.38231
1.17776
0.0485184
0.0690839
0.0301845
0.062432
0.0569974
0.0346558
0.284713
0.0237642
0.0286647
-0.0242676
0.0700369
0.0365744
0.0299589
0.0252173
-9.1842
-5.37601
0.0739923
0.028574
1.11719
0.0305219
0.0129638
-0.0460347
0.0339664
-0.0134821
0.0583359
0.0125452
0.0439024
0.069271
-5.59229
-0.0472082
0.0692304
1.02221
-0.0657453
0.014347
-0.0828629
-0.17231
0.0168153
0.0434182
0.072553
-0.0944048
-0.0391277
0.0340413
0.0719903
-0.144002
1.27006
3.29361
0.0719914
0.0722264
2.73587
0.0769597
0.0296195
3.32126
0.0771484
0.0238332
0.0760864
0.048127
-7.63185
0.0313853
0.0598269
-0.812854
0.0761192
4.83637
0.0765772
5.04966
0.0764317
0.0335274
4.66943
0.0970692
0.0337421
6.10877
0.0693843
-0.0119242
-0.134926
0.0309546
0.023666
0.0645085
3.56957
-0.152376
0.0380425
1.44966
0.0436221
-0.0679956
2.91181
0.195314
0.08939
-5.0233
0.0495829
-0.551822
0.0503537
0.0526193
0.0650542
0.0286218
0.0233579
0.0204737
0.0332886
0.0257351
1.46127
0.229577
1.28907
0.302677
0.0262072
0.0279172
0.0302666
0.0257644
0.0265531
0.0441664
-2.4305
-0.00534445
0.0280998
0.0440444
0.0257909
-0.162705
0.0564158
0.0537824
-0.0733975
0.0480882
0.0523714
0.0512241
0.123004
-6.17422
0.0726571
2.40917
-0.34367
0.0533173
0.0754364
0.264659
0.0503291
0.0464423
0.0332686
4.65698
4.97298
0.466037
-0.824404
0.0419955
0.0304853
-3.66003
0.0450564
0.127397
0.0533735
0.0460819
-0.00857895
0.0424729
0.105301
0.0459312
0.111563
-2.30022
-0.0615306
0.119865
1.23631
-0.095007
0.031053
-0.280004
0.0471919
0.0523147
0.042491
0.046828
0.0244868
0.047126
0.029858
0.0341217
0.00497086
-0.256206
0.689245
1.21308
0.0265283
0.0461871
2.38015
0.283718
0.0350703
1.48568
0.0431
0.0485499
0.278293
3.62911
4.85983
1.50073
0.0455885
-5.59907
-5.0395
0.290277
0.0255671
1.61971
0.284194
0.253011
1.18146
0.0259356
5.19066
0.238247
0.00743049
0.2417
1.59581
0.262852
0.111758
0.0986052
0.10971
0.0518929
1.80848
-3.0941
4.89852
0.031237
0.0279638
-6.08872
0.0298096
0.0619153
0.740969
0.0188779
-2.58268
0.108598
0.0583431
0.0637258
0.0615905
0.0595184
0.104099
1.20057
3.80994
1.04785
-1.31319
0.0473035
-0.199246
0.105935
0.0204544
0.0651787
0.043226
0.0645578
0.0602795
0.0234754
0.0625506
-0.0546738
0.0620793
0.0588282
-0.00902506
-0.424319
0.103362
-0.265652
5.45494
-0.097264
0.0293846
0.137919
0.0582506
0.0610396
0.0494989
0.0555587
0.0388031
0.0721236
1.61393
-0.232685
-0.0986834
-0.548071
-5.36851
-0.082181
0.0609323
0.58113
0.693385
-0.0433856
-4.81297
0.0124975
0.00615499
0.0118498
0.418046
0.0222966
0.333638
0.064332
0.019485
0.0373495
0.033932
-0.00354037
0.0262268
0.587992
0.0138067
-3.18269
0.574477
0.0353722
0.00208386
-0.0867895
0.287654
2.68119
0.561071
0.0307959
0.607988
-5.21694
0.0400249
0.0229862
1.31109
-0.0428898
0.547901
0.0460883
0.554037
-0.0434314
4.45876
0.56486
-5.06544
1.93311
0.573308
0.0628552
5.00208
0.590322
-0.0580778
-2.65008
0.0740678
0.10229
0.352044
0.0517841
-1.98821
-0.0921485
0.0293065
0.0494887
0.0651998
0.0732611
0.0415744
0.0321233
0.0336233
-0.0439558
0.0184933
0.0650087
0.0285065
0.0436319
-1.11128
-4.09968
0.0444077
-2.26462
0.109696
0.0301981
-0.0370601
0.0351466
5.37514
-0.0466185
-0.0483016
1.24018
-0.725272
-7.35178
-0.16404
-0.0438418
-5.6718
0.0450422
0.0465145
0.049147
-3.15244
-0.0556048
-1.7881
-0.0520666
-0.124197
0.0187915
5.03468
-0.0478614
0.404479
0.073255
0.0278383
0.0246111
-0.0470886
0.053162
-0.0549187
-0.0241561
-1.19691
-0.298303
5.37999
-0.023485
-7.59314
0.0120591
0.263044
0.0214158
-0.383827
-0.0301443
0.116773
0.0154924
-0.0109174
0.0495916
0.0277528
0.0290421
0.00882495
-0.163339
0.18701
0.0147733
-3.68931
0.389571
-0.138529
-0.162969
3.86799
4.97997
-3.28187
0.0379778
0.026243
1.40613
0.0437558
0.0642802
0.197561
1.37965
0.0187853
0.0720629
0.0704515
0.0117529
0.029952
-0.803469
-0.498386
-0.944533
0.0972115
0.0282463
-0.213507
-0.110287
0.0191133
-0.139758
0.0454782
0.0725714
-1.54643
0.0802401
0.072314
0.255349
0.0131987
0.0419771
0.0721019
0.0471381
0.00895643
0.0350843
1.4348
0.0176005
0.00391917
0.712059
-0.156963
3.86389
0.00820884
0.0325854
0.0433046
0.043021
0.063093
0.0600678
1.16447
2.82667
0.061464
0.0305509
-9.67632
0.0617175
0.0220781
0.0631611
0.0622544
-0.465746
4.35191
0.330089
0.930476
0.88143
0.0240922
2.63248
0.0629595
0.558559
3.88932
0.0383083
2.28231
0.036761
0.041329
3.82237
0.0159967
0.0396143
4.29011
2.69849
4.19702
4.35825
0.0258793
1.38348
1.46182
2.36716
0.0156039
-0.175965
4.15061
4.19216
3.35007
-4.5173
0.0894613
0.0746914
1.41743
-1.1353
3.6784
0.276247
1.18725
4.31229
0.0287891
0.0333657
1.41372
4.17965
1.33651
1.03239
1.42167
0.00905585
-3.06186
0.0253164
1.52683
0.027197
4.27044
0.057688
1.28909
1.01764
0.0509047
5.16195
0.0565533
4.24377
4.29413
0.0326252
0.0579771
3.18946
0.0564628
0.0463988
0.0278792
0.0309225
3.80896
0.0269995
4.29052
5.82958
0.0280571
0.0306986
-1.04049
0.0178063
0.0706767
1.56981
0.0706337
0.0703455
0.0279286
0.0551496
0.360313
0.361222
-7.60482
0.0525044
0.0216185
4.61192
0.0425598
-0.0927922
-5.62774
0.0282806
0.0205557
-0.0595913
0.00211117
0.517646
0.0295236
0.0363978
0.0295883
-0.00178436
0.0157581
-0.84363
-2.37326
-0.066885
0.0216811
-0.601395
-0.00884538
-0.150068
0.029646
1.28792
0.0242867
-1.21818
2.74526
0.0724369
0.0474155
0.0562806
-0.137582
4.85131
0.0296611
1.34639
0.0834489
0.0308438
-0.0208024
0.0375155
0.0412025
-0.0121499
0.0437824
3.38484
0.0440381
0.0294025
0.0300095
0.0460365
0.0339264
3.09722
-4.10159
0.0297632
0.0298057
1.94803
0.0202345
0.48038
0.0705057
0.0204089
-5.23353
-3.58676
0.285477
0.0670602
0.0689889
0.143174
4.99489
0.0487306
3.9921
0.0473004
0.936001
4.84395
0.0385356
-4.46116
4.28452
-2.05989
-3.19643
2.28767
-0.0100829
0.0468331
0.027464
-0.0170133
0.174841
-0.157627
5.77957
0.0280952
-0.077712
0.0464182
0.00326989
4.47707
4.53405
0.0472092
-0.138096
0.383503
0.020236
6.01482
0.0472943
0.0383274
0.0304015
4.44286
3.25629
2.61542
0.0294557
0.0258397
0.0517783
0.972068
0.0607753
-10.1977
0.0200925
0.0200698
7.50606
-0.332545
0.0394098
0.0476611
-9.30211
0.0462586
0.0475655
0.113976
4.57805
-0.14505
0.970455
0.0386085
-4.35866
-4.66467
0.191438
0.399285
-0.00471528
-0.126108
0.020294
0.272032
-2.41099
-5.10284
-0.564148
-0.122331
-0.552447
0.00293622
0.0368146
3.05911
4.60981
0.360054
0.0375695
0.070815
0.127813
0.0309307
3.46359
-0.223173
0.0381745
-1.38184
0.0369451
-4.98819
1.3794
-0.317627
3.60161
2.56322
0.0483186
0.0378362
0.0374976
0.0604077
-3.90908
0.0300062
1.49112
0.728494
0.0250262
0.0250583
0.0248627
0.0537485
0.0649894
0.0481389
-0.0807994
0.0387393
4.58153
0.0530182
-4.07704
0.0251213
-0.105883
0.0794018
0.0108254
0.115397
0.0247351
0.0247803
0.0539088
0.0338807
0.0752727
-6.77829
-2.19665
-0.58946
-0.0969217
-0.033711
-0.0392267
0.0315257
0.0401
-0.0199185
-0.0362289
0.0586115
-0.126911
-0.1406
1.60071
-0.0371069
-0.0268824
0.0116671
-0.0769995
-0.110092
0.0123949
0.113013
0.0574064
-0.111976
1.69868
0.0853761
-0.862597
0.0335465
0.0751773
-0.0810339
-0.127881
0.0263816
-0.0351966
0.00649439
0.0243527
-0.00521476
0.0133341
0.055375
1.30243
0.0548732
0.0151727
0.0747872
0.0449311
-0.0434586
0.0537267
0.315941
0.0153225
1.30142
0.0539332
0.0297181
1.29987
-0.332346
-0.384522
0.0702507
0.0299955
0.0278238
8.08397
0.359719
0.0299503
0.0445458
0.174841
0.0694796
0.0624275
-0.0765817
0.137452
0.553079
0.0146876
0.0481919
0.121821
0.0755356
0.758601
0.0687879
0.0018722
0.0660524
0.0445415
0.0578
0.0026237
0.0503915
0.0550011
0.00174691
0.356472
0.00780815
0.00258038
-0.140715
0.00140997
-0.00128392
1.17
0.0549733
0.000473458
1.17564
1.09338
0.0599565
0.0205515
0.00901683
0.0506932
0.0984283
0.0231335
0.0557033
-0.078661
0.0676001
0.0604086
0.0607606
0.0607629
0.0418716
0.0688015
-0.106569
-0.0729463
2.35034
-0.14039
2.09311
-0.0922754
-0.183511
0.0203769
0.0133013
2.61309
0.020855
0.0760941
0.392792
0.0205077
2.5263
0.0779174
0.0209834
-0.0526758
0.265579
1.46981
0.181739
1.49258
-0.000156302
0.184026
1.37853
0.0761434
-0.0103257
0.0706556
0.101452
0.167627
-0.0581629
1.38208
0.160323
1.44956
-0.0421359
1.44681
0.17273
0.0730739
0.0404507
-0.0917285
0.0575776
-0.00623878
0.0453729
0.0707458
0.158807
-0.0142821
0.00572948
-0.0771929
0.0419118
0.040194
-0.00674903
-0.00852531
0.627531
0.0440281
0.0309493
0.0711095
0.0476508
0.101453
0.0456458
-0.0576384
0.0529084
0.0440962
0.06481
0.0439334
0.0624688
0.0457674
0.0474028
0.0486437
0.0178947
0.0804645
0.0451054
-0.284551
0.0800878
0.00681119
-3.14713
0.0310566
0.0772288
0.0205041
0.0485539
0.0351593
0.045878
0.0211003
0.047684
-0.0848963
-0.0450843
-0.00703021
0.0571989
0.038965
0.0210516
-0.0358264
-0.408473
0.0225251
0.0480275
-0.374722
0.0221502
0.0485579
-0.0750577
0.0437458
0.0940563
0.163074
0.0463845
0.021389
-0.190974
-6.23881
8.15166
0.0623718
0.0411412
0.0215277
0.0564611
0.000491509
0.03067
0.0403541
0.0349097
0.0706471
3.99605
0.0542184
0.0355338
0.0361206
1.55599
0.480424
-0.0313369
7.60013
-0.074151
0.0751011
-0.0493504
0.0390067
0.00127091
0.0181484
0.14866
0.000899253
0.0571748
0.255047
7.9677
0.0546177
0.0548298
4.28241
-0.0323582
-3.56706
0.0551502
0.0481246
0.0569011
0.054178
7.7657
0.0556075
7.90266
0.0523137
0.0747159
8.75733
0.0751491
0.076013
0.0414777
7.53775
0.0566802
-0.0477083
8.59795
0.0662147
-0.040784
7.70883
1.52264
-0.00390859
0.0370735
1.51902
-0.0396069
1.52106
-1.69047
0.0234865
0.0734262
-0.115609
-0.0119164
-0.116806
0.402155
0.0775704
0.0576765
0.0346438
0.405941
0.0615503
-0.0134965
-0.0257725
0.0364937
0.0910263
0.00378119
0.438869
-4.03386
0.0338495
0.302796
0.422675
-3.61343
0.0792584
0.0154131
-7.35827
0.0269545
0.415938
-0.0645572
-0.0253892
0.0731006
0.444929
0.0327124
0.032734
0.0619289
0.0322371
-6.85247
0.0909514
0.0920205
-5.99907
-0.107206
0.0775677
0.0725345
0.0945931
0.0638467
0.0573372
0.0109219
0.0778872
0.0571495
0.157386
0.0529735
-0.119829
-7.02317
0.0952656
0.0310568
-4.5663
0.776109
0.0484497
0.0932359
-0.294726
-0.137329
0.383487
-0.150879
0.332524
-0.0499098
0.149507
0.799846
0.442657
-0.0918137
-0.0394901
0.427568
0.576447
0.0738207
0.0218725
0.417148
0.0465587
0.00135872
-0.104529
-4.06898
-0.0720251
0.0377097
6.12626
-0.00847361
0.0577466
-3.94365
0.037537
5.94428
0.050418
-0.16853
-3.27366
-3.4602
0.0308817
0.0724736
0.0384857
5.93693
0.0680504
0.00869993
0.0713153
5.71406
5.71282
-0.142227
0.0460553
-0.578661
0.428568
0.535716
-1.68979
-5.7036
0.0466196
-0.033345
0.0727926
-0.00256165
0.0144652
0.078251
0.0457519
0.055224
0.0668218
0.0451913
0.0677228
-4.20207
0.0474004
0.0396001
0.0760325
-0.104343
-0.10876
0.0217169
0.430094
0.0455093
0.0656968
0.00879199
0.0793242
0.0468287
0.0771548
0.0388028
0.0458016
0.0346124
0.0717405
4.2297
0.0454336
-0.0696137
0.0576874
-3.57134
0.0300649
0.0788336
1.47461
0.0298867
0.0618262
-6.57436
0.0509547
0.0192919
0.0296618
0.0759829
0.0499932
0.0323864
0.0296505
0.0660407
0.0353253
0.0503423
-0.138655
-2.13592
0.0294962
-0.238784
0.0295105
-0.128294
-0.114827
0.0523234
0.0206373
4.40546
0.078008
0.0836576
0.0335042
0.0826697
0.0826936
0.032128
0.0298533
6.25024
-6.5025
0.0281299
0.442376
0.0514685
0.0190644
0.0830657
0.0841113
0.0506934
0.0325581
0.0142221
0.0607398
0.0500142
0.19844
0.0830548
-6.71917
4.97847
0.0511074
0.0205884
0.0836499
8.22856
0.0496377
0.0532632
0.0530062
0.0523672
0.0525716
0.0500841
0.050715
-1.18234
0.0831516
0.0604706
0.0963321
-1.79442
1.42151
0.031154
0.413869
-1.04991
0.0134908
0.446787
0.80882
0.00746491
-1.60262
1.01069
-0.0155746
0.0289676
0.00928857
-0.245869
0.447011
0.0200263
0.0199992
0.0247751
0.0718583
0.0199604
0.104705
-0.462269
0.131746
-0.0183915
0.0370819
0.00674374
-1.40613
0.0199173
-0.00863958
0.0341715
1.83564
0.53925
0.0447228
0.0783292
0.0125197
0.0564998
0.31892
-5.76153
0.0456488
0.0795019
0.0952901
0.0670166
0.0282888
0.0713357
-10.2779
0.0439257
0.0448854
0.0262056
0.0435225
0.126691
0.04585
0.0677009
0.0607249
0.0730829
0.0608024
0.0723953
0.0262601
3.11765
0.795934
0.0309853
0.0891708
0.0264955
0.0267309
0.0426777
4.27614
2.54284
6.90509
0.0607416
0.0611565
0.0123477
0.0498734
-0.0274231
0.0799413
-0.252865
0.0442875
0.0263511
0.0818926
6.17213
-7.08573
-0.0441761
0.0267105
0.0755286
0.0293042
0.0117956
0.0118933
-1.61604
0.103571
4.10817
1.30873
0.0267772
0.0772108
0.0269592
0.0758007
0.0509678
0.07117
-2.8451
0.336455
-0.206884
1.46676
-1.1971
0.0705754
0.190728
0.18107
-0.218547
-0.147122
-2.74139
-0.194465
-2.27689
-1.7745
0.0187034
-0.869364
-0.414673
0.066153
0.0689199
-0.559526
0.0683551
0.0181866
-2.33052
6.26966
0.0348505
0.0750615
0.0120552
0.0322329
0.0601764
0.0181354
0.0489401
0.455703
-10.0061
0.0489932
0.0414161
0.072716
-0.922166
-0.276732
0.0445289
0.0186954
0.0427265
-1.34216
0.0536967
0.0600474
-0.104245
0.0185066
0.069028
0.0240218
0.0512301
5.5524
-0.0409809
0.0470655
0.0299015
0.0465025
0.0719447
0.0777853
0.0118643
0.0234959
0.0270676
0.0445121
0.047402
0.036496
0.0231184
0.0610979
0.0238391
0.0685447
0.0798257
0.0498972
0.0733554
0.0456419
0.0490147
4.13448
0.0563755
-0.110907
0.0735753
0.028829
0.0445812
0.0659592
0.0674299
0.0733585
0.81691
-0.110146
4.34342
0.0461994
0.0837441
-1.75425
-0.00685512
-0.0303228
-0.0951386
-0.320873
1.28538
0.0501819
0.0728236
0.0377058
0.0505155
0.0230272
0.0535853
0.00421021
0.247861
0.032808
8.68667
0.0150456
0.0215146
0.0729052
0.0336332
0.0572888
0.0357426
0.102713
5.24652
0.360381
0.0370084
0.0347555
0.0504464
0.436182
0.0650476
0.060999
-7.4869
0.0724372
-7.50567
0.0354447
0.0394805
0.0407645
-6.46474
-8.37619
-7.73373
-5.8994
-1.98374
0.146947
7.78902
3.04988
-6.87538
0.0744247
0.0416326
0.0363405
0.037687
0.151957
3.04283
-0.226382
0.305897
2.9194
3.01329
0.0661056
3.19875
-0.445748
0.0514242
0.0320007
0.035901
-0.680948
0.391936
1.27974
0.0388398
-0.715992
-0.782557
-0.0785166
-1.37185
0.796034
-0.127688
7.72142
0.0454026
-0.117205
7.83462
-0.0626598
0.0487207
0.0698711
-0.0449568
0.029459
0.0225473
7.8013
0.0269272
0.0151013
-1.56272
0.0472516
7.89299
-1.4782
0.0399791
0.124231
0.942554
0.883782
0.175153
0.856826
-0.126335
0.609967
-0.00110695
0.0357604
0.778487
0.0212448
0.974996
1.03089
0.0695599
-0.0455002
-0.157363
0.666227
-4.62157
0.0336651
0.0365311
1.40828
0.0515409
7.06234
0.0524316
0.0508171
0.0383301
1.385
0.0322055
0.29151
0.0108582
0.0556069
-0.0128256
1.40231
1.37827
-0.185506
0.0343829
-0.363651
6.1015
8.38891
0.0201969
4.32418
-6.84518
0.256892
6.80195
0.0746121
4.25776
0.0614611
0.0598007
0.0545204
0.0366469
0.0321278
0.0151167
0.0274181
6.48086
0.0251111
0.0694243
0.0376843
0.0371466
0.0328496
0.039815
0.0546729
-0.264971
0.282519
0.0206588
0.030846
5.45128
0.0459774
7.08267
0.00301577
0.0291529
4.49177
0.0740223
0.0305996
0.0503884
7.19905
-0.0398216
0.0337524
0.115618
0.0743091
0.0719011
0.0350894
0.116549
0.0515701
0.0264471
0.0435112
0.0281486
0.0377866
0.0716745
0.0735261
1.26144
0.0281611
0.0886031
0.0400403
1.54182
0.0407993
0.0650545
-0.00310276
-0.179862
0.0740258
0.0738609
0.0726801
0.00361859
-0.113299
0.00991469
0.0379312
0.0498533
0.0244197
0.0493069
5.24641
0.0361614
0.0313568
0.058866
0.0730487
0.0657984
0.331782
0.0505146
0.0507639
0.0388162
0.0337829
0.0523312
0.0628358
0.0432945
0.0651155
0.0444467
0.0298567
0.0463333
0.119577
0.0746346
0.0705283
0.028801
0.0623192
0.0551104
0.0609781
3.52046
0.000292532
0.075934
0.0662777
0.071543
0.0665412
0.0625417
0.0441027
0.417675
0.0369701
-0.0677532
0.0740747
0.0529941
0.0344066
0.0450709
4.3999
0.0478616
0.0288021
4.45202
0.0622403
0.00528379
0.0293032
0.0285737
0.0488948
0.0744506
-0.0602048
0.0755385
0.0311053
0.0537552
4.46563
4.4857
4.49671
0.00602194
0.354466
-2.59659
-0.0318177
0.0580992
0.0532833
4.50175
0.0527517
0.0342079
0.0546437
0.00940752
-1.53739
0.0284827
0.0517013
0.040903
-0.0289663
0.0326997
-0.0447556
1.31688
0.0162103
0.895602
-0.345627
0.0146861
0.239052
0.0036237
0.0517405
0.0163932
0.0109276
0.0102279
0.12827
0.0150552
-4.82931
-1.6203
-2.83513
-0.0473131
-2.33718
0.0483999
0.0145108
0.0298162
0.0130654
0.0224696
0.0146427
0.00978537
0.00986385
0.0364907
-1.42611
0.0333843
0.0115225
0.663958
0.0316969
0.126693
1.3497
1.52625
0.0280989
0.0100231
1.63723
0.014187
0.00986152
0.0307736
3.1932
-1.23215
-0.916155
0.0756314