/*--------------------------------*- C++ -*----------------------------------*\
| =========                 |                                                 |
| \\      /  F ield         | OpenFOAM: The Open Source CFD Toolbox           |
|  \\    /   O peration     | Version:  v2012                                 |
|   \\  /    A nd           | Website:  www.openfoam.com                      |
|    \\/     M anipulation  |                                                 |
\*---------------------------------------------------------------------------*/
FoamFile
{
    version     2.0;
    format      ascii;
    class       surfaceScalarField;
    location    "3";
    object      phi;
}
// * * * * * * * * * * * * * * * * * * * * * * * * * * * * * * * * * * * * * //

dimensions      [1 0 -1 0 0 0 0];
oriented        oriented;


internalField   nonuniform List<scalar> 
210647
(
0.000129318
-3.8509e-05
-0.000107298
1.64996e-05
-0.000145938
0.000156807
0.000451552
-0.000462444
-0.000146405
0.000188067
-4.12947e-05
-3.70581e-07
0.000338915
-0.000225834
-0.000109912
-3.25068e-06
3.96764e-05
-0.000134969
4.21658e-05
5.30072e-05
1.65366e-06
8.0314e-07
-6.6298e-07
-1.83796e-06
-0.000985963
0.000132973
0.000513756
0.000339247
5.93696e-07
1.40042e-05
-1.46675e-05
-4.50038e-05
-9.11292e-05
-9.73823e-05
0.000233435
-3.34583e-08
0.000120976
-0.000143853
2.29775e-05
-9.13083e-05
2.01445e-05
-9.54935e-05
0.000166636
-4.98658e-05
-0.000107141
8.83253e-05
6.86536e-05
8.19464e-05
-0.000114885
0.000117708
-8.48261e-05
2.15332e-05
3.80175e-05
-2.54227e-05
-3.41191e-05
4.79122e-05
-1.28234e-05
1.52743e-05
-5.0394e-05
0.000281928
-0.00038289
0.000129715
-2.86844e-05
-0.000188354
0.000218588
-2.28581e-05
-7.30386e-06
-7.73415e-06
2.93412e-05
-1.77153e-05
-3.89785e-06
-0.000343798
-2.36232e-06
0.000183752
0.000162353
-5.16457e-06
4.11191e-05
-0.000118314
8.23089e-05
1.99809e-05
-7.46594e-05
5.46262e-05
-0.000100263
8.97226e-05
-5.25394e-05
6.30283e-05
-8.30257e-06
3.17411e-05
-8.29811e-05
5.957e-05
-8.63521e-05
7.43761e-05
8.48723e-05
-7.29826e-05
0.000134858
-0.00022325
8.2255e-05
6.04994e-06
3.30651e-05
-4.149e-05
7.27408e-05
-6.44693e-05
-0.000121998
-0.000193225
0.000100804
0.000214378
-7.66774e-06
0.000148006
-3.37294e-06
-0.000137012
-0.000181851
0.000167932
-3.96409e-05
5.34598e-05
-3.5012e-05
-1.198e-06
3.60918e-05
8.45176e-08
0.000261636
-0.000247198
0.000119993
-0.000134524
8.79912e-06
6.46416e-05
1.53553e-06
-7.49667e-05
6.9732e-05
-0.000191771
-9.20996e-05
-0.000266206
0.000240924
0.00011744
0.000526524
0.000348374
-0.00143584
0.0005609
1.09967e-05
-1.37045e-05
-9.86711e-05
0.000101251
-0.000169901
3.30649e-05
3.77673e-05
9.90226e-05
5.3384e-06
-0.000129351
0.0001239
-0.0177817
0.0175518
-0.00343761
0.00960826
0.00739704
-0.0123861
-0.0206982
0.0255914
0.00036905
0.000253239
-0.000159803
-0.000462483
5.06017e-05
6.60648e-05
4.97403e-05
-0.000166523
-3.47401e-05
4.78476e-05
-1.30975e-05
-5.29965e-05
0.000456294
-0.000403373
0.000152587
-2.56061e-05
-0.000275941
0.000149226
-0.0136073
-0.0017269
0.00334508
0.0120673
-0.000100213
0.000288221
-0.000668544
0.000380332
0.000123986
-0.000117405
1.34925e-05
-2.02928e-05
0.000132385
2.7957e-05
-7.73608e-05
-8.2994e-05
0.000108172
-0.000273647
0.00014865
1.67486e-05
-0.00237955
-0.000328604
0.00246578
0.000243722
4.23261e-05
0.000136517
-0.000545785
0.000366896
9.43873e-05
-0.000124108
2.94943e-05
1.55463e-07
3.1001e-05
-1.40174e-05
2.39043e-05
-4.08831e-05
-3.27708e-05
9.62762e-06
-4.07595e-05
6.3833e-05
-7.25743e-05
-0.000120477
0.000156811
3.6192e-05
4.75154e-05
-2.36907e-05
4.03825e-05
-6.43032e-05
-8.34493e-05
1.36096e-05
0.000107069
-3.72823e-05
-7.06731e-05
0.000119664
7.50084e-06
-5.66313e-05
-8.57673e-05
0.000130228
1.51704e-05
-5.97303e-05
-1.34851e-05
8.51717e-06
0.000177922
-0.000173044
5.41081e-06
-4.81548e-05
9.5146e-05
-5.2502e-05
-2.32551e-05
-6.52267e-06
-1.02174e-05
3.98804e-05
3.32148e-05
-0.000256034
-5.91918e-06
0.000228671
-2.80261e-05
0.000110376
3.23292e-05
-0.000114898
0.000132556
-4.76539e-05
-8.49497e-05
0.000203895
-9.01376e-05
-3.41546e-05
-7.97206e-05
-3.40899e-05
8.80046e-05
-9.2895e-05
3.90015e-05
-0.00455205
0.0024506
0.00148166
0.000620027
7.41906e-06
7.22869e-05
1.8743e-06
-8.16558e-05
0.000105763
-4.82279e-05
-0.000121401
6.37882e-05
-9.9199e-05
2.10059e-05
-4.40465e-06
8.24845e-05
-2.3083e-05
5.29471e-05
7.58019e-05
-3.47044e-05
0.000193574
3.11408e-05
-0.000190108
-0.000163569
0.000127616
6.30077e-05
-2.71523e-05
-2.51771e-05
1.82164e-06
-0.000414206
0.000190613
6.92245e-05
0.000154513
6.44484e-05
0.000273963
-0.00022896
-0.000109508
3.24709e-05
0.000232053
6.91074e-06
-0.000271519
3.08025e-05
6.25134e-05
-3.63996e-05
-5.69876e-05
-2.01464e-05
-1.99434e-06
8.00229e-05
-5.78698e-05
-5.20661e-05
-0.000132412
0.000115282
6.91409e-05
1.03033e-05
9.78685e-05
-0.000108205
1.67273e-05
-3.66279e-05
1.19515e-05
7.93517e-06
-1.71354e-05
9.4609e-06
3.43094e-05
-2.66237e-05
8.24824e-05
5.06958e-05
-0.000158463
2.52082e-05
2.00939e-05
7.5191e-05
-2.07005e-05
-7.45947e-05
6.88976e-06
-5.97016e-06
-4.64993e-05
4.54861e-05
-0.000147854
-0.000149531
0.000141274
0.000155994
8.95034e-05
-3.66111e-05
-7.41324e-05
2.1154e-05
-3.19764e-05
-6.17541e-05
-3.71458e-05
0.000130831
-7.23478e-05
1.68391e-05
0.000144892
4.52554e-05
-6.45189e-05
1.92155e-05
-0.000138422
0.000136106
6.80198e-05
-6.58125e-05
-4.78987e-05
1.78409e-05
-6.1279e-05
9.13627e-05
-4.85608e-05
-6.1252e-05
7.77927e-05
-5.02636e-05
3.31457e-06
-7.90426e-06
5.48162e-05
5.53351e-05
-5.39489e-05
-4.13413e-05
3.99157e-05
-5.57959e-06
-7.81935e-05
8.68831e-05
-3.16338e-06
-5.29656e-05
0.000125278
1.08696e-05
-8.32945e-05
-9.82848e-05
0.000201932
-9.82082e-05
-5.55725e-06
-7.53921e-05
2.27933e-05
6.33053e-05
-1.07981e-05
0.000102204
-3.79234e-05
-0.000104643
4.03692e-05
-5.08379e-05
7.01793e-05
-2.07111e-05
1.31937e-06
-0.000210883
-6.57151e-05
-3.34266e-05
-1.8134e-05
0.000117141
-0.00109857
0.000417953
-0.000525279
0.00120585
-0.000116354
-5.2677e-05
0.000134092
3.48545e-05
-0.0233134
-0.0436711
-0.00572155
0.0783393
-0.000557555
0.000445092
-0.000519124
0.000631792
-9.87503e-05
-0.000148825
-0.000721747
-0.000463722
0.0011858
0.000816462
-0.00095016
-0.000702649
0.00083725
-8.15848e-05
1.90551e-05
-6.08893e-05
0.000123325
0.00367804
-0.00520279
-0.00443268
0.00595822
-7.19158e-05
3.41795e-05
-1.05537e-05
4.82115e-05
-5.87863e-05
-3.14448e-05
0.000109577
-1.93757e-05
-0.00201258
0.00214146
7.618e-05
-0.000204798
-4.65218e-05
-0.000143892
0.000128589
-6.35625e-05
6.71735e-05
1.70455e-05
-2.06458e-05
4.48958e-05
0.000275913
-0.000246076
-7.47858e-05
-0.00695637
0.0028083
-0.00359068
0.00773911
1.45524e-05
-6.4086e-05
-8.82633e-06
5.83552e-05
2.36062e-05
8.58117e-05
-0.000109501
-0.000257239
0.000186962
0.000410789
-0.000340331
-0.000196049
0.000273474
-0.000102084
2.46685e-05
-7.4685e-05
-4.61641e-05
8.30392e-05
3.77652e-05
0.00021181
-1.98063e-07
-0.000166755
0.000169162
0.000331757
-0.000390407
-0.000110578
-3.33698e-05
1.99476e-05
9.27243e-05
-7.9278e-05
-4.2481e-05
-9.25103e-05
0.000304076
0.000185382
2.10273e-05
-0.000147919
-5.86189e-05
0.000529104
0.000934208
0.00138853
-0.00285154
-0.000198479
3.1759e-05
1.55068e-05
0.000151127
-3.13112e-05
0.000153878
4.27478e-06
-0.000126864
6.77439e-06
0.000148626
5.63537e-05
2.32657e-05
7.37965e-05
3.68132e-05
-0.000133942
6.99178e-05
-8.75028e-07
-8.40974e-05
1.49846e-05
-7.68813e-05
1.21101e-05
4.06882e-05
2.40947e-05
0.000138267
3.62788e-05
-2.52563e-05
-0.000149304
-8.8893e-05
-1.09402e-05
0.000103457
-3.66825e-06
0.000523963
-0.000267146
-2.28815e-05
-0.000233732
-0.000207865
9.96043e-05
8.30621e-05
2.51419e-05
7.11084e-05
5.27154e-05
-0.00010369
2.35496e-05
-1.28613e-05
9.28932e-05
-6.73483e-05
2.63586e-05
3.89037e-05
2.02958e-06
-0.012189
-0.00287036
0.0150602
0.000177086
-2.42791e-05
0.0156915
-0.0063934
-0.0046365
-0.00466144
0.0101332
0.00408163
0.00147834
6.96335e-07
4.29256e-05
-3.82453e-05
-5.48563e-06
4.76347e-05
4.29745e-05
3.50191e-06
-9.40949e-05
-0.0163166
-0.00496085
0.00327307
0.0180046
9.91999e-05
-1.74747e-05
6.71645e-05
-0.000148981
0.000579958
-0.000435286
-0.00010739
-3.71496e-05
5.58452e-05
-3.96088e-05
-9.82874e-05
8.2001e-05
0.000348066
-0.000330991
-9.11259e-05
7.40321e-05
0.000755616
0.000532582
-0.000720573
-0.000567658
3.61981e-05
-0.00165872
0.00429504
-0.00267206
-0.0231349
0.0169511
0.00084897
0.000374785
0.00130913
2.56561e-05
3.45094e-05
7.22262e-05
-0.000132498
7.44102e-06
-9.44156e-05
8.94929e-05
-2.59656e-06
4.03269e-05
-4.55354e-05
-3.86359e-05
4.3846e-05
0.000588809
-0.000826725
-0.000933852
0.00117318
3.69996e-05
-4.30677e-05
4.49869e-06
1.4718e-06
1.55964e-05
-1.76823e-05
1.98313e-06
-9.67794e-06
-0.000135945
-1.39232e-05
0.000125706
2.40388e-05
7.14652e-05
-9.84704e-06
0.000125385
-0.000187099
7.39147e-05
-6.94166e-05
7.72923e-06
-1.23019e-05
0.00162762
-0.00267583
-2.79347e-05
0.00107647
8.96517e-05
0.000103889
-0.000102002
-9.15871e-05
0.000165706
-0.000277046
5.28826e-05
5.8387e-05
0.000120352
-6.51406e-05
-3.56567e-05
-1.96859e-05
-0.00185888
-0.00306703
0.00680601
-0.00187978
-2.32695e-05
4.94318e-07
4.96743e-06
-8.81261e-06
-0.000162903
9.67362e-05
7.48833e-05
-0.000134773
1.67885e-05
0.000111072
6.85557e-06
0.000170992
0.000131565
-0.000224172
-7.8321e-05
7.03185e-09
0.000116396
-1.50529e-05
-0.000101401
8.56277e-05
-0.000116117
-0.000326395
0.000356859
2.27145e-05
-2.54485e-05
1.03177e-05
-7.58467e-06
4.24567e-05
-8.80938e-05
-7.488e-05
0.000120537
1.02281e-05
3.16729e-05
5.15727e-05
-9.35714e-05
-6.07257e-05
-2.57505e-05
-0.00010047
0.000186912
6.56629e-05
-5.50768e-05
-6.1305e-05
5.07036e-05
8.63245e-07
-4.19414e-05
6.59975e-05
-2.49358e-05
3.73288e-06
3.23567e-05
-1.33761e-05
4.01583e-05
-5.24569e-05
-6.90151e-05
8.12496e-05
-0.000517549
0.000142668
0.000501976
-0.000127137
-7.89056e-05
8.80249e-05
-3.37535e-06
-5.78611e-06
0.000562232
-0.00201112
0.00391823
-0.00246943
0.000117407
-8.64294e-05
-7.52122e-05
4.41239e-05
-0.000247504
-3.56336e-05
0.000230968
5.217e-05
-0.000148642
0.000321648
-9.79814e-05
0.000105277
-2.0713e-06
-5.31934e-06
3.53082e-05
0.00012452
-3.32938e-06
-0.000156628
-1.86415e-05
4.42801e-05
-5.10889e-05
2.92054e-05
1.95058e-05
-5.2195e-05
3.34998e-06
0.000959271
-0.000301056
0.00189303
-0.00255133
9.463e-06
7.79812e-05
-8.74932e-05
-0.000272522
-0.000505981
0.000105221
0.000438047
0.00112265
0.000516654
-0.00207726
-0.00105987
-0.00590926
0.00696919
-1.57016e-05
1.88304e-05
0.000129715
-0.000132901
0.0225719
0.0108237
-0.0460947
0.0127046
-3.28844e-05
-6.31658e-05
0.000140098
-4.41264e-05
0.00101975
-0.00134484
0.00683594
-0.00650719
0.00257946
-0.0013467
-0.00149114
0.000258588
0.000119437
-1.36238e-05
-0.000105892
0.00987307
-0.00581433
-0.00591794
0.0284221
-0.0482659
0.0131662
0.00667806
0.00118758
-0.0127952
0.0114663
-2.19365e-05
4.72369e-05
7.76771e-06
-3.31065e-05
2.16214e-05
2.25758e-05
-3.83245e-05
-5.89712e-06
-0.000125937
-1.73249e-05
0.000140088
3.09728e-06
0.000305249
-0.000148084
-0.000211734
5.45448e-05
-0.000172412
-6.98359e-05
0.000309374
-6.7236e-05
-0.000220252
0.000271027
-0.000196494
0.000145628
-0.00659032
0.00172572
-0.00828342
0.0131484
-0.000164515
-8.53399e-05
-0.000331106
0.000581039
-0.00140066
-0.00281059
0.00695001
-0.00273874
7.41767e-05
1.84324e-05
-1.36025e-05
-7.90846e-05
1.46627e-05
-1.07804e-05
2.80593e-06
-6.77796e-06
0.000166438
0.000449741
-0.000310943
7.34141e-05
-5.37119e-05
0.000170848
-0.000190633
0.00197691
-0.00690102
0.00103189
0.00389394
-1.28648e-05
-1.04909e-05
1.8239e-05
5.0166e-06
-0.000442031
-0.00996767
0.010518
8.52247e-05
-3.93206e-05
6.77137e-06
-5.27622e-05
-8.71518e-06
-9.09994e-05
0.000143354
-8.42805e-05
3.19104e-05
-0.000110861
3.04476e-05
0.00011955
-3.92059e-05
-3.79783e-05
7.09794e-05
-3.30358e-05
4.89676e-05
-6.61324e-05
8.60541e-05
-6.89543e-05
7.15912e-05
-0.000141541
0.00013572
-6.58289e-05
0.00256625
-0.000173899
-0.0019163
-0.000475729
0.00037339
0.000265712
-0.000368745
-0.00027037
5.95041e-05
-4.13751e-05
-1.81562e-05
-2.84111e-05
1.43566e-05
0.000159044
-0.000145084
7.47847e-08
-2.63128e-06
2.52005e-06
0.000448254
0.000273192
0.00028037
-5.97844e-05
-8.18303e-06
-0.000212447
-2.41709e-05
-0.000221977
0.000809138
-0.000562871
-0.00464592
0.020819
-0.0368898
0.0207172
0.00737134
0.00187507
-0.00517389
-0.00407211
0.000368731
-0.000509575
0.000558774
-0.000417948
-0.000166803
0.000118017
-6.88606e-05
0.000117554
-8.07461e-05
-1.21039e-05
9.27972e-05
0.000260943
-9.7489e-05
0.000131901
-0.000295429
0.000115622
9.31229e-05
-0.000130389
-7.84286e-05
0.000135113
-0.000172402
-1.11716e-05
4.8357e-05
-7.90382e-06
-0.000121007
-0.000301502
0.000430386
0.000681529
-4.70977e-05
0.000381452
-0.000161185
-0.000228197
6.02707e-05
-3.49413e-05
8.56592e-05
-0.000110996
5.21635e-05
8.20953e-06
-0.000276853
0.00021639
1.51835e-07
5.62403e-06
-2.07142e-06
-3.76866e-06
0.000184337
-0.000185206
-4.6592e-05
4.73919e-05
8.65381e-05
-0.000121327
0.000784954
-4.90057e-06
-0.000349351
-0.000430274
0.000168674
0.000194831
5.94244e-05
-0.000422818
-0.00108761
0.000322819
0.000380254
0.000384515
1.84721e-05
4.57161e-05
-1.2856e-05
-5.14815e-05
0.000167991
-0.000127281
9.83193e-05
-0.000139118
-9.44034e-06
6.59281e-05
0.00011548
-0.000172158
-5.45377e-06
-2.6016e-06
8.14397e-06
7.13624e-05
-4.02685e-05
-9.58059e-05
6.46291e-05
3.65064e-06
1.41338e-05
-6.73053e-06
-1.10999e-05
0.000158305
0.000232211
-0.000189963
-0.000200565
0.0124278
-0.0126666
-0.0110593
0.011298
0.0137936
-0.00175976
-0.00683101
-0.00523326
-0.00557601
0.00205253
0.0261421
-0.0226163
0.000134869
-2.71004e-05
-4.1315e-05
-6.6523e-05
-4.66977e-05
-9.78862e-05
-6.7142e-06
0.000151208
0.0143483
-0.02511
0.00386824
0.00689406
0.000120043
0.00013557
-0.000138533
-0.000117105
-0.000191326
1.75437e-05
9.00452e-05
8.36333e-05
0.000135863
3.24639e-05
-2.64285e-05
-0.000142023
-0.00960642
-0.00535096
0.0050834
0.0099448
-0.0182325
0.0130799
-0.00418145
-6.76051e-05
5.58232e-06
2.23192e-07
6.16613e-05
4.30612e-05
-2.37395e-06
0.000228265
-0.000269032
0.000149642
-0.000296593
-0.000146953
0.000294052
4.56352e-05
-0.000151532
2.31667e-05
8.26877e-05
-8.81451e-05
0.000224937
-9.5264e-05
-4.16255e-05
9.94509e-05
-0.000274575
0.000169479
5.66209e-06
-0.000405211
0.00310045
-0.00280553
0.000110658
7.70034e-05
4.49977e-06
-2.80478e-06
-7.86848e-05
8.83323e-05
-5.9044e-05
4.75976e-05
-7.69326e-05
0.000278201
-0.000114559
-0.000251884
0.000132569
2.39836e-05
9.73294e-06
-0.000166371
2.25916e-05
-4.87176e-05
8.84491e-05
-6.24959e-05
0.000110467
-7.03824e-05
-4.60048e-05
5.88095e-06
-5.68982e-05
2.35723e-05
-0.000198228
0.000231453
-5.29581e-05
-1.61776e-05
0.00019259
-0.000123522
-0.000840958
0.000514466
0.000326607
-9.76588e-06
-1.83534e-07
-1.48254e-06
1.14056e-05
-0.00431828
0.00662039
-0.0056345
0.00333275
0.0102648
0.0011115
-0.000418366
-0.0109581
-0.000153507
0.000100062
5.30719e-05
2.51176e-07
-1.11338e-06
-8.7111e-06
-7.1629e-06
7.62733e-05
-0.000127462
5.82614e-05
1.83112e-05
5.29089e-05
-4.46356e-05
-2.65845e-05
2.30463e-05
-1.2577e-05
-1.04923e-05
-9.66594e-05
-0.000127978
5.55249e-05
0.000169027
8.49426e-05
-5.88571e-05
-7.774e-06
0.0186045
-0.0146024
-0.0205042
0.0165022
1.73629e-05
-3.06719e-05
-3.27884e-05
4.59597e-05
0.000203845
1.26854e-05
-9.10948e-05
-0.000125547
4.11884e-05
0.000225662
-0.00032546
5.87032e-05
-8.51195e-05
6.27413e-05
8.7536e-06
1.35299e-05
-0.000138188
5.03208e-05
0.000150624
-6.27595e-05
0.00599929
0.00833974
-0.00530962
-0.00902912
1.46297e-05
-1.28729e-05
-5.42911e-07
0.00027908
-3.96388e-05
-0.0002388
0.019793
-0.0197648
0.0203252
-0.0203405
-2.58162e-05
9.44515e-05
9.13213e-05
-0.000160086
8.25528e-05
0.000191882
-0.000361716
8.72693e-05
1.704e-05
-9.00109e-06
-6.30592e-06
1.01461e-05
8.9581e-05
-9.34462e-05
-4.88702e-05
1.77455e-05
2.4797e-05
-3.89735e-05
-1.99851e-05
-2.12735e-05
8.01842e-05
0.00133432
-0.0134248
0.0178628
-0.00578844
-0.0219376
0.0157014
0.0191685
-0.0129658
0.00522174
-0.000628657
-0.0195331
0.0149401
0.000123701
-6.81752e-05
-1.28601e-05
-4.2722e-05
-0.000112969
0.000335216
0.000114964
-0.000337206
0.000218213
-9.23303e-05
-0.000102306
-2.36919e-05
-0.000978013
0.0181595
0.00269551
-0.0198763
0.000608808
-0.000490819
-0.00119886
0.00108165
-4.93332e-05
4.16956e-05
-9.99118e-05
0.000107482
0.00432183
-0.0205225
0.0162032
-2.98186e-06
-8.07683e-05
8.3669e-05
-6.73342e-06
1.20009e-05
0.000121304
-0.000126663
1.94511e-05
0.000111823
-6.16971e-05
-6.96853e-05
-7.12353e-06
-0.000163452
3.46198e-05
0.000135863
1.20734e-05
0.000144489
-9.60083e-05
-6.06048e-05
-9.60302e-07
-0.000130097
-1.8189e-05
0.000149169
0.000644162
0.00265366
-0.0032973
0.000155028
-4.19883e-05
6.74125e-05
-0.000180457
3.02949e-05
-0.000128677
3.48177e-05
6.34553e-05
-4.68717e-05
6.88557e-05
3.17175e-06
-2.5181e-05
3.93705e-05
-3.80691e-05
-2.62949e-05
2.49759e-05
0.000137441
-7.52343e-05
2.05731e-05
-8.28162e-05
-5.3926e-08
-7.15048e-05
-3.92584e-05
0.000110739
-1.36586e-05
-2.1859e-05
3.54612e-05
0.000159118
-2.06142e-05
-1.09176e-06
-0.000139482
7.04578e-05
-4.28127e-05
0.000111747
1.18443e-06
-4.70239e-08
-1.21332e-06
0.00130201
-0.00142216
0.000121421
-0.00406952
0.00491286
-0.00425853
0.003415
0.000223223
-0.000119302
-0.000189767
8.57941e-05
-4.77405e-05
-0.000120422
6.42547e-05
0.000103815
8.45096e-05
4.63587e-05
-5.03801e-05
-8.05517e-05
0.000334391
-0.0213055
-0.00364139
0.02462
-0.00012514
3.60234e-05
8.90907e-05
-5.22788e-07
-2.33665e-07
7.14597e-07
0.000245019
0.000492815
-0.000417213
-0.000320473
0.000127384
-0.000121164
0.000148796
-0.000163761
0.000164388
-7.58867e-05
-0.000107804
3.21264e-05
0.000236078
-0.000160444
6.94089e-05
0.000139412
-0.000200264
-8.69411e-06
0.00013139
0.000106361
-0.000108785
-0.000128953
0.000130238
7.74738e-05
-0.000189654
-1.81247e-05
-5.46877e-06
3.816e-05
-9.2289e-05
5.95456e-05
-3.92299e-05
-4.23449e-05
8.155e-05
0.012317
0.0167653
-0.0188763
-0.0127768
-0.000141854
-0.000156104
-0.000195452
0.000493417
0.000116878
-0.000114211
0.000348701
-0.000351247
-4.77764e-06
-0.000173018
-6.28458e-06
0.000184051
0.00246495
-0.00628459
0.0157658
-0.0119474
-0.000122066
0.000236068
-0.000152332
3.83365e-05
0.0258417
-0.0191679
-0.00101495
-0.00566135
6.83771e-05
-5.66601e-05
-0.000188834
0.000177146
-7.37792e-05
0.000136732
-0.000244868
0.000181731
-0.00140866
0.0112231
0.00104144
-0.0108558
0.000171002
-0.00010629
-6.00103e-05
-4.77001e-06
0.00849718
0.00365828
-0.00164022
-0.0105151
-0.0133178
0.0124795
-0.000570315
0.000305326
-0.000100579
-0.000225876
2.11241e-05
-3.72957e-05
-7.73255e-05
0.00111021
-0.000995493
3.39941e-05
1.89227e-05
-9.1095e-06
-4.38257e-05
4.50477e-06
1.08298e-05
-9.19449e-05
7.66257e-05
3.21706e-05
7.98472e-05
0.000158095
-0.000270047
0.0216035
-0.0136631
0.0139507
-0.022036
8.90031e-06
-0.000134374
-1.9119e-05
0.000144482
0.00199409
0.011159
0.0195088
-0.0326569
-0.00198242
0.0119007
-0.00991864
9.66507e-05
1.15693e-05
-0.000103697
-0.0139328
-0.00228269
0.014233
-8.90942e-05
5.9052e-05
-3.83923e-05
6.84514e-05
-0.00932177
-0.000555951
0.0098777
-0.000101575
-0.000233315
0.000137384
0.000197398
-0.0163785
0.0170085
-0.00985192
0.00928001
-1.45738e-05
1.33204e-05
0.000176918
-0.000175742
-6.2597e-05
-0.000116839
0.000420558
-0.000240928
-0.000102847
0.000157477
-9.97031e-05
3.71736e-05
-0.000347851
0.000209006
-0.0124657
0.0290893
-0.00408924
-0.0125341
0.0100278
-0.00431835
-0.0225901
0.016881
-8.81065e-06
3.43064e-05
8.57175e-05
-0.000111304
-0.000263018
0.000220144
0.000234043
-0.000191257
9.19741e-05
4.69684e-06
0.000178782
2.26858e-05
-5.88933e-07
-0.000200844
2.56288e-05
3.7644e-05
3.16506e-06
-6.64649e-05
0.000364753
-0.000136707
-0.00013715
-9.08909e-05
-0.00306665
-0.00833894
0.0113633
5.13381e-05
3.32282e-06
-5.4659e-05
-6.30538e-05
9.31809e-05
-1.05929e-05
-1.953e-05
-0.0146224
0.022092
-0.0247831
0.0176278
-1.35374e-06
-4.91257e-05
-2.69659e-06
5.31101e-05
-8.65841e-05
2.83393e-05
2.95839e-05
2.86567e-05
0.000173378
-0.000120277
-0.00010506
5.18505e-05
0.0163975
-0.031631
0.0281352
-0.0128977
-4.47627e-05
0.00173424
-0.000393464
-0.00129584
-0.00103129
0.000282239
-0.00613161
0.0068807
2.79271e-05
2.29085e-05
-5.09262e-05
-0.00469922
-0.0164999
0.0180009
7.56158e-05
-9.99056e-05
0.000459164
-0.000434883
-0.00530586
0.00955399
0.00418075
-0.00842761
8.14295e-06
-6.64333e-07
-7.56493e-06
2.91422e-05
-4.13271e-05
4.17305e-05
-2.96755e-05
0.0042216
-0.00412536
-0.00616566
0.00606977
-8.51904e-07
9.93442e-05
-7.93282e-05
-1.9288e-05
-0.00265289
-0.000491436
-0.00323525
0.00638003
0.0151058
0.000165723
-0.0100676
-0.00520173
5.48311e-06
-4.71398e-06
2.84402e-06
4.27477e-05
-0.00454377
-0.0117511
0.0142929
-0.00654952
-0.00905816
-0.00024903
0.019321
-0.0187946
-0.00052346
6.48523e-05
5.25234e-05
-0.000128105
1.06821e-05
-2.83118e-05
-3.97257e-05
-6.01791e-05
0.000128146
-0.000169042
0.000102056
8.12881e-05
-1.42159e-05
-0.000185225
9.4953e-05
-7.8728e-06
9.81172e-05
5.94221e-05
0.000110796
-0.000131199
-3.9172e-05
-6.38156e-05
-5.15866e-06
6.87468e-05
-5.80648e-05
1.6657e-05
0.000102012
-6.06658e-05
2.85671e-05
3.58674e-05
-1.67035e-06
-6.27811e-05
0.000149451
-4.52987e-05
-0.000173476
6.92699e-05
0.00022248
4.34506e-05
-0.00019169
-7.43299e-05
-3.40701e-07
2.3121e-05
3.4419e-06
-2.6273e-05
0.00273564
0.00687731
-0.00297849
-0.00663358
-0.000724511
-0.000268055
0.000883343
0.000109341
0.000274296
-1.49218e-05
0.000210092
-0.000469413
-0.000778008
0.00145899
0.000947035
0.000136667
8.64826e-05
-7.3751e-05
1.64891e-05
8.82423e-06
-2.57175e-05
0.000132047
1.56651e-05
-8.62825e-05
-6.1405e-05
4.26597e-05
-7.54468e-05
7.46011e-06
2.52236e-05
-6.27356e-05
3.29869e-05
0.000166339
0.000139861
-0.000185381
-0.000199944
0.000245562
-8.03251e-05
6.83011e-05
-5.2081e-05
-6.24946e-05
-3.99906e-06
1.96949e-05
4.67497e-05
-9.24958e-06
5.94478e-08
6.69298e-05
-5.77531e-05
-5.64366e-05
2.60321e-05
3.49547e-05
-4.67841e-06
6.74495e-05
2.46686e-05
-0.000163821
7.16196e-05
8.60868e-05
-9.93503e-07
-6.75626e-05
-1.75905e-05
0.000449921
-0.00040959
0.00150231
-0.0015426
0.00036768
-0.000145615
0.000141315
-0.000363376
0.00437138
-0.00275739
-0.00116401
0.0128347
0.00672878
-0.0100858
-0.00947726
-0.000212124
-0.00133675
0.000914477
0.000634649
0.000127024
-0.000206587
-2.3702e-07
7.97885e-05
-6.49777e-05
1.26004e-06
6.36227e-05
-0.000549294
0.0038202
0.00110057
3.88131e-05
-1.01481e-05
9.83512e-05
-2.95985e-05
9.54144e-05
-0.000210722
0.000144901
-0.000466388
-3.02653e-06
0.000469474
9.51728e-05
1.2385e-05
-1.96072e-05
-8.8076e-05
-0.000111348
0.000114283
0.000189825
-0.000192841
-0.000182345
-6.19857e-05
0.000216385
2.79814e-05
2.55702e-05
4.13243e-05
-6.69652e-05
-0.000297135
0.000299614
-2.34094e-06
-9.72819e-05
2.73266e-05
1.91111e-06
6.79917e-05
-0.00315579
0.0022032
0.000596683
0.000356034
-0.00126845
-0.00352864
0.00479726
-0.00184478
-0.00036074
0.00110066
0.00110532
-9.8278e-05
-6.02708e-05
9.92901e-05
5.91864e-05
-0.000139352
0.000216261
-5.42495e-05
-2.27749e-05
1.83914e-05
-0.00012793
0.000178057
-6.86255e-05
4.00239e-05
0.000254556
-0.000161781
-0.000132867
0.00035981
0.000226098
-0.000585888
-5.26787e-05
-0.000170047
0.000169066
5.36474e-05
3.61386e-05
0.000237976
-0.000282024
7.89892e-06
0.000155054
-0.000174506
2.0297e-05
-8.5546e-07
-0.000985067
0.00136586
-0.000606082
0.000225459
7.51889e-05
-6.34837e-05
-0.000254736
0.00024307
4.98e-06
5.56295e-05
5.04073e-06
4.69272e-05
-8.55794e-05
-1.0273e-05
4.88528e-05
-0.000308775
6.89755e-05
0.000239923
-6.73514e-05
0.000168794
6.60761e-05
-0.000167524
0.000396978
-0.00037373
0.000225443
-0.000248383
-7.36334e-07
-3.49935e-05
6.80967e-07
0.000359137
-0.000236814
0.000237525
4.38667e-05
-4.57811e-05
0.000149878
-0.000148049
8.71274e-05
0.00010206
-0.000188217
-9.93095e-07
9.18771e-05
-0.000276213
0.000273564
-8.92963e-05
-5.54202e-05
3.17967e-05
2.35872e-05
0.000159134
-2.84593e-05
-0.000119012
-1.17399e-05
-6.61557e-05
-3.32366e-05
7.44167e-06
9.19094e-05
0.000176284
2.12587e-05
-0.000166727
-3.08539e-05
0.000145444
4.13503e-05
-8.87872e-05
-9.76066e-05
0.00158969
0.00979878
-0.00864601
-0.00274198
-8.78669e-06
-0.000212323
-1.21414e-05
0.000233207
1.75616e-05
2.41127e-05
-0.000121733
8.00029e-05
-0.0076408
-0.0003925
0.0108818
-0.00363496
0.000221887
-0.000122042
-7.93177e-05
0.000597916
-0.00134336
4.84893e-05
0.000697119
0.000692768
-0.00016182
-0.000668946
0.000138045
1.54249e-05
-1.7211e-05
0.000143767
-0.000142075
0.000110705
-0.000114142
-0.000212861
0.000216407
-0.000218834
-5.63755e-06
9.43911e-05
0.00013003
0.000170429
2.71086e-05
-0.000735971
0.000538422
9.10744e-06
-3.90617e-05
-6.33437e-06
3.61666e-05
9.69641e-06
-0.000199272
0.000111218
7.83047e-05
-0.000220545
-0.000186737
5.30691e-05
0.000354085
-0.000122938
-7.66502e-05
-0.000138389
0.000337939
-0.000133522
-0.000753276
0.000139812
0.000746985
-0.00105914
0.00082514
0.000100479
-0.000567749
0.000824604
-0.000372791
0.000115996
-0.000259776
-0.000294652
0.000485621
6.88279e-05
0.000128583
-8.30744e-05
-0.0001986
0.000152923
0.000504468
-0.00228966
0.000155017
0.00163041
-0.000173674
-4.72498e-06
0.000178412
-0.000174965
6.62998e-05
9.12587e-05
1.73427e-05
-0.00224811
0.000195247
0.00255757
-0.000170075
0.000267043
-0.000356719
3.07024e-05
-7.33886e-05
8.19678e-06
3.4445e-05
2.06765e-05
-4.35989e-05
-6.22857e-05
-0.000122544
-0.00159934
-0.00056757
-1.62682e-05
2.83528e-05
4.50437e-05
-5.71124e-05
-0.000100708
-2.36541e-06
0.000102994
-4.87531e-05
-9.02452e-05
0.000174982
-3.61034e-05
0.000335088
-0.000363039
5.99077e-05
-3.15325e-05
4.06243e-05
2.17408e-05
-9.08667e-05
2.84965e-05
-7.03655e-05
-9.32787e-05
0.000543043
-0.000379245
0.00135814
0.00512303
-0.00648139
-8.48199e-05
8.71144e-05
-2.34592e-06
-0.00689944
-0.00373481
0.0106352
-1.73506e-05
-1.67231e-05
3.39702e-05
1.37828e-05
7.7187e-05
2.01196e-06
-9.31238e-05
-7.84999e-05
-0.00010207
7.07166e-05
0.00010979
7.42949e-05
-8.67289e-05
3.25306e-05
-2.01686e-05
7.58887e-06
5.35212e-05
-2.68659e-05
-3.42997e-05
-0.00199916
-0.000371348
0.000130404
-0.000115038
-2.51156e-05
9.64469e-06
-2.1619e-05
6.99346e-05
-1.78562e-05
-3.05028e-05
0.00576212
0.00329079
-0.00630654
-0.00274601
7.56282e-05
-3.05443e-05
-5.04031e-07
-4.46334e-05
0.00139492
-0.00975855
0.00836703
8.47455e-05
-0.000126047
8.28597e-05
-4.17234e-05
-7.55947e-05
8.58884e-05
1.82495e-05
-8.99778e-06
-7.58747e-05
-4.21572e-05
3.68369e-05
5.22822e-06
-0.000243492
0.000216462
-0.000151137
0.000178187
-0.0073223
0.00819151
-0.00370039
0.00270418
0.000208582
0.000156666
-0.000126797
-0.000238505
-0.000295536
-5.65973e-05
0.000263933
8.82487e-05
-0.000108179
2.1537e-05
6.50761e-05
2.14846e-05
0.000143535
-0.000196225
-0.000634006
0.000172847
-0.00021975
0.000680937
-0.000320451
-0.000592808
0.000168097
0.00074526
0.0117379
0.00137713
-0.010501
-0.00261245
2.69545e-05
7.3079e-05
-9.24538e-05
-7.61595e-06
-8.97277e-05
-1.63747e-05
-1.26222e-05
0.000118675
-4.1521e-05
-0.000280611
0.000440602
-0.000118466
-6.53883e-05
0.000192401
0.000126228
0.000223865
7.74659e-05
-0.000249106
-5.22393e-05
0.000277639
-0.00014743
0.000129644
-0.000259874
-0.00567431
0.00180326
0.00644697
-0.00258138
-0.00113032
0.000132496
0.000677498
-0.0167936
-0.00216372
0.00684584
0.0121134
0.000230145
0.00019725
-0.000493177
6.58201e-05
0.000117582
6.54431e-06
-6.16632e-05
-6.25248e-05
-0.000761526
0.000168848
-0.00368746
-0.0069358
-0.000806816
0.0114326
0.00257341
-0.00268993
0.00183638
-0.00171972
-0.000387851
0.000116376
0.000128471
0.000143102
4.06916e-06
7.60864e-05
-4.22658e-05
-3.79235e-05
2.34991e-05
7.65525e-06
0.0001294
-0.000160639
2.21785e-05
-0.000190344
9.12354e-06
0.000158909
-6.54327e-05
-1.03272e-05
1.07307e-05
6.49532e-05
-0.000103626
0.000167964
8.94383e-05
-0.000153502
-0.0124049
0.0152886
-0.00287493
-0.000462997
-0.00105742
0.000390244
6.94698e-05
3.16306e-05
-4.21513e-05
-5.89232e-05
6.0597e-06
1.5077e-06
-7.64089e-06
0.000197761
-0.00022048
-0.000353399
0.000376139
-5.29484e-06
4.0141e-05
-6.81546e-06
-2.80754e-05
-7.15499e-05
-0.000184379
3.53173e-05
-0.000107337
-3.72826e-05
-9.49144e-05
0.000239486
0.00234667
0.0114316
-0.000100312
-5.29992e-05
0.000176352
-2.30986e-05
7.0108e-05
-7.80728e-05
0.00019654
-0.000188711
6.30831e-05
-5.29106e-06
-6.31349e-05
0.000726763
-0.00035048
-0.00045212
7.57651e-05
0.000333707
0.000791866
-0.000406562
-0.000718824
-4.48671e-05
0.000237548
-7.22816e-05
-0.000120443
0.000132616
0.000124606
-0.000116015
-0.000141224
-0.0249598
0.00135518
0.0234697
6.03263e-06
-0.000141444
0.000293115
-0.000157502
-4.02492e-05
4.05608e-05
-1.15713e-05
1.12663e-05
-5.91164e-05
-9.80859e-07
5.96065e-05
4.56223e-07
-0.0140874
-0.0129221
-6.40529e-05
4.89472e-06
0.000447068
-0.000403232
-0.000467123
0.000423414
0.00014836
-0.000213332
6.28404e-05
2.12744e-06
0.00303926
-0.00067349
-0.00288603
0.000518475
-3.28649e-05
0.000282883
-2.4822e-05
-0.000225179
-0.000392681
-0.00271651
0.00265076
0.000458835
0.000181579
-4.60514e-05
2.44206e-06
-0.000137972
0.000531606
-0.000346525
-0.0003663
0.000181245
0.000142375
8.29209e-05
-7.92195e-05
-0.000146115
-0.000231276
-0.000789913
3.96074e-05
0.000981735
-1.0128e-06
-0.0109046
-0.00731269
0.0219715
-0.00375326
-3.08831e-06
-8.79175e-05
3.74869e-05
5.34617e-05
-0.000626774
-0.00216256
0.000952497
0.00183945
6.71399e-05
5.62527e-05
-0.000126559
-6.81707e-05
8.61479e-05
4.6815e-05
-6.48476e-05
-0.0281736
0.0281479
-0.0170013
0.017029
0.000192464
0.000208298
-0.000571147
0.000170361
-0.000149593
0.000149162
-9.64323e-06
9.94586e-06
-8.2553e-05
5.08228e-05
0.000213134
-0.00018153
-0.00080315
0.000139058
-0.000686158
0.00135064
0.0257785
-0.0259991
0.011023
-0.00763935
-0.000100932
0.000658182
-0.000169221
-0.00038785
-0.0267169
0.0155505
0.00914245
0.00202511
7.43131e-06
-0.000102226
-0.000131388
0.000226085
-0.00209475
-0.00105915
-0.000539452
0.00369393
-0.000382293
0.00128804
-0.00771417
0.00681095
0.000692096
-0.000238519
7.82768e-08
-0.000453536
-1.21467e-05
-1.64874e-05
-1.30517e-05
4.15612e-05
4.34424e-05
4.09459e-06
-0.0202933
0.0467007
0.00131218
-0.0286381
-0.000363321
0.000413939
0.000520938
-0.000571192
-0.00113059
-0.00097155
0.000649327
0.00145355
-2.88775e-05
-4.97166e-06
-9.28974e-06
4.31448e-05
-0.000484923
-0.000948861
0.000304