/*--------------------------------*- C++ -*----------------------------------*\
| =========                 |                                                 |
| \\      /  F ield         | OpenFOAM: The Open Source CFD Toolbox           |
|  \\    /   O peration     | Version:  v2012                                 |
|   \\  /    A nd           | Website:  www.openfoam.com                      |
|    \\/     M anipulation  |                                                 |
\*---------------------------------------------------------------------------*/
FoamFile
{
    version     2.0;
    format      ascii;
    class       volScalarField;
    location    "3";
    object      Qdot;
}
// * * * * * * * * * * * * * * * * * * * * * * * * * * * * * * * * * * * * * //

dimensions      [1 -1 -3 0 0 0 0];


internalField   nonuniform List<scalar> 
108993
(
3.16311e-60
3.33089e-36
4.96727e-48
6.51632e-147
6.05349e-142
5.40299e-126
5.4437e-37
0
1.7598e-111
0
2.15522e-86
3.05648e-92
0
0
3.08988e-104
2.46778e-17
2.1223e-63
1.2758e-100
7.05531e-144
7.35417e-68
4.63087e-143
2.91784e-130
3.75272e-76
0
6.1803e-152
0
5.47114e-131
0
6.32356e-77
0
1.52038e-120
0
3.17489e-129
4.40134e-45
9.91223e-144
0
7.50182e-129
0
41935.9
6554.56
0
1.67549e-107
0
1.99854e-151
2.58801e-25
19.1111
0
0
0
5.91994e-71
0
6.58432e-07
0
0
1.37552e-94
2.9957e-87
1.48691e-133
1.56029e-125
1.20889e-121
0
3.90184e-120
1.02456e-116
0
1.60316e-135
3.00321e-140
1.89426e-84
1.71887e-142
2.47453e-132
0
9.78537e-15
1.97548e-112
7.20027e-137
2.78205e-132
1.24654e-135
1.52166e-73
2.87192e-115
0
6.34832e-51
5.99561e-140
0
0
0
0
6.23469e-105
7.81618e-101
1.11772e-98
0
0
2.99914e-137
6.06614e-143
7.2467e-133
1.18542e-122
0
1.16883e-163
0
1.42126e-78
0
8.64518e-103
0
1.74617e-128
1.70891e-127
2.10403e-127
1.38367e-102
1.44997e-77
4.68475e-113
1.54903e-133
2.00177e-96
5.78979e-135
0
662.318
2.81843e-36
1.80928e-131
1.98862e-27
7.9586e-23
0
1.74878e-16
1.37532e-137
7.82416e-74
1.47434e-14
0
1.61271e-88
0
3.07343e-12
6.17692e-60
1.9711e-132
8.17069e-31
1.84271e-54
8.61797e-72
0
1.2691e-121
6.37553e-72
1.81792e-120
0
0
1.69159e-117
0
1.85208e-115
2.39505e-111
4.47711e-104
4.89981e-90
4.07527e-61
3.57209e-117
4.83357e-19
2.85018e-118
0
3.85698e-131
6.22543e-107
0.00148584
6.89786e-59
1.77559e-05
0
0
3.85255e-47
0.00698582
0
1.10727e-34
0
2.74301e-134
2.06454e-129
0.000664195
0.00242288
1.42925e-133
3.40631e-121
8.15054e-119
0
3.7691e-15
6.05905e-139
0
1.10689e-134
0
0
4.44104e-96
0
8.11391e-103
2.67171e-94
5.04753e-90
0.00224879
6.82918e-136
2.67331e-92
1.78028e-131
0
0
8.94418e-135
0
1.82145e-84
1.32068e-114
6.63492e-138
0
4.94458e-85
1.22691e-62
0
2.15347e-135
0
3.07841e-06
0
3.34536e-46
8.56234e-56
0
1.764e-112
5.39169e-64
2.52152e-137
3.17103e-08
2.13271e-134
9.34586e-131
1.75002e-29
6.64549e-11
0
0.000215078
1.02671e-95
0
2.14485e-08
0
0.00355129
0
0
0
8.24834e-90
2.47613e-87
0
3.7268e-118
3.50959e-88
9.71568e-06
2.44658e-29
6.61562e-08
0
5.56597e-136
2.93534e-135
2.37435e-71
0.00509788
1.40587e-91
209.558
5.54658e-102
6.78729e-135
0
3.99748e-121
0
7.15947e-124
1.12384e-120
1.25812e-14
1.12602e-133
3.65822e-125
1.08032e-86
0
6.57445e-135
1.47006e-127
3.89335e-17
3.47737e-11
3.64625e-10
3.41318e-130
0
0
0
5.05196e-106
2.62161e-113
3.85524e-133
1.32102e-131
2.19923e-131
4.09615e-70
2.7884e-113
9.50325e-128
2.15618e-76
0
3.60555e-31
3.61665e-28
2.99149e-145
1.25424e-74
7.23013e-78
2.86505e-86
0
3.68865e-98
1.54672e-152
1.89269e-53
7.8632e-19
27948.5
0.000118698
2.10148e-97
4.2298e-127
1.5691e-09
0
0
1.02698e-59
11.6104
82.545
0
1.45704e-113
0
2.13927e-143
6.96429e-66
8.10545e-60
3.59313e-12
1.65551e-88
0
0
3.03429e-83
0
4.01561e-75
6.12157e-117
7.75793e-80
0
3.79981e-146
0
5.75444e-09
0
6.17402e-149
2.27893e-105
3.99053e-90
1.79798e-124
1.9581e-68
1.07541e-87
0
0
3.93653e-118
2.4195e-43
1.90853e-121
2.33012e-85
3.85828e-07
2.68822e-139
0
21.5676
0
4.38652e-43
1.63995e-137
9.96789e-90
3.29675e-92
0
88.7099
49.9359
0.000176942
1.56264e-117
6.59783e-43
1.96627e-90
0.000713422
0.0153853
0
0.0015537
0
0
1.75754e-118
3.04906e-102
0
0
1.6202e-23
1.4337e-70
4.05054e-95
3.3341e-91
4.27224e-102
0
0
1.54444e-152
1.6188e-64
1.33905e-96
0
0
1.21734e-21
0
2.66203e-101
1.13316e-90
3.4214
6.38847e-99
1.03941e-140
1.59088e-43
0
5.11385e-67
6.33179e-66
7.23922e-77
3.44831e-63
1.75457e-68
0
3.83751e-103
229451
2.48169e-28
2.01132e-50
3.42689e-63
0.339522
6.27252e-61
2.26524
0
0
1.57991e-05
0
0
0
2.84084e-65
3.8904e-12
0
0
4.26988e-56
12147
1.05309e-67
6.51788e-07
0.0461253
0
0.122208
8.78004e-84
3.1676e-20
2.31306e-61
4191.1
0
1.28628e-28
9.38743e-112
4.81253e-60
4.50398e-10
3.35527e-09
1.71959e-118
1.5812e-94
9.12098e-95
2.53342e-86
1.40498e-109
6.62676e-43
151731
0
6.39866e-75
191435
0
2.88468e-88
6.48417e-109
1.81937
1.16863e-21
6.27611e-20
5.48367e-137
431453
5.80577e-38
27.6088
0
1.2948e-134
0
7.96222e-126
3.77035e-05
3.71254
9.84392e-155
2762.01
3402.77
6146.04
6.9286e-125
2.61649e-114
7.46528e-68
7.38493e-110
2.21166e-87
1.11684e-127
0
0
3.52185e-75
2.11795e-70
8.20916e-131
5.35627e-05
7.37381e-19
1.82151e-26
1.14133e-13
0
6.6401e-134
0
9.36606e-137
1.03452e-71
1.10887e-45
3.54544e-125
6.91171e-105
0
2.02349e-131
2.71624e-85
0
1.07221e-15
1.28475e-45
7.00394e-14
0
2.78211e-25
1.38085e-54
0
0
4.65752e-53
7.18531e-51
0
5.80216e-134
1.61557e-112
0
2.15092e-126
0
0
1.32607e-15
3.99113e-20
1.5573e-13
4.72078e-109
0
2.79596e-103
1.36742e-69
2.43265e-34
2.23032e-59
4.85085e-51
1.24408e-55
3.40705e-15
0
0
7.81906e-68
0
1.44356e-51
8.52425e-22
0
4.57661e-34
2.13791e-85
4.67424e-64
9.62664e-49
8.01474e-128
0
0
3.98881e-59
9.08341e-30
2.28629e-12
0
0
918.503
1.44221e-64
2.72362e-19
2.69279e-24
4.58444e-105
0
8.06518e-67
1.38726e-129
3.24426e-104
4.64813e-68
1.03363e-65
3.54455e-72
7.70997e-87
4.03832e-88
4.14975e-27
0
6.69446e-73
0.000734525
5.20853e-80
0
0.00194368
4.68853e-55
0
1.57475e-124
4.1208e-06
6.56608e-89
1.97599e-122
0
0
5.47351e-97
4.02072e-42
7.67025e-22
0
4.15242e-14
2.27813e-148
0
0
9.02087e-90
0
0
2.45848e-98
6.98579e-131
1.13361e-10
0
0.00585295
3.22669e-106
4.58777e-94
0
0
2.61323e-47
0
0
7.75123e-46
1.84131e-108
5.85143e-59
5.93976e-33
3.73338e-19
0.220945
0
0
2.85324e-52
0
1.82178e-57
0
1.87576e+06
5.68975e-17
0.00245799
4.52572e-39
9.39488e-94
1.03278e-20
8.35439
0
3.82958e-46
0
0
1.22977e-128
1.90993e-86
8.0364e-28
1.70641
4.48705e-15
1.16114e-86
3.55618e-136
0
1.84347e-122
7.31144e-63
4.19871e-66
25015.1
1.03476e-104
1.06509e-107
0
0
5.21284e-25
2.3307e-61
4.53697e-79
0
2.85756e-46
0
0
0
2.46478e-124
4.105e-36
2.27858e-61
0.0184506
0
1.82033e-07
9.19942e-58
2.72617e-39
9.51568e-70
6.27944e-27
0
0.00370995
1.28499e-130
3.51218e-12
4.92079e-128
0
0.000619348
0
4.41007e-112
1.23016e-99
6.33831e-23
1816.68
5.66414e-30
0.020406
4.63282e-58
1.19597e-17
1.2944e-07
3.0379e-30
1.99339e-110
2.01426e-120
26768.7
4.53915e-15
2.06765e-20
8.93878e-101
7.58023e-19
0
1.36207e-25
2.30703e-104
0
0
2.50346e-16
7.89652e-27
2.79665e-29
0
2.10831e-18
0
0
1.42092e-24
1.68168e-62
0.0122689
1.3663e-06
2.32725e-09
1.98263e-05
0
4.2129e-108
0
0
5.46659e-107
7.47428e-61
0
1.90665e-38
2.04621e-14
8.91488e-16
8.96856e-35
9.16544e-41
5.78025e-18
5.94119e-06
7.866e-05
0
0
1.66126e-38
1.69792e-117
0.0263557
0
3.4446e-06
2.51008e-20
1.33267e-32
1.19833e-09
1.4884e-33
186.341
6.17075e-41
5.67548e-39
58.9389
4.35304e-127
0
0
3.19202e-84
6.4639e-87
599.822
5.40586e-55
0.000488218
0
25.8104
1.51675e-29
8.99822e-96
3.23155e-128
0
3.03269e-25
0
1.06256e-31
6.64041e-63
6.11721e-107
0
2.01031e-24
3.49043e-14
2570.13
7.23789e-74
188.869
1.42268e-58
1.65033e-26
4.22215e-11
0
0
8.90388e-63
4.66744e-24
3.63455e-13
1.68055e-18
0
1.23598e-24
1.60805e-17
0
4.12619e-23
4.36058e-142
4.02626e-19
2.78886e-23
2.60273e-16
5.93999e-21
1.19469e-67
1.46625e-145
8.75831e-18
2.18311e-138
0
0
2.58098e-79
1.64853e-19
9890.48
0.00115693
1.40053e-34
8.11062e-25
1.86957e-27
1.11711e-27
1.89397e-32
1.19595e-16
0
8.73035e-136
3.26304e-137
0
4.51925e-140
3.38011e-20
4.56606e-135
1.23232e-23
7.22777e-21
0
8.91646e-27
0
5.10535e-35
0
7.81627e-21
0
0
1.11625e-19
0
7.51111e-70
0
0.164462
0
8.46028e-10
0
0
1.67744e-43
47568.4
8.6842e-05
2.32326e-54
1.02032e-67
4.72863e-05
4.27393e-43
0
4.77596e-31
3.49267e-74
1.41198e-18
3.97267e-162
8.94764e-104
0
0
11.458
1.01269e-108
9.37685e-79
18718.9
1.18698e-32
883.124
6.79692e-56
0.00263152
1.18489e-102
3.27751e-21
1.8404e-32
4.23129e-131
4.06428e-51
2.61941e-35
0
1.61938e-80
0
2.4025e-80
4.85428e-81
0
0
9.79542e-134
4.0605e-20
1.53538e-84
0.393402
1.94368e-90
4.60852e-87
1.38253
0
6075.16
1.88354e-67
1.23709e-83
0
302199
7.77009e-15
2.80918e-90
0
0
3.35585e-50
1.02583e-49
1.8476e-06
1.56763e-18
3.59334e-43
2.02658e-15
0
3.36328e-37
0
13889.2
3.67194e-36
0
4.46409e-41
5.02161e-19
1.46457e-33
3.2064e-86
0
2.54045e-52
0
2322.65
0
9807.55
0
2243.77
0
0
6.26018e-96
1.00032e-10
0
0
2.05811e-97
1.6903e-99
0.0203851
1.16925e-38
8285.78
0
8.21776e-110
6.05181e-64
3.3996e-09
0
0
2.7082e-141
1.52422e-72
1.74734e-18
2285.66
0
4.0227e-10
1.23621e-25
1.86549e-07
1.43918e-82
1.98318e-38
5.78924e-06
8471.98
4.70231e-32
1.45968e-21
1.55981e-56
0.0366091
2.22976e-131
0
424.138
14939.5
0
5.4809e-118
3.34324e-13
0
1.11585e-38
1.69363e-106
1.24873e-143
0
1.42693e-16
0
0
1.18784e-21
1.44102e-74
0.0432784
4.1386e-116
4.7594e-103
33.2049
12428
1.07294e-68
6.00818e-39
1.70162e-166
2.1032e-107
0
0
0
6.53904e-63
0.170032
0
1.19113e-26
6.3167e-59
0
7.51637e-27
2.00602e-91
8.16621e-89
2.70145e-138
2.44744e-30
0
0
0
1.30725e-115
2.01125e-25
4.19354e-112
0
5.43677e-30
0
1.553e-33
2.09504e-102
0.00015764
1.07366e-102
670.997
0
2.7105e-52
5.00812e-129
1.17928e-47
2.64951e-09
0
2.59742e-63
0.0513013
3.30291e-19
0
2.29962e-108
6.8417e-38
1.85479e-19
0
0
0
8.17975
2.07663e-35
0
8.15359e-36
0
4.0865e-47
1.46197
4.74071e-14
0
1.48286e-05
9.94017e-46
0
7.77025e-46
1.25795e-34
0
2.32302e-05
0
0
0
0.0510022
5.99896e-127
0
0
0.0378334
0
2.54387e-50
1.90667e-56
3.69034e-115
0
0
6.40615e-78
1.05602e-15
0
4.74375e-62
0
0
6826.72
0
5.23444e-78
2.04697e-117
0
1.4058e-113
1803.34
6.89642e-12
0
4.53759e-54
0
5.34919e-42
6.97099e-14
1.47874e-26
1.00425e-82
0
2.90116e-17
5.2594e-101
2.25898e-09
0
7.88501e-07
4.22417e-125
0
0
0
0
1.85827e-27
2.81774e-111
1.06512e-128
8.34591e-54
0
0.000116942
9.33949e-56
1.74661e-27
0
1.13427e-55
0
5.89255e-07
4.38487e-70
0
3.20091e-56
8.38384e-84
7.4719e-41
0
3.49944e-95
2.65394e-143
2.2634e-106
120704
1.76916e-64
8.79969e-18
1.21278e-111
3.28012e-14
9.42517e-21
0
0
7.13898e-45
5.41261e-25
8.9133e-29
7676.34
3.28827e-40
0
1.6667e-20
0.0774481
0
5.12695e-110
1.26591e-101
1.11833e-18
0
53046.5
8.72817e-09
0
5.01762e-33
6.03497e-61
1.1109e-07
0
4.22748e-08
1.31065e-34
5.96487e-10
3.69494e-33
0.000351468
8.07302e-11
0
6.02414e-84
0
2.07358e-137
3.02129e-73
0
7.17628e-141
7.80774e-35
34.955
2.1294e-83
27117.8
8.24504e-29
8.77795e-66
0
3.43869e-15
5.31328e-12
0
3.75421e-27
2.39165e-52
1.06029e-53
0
6.98307e-35
0
1.62819e-15
0
0
0
0
1.97294e-54
7.09347e-129
0
0
1.53302e+06
1.5024e-31
7.42719e-144
0
0
1.38671e-70
9.43001e-87
0
4.75243e-48
0
2.80918e-58
0
1.59871e-56
3.02648e-57
0
0
0
0
0
0
0
0.000814103
1.4016e-29
1.8413e-38
0.00136009
7.45679e-52
2.58826e-145
0
0
9.02781e-97
3.34661e-50
0
3.26642e-45
2.70339e-67
9.83068e-11
4.36918e-68
7.17134e-36
1.48062e-93
1.56003e-92
1.72256e-52
2.41786e-74
0
78.8238
0
6.91347e-99
5.47594e-85
0
1.54794e-40
2.56466e-99
2.60512e-23
0
0
0
3.20928e-110
0
9.39721e-99
4.20919e-24
1.61467e-62
2.1128e-23
2.41464e-36
0
1.54602e-28
4.13003e-06
3.41702e-21
4.07299e-23
2.44228e-87
8.04766e-46
6.23046e-07
7.56719e-150
8.09909e-16
1.30827e-89
4.42845e-92
8.96695e-92
568.022
1.171e-11
2.00499e-138
0.000857066
9.57495e-116
0.951399
0.000257196
2.91664e-88
1.08563e-67
4.4043e-52
3.91294e-44
1.26702e-50
7.2616e-38
4.93014e-138
0
4475.15
3.59435e-10
1.08036e-86
5.50596e-147
3.3713e-10
1.00384e-131
0
7.8726e-129
1.15125e-121
8.36669e-127
54.255
0
1.71022e-09
6.08142e-95
0
3.55541e-95
1.71049e-19
3.84254e-30
2.57059e-66
2.17527e-118
0.000437822
2.42023e-25
2.03291e-05
0
0
3.07252
3.10036e-61
0
5.21763e-42
3.15769e-110
7.67815e-52
1.98398e+06
3.92371e-93
0
4.93644e-99
3.83646
6.13372e-75
2.47073e-89
2.69233e-26
3.0037e-40
4.07199e-26
5.62737
2.82283e-91
1.14007e-29
4.99827e-45
0
0
9.40816e-45
1.08985e-116
2.52763e-26
1.2408e-135
1.59838e-17
0
2.84734e-110
9.25114e-05
5.84139e-100
5.25721e-112
0
8.03997e-38
1.42588
1.63034e-77
3.35655e-17
3.29112e-38
551.83
1.97002e-10
0
0
2.20825e-20
6.28676e-66
1.06022e-14
6.93266e-18
2.60077e-16
0
9.95992e-19
1.14579e-128
0
3.261e-14
8.47943e-85
2.14352e-86
0
5.63932e-37
1.8055e-63
5.83316e-103
6.08236e-95
0
1.85968e-128
7.28489e-53
0
6.27167e-16
1.54384e-110
7.33036e-62
0
2.18827e-35
0
0
0
0
5.82098
5.93418e-90
0.131978
5.69169e-26
0
7.40709e-70
1.55225e-86
0
3.43568e-97
4.57877e-47
0
0
9.20581e-39
9.9975e-37
3.91311e-109
6.03671e-37
3.94702
1.059e-38
0
0
2.26054e-17
3.47038e-24
3.88448e-33
0
1.70437e-113
0
2.96153e-32
0
2.69706e-123
2.19329e-33
1.99442e-111
0
3.31886e-41
3.22447e-05
2.22169e-35
0
4.90582e-08
9.69524e-106
8.98103e-13
2.9135e-123
0
0
9.97734e-70
2.78779e-94
7.32404e-12
0
0.000220887
0
10407.6
5.52793e-21
0
0
0
1.87264e-31
6.68101e-30
0
0.00571861
7.63569e-126
0
2.91853e-43
6.05527e-32
0
0
2.92771e-32
13857.2
34831.5
0
0
1.51413e-19
5.92939e-96
0
2.05869e-17
1.35776e-35
3.18795e-33
1.29857e-88
1.00339e-48
4.73085e-35
2.84222e-33
2927.57
6.31607e-23
6.5843e-48
7.3333e-17
3.24838e-05
0
1.55862e-24
0
1.01708e-52
7.8332e-40
1.19366e-44
0
3.49641e-37
1.41384e-128
1.15306e-48
3.77549e-25
8.68193e-28
1.31125e-11
0
2.42711e-46
0
0
3.37917e-111
7.55693e-08
0
9.19579e-126
0
8.97797e-54
5470.21
1.17124e-107
1.15466e-97
0.725236
0
0.615981
0
0.0324944
0
5.21767e-61
1.0141e-11
3.82464e-28
0
49.0611
0
1.74968e-44
8.44922e-20
5.01013e-124
4.24436e-118
9.23518e-104
0.00676767
5.22075e-23
1.4624e-66
2.23264e-16
9.7802e-96
0.735165
0.00543533
0.105559
5.84914e-19
1982.91
0
481.043
0
1.78956e-75
0
0
8.08549e-124
8.32843e-128
1.36156e-104
0
2.50907e-14
8.23667e-12
1.49293e-26
9.71477e-11
0
5.9268e-86
1.10754e-113
0
3.2864e-134
1.50106e-108
879.152
0
7.77219e-96
2.7125e-78
1.74289e-68
2.77139e-18
0
1.38876e-68
1.28325e-34
1.20818e-72
0
7.28158e-83
1.11348e-28
22707.6
5.09324e-35
1.8398e-09
0.117906
2.57995e-73
0
6.25559e-11
0
1.52381e-89
1.30913e-94
5.37216e-24
0.171598
6.26853e-11
2446.5
6.55566e-102
6.67586e-133
1.56431e+06
0
2.72891e-30
5.4778e-61
1.04037e-91
5.61806e-31
1.79515e-99
3.09674e-34
0
2.95919e-32
1714.02
1.47937e-08
6.91083e-32
2.19303e-19
7.81933e-18
1.45874e-134
1.35718e-06
0
2.9676e-95
0
1.91618e-81
1.7725e-116
1.6793e-81
1.59392e-43
1.6897e-118
2.87543e-19
13.6109
4.04098e-12
4.20744e-05
1.64382e-125
3.0443e-85
671.55
0
5.77534e-96
1.24925e-13
0
3.30517e-91
0
0
1.20068
0.000612978
0
2205.83
4144.12
1.68485
2.45478e-87
3.60222e-05
3.85491e-29
0
40.4545
0
0
0
9.72847e-84
4.70125e-33
0
6.77224e-31
4.30957e-57
4.55795e-06
0
5.21357e-79
0.00109465
3009.63
0
0
7.19749e-119
224819
0
3.64257e-47
1.61105e-19
0
1765.41
0
5.23768e-63
2.50795e-52
5.1639e-55
1.42208e-60
0
0.00013321
20.7275
2.64826e-06
1276.76
1.29132e-87
7.87083e-06
0
0
3.16858e-76
0
1.02815e-53
4.36061e-59
0
6.0292e-50
8.01805e-41
1.36373e-53
0
3.21772e-33
5.72327
0
2.94779e-05
36.236
3.1135e-16
2.19775e-121
4.13289e-07
1.4143e-62
0
5.11558e-72
0
0
0
2.70651e-07
2.18022e-09
5.20805e-26
3.0896
3288.5
9.2822e-17
0
0
2.7474e-05
1.06579e-18
1635.02
0
0
0
0.000774409
5.54269e-51
0.000181257
1.11114e-75
0
1.50542e-132
3.64743e-128
8.25847e-05
3.93057e-121
2.34358e-17
0
455.251
7.36107e-05
0
1.39526e-106
2015.11
0.0188811
3.0297e-08
0.0110911
0
0
249301
0
2.58244e-68
2.21943e-36
1.20687e-34
6.49806e-18
1.21753e-66
4.68261e-16
0.0119943
7.24447e-18
1.20048e-20
3606.3
0
1.70931e-14
0
0
145.528
2.95919e-16
1095.28
0
7.49403e-19
2.31191e-11
2.62567e-54
1985.06
3.64241e-18
3.301e-33
0
2.05449e-34
0.000100522
0
0
0
1.48998e-31
5.33722e-133
0
1.60264e-34
0
2600.84
729.126
7.68296e-47
1164.48
6.22252e-32
1.04273e-138
0
0.056561
1.19715
4.78242e-08
5.85267e-09
2.63606
100.597
748574
2.25757e-06
5.96781e-33
5235.96
8.34773e-61
4.91514e-41
0
0
2.61937e-28
175.756
4.24086e-06
1.18438e-15
0.000683564
162.179
1.58899e-30
1.20551e-16
4.10885e-41
0
3.83256e-101
7.611e-32
1.27367e-78
1.4814e-29
0
140.633
208.384
0
1.34997e-42
88801.3
0
707.229
7.07175e-33
1.94414
3.81563e-07
17.6421
3.54619e-48
0
1.17348e-77
0
0
0
8.63121e-15
0
0
1163.11
1.13668e-14
1.15518e-31
1281.08
276.68
80.2202
351.904
0
12.6121
3.3381e-22
4.7474e-116
4.26957e-72
0.0219163
0.0118722
0
2.65883e-100
0
1.67234e-60
0
184.837
60.4525
270.076
0.0181055
0
0
2.65918e-21
2.22427e-133
0
4.00158e-70
1.72525e-62
971.106
0
0
4504.74
6.25057e-58
2.84802e-39
0
7.18807e-45
8.22862e-127
1.022e-80
2.80253e-10
2.59234e-26
4.63934e-46
3.90604e-12
2.4617e-10
1.05576e-08
2.15055e-45
1.09976e-41
0
4.2015e-41
9.35937e-38
9.27616e-48
0
1.19688e-05
2.59761e-48
3.5616e-127
7584.6
5.91213e-39
4.67839e-125
0
2.936e-37
27.6155
4.3137e-11
2165.17
2.64723e-05
0
0
0
7.64574e-36
9.66763e-15
6.22197e-14
7.27002e-100
4.88895e-09
8.74628e-96
6.3816e-84
7.15849e-06
1.17986e-141
1.08518e-35
1.29996e-13
2.61478e-10
6.77611e-12
9.16746e-12
1.30146e-60
0.000232899
9.47651e-11
3.23829e-11
3.343e-63
3.59645e-13
6.5737e-16
3.4922e-12
9.43099e-15
3747.86
0
4.25439e-67
1.952e-13
106.121
7.22301e-20
0.00424298
2.09431e-18
8.3726e-13
1.10978e-99
2.58544e-124
1.25265e+06
3.32789e-10
1.23468e-05
4.64836e-14
0.000650581
0.0398709
14366.8
0
7.36183e-13
1.0234e-119
5.35568e-08
2.65305e-62
1.57308e-20
0
6.8713e-75
0.112215
0
7.21228e-18
2.49279e-12
4.99437e-100
7.96858e-60
1.25415e-13
1.23763e-63
2.17418e-68
0
3.31386e-123
3.02876e-22
1.45176e-120
2.07701e-11
41.3785
0
0
2772.46
2.18089e-64
0
4.70507e-12
4.60474e-106
5.64864e-102
0
2.17527e-66
4.88945e-24
4.55358e-22
9497.02
3.75374e-62
0
2.7706e-11
1.48281e-84
0.623648
13786.6
5.42534e-112
0
3.83823e-30
0
6.58245
0
1.54551e-79
3.89928e-149
0
0
1558.39
1399.02
8.55881e-31
0
407058
1.16903e-45
7.41474e-23
5.21241e-153
7.46117e-05
0
787.19
0
1.62473e-94
0
0
4.78774e-24
1.43207e-11
0
3.13854e-08
8.47156e-26
0
4.68833e-22
0
2.18827e-83
3.00335e-29
0
0.000792585
5.28499e-77
2.656e-159
2.0201e-100
0
0
8.71946e-09
601.103
1.65747e-155
1.11027e-152
0
4.26927e-138
0
3.06314e-42
0
4410.96
8072.56
5.78785e-16
0
0
6.39983e-21
2.76914
0
0.00222505
2.86311e-63
544.05
1.77602e-19
3.43557e-85
2611.54
1.8576e-11
1871.47
2933.86
0.28725
2.62309e-28
1.52807e-68
3.87442e-109
0
0
1.95526e-11
690.081
3.18008e-48
1.34526e-05
2.32157e-65
0.00392639
1.17448e-07
8.43129e-08
0
0
3.43524e-15
4.21039e-135
26.0441
0
1.90064e-113
1.21668e-115
3.8739e-07
1.98839e-09
0
0
0
0
4729.93
2.76422e-23
6008.97
8.81948e-138
0
0.160687
7.8691e-06
0
1.52271e-54
9018.52
8.64817e-50
1.20051e-49
0
0.000607384
5.10985e-18
0
5.9378e-141
4112.91
13666.3
0.000336889
1.08437e-14
2.2873e-58
134.253
3.29063e-93
7.30362e-12
2139.77
2680.24
654.121
145.664
251.345
103.056
0
1.95193e+06
0.00198883
2.14799e-13
2.88649e-144
0.01706
14609.5
5.31683e-134
5.51207e-15
337.315
0
1610.36
2.26124e-142
5992.62
6.43515e-11
8.14367e-05
6.98856e-14
0
2.96204e-87
5.18676e-142
5.9295e-46
0
312741
0
0.108662
1.60087e-08
9.37989e-141
8.03691e-145
0
1.99901e-53
1.29748e-48
0
9.65435e-17
0
0.000186871
3.43665e-55
771.692
1.85566e-142
9.57618e-12
0
0
6.22699e-07
0
0
5.48597e-64
1.2547e-37
0
127385
42470.6
340.213
0
1.44231e-33
7.30969e-36
0
1.57456e-82
0
9.57418e-30
0
0
1.9061e-23
6094.14
0
4.07828e-34
3.48925e-59
7.14484e-29
5.16143e-19
5.97559e-105
0
0
0
1338.9
9.07846e-74
218.29
2.02345e-81
1.81572e-57
2.18306e-05
9.61742e-06
1.09772e-96
7.91136e-48
6.90872e-63
0
2.14271e-54
2.61494e-71
0
2.19864e-29
1.40786e-59
3.17913e-64
2.97838e-83
0
3.71782e-05
1.15551e-66
0
1.38133e-66
0
1.95654e-67
0
4.99397e-28
6.53692
0
3.60891e-67
2.06766e-118
0
3.02058e-09
2624.86
6.80902e-98
0
2246.14
0
1.06612e-44
0
6.93461e-23
2151.26
0
4.44589e-61
2.26077e-45
0
2616.35
0
4.78969e-104
2.42168e-74
0
1.62391e-58
3.21632e-102
0
0
5.66636e-98
2.52583e-06
2.01238e-58
6.09552e-101
2.4659e-36
0
1.57671e-43
1.27544e-06
1.44284e-64
0
0.12516
0.0169802
0
8.83491e-97
8.40293e-127
0
3.44677e-28
0
1.18668e-64
0
1.30234e-71
7.90918e-51
0
0
0
0
0
3.04584e-16
7.74585
0
0.0287618
4.44815e-25
0.000346389
8.16849e-95
1.16421e-60
0.0142342
1.85988e-96
0
0.00178878
9.0833e-93
0.00385409
0
6.60773e-95
3.55187e-23
3.2387e-30
2.51112e-08
1.69221e-35
2.36664e-07
3.78366e-49
4.20621e-38
9.37831e-06
2.74843e-99
0
7.9953e-77
6.60994e-35
0
8.56705e-30
5.07838e-05
1.92221e-41
3.98398e-07
1.80937e-22
0.00202253
1.53255e-39
0
0
0.000116342
5.65696e-33
1.14839e-25
2.39271e-47
3.40254e-98
4.52275e-40
6.19259e-46
0
1.06091e-18
0
1.31415e-94
3.51683e-48
2.2417e-23
1.3926e-09
5.22858e-81
5.26555e-42
4.44212e-38
1.60636e-75
2.88362e-52
6.30064e-76
2.72425e-39
0
1.7337e-49
3.99686e-75
2.62896e-79
2.23731e-85
1.8771e-75
0
1.9423e-67
0
0
0
3.05502e-05
0
8.19988e-07
1851.49
1.14742e-116
2.18767e-58
2.78982e-17
2.46975e-80
7.01458e-91
0
6.18021e-131
2.535e-81
1.54442e-22
3.54622e-14
3.76388e-41
4.14788e-68
2.6027e-28
2.63194e-133
8.85494e-33
0.158242
2.2352e-132
0
0.0591349
4.41486e-132
2.21276e-81
3.42998e-19
3.2823e-86
7.65063e-24
2.56755e-09
7.41201e-55
0
0
56903.9
1.11338e-11
6.0687e-45
1.11802e-97
1.00934e-129
4.40321e-90
5.3044e-74
0
1.65762e-99
1.43392e-98
2.66367e-60
3.17236e-16
1.93076e-73
0
9.63143e-96
2749.79
1.73319e-10
4.09645e-06
254.434
2.30287e-11
9.61058e-71
9.88518e-15
1.2473e-56
4.50374e-85
3.76737e-70
0
0
5.11242e-69
1.50532e-23
209.985
5.84763e-61
1.6795e-65
1667.01
3.80249e-61
6162.51
0
2.51174e-34
0
3.37541e-61
40.3634
3.8501e-65
65.3634
1.41549e-68
0
0
1.02615e-73
0
5.64364e-12
460.629
0
5.01965e-16
5.29501
8.74615e-87
2.97796e-10
183.056
1.42992e-15
0
6.50699e-87
9.50685e-16
3.71906e-05
1.50465e-16
999.593
0
1.29547e-73
2.90696e-42
0
3.98211e-44
2.5737e-14
0
1.95756e-48
0
1.14979e-12
0
1.22174e-43
7.46945e-38
0
1.01276e-29
1.34676e-102
1.88778e-14
6288.97
0
8.96085e-15
1.87048e-11
6092.93
1.64974e-102
1.74505e-56
44783.8
0
8.62729e-16
5.53901e-36
4.39392e-24
1.44264e-86
1.3383e-12
0
9.19625e-110
0
0
960.127
9.56269e-43
1.36586e-44
11538.4
0.00334616
1.17916e-100
2.8954e-63
9.26815e-42
6.40636e-56
0
0
6.42648e-06
0
2.45255e-14
9.08669e-41
3.27355e-18
25158.6
1.6567e-42
9.90024e-81
27882.5
4.76298e-08
0
0
0.000112043
6.14934e-29
1.55919e-12
0
2.42477e-13
1.8394e-15
7.44516e-15
543.64
1.06011e-21
0
4.90294e-15
5.62934e-22
0.000767426
2.47624e-90
1.55471e-52
1.46689e-17
8.07089e-36
0
1.20714e-14
24677.1
0
3.92858e-56
0
1.62992e-42
0
240.108
1.01522e-69
23.9613
3.65176e-79
0.0150156
13797.5
1695.94
8.38965e-110
4.0782e-85
0
0
7.32036e-51
0
2.66047e-42
2.74402
13.09
0
0
179.143
0
1.50762e-11
1846.91
420.444
2.7275e-49
0
5.63583e-71
0
1.01706e-108
9.18331e-92
4.58781e-69
2.16348e-53
2.8146e-90
0
0
270095
6.73721e-47
2.82543e-47
8.04315e-92
2.17308e-22
2.28867e-40
3.96972e-87
9.43212e-15
0
3.02655e-68
6.93171e-48
1.02424e-100
1.26557e-42
0
0
1.06526e-69
0
4.25089e-37
825.695
0
1.1319e-08
1.40155e-18
4059.53
0
0
0
2.71593e-116
0
349565
9.49611e-64
2.49919e-37
2.62954e-114
5.49052e-89
0
1.13581e-57
1.48705e-116
0
6.18297e-37
0
5.99556e-26
1601.93
3.03168e-115
6.77827e-07
2.51994e-113
4.71998e-17
0
0
0
87.9561
0
8.72088e-96
3.39882e-133
0
0
8.23084e-128
0
18.5243
11461.8
3.11122e-116
9.67798e-13
0
4.07625e-125
0
0
0
8.56679e-39
3.04001e-06
3.05915e-56
2.56083e-86
0
4.74385e-99
701.898
5.04344e-12
5.83246e-73
0
8.66142e-94
0.00441539
0
0
7.37246e-72
1.55289e-72
0
0
0
107.116
2.18268e-98
2.32201e-49
7.26126e-56
1451.66
2.41285
1.74465e-75
1.23256e-18
31.3266
9.04217e-89
2.15199e-21
234759
0
97.8075
6.93613e-18
0
2.85456e-56
1.55287e-85
0.00111735
2.76984e-19
3.75848e-95
6.89859e-98
1.1067e-60
7.13677e-84
3.34082e-98
1.60107e-12
9.85286
1.01355e-25
1.12663e-22
0
9.91146e-13
1245.95
0
3.19497e-40
0
0
658.699
2.34847e-90
3.77565e-71
1.30741e-123
2.31085e-40
0
10416
0
0
6.23217e-30
0.032164
3.75739e-136
8.65458e-92
11579.5
7.88421e-91
0
1.24987e-108
9.34094e-95
2.69746e-29
2.58136e-24
0
5.29864e-34
0
1.5708e-76
0
4.4904e-111
51.4756
0
1.94019e-119
4.96889e-33
6.81322e-113
0
2.22426e-96
179.65
0
0.0500136
1.73853e-42
6.13371e-110
2.02258e-140
0
4.2064e-06
7.92334e-27
0
1.74156e-68
3.54412e-107
8.98008e-95
1612.05
5481.37
0
0
32.002
2595.09
2.69706
417.218
1072.76
1.70032e-38
0.33164
2.37105e-06
0
2.24971e-90
7.33146e-131
3.01466e-74
8.36547e-112
3.14581e-58
86327.7
3044.74
31.0693
3.17163e-05
311.331
9.4211e-43
0
0
4.49366e-08
2.39443e-08
2052.02
0.0010906
937.078
149.554
0
14.2873
36.4942
0
0
2413.33
0
1.65261e-128
10152
262.781
0
3.6888e-105
2.69582e-88
0
0
0
0
4.2163e-05
9777.45
7.28022e-98
1.16932e-35
5.78919e-57
659.245
11.8551
4.08225e-46
1.71006e-131
7.19894e-120
1138.73
2.45915e-77
8.15412e-72
1.36758e-12
0
9.18779e-43
2.58318e-105
0
0.112271
3.21732e-07
1.46684e-73
3.06759e-169
3.28957e-75
3.73636e-70
0
8.24645e-13
0
1.66846e-20
9.37342e-57
0
1.57889e-39
0
6.54752e-112
0
5.25911e-79
3.8474e-96
5.92066e-71
0
0
4.70941e-72
1.29226e-18
1.18732e-88
7.00659
2.35445e-68
0
8.51147e-87
0
0
1.63246e-66
0.070682
5.28106
0
3.92984
0
61.1745
0.00713522
2.72983
3.89657
0.189258
1.1386e-11
2.48935e-58
0
0
7.20005e-56
2.52091e-118
3.28956e-81
1.46917e-42
150.399
0
8.44356
4.54706e-71
2.00309e-28
1.4838e-68
0
0
0
0
21.6191
0
2.80449e-87
0
1.22413e-27
1.02936e-12
2.13864e-41
1.24149e-32
30534.3
4.66822e-66
21141.7
1.47744e-145
1.7404e-131
7.39529e-22
4371.9
56554.9
36607.3
4760.05
1040.33
0.0121052
143.874
0
11255.9
2.22219e-100
0
0
0
2.57869e-05
0.000254101
0.038836
0
0.000312232
9.27716e-05
0
5.07077e-06
0.00175322
3.03835e-118
0
6.81864e-110
0.609827
1.15772
3.40922e-32
2.42163e-111
1.1971
1315.91
8.73387e-09
2595.67
0.000221998
0
0
1.88994e-126
0
0
4.49045e-12
8.65715e-121
0
0
1.88263e-107
3.77582e-101
0
7.37986e-127
8.00449e-86
649.323
1.38875e-98
3.09406e-09
64.6282
4.28326e-94
2.47676e-11
0.000232073
0.00584181
0
0.00326317
2.87888e-17
1.12934
0
4.70046e-141
0.0561168
0
0.000103389
3.44948e-06
3.33139e-36
0
0
2.50567e-10
4406.59
0
3.75385e-46
0.000237488
0
2.30877
2.91641e-119
0
2.4762e-118
0.000195187
4.199e-77
0
0
2.54578e-70
0
0.00133126
0.00474862
7.33461e-07
0
0.00897739
221.053
68.4037
0
2.01442e-18
245069
1.58481
118.577
3.0836e-68
2.28156e-13
6.93177e-91
0
4.95673e-100
2.94891e-96
2.23762e-97
2.9291e-76
4.08979e-100
151.129
1.41722e-143
2.90361e-36
1.21624e-96
0
4.23286e-101
1.29503e-130
4.51713e-73
0.0030185
5.24953e-05
0
0
7.63555e-06
0
13.9021
0
0
2.25831e-05
4.92088e-67
0
0
0.209597
4.27123e-27
9.54668e-102
5.04145e-29
9.72227e-62
7.11831e-87
6.93897e-97
1.25726e-42
0
2.00385e-144
5.98585e-103
4.03742e-143
9.40411e-107
0
0
1.94636e-08
7.3385e-126
5.68247e-42
0
3.35445e-18
6.45851e-94
6.15124e-25
1.62397e-47
5.40777e-10
1.90526e-87
8.97711e-89
8.70952e-91
5.57594e-89
3.0094e-17
3.30744e-57
0
2.57901e-105
0
0
0.020652
6.16869e-96
0
0
2.25559e-84
0
0.00037915
8.41473e-107
0
5.01376e-83
0
1.49656e-67
2.10289e-84
0
7.5328e-45
0
1.3974e-133
4.54883e-45
1.15948e-05
5.92128e-108
8.79388e-100
0
1.18203e-71
0
4.98669e-69
1575.62
3.27533e-19
6.25953e-77
3.34661e-46
0
1.4856e-10
0
0.000392379
1.07135e-16
9.89296e-24
3.0401e-30
8.75439e-112
1.35183e-53
1.66815e-123
1.28506e-87
3.60456e-08
1.44537e-47
2.28998e-135
1.86572e-07
2.17831e-72
4.02994e-141
0
0
2.66261e-61
8.61422e-72
204340
0
2.47901e-132
0
1.24811e-06
1.66416e-08
9.86205e-08
8.15787e-15
0.774106
1217.71
2.61141e-35
0
0
4.90255e-06
0
0
3.47401e-64
1.04588e-51
188.147
3.60262e-91
0
4.61258e-69
2.20512e-16
1.44683e-17
0.0017421
8.04428e-15
3.48153e-124
3.61712e-19
337.529
0
9.86424e-10
8.71769e-101
2.09746e-71
1.32441e-126
3.45562e-62
0
0
0
1250.41
119.42
674.247
0.0347692
1805.67
4.95207e-19
5.35689e-119
1.271e-108
2.92412e-98
4.69175e-92
0
1.0324e-118
9.29035e-122
8.66241e-99
401.91
0
2.37935e-10
2.00535e-06
2.73102e-83
20.6036
0
4.26054e-08
4.00923e-23
1.47537e-122
1.65539e-07
1.78616e-109
0
0
1.2747e-08
1525.18
211.209
0
14.4231
7.23862e-76
7.89073e-29
0
6.08124e-15
0
91.8166
1.43964e-31
1.57042e-77
0
0.234805
1.97145e-07
0
4.60997e-12
1.28679e-121
5.80361e-81
8657.57
0
2.15087e-22
8.79161e-124
7.17135e-30
5.81076e-93
0
5.84426e-94
0
8.3532e-19
3.18341e-92
5345.02
3.25553e-80
2.46872e-19
2.86765e-95
2.39057e-62
1.41073e-16
0
3.09833e-94
1.69372e-92
42082
0
4.30849e-10
939.423
7.80815e-08
1.68504e-128
1.32366e-05
5.78995e-16
1.46796e-95
9.35268e-91
3493.3
7.55217e-20
3.97651e-91
0
203.063
5.52692e-33
0
2.28797e-41
1.64963e-21
0
0
6.80762e-70
5.19646e-111
198.562
7.41367e-114
2091.84
5.1774e-59
4.20753e-32
0
0
2.13731e-08
9.25838e-115
2.53921e-85
2.15124e-51
0
0
1194.48
0
1039.82
5.30946e-18
3.17165e-09
0
1.17901e-37
0
0
7.26089e-15
3105.15
30.2703
2.99213e-12
3.21272e-13
423.724
4.07907e-17
10966.8
4218.94
0
5453.15
14458.1
4.31208e-19
2.06321e-107
79.1935
12.1339
413.819
1262.46
2.55154e-06
1.89785e-08
14272.3
0
2035.13
1.0676e-26
0.312941
2.7452e-58
153.894
8941.76
1.51652e-48
5.49577e-38
3.85981e-09
399.566
1.72885e-24
58.1663
2.17679e-128
2.1354e-119
4888.24
2.39039e-27
2.382e-45
2.26406e-39
1.55481e-122
2.53976e-45
0
1.22305e+06
1057.02
0
1.47875e-54
7997.98
3.70221e-16
2720.65
3581.45
3600.23
6.64999e-16
0
1.37432e-80
6.16326e-10
1.40111e-89
2.50846e-90
0
1.20366e-21
9.20336e-43
9040.69
2.26428e-35
4.59966e-30
65.9485
0.0680113
0
2.65643e-86
47346.6
7.16004e-45
5.32723e-55
0.00141286
0
2.85318e-123
0
8.57252e-09
1151.72
8.19698e-05
0
0
1.01702e-104
1.06993e-16
714.784
7.2508e-08
551.379
1.0241e-131
4.53403e-25
9.6527e-130
5.40031e-23
0
458.727
2.03191e-18
0
577.72
0
0
3.30177e-18
0
0
0
4.82927e-13
0
2.07633e-135
3.11667e-85
3.1668e-22
75.3878
1.82096e-64
2.4426e-69
1.16355
5.62297e-81
2.33686e-14
0
2.78852e-133
0
3.21232e-98
0
4.03085e-70
2.99437e-82
0
9.57234e-54
3.87668
4.66766e-54
0
1.58855e+06
7.98279e-20
10.5338
1.86801e-80
0
1.29658e-86
0
8.93988
1.20938
157.953
12.3186
0
0.798234
0
0
4850.4
1.42869e-14
0.00313144
2.26277e-26
0
0.133539
4.43596e-68
7.47249e-74
1.88841e-130
3.90575e-07
1.35313e-13
0
0.000302583
3.43474e-133
1.1432e-26
3.42765e-54
2.03419
0
0
0.0455007
0.00195576
6.51341e-08
0
0.0397265
0
1.28556e-95
0
4.50085e-22
7.52863e-86
0
1.86539e-99
1.39959e-133
6.56282e-64
2.23169e-145
448.999
9.69435e-19
0.0468347
1.84988e-20
5.01551e-25
3.26832e-16
0
1.11927e-134
4.12581e-130
0.0167614
2.37731e-137
7.99097e-109