/*--------------------------------*- C++ -*----------------------------------*\
| =========                 |                                                 |
| \\      /  F ield         | OpenFOAM: The Open Source CFD Toolbox           |
|  \\    /   O peration     | Version:  v2012                                 |
|   \\  /    A nd           | Website:  www.openfoam.com                      |
|    \\/     M anipulation  |                                                 |
\*---------------------------------------------------------------------------*/
FoamFile
{
    version     2.0;
    format      ascii;
    class       volScalarField;
    location    "3";
    object      qin;
}
// * * * * * * * * * * * * * * * * * * * * * * * * * * * * * * * * * * * * * //

dimensions      [1 0 -3 0 0 0 0];


internalField   uniform 0;

boundaryField
{
    fire_inlet
    {
        type            calculated;
        value           nonuniform List<scalar> 
41
(
9419.1
10047.6
11522.9
11299.7
5188.79
21609.6
26213.7
25168.5
30839.5
16955.2
23001
27412.8
27812.8
30236.5
31892.1
34441.1
13279.5
8549.24
13539.5
8062.44
14733.9
12181
9523.63
15565.2
20081
23026.8
31352.4
23073.4
25789.2
16653.7
19017.8
27090.3
26345.5
28366.7
31055.2
31301.1
35954
31555.9
34626.2
34683.1
33416.4
)
;
    }
    outlet
    {
        type            calculated;
        value           nonuniform List<scalar> 
400
(
557.506
535.992
525.646
489.619
481.272
474.786
484.808
501.552
593.863
550.995
523.165
540.971
507.089
512.489
503.687
501.665
594.672
554.434
544.854
551.723
539.441
544.442
534.61
530.756
552.694
539.392
560.607
551.976
556.866
490.845
506.026
537.175
503.064
474.371
478.029
528.104
498.848
530.13
478.756
475.324
558.052
507.187
475.613
487.133
481.811
479.099
480.413
477.561
481.33
491.858
489.228
554.265
478.018
476.231
507.138
511.006
505.92
527.812
541.249
508.72
521.078
501.307
522.8
531.843
513.245
542.074
515.781
538.652
498.157
498.178
485.775
494.89
500.547
489.735
557.651
529.628
522
485.791
507.277
535.731
478.547
512.36
515.091
514.122
512.905
500.953
507.49
507.707
492.477
497.419
488.07
501.236
502.246
493.747
482.749
483.571
489.973
491.684
493.575
490.929
459.302
459.301
459.302
459.302
459.303
459.303
459.303
459.303
459.303
459.303
459.303
459.303
459.303
459.303
459.303
459.303
459.303
459.302
459.302
459.302
459.303
459.303
459.303
459.303
459.303
459.303
459.303
459.303
459.303
459.302
459.303
459.302
459.302
459.303
459.303
459.303
459.303
459.302
459.303
459.302
459.303
459.302
459.302
459.303
459.303
459.303
459.303
459.303
459.303
459.303
459.303
459.303
459.302
459.302
459.302
459.303
459.303
459.303
459.303
459.302
459.303
459.303
459.303
459.303
459.303
459.303
459.302
459.303
459.303
459.303
459.303
459.303
459.302
459.303
459.302
459.302
459.303
459.303
459.303
459.303
459.302
459.303
459.303
459.303
459.303
459.303
459.303
459.303
459.303
459.303
459.303
459.303
459.303
459.303
459.303
459.303
459.303
459.303
459.303
459.303
459.303
459.303
459.303
459.303
459.303
459.303
459.303
459.303
459.303
459.303
459.629
460.525
462.023
461.269
464.498
463.194
466.088
467.822
468.762
470.199
465.698
470.274
464.214
475.758
487.944
483.485
507.382
501.591
511.205
511.411
505.618
512.497
500.592
506.762
484.039
494.094
474.762
476.378
465.916
470.535
462.418
461.584
463.862
459.335
459.368
459.669
461.019
461.61
461.65
462.143
459.637
460.246
459.778
459.521
459.368
459.34
459.668
459.933
459.457
459.473
459.713
459.953
459.98
467.927
460.232
459.739
459.552
459.382
460.007
459.989
459.461
460.315
461.233
459.421
459.653
459.807
460.378
462.204
465.75
470.588
465.747
474.838
470.606
476.028
478.985
471.729
460.182
503.37
510.74
508.438
513.348
513.194
505.476
509.876
491.884
495.619
478.194
483.351
470.773
472.482
464.119
460.623
459.976
459.535
462.075
459.617
459.751
460.827
460.712
460.487
462.864
461.033
460.088
460.084
459.346
460.698
462.89
481.314
459.448
462.977
459.59
487.744
463.401
493.307
460.503
460.583
463.244
459.987
460.966
461.91
463.817
465.779
482.969
488.844
494.04
483.844
466.033
507.197
500.981
467.413
511.973
510.152
505.432
505.425
489.28
495.521
479.922
482.446
470.664
466.929
473.345
471.919
460.8
462.148
466.021
464.521
460.353
460.58
460.356
462.113
464.479
461.778
469.313
466.329
473.516
462.032
461.664
467.169
469.807
466.577
496.893
490.394
498.677
493.254
498.671
496.257
485.401
487.137
471.641
467.214
478.909
462.852
462.99
467.395
474.865
478.668
477.295
464.703
465.855
484.113
471.045
473.384
477.656
467.141
470.457
473.181
467.385
476.737
482.435
480.923
)
;
    }
    base
    {
        type            calculated;
        value           nonuniform List<scalar> 
14237
(
1598.03
2000.78
2036.55
873.006
1314.84
1639.38
1842.18
1747.85
2144.96
2636.11
2788.08
821.721
881.91
975.232
1046.11
1252.66
1877.54
1787.67
2208.65
2269.35
2288.42
2592.31
2620.99
2956.84
2678.91
2838.23
2236.75
782.202
768.962
1804.3
1044.27
1111.16
2229.99
2284.46
2537.92
2800.12
2557.23
916.393
2863.17
1507.36
1612.58
1776.53
2740.1
937.795
2894.43
2941.13
2758.3
1969.66
1948.38
1629.1
2416.69
879.463
1890.63
1557.87
2008.99
2047.41
1472.54
811.882
2006.08
2186.34
2106.13
2165.14
2213.87
1972.13
2244.87
2250.61
2050.1
2121.71
2285.42
2343.26
2071.41
459.301
459.302
459.302
459.302
459.302
459.302
459.303
459.302
459.303
459.303
459.303
459.303
459.303
459.303
459.303
459.303
459.303
459.303
459.303
459.303
459.303
459.303
459.303
459.303
459.303
459.303
459.303
459.303
459.303
459.303
459.303
459.303
459.303
459.303
459.303
459.303
459.303
459.303
459.303
459.303
459.303
459.303
459.304
459.303
459.304
459.304
459.304
459.304
459.305
459.305
459.306
459.306
459.308
459.307
459.309
459.308
459.31
459.309
459.312
459.31
459.323
459.322
459.695
459.669
570.118
549.127
574.524
564.254
494.011
472.767
464.523
461.362
459.79
459.303
459.302
459.302
459.302
459.305
459.316
459.335
459.37
459.626
462.388
477.094
527.845
459.302
459.302
459.302
459.3
459.301
459.3
459.3
459.299
459.299
459.298
459.297
459.297
459.297
459.296
459.296
459.293
459.293
459.286
459.289
459.278
459.28
459.27
459.271
459.247
459.231
459.25
459.229
459.222
459.322
459.238
459.813
459.426
461.236
460.169
464.299
462.15
470.662
467.217
475.465
473.041
479.274
478.167
479.409
480.339
474.601
476.785
469.137
471.472
465.304
467.358
461.855
463.563
460.356
460.713
459.646
459.898
459.466
459.542
459.419
459.439
459.402
459.411
459.392
459.401
459.383
459.392
459.374
459.382
459.446
459.406
459.735
459.637
461.216
459.382
459.59
460.114
463.092
467.781
474.328
473.183
474.363
479.729
526.024
603.116
635.246
580.738
663.061
640.039
514.997
482.455
480.024
473.882
468.246
459.382
459.3
459.298
459.292
459.267
459.226
459.219
459.252
459.284
459.299
459.302
459.297
459.308
459.341
459.303
459.865
567.336
562.121
550.726
585.655
517.539
479.905
465.794
463.24
460.395
459.302
459.302
459.302
459.302
459.302
459.303
459.308
459.326
459.351
459.413
459.936
467.403
489.627
461.222
463.13
466.2
459.592
459.359
459.703
459.706
461.351
466.25
471.85
472.568
473.291
474.075
493.479
564.003
639.272
608.462
614.925
673.218
560.669
488.232
479.338
480.538
471.18
463.573
459.299
459.296
459.279
459.245
459.21
459.232
459.27
459.293
459.301
459.3
459.29
459.301
552.989
592.067
521.389
479.987
467.687
463.621
460.624
459.628
459.302
459.302
459.305
459.316
459.331
459.373
460.152
467.619
491.259
557.009
459.302
474.453
473.255
474.306
484.205
540.372
639.642
651.587
619.462
686.178
583.976
493.757
480.179
480.714
471.757
464.449
459.298
459.292
459.266
459.223
459.22
459.255
459.286
459.3
459.3
459.292
472.649
554.096
560.23
565.864
502.151
472.733
464.73
461.355
459.788
459.31
459.323
459.354
459.491
461.892
478.635
524.381
475.36
502.863
582.275
668.797
616.953
662.92
666.088
526.941
483.87
477.526
475.29
468.865
461.506
459.299
459.295
459.278
459.242
459.212
459.234
459.273
459.293
459.303
459.298
567.611
459.303
459.302
467.84
460.121
473.365
461.367
471.936
459.3
557.297
459.617
459.302
459.302
459.302
459.303
459.302
459.303
459.303
459.303
459.303
459.303
459.303
459.303
459.303
459.303
459.303
459.303
459.303
459.302
459.302
459.302
459.303
459.303
459.303
459.303
459.303
459.303
459.303
459.303
459.303
459.303
459.303
459.303
459.303
459.303
459.303
459.304
459.303
459.304
459.304
459.305
459.304
459.306
459.305
459.308
459.307
459.309
459.309
459.31
459.31
459.314
459.314
459.351
459.348
459.734
459.889
459.711
459.3
567.947
570.813
594.766
539.49
516.683
509.252
503.71
475.726
464.175
460.923
461.037
459.779
459.452
459.301
467.1
459.301
459.299
459.302
459.302
459.301
464.698
459.302
459.3
459.297
459.301
459.3
459.3
459.308
459.391
459.591
463.165
469.644
499.004
537.257
469.997
459.3
461.649
459.301
459.299
459.3
459.299
459.297
459.297
459.296
459.296
459.295
459.295
459.293
459.293
459.292
459.287
459.289
459.278
459.283
459.271
459.27
459.248
459.225
459.25
459.847
459.241
459.22
459.443
459.276
460.108
459.601
461.966
460.569
467.262
463.677
472.478
469.443
478.272
475.883
480.479
480.566
477.77
480.536
471.549
475.532
467.411
468.738
463.604
465.188
460.731
462.271
459.918
460.089
459.562
459.734
459.444
459.486
459.43
459.44
459.414
459.419
459.411
459.42
459.396
459.42
459.432
459.431
459.737
461.374
459.656
469.165
459.486
459.489
468.381
464.74
464.775
461.864
461.887
459.363
465.715
465.846
557.771
472.647
466.883
460.57
459.758
460.583
503.202
588.408
683.452
631.646
654.013
668.88
524.257
478.08
476.215
471.134
462.996
462.241
461.383
461.558
459.303
459.296
459.28
459.247
459.215
459.233
459.272
459.294
459.303
459.299
551.598
553.839
470.578
466.237
459.295
459.301
521.999
527.434
459.302
459.302
459.301
459.302
459.303
459.295
459.389
459.292
459.316
459.303
459.303
541.745
543.251
491.54
473.129
470.763
462.083
459.612
459.567
459.578
459.525
459.474
460.71
459.389
459.437
459.306
459.323
459.298
460.328
464.861
478.29
514.306
535.699
459.303
467.208
459.3
567.966
467.473
482.363
547.947
654.164
671.4
634.679
693.064
588.82
494.427
478.255
476.953
466.246
474.229
459.298
469.894
459.298
459.293
459.27
459.226
459.223
459.255
459.287
459.3
459.302
476.548
473.472
505.198
549.151
459.3
459.3
459.287
459.259
459.223
459.227
463.653
469.346
459.296
459.303
459.294
459.273
459.238
459.215
459.28
465.462
470.313
474.471
496.172
615.217
666.08
621.238
459.301
459.3
530.683
514.199
472.877
459.301
460.482
459.303
459.728
464.329
462.34
685.85
503.909
526.775
459.332
459.301
459.307
461.015
482.872
656.879
652.59
675.663
565.446
488.74
515.42
626.49
689.094
459.296
459.264
459.292
459.243
459.304
459.302
459.303
459.302
459.303
459.303
459.303
459.303
459.303
459.303
459.303
459.303
459.303
459.303
459.303
460.863
464.058
459.979
460.842
459.303
459.303
459.303
459.303
459.303
459.303
459.303
459.303
459.303
459.303
459.303
459.303
459.303
459.304
459.304
459.305
459.305
459.306
459.306
459.308
459.308
459.312
459.313
459.317
459.316
459.33
459.33
459.391
459.391
545.656
535.153
508.342
499.921
655.98
459.299
460.664
459.303
460.298
459.325
459.292
459.333
459.325
461.414
460.546
459.291
459.288
459.286
459.28
494.652
644.949
481.998
494.018
459.953
460.037
459.681
515.059
459.303
459.303
459.303
459.297
459.295
459.295
459.292
459.293
459.292
459.292
459.291
459.291
459.286
459.287
459.276
459.276
459.261
459.261
459.234
459.226
459.243
624.758
459.266
459.231
459.603
459.389
460.583
459.95
463.706
462.299
469.496
466.355
475.972
472.824
481.107
479.259
480.662
482.458
475.628
478.545
469.441
472.11
465.22
467.652
462.289
462.944
460.095
461.392
459.738
459.896
459.489
459.555
459.443
459.469
459.423
459.437
459.427
459.428
459.43
459.43
459.953
459.385
459.457
459.841
464.009
463.416
686.579
487.93
493.845
560.669
587.784
674.586
666.309
649.972
631.115
488.771
654.682
636.429
632.866
523.272
488.714
467.277
459.297
465.418
468.859
470.013
465.561
463.757
459.275
463.011
463.156
462.437
459.296
459.29
459.296
459.29
459.235
459.223
459.258
459.289
459.301
459.302
468.037
465.763
465.292
459.301
459.315
464.472
463.55
482.585
502.096
527.812
527.041
491.586
459.349
503.659
498.692
505.627
459.287
506.33
505.546
487.906
459.298
459.3
459.3
459.301
459.302
459.301
504.523
490.031
463.368
459.263
459.277
459.298
459.3
503.556
459.681
459.67
470.018
467.725
459.302
459.968
460.248
459.45
460.178
461.062
535.825
462.807
462.676
459.3
459.297
459.3
459.3
459.289
459.284
459.294
459.296
459.286
466.729
462.675
473.366
459.305
512.585
465.819
633.362
459.303
459.469
459.369
459.483
459.417
464.211
459.34
459.346
463.453
461.711
459.298
469.824
459.298
459.298
459.297
459.294
459.755
459.76
459.299
459.301
646.974
469.503
459.302
592.163
459.293
470.807
459.299
461.069
462.03
460.279
459.256
459.297
459.303
459.22
459.237
459.279
459.297
459.292
484.911
536.851
459.34
459.604
459.29
459.3
461.09
511.801
510.431
467.872
459.239
674.092
700.505
601.167
471.574
459.274
459.256
459.242
459.223
459.23
459.298
459.3
459.299
459.299
459.303
459.303
459.303
459.303
459.303
459.303
459.303
459.303
502.477
460.529
461.225
459.293
459.303
459.303
459.303
459.303
459.303
459.303
459.303
459.303
459.303
459.304
459.304
459.306
459.305
459.309
459.307
459.311
459.31
459.318
459.315
459.323
459.322
459.349
459.348
459.432
459.431
517.786
521.772
487.958
478.966
572.917
498.925
496.004
463.935
461.797
459.245
463.202
459.3
462.012
459.27
478.216
459.271
459.268
574.518
459.307
462.013
462.03
460.896
461.576
465.982
459.464
459.293
488.335
484.276
462.156
459.291
459.292
459.292
459.291
459.292
459.291
459.284
459.288
459.271
459.28
459.255
459.258
459.229
459.238
459.235
459.279
459.37
459.39
459.297
459.963
459.655
462.32
461.389
466.377
463.763
472.835
468.296
479.379
476.251
482.606
482.042
479.812
482.787
473.567
477.577
468.984
469.983
463.664
466.602
461.412
462.067
459.812
460.457
459.561
459.636
459.479
459.495
459.448
459.464
459.439
459.446
459.56
469.576
459.303
459.27
604.591
567.165
459.355
459.528
459.634
459.453
459.302
461.087
460.258
553.397
631.323
584.935
465.802
460.258
459.871
459.69
459.284
493.609
459.252
459.299
619.846
593.457
460.775
460.692
463.294
459.266
459.284
459.265
475.329
468.675
482.746
459.302
459.302
459.302
459.233
459.239
459.234
459.233
459.276
459.281
459.297
459.308
475.652
467.162
460.471
460.475
515.862
487.953
459.263
459.264
499.145
459.302
459.3
459.301
461.466
459.314
459.254
459.39
459.303
495
490.397
459.293
459.292
459.295
459.601
459.599
518.903
474.095
565.412
579.789
461.417
461.205
460.297
459.307
561.088
459.291
459.275
459.268
459.631
459.28
459.306
525.691
459.383
459.264
459.41
459.374
461.357
459.947
459.301
460.089
459.303
459.301
483.162
459.415
459.563
459.837
459.871
465.343
459.295
459.289
459.301
513.421
503.929
460.546
460.234
459.28
459.295
459.296
459.292
466.085
459.352
459.353
459.245
459.301
459.57
462.02
459.303
517.295
581.497
459.303
462.984
473.609
464.115
459.299
459.303
459.296
459.296
460.099
459.848
459.78
459.298
459.3
459.291
460.817
460.314
499.855
481.915
459.299
508.51
521.734
494.839
459.294
459.299
460.163
522.278
459.241
459.303
459.303
459.303
459.303
459.259
459.248
535.789
566.721
459.303
459.303
459.303
459.304
459.304
459.305
459.304
459.306
459.306
459.309
459.308
459.313
459.312
459.318
459.316
459.326
459.326
459.355
459.355
459.43
459.428
560.917
461.051
499.658
459.302
459.457
459.441
480.592
501.291
459.3
583.213
459.287
459.285
459.276
466.237
608.392
459.555
459.554
459.529
459.903
460.407
459.29
459.291
459.293
459.29
459.291
459.287
459.29
459.271
459.278
459.254
459.253
459.242
459.257
459.24
478.239
459.278
532.886
459.527
459.319
460.71
459.598
463.922
461.563
468.022
465.436
475.638
472.927
481.539
480.434
484.131
484.077
479.563
482.01
470.684
476.448
466.644
468.08
462.082
464.163
460.468
461.369
459.742
459.945
459.523
459.642
459.467
459.486
459.455
459.465
459.297
459.277
459.255
459.273
459.294
459.292
459.294
459.745
485.544
499.666
460.332
460.386
459.309
459.305
459.318
459.303
459.303
488.607
459.303
459.303
459.303
459.917
534.522
460.923
459.303
459.302
481.726
485.993
459.3
459.301
459.301
459.252
459.259
464.309
459.279
459.286
463.262
460.482
459.503
459.435
459.917
459.301
459.302
459.301
459.609
473.766
459.263
459.263
459.344
533.32
493.748
500.543
550.359
528.643
462.714
460.844
459.556
459.26
459.244
477.114
479.984
459.295
570.553
465.757
459.559
459.506
459.503
526.171
570.265
493.151
459.262
459.259
459.472
460.494
475.173
462.54
459.307
484.315
474.707
483.359
459.288
459.281
459.269
460.967
461.76
461.452
460.385
459.845
460.273
459.302
459.302
459.246
459.248
460.137
537.217
459.295
459.286
459.541
459.297
459.3
459.3
459.302
459.241
598.919
459.313
459.318
459.326
460.905
459.973
459.84
461.008
462.661
518.354
459.609
459.625
459.568
464.944
464.619
470.309
459.279
459.287
459.282
459.3
459.299
459.303
459.945
459.762
459.35
459.368
459.289
459.287
459.303
459.731
459.302
459.303
464.763
459.408
459.296
459.303
459.305
459.304
459.307
459.305
459.308
459.307
459.313
459.309
459.315
459.315
459.33
459.32
459.356
459.356
459.411
459.41
459.688
459.299
459.303
459.294
471.033
459.285
459.42
459.42
459.9
459.246
459.785
459.296
459.294
459.285
459.287
459.268
459.272
459.256
459.26
459.256
459.275
459.257
459.548
459.327
461.244
459.843
464.607
462.677
470.291
468.136
479.4
473.279
484.228
482.619
481.988
485.382
476.549
480.428
468.875
475.747
464.196
465.988
461.381
463.228
459.951
460.829
459.585
459.717
459.489
459.545
459.292
459.305
459.3
460.673
459.303
459.304
459.287
459.288
459.301
459.293
459.286
459.3
459.3
479.943
459.263
459.416
459.848
459.28
459.276
459.264
459.261
459.269
459.33
479.605
480.872
472.011
459.246
459.258
460.8
475.161
481.228
459.293
459.772
459.446
459.445
459.303
459.658
459.593
459.3
459.275
459.263
459.302
459.302
459.465
459.29
479.877
459.291
459.272
459.3
459.282
459.479
459.505
459.477
459.303
459.303
459.3
459.298
459.302
459.487
459.245
459.251
460.691
465.779
459.258
459.3
459.278
459.305
459.307
459.303
459.303
459.29
459.29
459.303
459.303
459.286
459.303
459.303
459.303
459.285
459.264
459.298
459.791
459.999
459.568
462.346
462.554
459.302
459.301
459.558
459.583
459.269
459.301
459.305
459.306
459.305
459.309
459.306
459.312
459.312
459.318
459.314
459.359
459.338
459.395
459.388
459.5
459.302
459.302
459.303
459.267
459.266
459.301
469.973
468.538
472.286
459.586
459.301
459.295
459.289
459.296
459.281
459.289
459.268
459.28
459.33
459.34
459.917
462.696
460.016
468.189
463.45
473.361
470.472
479.241
476.869
486.304
482.111
481.611
483.915
475.871
480.838
466.092
470.594
463.254
465.029
460.839
461.419
459.724
460.267
459.554
459.527
459.629
459.303
459.294
459.298
459.292
459.295
459.298
459.296
459.283
459.303
459.302
459.385
459.374
459.284
459.352
459.286
459.289
459.299
459.306
459.313
466.051
459.253
459.282
459.284
459.267
460.685
462.163
459.912
459.302
459.302
459.26
459.267
459.518
459.278
459.302
459.416
459.284
459.305
459.315
459.267
459.862
459.748
459.303
459.304
459.303
459.519
459.305
459.291
459.296
481.999
459.302
459.302
459.303
459.303
459.302
459.272
459.295
459.285
459.272
459.298
460.55
459.273
459.302
459.302
463.18
463.517
459.55
459.552
465.986
471.789
459.298
459.289
459.296
459.275
459.271
459.548
482.04
481.784
459.586
459.735
459.608
459.408
459.303
459.287
459.306
459.305
462.132
460.703
459.329
459.329
459.292
459.328
459.285
459.29
459.275
459.304
459.986
463.421
460.447
468.366
463.428
476.937
469.288
482.074
477.942
484.043
483.544
480.988
483.502
470.756
479.683
466.497
468.577
461.83
463.528
460.297
460.99
471.685
459.348
459.305
459.295
459.302
459.272
459.29
459.293
459.276
459.361
459.501
460.139
464.985
459.271
459.294
459.527
459.303
459.27
459.27
459.303
470.834
459.289
459.302
459.535
464.916
460.912
459.306
459.66
459.634
459.76
459.909
459.688
459.686
460.114
472.689
481.901
468.414
468.529
459.303
459.286
459.315
480.61
470.841
459.72
459.779
465.106
465.4
459.578
459.415
460.454
464.146
459.361
460.204
460.091
461.003
462.094
469.565
462.25
476.816
469.688
483.708
478.014
483.759
484.404
480.528
482.391
470.702
478.586
463.56
466.484
460.906
459.977
460.493
459.86
460.202
472.462
461.066
459.312
460.094
460.461
459.419
462.591
459.294
459.264
471.59
459.31
483.11
482.277
466.004
467.341
472.576
473.062
459.296
459.293
477.192
476.318
483.75
464.883
459.298
461.979
475.679
481.25
478.699
466.767
462.403
461.418
466.763
460.672
460.666
462.236
463.027
475.935
468.092
476.459
474.243
474.337
459.418
465.724
459.294
459.348
481.481
482.735
460.34
482.92
476.125
459.632
480.96
480.987
483.182
460.099
481.028
484.2
459.3
459.301
459.302
459.303
459.303
459.303
459.303
459.303
459.303
459.303
459.303
459.303
459.303
459.303
459.303
459.303
459.303
459.303
459.303
459.303
459.303
459.303
459.303
459.303
459.303
459.303
459.303
459.303
459.303
459.303
459.303
459.303
459.303
459.303
459.303
459.303
459.303
459.303
459.303
459.303
459.303
459.303
459.303
459.303
459.303
459.303
459.303
459.298
459.299
459.3
459.3
459.301
459.301
459.302
459.302
459.302
459.302
459.302
459.302
459.303
459.303
459.303
459.303
459.303
459.303
459.303
459.303
459.303
459.303
459.303
459.298
459.299
459.299
459.301
459.302
459.301
459.3
459.3
459.301
459.302
459.302
459.302
459.303
459.302
459.303
459.303
459.303
459.303
459.303
459.303
459.303
459.303
459.303
459.303
459.303
459.303
459.301
459.302
459.303
459.303
459.303
459.303
459.303
459.303
459.301
459.302
459.302
459.303
459.303
459.303
459.303
459.302
459.299
459.299
459.299
459.303
459.298
459.299
459.299
459.3
459.301
459.301
459.301
459.3
459.301
459.302
459.301
459.302
459.303
459.302
459.302
459.302
459.303
459.303
459.303
459.303
459.303
459.303
459.303
459.301
459.303
459.303
459.303
459.301
459.302
459.301
459.301
459.3
459.3
459.301
459.302
459.302
459.303
459.303
459.303
459.303
459.303
459.303
459.303
459.303
459.3
459.301
459.302
459.302
459.303
459.303
459.303
459.303
459.303
459.303
459.301
459.299
459.301
459.301
459.301
459.299
459.3
459.302
459.303
459.303
459.302
459.301
459.303
459.303
459.303
459.301
459.301
459.302
459.303
459.303
459.303
459.303
459.303
459.303
459.303
459.303
459.303
459.303
459.303
459.303
459.303
459.303
459.303
459.303
459.303
459.303
459.303
459.303
459.303
459.303
459.303
459.303
459.3
459.302
459.301
459.3
459.302
459.301
459.302
459.302
459.302
459.302
459.303
459.303
459.303
459.303
459.303
459.303
459.303
459.303
459.302
459.303
459.303
459.3
459.299
459.302
459.301
459.301
459.301
459.301
459.301
459.301
459.301
459.299
459.301
459.301
459.302
459.301
459.302
459.302
459.302
459.303
459.301
459.303
459.303
459.301
459.303
459.303
459.303
459.303
459.303
459.303
459.303
459.303
459.303
459.303
459.303
459.303
459.303
459.303
459.303
459.303
459.303
459.303
459.303
459.303
459.303
459.298
459.299
459.3
459.301
459.303
459.303
459.303
459.303
459.302
459.302
459.302
459.3
459.301
459.303
459.303
459.303
459.303
459.303
459.299
459.303
459.299
459.303
459.301
459.302
459.303
459.303
459.303
459.303
459.301
459.303
459.303
459.303
459.303
459.3
459.303
459.303
459.303
459.303
459.302
459.302
459.302
459.302
459.302
459.303
459.303
459.303
459.303
459.303
459.303
459.303
459.301
459.303
459.303
459.303
459.303
459.302
459.302
459.303
459.303
459.303
459.303
459.303
459.303
459.303
459.302
459.302
459.303
459.302
459.303
459.303
459.301
459.302
459.303
459.303
459.303
459.303
459.303
459.303
459.303
459.303
459.303
459.303
459.303
459.302
459.302
459.303
459.303
459.303
459.303
459.303
459.303
459.303
459.302
459.303
459.303
459.303
459.303
459.302
459.303
459.302
459.302
459.302
459.302
459.303
459.303
459.303
459.303
459.303
459.303
459.303
459.303
459.303
459.303
459.303
459.303
459.303
459.303
459.303
459.303
459.302
459.303
459.302
459.303
459.303
459.303
459.302
459.303
459.303
459.302
459.302
459.295
459.292
459.285
459.275
459.242
459.157
459.137
459.193
459.252
459.288
459.295
459.265
459.212
459.337
459.193
459.42
459.266
459.148
459.001
459.116
459.176
459.239
459.292
459.361
459.491
459.299
459.296
459.293
459.294
459.288
459.291
459.282
459.287
459.27
459.278
459.235
459.261
459.202
459.223
459.143
459.179
459.102
459.126
459.08
459.083
459.095
459.081
459.134
459.115
459.182
459.152
459.215
459.197
459.248
459.234
459.269
459.261
459.285
459.278
459.295
459.289
459.295
459.299
459.29
459.297
459.282
459.288
459.271
459.272
459.312
459.277
459.296
459.295
459.295
459.295
459.295
459.295
459.296
459.295
459.297
459.295
459.298
459.297
459.299
459.298
459.299
459.298
459.3
459.298
459.3
459.3
459.299
459.299
459.299
459.299
459.298
459.298
459.298
459.297
459.298
459.297
459.297
459.323
459.29
459.281
459.266
459.209
459.136
459.151
459.228
459.269
459.297
459.285
459.24
459.154
459.152
459.155
459.17
459.121
459.06
459.037
459.068
459.054
459.183
459.204
459.257
459.316
459.289
459.456
459.282
459.253
459.291
459.293
459.285
459.271
459.223
459.153
459.148
459.197
459.255
459.296
459.295
459.257
459.054
459.205
459.248
459.288
459.325
459.194
459.144
459.17
459.23
459.282
459.301
459.285
459.229
459.301
459.259
459.114
459.234
459.294
459.199
459.278
459.241
459.243
459.291
459.148
459.174
459.224
459.284
459.3
459.282
459.219
459.184
459.104
459.274
459.162
459.22
459.073
459.125
459.196
459.223
459.292
459.271
459.271
459.128
459.133
459.193
459.261
459.271
459.344
459.284
459.286
459.294
459.296
459.29
459.292
459.286
459.289
459.277
459.283
459.257
459.269
459.218
459.238
459.177
459.207
459.135
459.155
459.09
459.113
459.088
459.087
459.126
459.122
459.166
459.139
459.211
459.183
459.24
459.217
459.263
459.251
459.28
459.27
459.289
459.285
459.296
459.297
459.297
459.296
459.292
459.292
459.28
459.28
459.274
459.289
459.276
459.294
459.286
459.286
459.294
459.294
459.294
459.295
459.294
459.297
459.294
459.297
459.297
459.299
459.298
459.299
459.298
459.299
459.299
459.299
459.299
459.299
459.298
459.298
459.298
459.297
459.297
459.062
459.102
459.253
459.259
459.294
459.265
459.291
459.288
459.168
459.145
459.202
459.258
459.297
459.292
459.254
459.287
459.111
459.168
459.128
459.192
459.152
459.239
459.298
459.28
459.205
459.264
459.303
459.216
459.194
459.157
459.297
459.23
459.284
459.239
459.276
459.271
459.297
459.284
459.242
459.263
459.162
459.256
459.159
459.184
459.265
459.295
459.159
459.167
459.215
459.212
459.278
459.26
459.248
459.287
459.297
459.282
459.247
459.268
459.295
459.286
459.279
459.288
459.271
459.291
459.291
459.246
459.244
459.231
459.254
459.297
459.298
459.289
459.294
459.292
459.294
459.219
459.219
459.288
459.29
459.281
459.284
459.266
459.275
459.239
459.257
459.21
459.231
459.164
459.193
459.147
459.152
459.125
459.142
459.155
459.141
459.173
459.162
459.203
459.201
459.233
459.233
459.257
459.25
459.275
459.263
459.287
459.283
459.293
459.292
459.296
459.293
459.294
459.294
459.286
459.291
459.289
459.29
459.291
459.228
459.244
459.181
459.203
459.292
459.293
459.291
459.295
459.293
459.295
459.294
459.296
459.296
459.297
459.296
459.298
459.297
459.298
459.297
459.296
459.297
459.296
459.293
459.295
459.147
459.218
459.227
459.18
459.274
459.272
459.28
459.266
459.281
459.291
459.283
459.171
459.29
459.288
459.292
459.291
459.25
459.167
459.163
459.19
459.184
459.174
459.276
459.215
459.23
459.149
459.154
459.276
459.278
459.178
459.279
459.29
459.272
459.179
459.279
459.171
459.18
459.229
459.2
459.199
459.286
459.256
459.26
459.221
459.24
459.282
459.272
459.261
459.293
459.288
459.299
459.29
459.224
459.237
459.291
459.293
459.286
459.288
459.276
459.28
459.262
459.269
459.235
459.246
459.206
459.219
459.181
459.196
459.162
459.175
459.172
459.176
459.189
459.2
459.224
459.228
459.247
459.241
459.268
459.262
459.274
459.273
459.291
459.286
459.296
459.294
459.296
459.299
459.296
459.294
459.296
459.294
459.294
459.291
459.255
459.273
459.199
459.212
459.302
459.298
459.292
459.29
459.294
459.293
459.294
459.293
459.295
459.293
459.295
459.294
459.296
459.295
459.296
459.295
459.29
459.303
459.317
459.246
459.193
459.291
459.215
459.291
459.289
459.212
459.231
459.293
459.244
459.234
459.279
459.271
459.278
459.292
459.307
459.274
459.291
459.295
459.293
459.294
459.253
459.265
459.214
459.243
459.281
459.282
459.29
459.286
459.286
459.291
459.278
459.198
459.291
459.293
459.295
459.293
459.299
459.287
459.262
459.315
459.296
459.258
459.221
459.2
459.204
459.244
459.247
459.287
459.291
459.28
459.286
459.274
459.279
459.256
459.267
459.236
459.242
459.221
459.228
459.2
459.218
459.207
459.211
459.217
459.217
459.235
459.229
459.252
459.247
459.264
459.266
459.283
459.281
459.298
459.298
459.3
459.301
459.302
459.304
459.279
459.297
459.296
459.313
459.214
459.215
459.229
459.329
459.329
459.291
459.292
459.243
459.289
459.242
459.29
459.29
459.291
459.291
459.292
459.291
459.292
459.292
459.293
459.292
459.293
459.292
459.333
459.346
459.267
459.262
459.287
459.292
459.296
459.208
459.256
459.257
459.268
459.3
459.278
459.269
459.325
459.27
459.215
459.278
459.274
459.289
459.288
459.286
459.296
459.275
459.265
459.283
459.279
459.284
459.214
459.28
459.303
459.293
459.291
459.303
459.287
459.235
459.3
459.212
459.215
459.259
459.277
459.284
459.285
459.278
459.284
459.27
459.275
459.258
459.269
459.243
459.259
459.239
459.242
459.237
459.241
459.246
459.238
459.253
459.251
459.272
459.266
459.28
459.276
459.292
459.288
459.302
459.301
459.31
459.31
459.308
459.307
459.313
459.292
459.234
459.252
459.338
459.295
459.301
459.29
459.291
459.29
459.291
459.29
459.291
459.29
459.289
459.287
459.288
459.347
459.352
459.292
459.292
459.295
459.323
459.343
459.296
459.278
459.304
459.3
459.273
459.286
459.297
459.306
459.234
459.277
459.236
459.314
459.301
459.316
459.271
459.289
459.291
459.29
459.286
459.345
459.288
459.269
459.268
459.299
459.297
459.297
459.304
459.306
459.311
459.291
459.261
459.241
459.247
459.246
459.294
459.354
459.279
459.283
459.272
459.276
459.261
459.274
459.259
459.265
459.259
459.265
459.26
459.266
459.261
459.268
459.281
459.278
459.289
459.286
459.301
459.298
459.312
459.309
459.316
459.318
459.286