/*--------------------------------*- C++ -*----------------------------------*\
| =========                 |                                                 |
| \\      /  F ield         | OpenFOAM: The Open Source CFD Toolbox           |
|  \\    /   O peration     | Version:  v2012                                 |
|   \\  /    A nd           | Website:  www.openfoam.com                      |
|    \\/     M anipulation  |                                                 |
\*---------------------------------------------------------------------------*/
FoamFile
{
    version     2.0;
    format      ascii;
    class       volScalarField;
    location    "3";
    object      qr;
}
// * * * * * * * * * * * * * * * * * * * * * * * * * * * * * * * * * * * * * //

dimensions      [1 0 -3 0 0 0 0];


internalField   uniform 0;

boundaryField
{
    fire_inlet
    {
        type            calculated;
        value           nonuniform List<scalar> 
41
(
8959.8
9588.25
11063.6
10840.4
4729.49
21150.3
25754.4
24709.2
30380.2
16495.9
22541.7
26953.5
27353.5
29777.2
31432.8
33981.8
12820.2
8089.94
13080.2
7603.13
14274.6
11721.7
9064.33
15105.9
19621.7
22567.5
30893
22614.1
25329.9
16194.4
18558.5
26631
25886.2
27907.4
30595.9
30841.8
35494.7
31096.6
34166.9
34223.8
32957.1
)
;
    }
    outlet
    {
        type            calculated;
        value           nonuniform List<scalar> 
400
(
98.1649
76.6526
66.2792
30.252
21.9137
15.3689
25.2789
42.0197
134.433
91.5754
63.7443
81.5457
47.6067
53.0253
44.2052
42.1299
135.233
95.0948
85.5141
92.3851
80.0957
85.0996
75.2608
71.4063
93.3256
80.0314
101.218
92.5359
97.4753
31.4854
46.4945
77.8133
43.6883
14.9917
18.5451
68.7486
39.3058
70.786
19.2436
15.932
98.7183
47.8212
16.1463
27.577
22.4338
19.5645
21.042
18.1002
21.8269
32.4896
29.8583
94.9278
18.6043
16.8053
47.7505
51.6435
46.554
68.3496
81.7951
49.1817
61.5693
41.9263
63.4491
72.467
53.8774
82.686
56.3978
79.3082
38.7678
38.5837
26.1617
35.286
40.9678
30.1201
98.2453
70.2845
62.6435
26.3952
47.6522
76.3037
19.0484
52.8364
55.6157
54.7045
53.5197
41.537
48.106
48.2592
33.0477
37.8038
28.4544
41.651
42.7747
34.3349
23.1173
24.0008
30.4903
32.2335
34.046
31.3452
-0.00154686
-0.00167313
-0.0010218
-0.000777792
-0.000431784
-0.000212197
-1.50501e-05
5.25432e-05
1.50017e-05
3.45238e-05
3.58668e-05
3.75682e-05
4.35034e-05
3.62017e-05
4.52811e-05
4.30615e-05
1.95245e-05
-0.0012857
-0.000763288
-0.000839665
-0.000336748
-0.000478308
-0.00016151
-0.000328368
-3.08144e-05
-8.84877e-05
-9.06745e-06
-6.47435e-05
-1.68418e-05
-0.000734721
4.98041e-05
-0.001254
-0.000822363
-0.000433125
-0.000209921
-0.00021534
-4.93348e-05
-0.00110233
3.86764e-05
-0.00118352
-0.000115414
-0.00154766
-0.00076159
1.93038e-05
-4.06031e-05
-0.000132344
-4.07965e-06
-0.000573658
-0.000471701
-0.000233012
-0.00035561
-0.000185662
-0.000681204
-0.000893296
-0.000866533
6.04984e-06
-1.66086e-05
-1.11949e-05
-1.03595e-05
-0.0015779
-0.000527506
-0.000402567
-0.000408333
-0.000180482
-0.000320739
-0.000480228
-0.00119244
-3.23688e-05
-0.000505155
5.17774e-05
-8.36675e-05
-4.64672e-05
-0.000903889
1.43833e-06
-0.000767102
-0.00079571
-4.21153e-06
-3.95058e-05
-5.58916e-05
-0.000150877
-0.000646203
-0.000541401
6.24356e-06
-8.30366e-05
-1.80206e-05
-3.50532e-05
-0.000362422
-0.000163868
-2.0667e-05
-0.000569852
-4.58406e-05
-0.000438098
-0.000370873
-0.000221053
-6.9442e-05
-3.22219e-05
-0.000114766
-0.000178877
-0.00028451
-0.000157949
-6.65254e-05
7.50115e-06
-3.13394e-05
-3.09069e-05
-5.02809e-05
-0.000343941
-0.000252837
-2.4515e-05
-0.000208254
-9.13479e-05
0.325945
1.22083
2.71866
1.96493
5.19169
3.88811
6.78108
8.51504
9.45419
10.8907
6.39062
10.9658
4.91117
16.4547
28.6405
24.1822
48.0785
42.2884
51.9015
52.1075
46.3146
53.1941
41.2886
47.4586
24.7364
34.7911
15.4587
17.0751
6.61312
11.2319
3.11511
2.28059
4.55856
0.0322198
0.0646889
0.365535
1.71624
2.30668
2.34652
2.84023
0.334239
0.943078
0.475254
0.217923
0.0650647
0.0369473
0.363813
0.630108
0.15357
0.169806
0.409865
0.649511
0.676979
8.62415
0.927392
0.436249
0.249074
0.0790515
0.703051
0.685183
0.157539
1.01106
1.93037
0.11725
0.349688
0.502955
1.07435
2.8995
6.44383
11.2794
6.44014
15.528
11.2977
16.718
19.6742
12.4259
0.878056
44.0533
51.4232
49.12
54.0451
53.8762
46.1733
50.5592
32.5742
36.3078
18.8867
24.0423
11.4696
13.1755
4.8162
1.31897
0.672047
0.231471
2.77088
0.313447
0.447615
1.52288
1.40742
1.18274
3.55916
1.72904
0.783957
0.780147
0.04316
1.39341
3.58433
22.002
0.144414
3.67159
0.286855
28.4304
4.09682
33.9921
1.19922
1.27917
3.93873
0.683128
1.6618
2.60567
4.51253
6.47375
23.6576
29.5309
34.7249
24.5319
6.72691
47.8791
41.6648
8.10622
52.6557
50.8353
46.1171
46.1086
29.9697
36.209
20.6138
23.1371
11.3579
7.62414
14.0389
12.6101
1.49566
2.84427
6.71559
5.21609
1.04964
1.27643
1.05264
2.80908
5.17385
2.4737
10.0051
7.02288
14.2068
2.72813
2.36009
7.86296
10.4992
7.27066
37.5778
31.0803
39.362
33.9397
39.3573
36.9438
26.091
27.826
12.3352
7.90828
19.6013
3.5473
3.68587
8.08934
15.5557
19.3573
17.9866
5.39782
6.54956
24.8011
11.737
14.0773
18.3478
7.83483
11.1498
13.8742
8.0788
17.4284
23.1243
21.6124
)
;
    }
    base
    {
        type            calculated;
        value           nonuniform List<scalar> 
14237
(
1135.95
1538.09
1573.68
412.533
853.578
1177.34
1379.65
1284.96
985.298
831.825
1396.41
361.092
421.145
514.274
584.935
791.068
1414.56
1325.08
1749.44
1805.97
1864.92
-7.19126
926.488
355.473
1370.25
999.254
1406.51
321.876
308.666
1341.22
583.194
650.005
1771.29
-51.8323
-346.893
1034.12
1729.16
455.7
1842.86
1044.77
1146.99
925.767
1185.1
476.865
2364.14
2002.82
1879.93
1410.52
1339.73
1165.49
1347.17
418.733
1427.91
1095.45
1546.1
1557.32
1010.59
351.324
524.658
-221.489
-475.664
-151.685
132.411
38.5205
613.319
-250.674
-584.691
490.316
555.203
-1103.91
-1895.02
-0.00197081
-0.00155891
-0.000911161
-0.00157063
-0.00065647
-0.000931833
-0.000533838
-0.000685653
-0.000353604
-0.000505859
-0.000227203
-0.000353911
-0.00018551
-0.000228534
-0.000118375
-0.000157401
-7.91597e-05
-0.00012199
-4.16604e-05
-7.59925e-05
1.04561e-05
-2.19917e-05
3.36637e-05
3.37161e-05
3.1852e-05
3.08034e-05
3.16721e-05
2.76223e-05
3.49179e-05
2.75702e-05
3.28085e-05
2.57465e-05
2.81329e-05
1.73557e-05
4.54659e-05
2.02675e-05
7.48534e-05
4.04693e-05
8.49763e-05
5.44526e-05
0.000184076
0.000111133
0.000440176
0.00016881
0.000623611
0.000408484
0.00115239
0.000680746
0.00203179
0.001384
0.00310896
0.00232725
0.00433743
0.00368568
0.00551188
0.00448908
0.0069502
0.0058375
0.00850179
0.00631187
0.0201051
0.0189709
0.391297
0.365803
110.789
89.8028
115.199
104.922
34.6953
13.4586
5.21745
2.05801
0.48597
-0.000417056
-0.00060957
-0.000704853
-0.000814713
0.00171258
0.0133089
0.0318974
0.0671497
0.322184
3.08405
17.786
68.5225
-0.000835192
-0.00134173
-0.00121294
-0.00253567
-0.0022356
-0.00352443
-0.00337738
-0.00430461
-0.00438723
-0.00466432
-0.00554373
-0.0057782
-0.00654807
-0.0069842
-0.00743305
-0.0101278
-0.00975992
-0.0169835
-0.0142627
-0.0246693
-0.0233282
-0.0330137
-0.0320144
-0.0560403
-0.0723479
-0.0535848
-0.074316
-0.0808889
0.0180837
-0.0649775
0.508509
0.12176
1.93005
0.864103
4.99072
2.84261
11.3493
7.90598
16.149
13.7258
19.9564
18.8493
20.0915
21.0207
15.2879
17.47
9.82795
12.161
5.99718
8.0499
2.54949
4.25689
1.05133
1.40835
0.342082
0.593817
0.162391
0.238694
0.115378
0.13525
0.0987963
0.107557
0.0886302
0.0973328
0.0786409
0.0876744
0.0700583
0.078391
0.139713
0.100956
0.423383
0.327829
1.88789
0.07766
0.285311
0.807172
3.77705
8.45258
14.9844
13.8497
15.0283
20.3185
66.5463
143.672
175.79
121.097
203.265
180.49
55.6146
23.0796
20.6057
14.4713
8.8628
0.0782858
-0.00295102
-0.00543389
-0.0115762
-0.0361383
-0.0778455
-0.0847946
-0.0510219
-0.0193158
-0.00448141
-0.00108683
-0.00681821
0.00388409
0.0368705
3.15639e-05
0.561448
108.009
102.795
91.4023
126.326
58.2173
20.5937
6.48855
3.93529
1.09116
-0.00068301
-0.000723464
-0.00080427
-0.000969207
-0.000863158
-0.000483405
0.00483141
0.0232572
0.0478721
0.110093
0.632232
8.09783
30.3158
1.89414
3.8145
6.87553
0.287713
0.0551813
0.397452
0.40095
2.04057
6.92572
12.5115
13.2317
13.9592
14.722
34.0284
104.529
179.841
148.932
155.17
213.511
101.243
28.8713
19.9418
21.102
11.7774
4.22463
-0.00393869
-0.00759138
-0.0246899
-0.0586155
-0.0931909
-0.0718117
-0.0335826
-0.0101491
-0.00221176
-0.00383631
-0.013527
-0.00201536
93.6665
132.739
62.0654
20.6761
8.38024
4.31636
1.31965
0.324591
-0.000916377
-0.00109878
0.0023917
0.0131496
0.027476
0.0698656
0.848605
8.31376
31.9475
97.6845
-0.00100584
15.1095
13.922
14.9616
24.7714
80.8854
180.193
192.072
159.693
226.389
124.484
34.3901
20.7829
21.2858
12.3535
5.09331
-0.00536494
-0.0114619
-0.0367656
-0.0806312
-0.0829576
-0.0486873
-0.0176587
-0.00354888
-0.00349088
-0.0114628
13.3121
94.7749
100.907
106.536
42.8356
13.4242
5.42442
2.05106
0.484636
0.00715993
0.0197859
0.0512151
0.187685
2.58804
19.3266
65.0608
15.9822
43.3918
122.804
209.343
157.31
203.089
206.44
67.5402
24.5017
18.1311
15.8738
9.47655
2.17564
-0.00432102
-0.00774944
-0.0255002
-0.0609732
-0.091365
-0.0690547
-0.0308211
-0.00984324
-0.000439551
-0.00562319
108.284
0.000101927
-0.000980554
8.51173
0.814288
14.0319
2.0569
12.5969
-0.00306625
97.9708
0.312791
-0.000895992
-0.000741596
-0.000905209
-0.000541614
-0.000721444
-0.000380901
-0.000448041
-0.000258699
-0.000365799
-0.000136968
-0.000241575
-0.000104895
-0.000152763
-8.05403e-05
-0.000104983
-1.71998e-05
-4.1321e-05
-0.00134755
-0.00105474
-0.00121054
-7.07805e-07
2.72701e-06
-1.0925e-05
-1.03006e-05
-1.26383e-05
-3.70827e-05
-5.36488e-05
-5.05194e-05
-8.04339e-05
-1.36754e-05
-0.000125587
-3.11994e-05
-0.000118687
7.99809e-05
-7.3373e-05
0.000499672
0.000140309
0.000981658
0.000601488
0.00171239
0.00120046
0.00293906
0.00227182
0.00470449
0.00404815
0.0057447
0.00565764
0.00708823
0.0070331
0.0107549
0.0103962
0.0479759
0.0449564
0.430299
0.585195
0.407102
-0.00266592
108.622
111.479
135.437
80.1706
57.3638
49.937
44.3951
16.4177
4.86814
1.61851
1.73279
0.475565
0.148352
-0.001729
7.77454
-0.00224843
-0.00385171
-0.00134583
-0.0014328
-0.00206552
5.37863
-0.000865363
-0.00328536
-0.00573093
-0.00229113
-0.00261548
-0.00351858
0.00437748
0.0874485
0.287976
3.86007
10.3383
39.6913
77.9375
10.6363
-0.00328103
2.3375
-0.00186478
-0.00429214
-0.00349858
-0.00447877
-0.00580181
-0.00597798
-0.00671367
-0.00712146
-0.00820805
-0.00853228
-0.0103518
-0.0105174
-0.0112123
-0.0161428
-0.013636
-0.0250634
-0.0202489
-0.0322749
-0.0329531
-0.0550314
-0.0786709
-0.0530847
0.54102
-0.0627052
-0.0829022
0.139156
-0.0278855
0.802916
0.297044
2.65926
1.26389
7.95126
4.36913
13.1629
10.1299
18.9539
16.5659
21.1602
21.2471
18.4545
21.2179
12.2377
16.2186
8.10232
9.42911
4.29767
5.88087
1.42676
2.96537
0.614291
0.784665
0.258229
0.429806
0.14064
0.182541
0.126479
0.136147
0.110029
0.115425
0.107511
0.115894
0.091549
0.116191
0.126319
0.125504
0.425893
2.04655
0.347423
9.83846
0.181379
0.184148
9.05185
5.41964
5.45473
2.55204
2.57454
0.0588339
6.39696
6.52653
98.4452
13.3079
7.53411
1.262
0.452212
1.27491
43.7092
128.895
223.966
171.951
194.088
209.248
64.8583
18.711
16.8196
11.7413
3.65542
2.90653
2.05619
2.22934
2.24364e-05
-0.00738641
-0.0236877
-0.0567995
-0.0887255
-0.0700736
-0.0309103
-0.00887579
-0.000150485
-0.00405724
92.2742
94.5088
11.2455
6.91575
-0.00866828
-0.00212958
62.6816
68.1087
-0.0015373
-0.0015387
-0.00205399
-0.00116392
1.2252e-05
-0.00809081
0.0858133
-0.0118364
0.012037
1.53168e-05
1.56079e-05
82.4201
83.9315
32.2247
13.8201
11.4549
2.77825
0.307518
0.263437
0.274348
0.221463
0.170853
1.40125
0.0850187
0.133371
0.00274224
0.0195096
-0.00483592
1.02404
5.55587
18.9819
54.9908
76.3813
8.43935e-06
7.88197
-0.00267734
108.633
8.1468
22.9287
88.4182
194.667
211.858
174.842
233.248
129.342
35.0595
18.8622
17.5384
6.88004
14.8225
-0.00528586
10.584
-0.0052676
-0.010677
-0.0335897
-0.077079
-0.0804281
-0.0488371
-0.0165152
-0.00346811
-0.00154599
17.1538
14.1281
45.8865
89.7218
-0.00346488
-0.00326285
-0.0162911
-0.0445336
-0.0801526
-0.0764307
4.30612
9.96243
-0.00719443
-0.000642114
-0.00903713
-0.0300173
-0.0653902
-0.0887742
-0.0231211
6.10319
10.9377
15.0958
36.8039
155.671
206.198
161.382
-0.0015681
-0.00307263
71.3666
54.8839
13.5699
-0.00231292
1.17727
-5.05429e-06
0.424478
5.02117
3.03382
226.132
44.5981
67.4568
0.0286006
-0.00257017
0.00348525
1.71115
23.563
196.923
192.951
216.182
105.909
29.2773
55.8771
166.975
229.581
-0.00695044
-0.0395401
-0.0107513
-0.059929
0.000566554
-0.000930247
-0.000498256
-0.00078296
-0.000407945
-0.000558979
-0.000295323
-0.000374722
-0.000201623
-0.000280232
-0.000159245
-0.000215463
-4.97261e-05
9.84792e-07
-0.000153183
1.55896
4.74115
0.67537
1.53765
-6.91148e-05
-9.88208e-05
-0.000136262
-0.000117588
-0.000108993
-0.000195302
-0.000274147
-0.000298292
-0.000356367
-0.000132447
-0.000399937
0.000171877
2.77613e-05
0.000708407
0.000328599
0.00188051
0.00180771
0.00307451
0.00310616
0.00433892
0.00467347
0.00898763
0.00927886
0.0140314
0.0125953
0.0264365
0.0268066
0.0879272
0.0876565
86.2864
75.8091
49.0088
40.5967
196.318
-0.00411471
1.35463
-1.91082e-05
0.99059
0.021017
-0.0113661
0.0295184
0.0213591
2.09207
1.22954
-0.0126122
-0.0147258
-0.0172613
-0.0228188
35.3405
184.956
22.6892
34.7063
0.647683
0.725154
0.376666
55.4949
-3.75708e-05
-0.000110159
-7.44852e-05
-0.00647656
-0.00782464
-0.00816522
-0.0106877
-0.00984064
-0.0109584
-0.0107553
-0.0123308
-0.0122645
-0.0175591
-0.0163319
-0.0269418
-0.0267146
-0.0417113
-0.0419979
-0.0694811
-0.0777674
-0.0604754
165.232
-0.0371726
-0.0728026
0.298739
0.0851327
1.27777
0.64528
4.39787
2.99186
10.1829
7.0443
16.6547
13.5091
21.7872
19.9399
21.3438
23.1377
16.3139
19.2289
10.1314
12.7987
5.91298
8.34378
2.98378
3.63862
0.790652
2.08681
0.434254
0.592455
0.185618
0.251501
0.139252
0.165265
0.119607
0.132844
0.122591
0.124305
0.125287
0.125999
0.640407
0.0812845
0.15358
0.537295
4.67019
4.10143
226.97
28.4243
34.3112
101.096
128.231
215.079
206.786
190.023
171.153
29.4621
194.794
176.521
173.042
63.9546
29.36
7.93105
-0.0069326
6.07033
9.46276
10.5866
6.23357
4.42907
-0.0284315
3.69485
3.8316
3.10315
-0.0071099
-0.0136395
-0.00752021
-0.0136984
-0.0684288
-0.0801108
-0.0448714
-0.0138865
-0.00212452
-0.00172771
8.68006
6.42311
5.94487
-0.00192526
0.0113501
5.15529
4.23465
23.266
42.7535
68.4197
67.643
32.2255
0.0450383
44.3104
39.3325
46.2516
-0.0160563
47.0174
46.2335
28.5966
-0.00511537
-0.00281765
-0.00284734
-0.00177436
-0.00113622
-0.00173548
45.1703
30.6896
4.05241
-0.0405301
-0.0265995
-0.0047918
-0.00291333
44.1327
0.376887
0.365882
10.6881
8.39106
-0.000994003
0.655414
0.932327
0.144266
0.871443
1.75235
76.246
3.47296
3.34335
-0.00334459
-0.00685897
-0.00270118
-0.00323409
-0.014428
-0.0189114
-0.00898305
-0.00749598
-0.0166988
7.42367
3.36099
14.059
0.00214073
53.2697
6.51395
173.848
-0.000664401
0.164157
0.0652632
0.178734
0.11365
4.86516
0.036031
0.0421645
4.13674
2.39936
-0.00522426
10.512
-0.00538838
-0.00550152
-0.00648058
-0.00908256
0.449689
0.454338
-0.0041901
-0.00233167
187.235
10.195
-0.00131975
132.65
-0.0108698
11.4717
-0.00416366
1.74608
2.69843
0.963038
-0.0468644
-0.00612012
-0.000531937
-0.0833963
-0.0659096
-0.0241794
-0.00633482
-0.0112519
25.5709
77.4181
0.0362242
0.299959
-0.013696
-0.00278289
1.76919
52.4853
51.1157
8.52938
-0.06468
214.212
240.781
141.581
12.235
-0.0290567
-0.0472211
-0.0610606
-0.0799932
-0.0731344
-0.00557591
-0.00344826
-0.00447263
-0.00424151
-0.000618838
-0.000432391
-0.000572449
-0.000330718
-0.000425919
-0.000227662
-0.000252048
-0.000150618
43.1632
1.21298
1.91539
-0.0102666
-0.000261354
-0.000386948
-0.000454969
-0.000529721
-0.000493166
-0.000395946
-0.000569796
0.000222144
-0.000311939
0.00119643
0.000594842
0.00251669
0.00180294
0.00536642
0.00416835
0.00787236
0.00699415
0.0145992
0.0119713
0.0193315
0.0192068
0.0455041
0.044987
0.128019
0.127906
58.3862
62.3939
28.6009
19.6243
113.147
39.6119
36.6909
4.61788
2.48232
-0.0588184
3.84109
-0.00386197
2.66761
-0.0332738
18.7552
-0.0324918
-0.0347668
114.984
0.00321723
2.70041
2.71735
1.56757
2.23149
6.67565
0.160383
-0.0100068
29.0243
24.9652
2.84331
-0.0115786
-0.0112162
-0.0114023
-0.0119017
-0.0114721
-0.0125573
-0.0190839
-0.0156025
-0.0321207
-0.0235042
-0.0486113
-0.0455455
-0.0746625
-0.0651556
-0.0678755
-0.0243182
0.0669496
0.0866175
-0.00651062
0.658478
0.350384
3.01275
2.08307
7.06654
4.45445
13.52
8.98357
20.0598
16.9333
23.2861
22.722
20.4949
23.4681
14.2554
18.2628
9.67451
10.6733
4.35763
7.29457
2.10721
2.76221
0.508214
1.15297
0.257347
0.331993
0.175305
0.19179
0.144749
0.160654
0.135122
0.14261
0.255777
10.2515
-0.00060875
-0.0336759
144.928
107.499
0.0506956
0.221487
0.326962
0.149109
-0.00106443
1.76733
0.945128
93.8954
171.791
125.391
6.49603
0.94319
0.560774
0.381362
-0.0190473
34.2053
-0.0512307
-0.00446978
160.33
133.965
1.46606
1.38824
3.98925
-0.0368969
-0.0196641
-0.0381717
16.0208
9.36819
23.4356
-0.000769598
-0.000660661
-0.00107651
-0.0708775
-0.0640282
-0.069606
-0.0702082
-0.0269868
-0.0224735
-0.00621538
0.0039412
16.3203
7.83949
1.16438
1.16789
56.4648
28.5977
-0.04048
-0.0393001
39.6883
-0.00103387
-0.00357163
-0.00176687
2.15563
0.0103907
-0.0498139
0.0856428
-0.000217952
35.688
31.0864
-0.0102572
-0.0108416
-0.0084025
0.296779
0.294905
59.4463
14.7307
105.59
119.9
2.10454
1.88793
0.978647
0.00313097
101.588
-0.0119474
-0.0283769
-0.0351309
0.326755
-0.023453
0.00256467
66.2642
0.0790427
-0.0387369
0.101873
0.0679268
2.02399
0.629399
-0.00262443
0.782805
-0.000290707
-0.00180889
23.8037
0.110867
0.2583
0.531052
0.567545
6.02596
-0.00843631
-0.0137265
-0.00231829
53.9086
44.5427
1.23813
0.926748
-0.0232356
-0.00786026
-0.0069388
-0.0105748
6.77906
0.0482288
0.0492094
-0.0583617
-0.00224147
0.266321
2.71172
-0.000291347
57.8083
121.691
-0.000376957
3.64125
14.2434
4.74954
-0.00411011
-0.000329842
-0.00723838
-0.00697671
0.792238
0.542127
0.474836
-0.00493788
-0.00318628
-0.0126042
1.49968
1.00112
40.356
22.6064
-0.00417535
49.0961
62.1337
35.3612
-0.00977726
-0.00414463
0.859364
62.7587
-0.0622066
-0.000451093
-0.000421388
-0.000368684
-0.000396051
-0.0447268
-0.0553657
76.2717
106.897
-0.000432314
9.24369e-05
-0.000280703
0.000390669
0.000385439
0.00187195
0.00118104
0.00264231
0.00253574
0.00530294
0.00496339
0.00932315
0.00924668
0.0146087
0.0126419
0.0230376
0.0228992
0.0516381
0.0511801
0.125945
0.124886
101.406
1.73715
40.1991
-0.00175907
0.152612
0.135404
21.1681
41.9094
-0.00406566
123.625
-0.016032
-0.0180423
-0.027578
6.82173
148.672
0.251686
0.24999
0.221821
0.597716
1.07939
-0.0126032
-0.0122404
-0.00993883
-0.0132836
-0.0124014
-0.0164299
-0.0133767
-0.0326143
-0.0251465
-0.0496253
-0.0497455
-0.0608645
-0.0465646
-0.0629129
18.8975
-0.0258134
73.4441
0.223282
0.0157565
1.40498
0.29383
4.61324
2.25687
8.71047
6.12634
16.3211
13.6117
22.2184
21.1141
24.8108
24.7558
20.2474
22.6928
11.3742
17.1351
7.3368
8.77165
2.77665
4.85692
1.16348
2.06413
0.437876
0.641147
0.219306
0.338772
0.163566
0.182406
0.15131
0.161013
-0.00603073
-0.0264318
-0.0484781
-0.0302437
-0.00932893
-0.0110829
-0.0093695
0.43782
26.2342
40.2625
1.02753
1.07654
0.0055727
0.00132727
0.0140419
-0.000521358
-0.000416046
29.294
-0.000413302
-0.00044203
-0.000628334
0.611373
75.1058
1.60645
-0.000678553
-0.00124185
22.415
26.68
-0.0032524
-0.00208831
-0.00237075
-0.0516474
-0.0445725
5.00318
-0.0239896
-0.0172038
3.94774
1.1718
0.199845
0.13162
0.613385
-0.00181441
-0.00123997
-0.00190869
0.298153
14.4317
-0.0408082
-0.040292
0.0402011
73.8327
34.3485
41.134
90.8832
69.2072
3.40099
1.52776
0.251078
-0.0436961
-0.0593353
17.804
20.6727
-0.00774658
110.869
6.45114
0.253974
0.202267
0.199074
66.5081
110.423
33.7008
-0.0407887
-0.0441306
0.167107
1.18533
15.8649
3.17242
0.00348865
25.0036
15.3993
24.0476
-0.0155972
-0.0220834
-0.0348605
1.62431
2.45003
2.14559
1.0775
0.526284
0.965974
-0.000861017
-0.00126439
-0.056958
-0.0554973
0.825987
77.5033
-0.00790435
-0.0172357
0.235558
-0.00652623
-0.00332668
-0.00392891
-0.00194328
-0.0621004
139.151
0.00939675
0.0143308
0.0221247
1.59905
0.664872
0.53129
1.70303
3.35638
58.8105
0.302553
0.318893
0.262262
5.6381
5.31315
11.0001
-0.0245694
-0.0159554
-0.0211378
-0.00321471
-0.00432568
-0.000495702
0.635838
0.454098
0.0461488
0.0638156
-0.0138703
-0.0158062
-0.000809877
0.424035
-0.000762975
-0.000535135
5.45732
0.103625
-0.00757537
0.000114426
0.00196362
0.000615694
0.00349443
0.00227425
0.0051064
0.0041309
0.00975331
0.00609152
0.012066
0.011698
0.0269287
0.0164854
0.0530138
0.0524807
0.107174
0.106185
0.382374
-0.00429024
-0.000526778
-0.00875111
11.7256
-0.0182712
0.116235
0.116301
0.594235
-0.0572975
0.477717
-0.00717732
-0.00863944
-0.0177887
-0.0163601
-0.0354434
-0.0315421
-0.0468174
-0.0429061
-0.0470654
-0.0284161
-0.0466746
0.243742
0.0230582
1.93756
0.538809
5.29751
3.3691
10.9777
8.82443
20.0809
13.9632
24.907
23.2983
22.6702
26.0611
17.2355
21.1122
9.56641
16.4345
4.89043
6.68084
2.07633
3.92221
0.647247
1.52495
0.281705
0.413477
0.185209
0.241542
-0.0107382
0.00109898
-0.00330084
1.36786
7.30328e-06
0.000126933
-0.0165119
-0.0157407
-0.00203365
-0.0106036
-0.0171024
-0.00359598
-0.00343989
20.6304
-0.0402947
0.111735
0.541673
-0.0229066
-0.0268875
-0.0388563
-0.0427983
-0.0348556
0.0266546
20.2941
21.5604
12.7035
-0.0578883
-0.0458814
1.49542
15.85
21.9145
-0.00962777
0.466641
0.142447
0.141616
-0.000492197
0.353279
0.287478
-0.00307702
-0.0281047
-0.040586
-0.00065933
-0.000797337
0.160919
-0.0129433
20.464
-0.012058
-0.0314793
-0.003662
-0.0208787
0.174587
0.200931
0.173038
-0.000540826
-0.000400342
-0.00306206
-0.00493739
-0.00116373
0.183092
-0.0578868
-0.0525572
1.38653
6.47295
-0.0455217
-0.00373447
-0.0250732
0.00145287
0.00378759
-0.000218324
-0.000275387
-0.0136625
-0.0130066
-0.000608177
-0.000597173
-0.0170503
-0.000331528
-0.000273457
-0.000340439
-0.0184653
-0.039381
-0.00528849
0.486893
0.694944
0.263308
3.0401
3.24859
-0.00142056
-0.00176015
0.252951
0.277867
-0.0344913
-0.00198874
0.00168093
0.00305338
0.00228923
0.00612847
0.00317737
0.0091978
0.00901115
0.014218
0.0106426
0.055169
0.034418
0.0913377
0.0847787
0.19595
-0.00144742
-0.00112891
-0.000853807
-0.036107
-0.0376082
-0.00199635
10.6641
9.22879
12.9756
0.281735
-0.00196488
-0.00800185
-0.0138097
-0.00758146
-0.0227554
-0.0140024
-0.0352828
-0.0233384
0.0267155
0.0363058
0.611982
3.389
0.711761
8.87734
4.14216
14.0456
11.1581
19.9219
17.5515
26.9812
22.7909
22.2944
24.5965
16.5588
21.5225
6.78491
11.2849
3.94811
5.72294
1.53513
2.11478
0.419849
0.962523
0.250523
0.2234
0.325396
-0.000622219
-0.00921392
-0.00546263
-0.0114362
-0.0086501
-0.00502468
-0.00735551
-0.0208424
-6.86863e-05
-0.000687362
0.0813679
0.0699012
-0.0196164
0.0480478
-0.0168858
-0.0142057
-0.00438514
0.00268367
0.00986438
6.74478
-0.0504527
-0.0212511
-0.0194508
-0.0357882
1.38033
2.85824
0.607421
-0.00105615
-0.00115552
-0.0434357
-0.0366286
0.213869
-0.0255367
-0.000931732
0.112252
-0.0190594
0.00159195
0.0112845
-0.0368975
0.557501
0.44368
-0.000299274
0.000700292
-0.000595575
0.214126
0.00156541
-0.0125525
-0.00696485
22.6862
-0.00102034
-0.000817458
-0.000630565
-0.000529754
-0.000655937
-0.0317959
-0.00848163
-0.0181671
-0.0318194
-0.00542024
1.24493
-0.0306553
-0.000919049
-0.000739956
3.87249
4.21019
0.245882
0.247812
6.68019
12.4814
-0.00493711
-0.0145745
-0.00773851
-0.0284656
-0.0325575
0.243798
22.7256
22.4713
0.281419
0.43066
0.303778
0.104621
-0.000568516
-0.0160004
0.00278238
0.00144602
2.82726
1.39901
0.0250585
0.0250451
-0.0107779
0.0242355
-0.0181637
-0.0132735
-0.0285959
0.0007959
0.681096
4.11254
1.14213
9.05386
4.12009
17.6187
9.97491
22.7545
18.624
24.7242
24.2238
21.6727
24.184
11.447
20.3695
7.18986
9.26873
2.52555
4.22243
0.993377
1.68569
12.3773
0.0446967
0.00145637
-0.00809383
-0.00106018
-0.0309208
-0.0132724
-0.0104975
-0.0277113
0.0575354
0.197371
0.834783
5.67938
-0.0322703
-0.00900489
0.22326
-0.000233442
-0.0332128
-0.0338084
-0.000489895
11.5261
-0.0140506
-0.00077325
0.231655
5.6106
1.60661
0.00251316
0.355897
0.329688
0.456049
0.604759
0.384112
0.381723
0.810171
13.3775
22.5866
9.1038
9.21918
-0.000442548
-0.0173993
0.0117041
21.2974
11.5334
0.415996
0.475577
5.79722
6.09104
0.27379
0.111103
1.14903
4.84094
0.0571948
0.899597
0.787216
1.69905
2.78736
10.2523
2.94276
17.499
10.3749
24.387
18.696
24.4408
25.0829
21.2136
23.0749
11.3931
19.2735
4.25415
7.17737
1.60033
0.673022
1.18922
0.555773
0.896945
13.1509
1.76211
0.00832547
0.789585
1.15532
0.115203
3.28621
-0.00907376
-0.0398268
12.2815
0.00707225
23.7938
22.9631
6.69837
8.02982
13.2624
13.7484
-0.00742367
-0.0106751
17.8777
17.0028
24.433
5.57725
-0.00558117
2.67206
16.3628
21.9324
19.3865
7.46055
3.09601
2.11181
7.4531
1.36734
1.36184
2.92905
3.72243
16.6191
8.78076
17.1428
14.9333
15.0274
0.11436
6.41447
-0.00939859
0.0444147
22.1675
23.4193
1.03474
23.6036
16.8082
0.328051
21.6433
21.6705
23.8662
0.794407
21.7115
24.8822
-0.00336457
-0.00221707
-0.000893223
-0.000426361
-0.000131595
-4.90768e-05
2.06991e-05
2.86084e-05
6.48475e-06
1.19973e-05
1.99675e-05
7.46379e-06
2.18143e-05
1.50086e-05
2.81114e-05
2.69559e-05
2.99275e-05
2.9711e-05
3.18662e-05
3.31581e-05
3.55494e-05
3.5424e-05
3.79587e-05
3.90722e-05
4.0393e-05
4.06899e-05
4.13042e-05
4.11829e-05
4.12805e-05
4.00084e-05
4.0074e-05
4.02654e-05
3.89715e-05
4.03063e-05
3.86849e-05
3.83104e-05
3.65994e-05
3.65016e-05
3.41808e-05
3.56614e-05
3.12201e-05
3.30458e-05
2.9261e-05
3.08517e-05
2.8569e-05
2.73753e-05
3.43266e-06
-0.00481777
-0.0037224
-0.00311123
-0.00314702
-0.00185325
-0.00231357
-0.00119325
-0.00143117
-0.000933603
-0.00110349
-0.000622265
-0.000699065
-0.000526667
-0.00059314
-0.000518043
-0.000502439
-0.000389656
-0.000363583
-0.000193572
-0.00035869
-3.00843e-05
-6.17205e-06
-7.71745e-05
-0.00479613
-0.00453044
-0.00383836
-0.00215091
-0.00155363
-0.00196863
-0.002644
-0.00281571
-0.00221298
-0.00156853
-0.00125936
-0.000691374
-0.000471946
-0.00063324
-0.000252174
-0.000391439
-0.000255544
-0.000253155
-0.000150598
-0.000141328
-4.40202e-05
-7.11798e-05
5.70849e-06
-7.68854e-06
7.6619e-05
2.19302e-05
-0.00171822
-0.000885867
-0.000117395
-5.28139e-05
6.89847e-05
4.66237e-05
2.97161e-05
2.63674e-05
-0.00215999
-0.00144298
-0.00127345
-0.00058262
-0.000181336
-7.102e-05
-1.89996e-05
-0.000715453
-0.00459251
-0.0042892
-0.00433878
2.89638e-05
-0.0047361
-0.00406818
-0.0041607
-0.00268762
-0.00218414
-0.00176338
-0.00241779
-0.00283415
-0.00194604
-0.00137929
-0.00246835
-0.000980859
3.27075e-05
-0.00143442
-0.00141572
-0.00101093
-0.000459313
-3.94741e-05
1.77223e-05
2.85391e-06
4.13351e-05
2.73741e-05
8.2482e-05
-0.00250482
-0.00025288
-7.67758e-05
-2.7409e-05
-0.0020224
-0.00150663
-0.00188264
-0.0023088
-0.00268441
-0.00263724
-0.00177515
-0.00133783
-0.00115172
-0.000498628
-0.000146934
-4.66346e-05
2.26577e-05
3.22879e-05
4.18041e-05
-5.83197e-05
1.05124e-05
-0.00283718
-0.0023702
-0.00158416
-0.0011553
-2.00927e-05
2.34328e-05
2.34716e-05
4.57324e-05
-0.000156362
-0.000544997
-0.00221861
-0.00413459
-0.00191388
-0.00199194
-0.00223435
-0.00400243
-0.00314942
-0.00121288
-8.34751e-05
-0.000218952
-0.00128003
-0.00226176
-7.56016e-05
-0.000432326
-2.24312e-05
-0.00182192
-0.00253664
-0.000621637
-0.000504694
-2.81895e-06
-1.0737e-05
9.53057e-06
4.15585e-06
1.5219e-05
2.05047e-05
3.07528e-05
3.31228e-05
3.73257e-05
3.83604e-05
4.12846e-05
4.51807e-05
4.46334e-05
4.48291e-05
4.15158e-05
3.96982e-05
3.85231e-05
3.71963e-05
3.7667e-05
3.27604e-05
3.48242e-05
2.84966e-05
2.98073e-05
-0.00341928
-0.0015075
-0.00196494
-0.00267342
-0.00132374
-0.001883
-0.000864426
-0.00110763
-0.000681257
-0.000837681
-0.000595915
-0.00057991
-0.000513427
-0.000548059
-0.00029356
-0.000314909
-0.000170628
-0.000188861
-0.00149035
2.69638e-05
2.09136e-05
-0.00285152
-0.00372597
-0.00151623
-0.00224754
-0.00189749
-0.00180625
-0.0019794
-0.00165034
-0.00226301
-0.00209514
-0.00395156
-0.0022567
-0.00247772
-0.00141011
-0.00201941
-0.00161607
-0.00124582
-0.00132138
-2.76541e-05
-0.00228435
-0.00016293
-8.89288e-05
-0.00182308
-0.000327197
-0.000240893
-0.000276781
-0.000195795
-0.0002552
-7.85776e-05
-0.000191534
-3.04094e-05
-4.28636e-05
-1.59003e-05
-1.34029e-05
-5.56014e-05
-0.000289129
3.74265e-05
3.4954e-05
3.85068e-05
4.24894e-05
4.42098e-05
4.44304e-05
-3.84178e-05
-2.6795e-05
-0.0047378
-0.00362864
-0.00306448
-0.00174232
-0.000144356
-0.000106413
-0.000591375
-0.000518744
-0.000748857
-0.000763952
-0.00108533
-0.00284487
-0.00181171
3.11939e-05
-0.000163186
-0.000259434
-0.000173431
2.43875e-05
-0.00377223
2.53657e-05
-0.00429602
1.74456e-05
-0.00175152
-0.0011991
2.24442e-05
2.75067e-05
-5.48823e-05
2.55131e-05
-0.00209827
1.26676e-05
-3.75337e-05
-1.23778e-05
-0.000137201
-0.00329671
-0.000283027
-0.000235255
-0.000165481
-3.35189e-05
-0.000976513
-0.000732598
-0.00130357
-0.00128146
-0.00150269
7.00277e-06
-0.000486794
1.64282e-05
-2.61097e-05
-6.6016e-06
-4.75409e-06
-2.53946e-06
-0.00208821
3.49181e-05
1.67325e-05
7.19246e-06
1.88771e-05
-0.00145729
-0.000920407
-0.000558691
-0.000394486
-0.000263875
-0.000177656
-0.000140078
-0.000244608
-0.000545558
-0.00156671
-0.00158001
-0.000140111
-0.00132277
8.37131e-06
-0.000469016
-0.00209997
-0.00133088
-0.000202011
-0.000199469
-0.000279692
-0.000276072
-0.000184716
-0.000255201
-7.76389e-05
-7.89875e-05
-2.01362e-05
-7.64305e-05
-4.73691e-06
-0.000821159
-0.00103158
-0.000111174
-8.4837e-05
-5.47616e-05
-0.000340752
-0.000372985
2.55573e-05
2.46191e-05
-0.000881503
-9.28875e-05
-5.3073e-05
1.54713e-05
-8.92484e-05
-0.00128212
-0.00045763
-0.000632348
-0.00114429
-0.000657376
-0.00124694
-2.98996e-05
-2.08634e-06
-1.87845e-06
7.63215e-06
-0.000218544
-2.48448e-06
-8.87338e-05
-6.92841e-05
-0.000439414
-0.000297002
-0.00032129
-0.000266005
-9.46043e-05
-6.08346e-05
-0.000100153
-0.00028717
-0.000709462
-0.000599407
-0.00123978
-0.000396272
-8.57675e-05
-0.000120071
-0.00078123
1.17764e-05
-5.12747e-06
-0.00118427
-0.000837648
-0.00779069
-0.0113532
-0.0177752
-0.0277515
-0.0615851
-0.145978
-0.166637
-0.110284
-0.0513039
-0.0155101
-0.00797363
-0.0381996
-0.0916811
0.0332882
-0.111072