/*--------------------------------*- C++ -*----------------------------------*\
| =========                 |                                                 |
| \\      /  F ield         | OpenFOAM: The Open Source CFD Toolbox           |
|  \\    /   O peration     | Version:  v2012                                 |
|   \\  /    A nd           | Website:  www.openfoam.com                      |
|    \\/     M anipulation  |                                                 |
\*---------------------------------------------------------------------------*/
FoamFile
{
    version     2.0;
    format      ascii;
    class       volScalarField;
    location    "3";
    object      T;
}
// * * * * * * * * * * * * * * * * * * * * * * * * * * * * * * * * * * * * * //

dimensions      [0 0 0 1 0 0 0];


internalField   nonuniform List<scalar> 
108993
(
300
300.003
300
300
300
300
300.001
300
300
300.007
300
300
300
300
300
300
300.014
300
300
300.001
300
300
300.001
300
300
300
300
300
300.003
300
300
300
300
300
300
300
300
300
466.277
635.478
300
300
300
300
300.05
300.631
300
300
300
300.001
300
300.291
300
300
300
300
300
300
300
300
300
300
300
300
300
300
300
300
300
300.05
300
300
300
300
300
300
300
300.002
300
300
300
300
300
300
300
300
300
300
300
300
300
300
300
300
300
300
300
300
300
300
300
300
300
300
300
300
300
300
300
333.572
300.073
300
300.118
300.405
300
300.281
300
300
300.035
300
300
300
300.021
300
300
300.005
300
300
300
300
300
300
300
300.608
300
300
300
300
300
300
300
300
300.008
300
300
300
300
300.471
300
300.576
300.621
300
300
300.804
300
300.05
300
300
300
300.03
300.729
300
300
300
300
300.401
300
300
300
300
300
300
300.044
300
300.001
300
300.067
300
300
300
300.005
300
300
300
300
300
300
300
300
300
300
300
300
300.04
300
300
300
300
300
300
300
300.054
300
300
300.013
300.154
300
300.481
300
294.458
300.093
300
300.062
300.063
293.571
300
300
300
300
300
300
300.456
300
300.016
300
300
300
300
300.777
300
308.807
300
300
300
300
300
300
300
300.062
300
300
300
300
300
300
300
300.058
300.03
300
300
300
300
300
300
300
300
300
300
300
300
300
300
300.055
300.014
300
300
300
300
300
300
300
300
300.017
311.714
300.424
300
300
300.018
300
300
300
300.856
303.874
300
300
300.004
300
300
300
300.53
300
300
300
300
300
300
300
300
300.012
300
300.054
300.29
300
300
300
300
300
300
300
300.014
300
300
300.015
300
300
300.2
300
300.025
301
300
300.002
300
300
300
300
299.549
301.717
300.141
300
300
300
300.086
300.81
300
300.821
300
300
300
300
300
300
300.079
300.004
300
300
300
300
300
300
300
300
300
300.293
300.031
300
300
300
300.393
300
300
300
300.003
300
300
300
300.004
300
300
300
436.826
300
300.003
300
300.905
300.004
300.396
300
300
300.203
300
300.199
300.209
300.003
300.002
300
300.002
300.002
586.297
300
300.364
300.244
300.003
300.274
300
300.029
300.002
288.839
300
300.034
300
300.002
300.017
300.04
300
300
300.003
300.002
300
300
321.678
300
300
825.005
300
300
300
300.456
300.024
300.057
300
342.587
300.004
300.643
300
300
300.945
300
300.138
300.979
300
282.528
423.43
302.965
300
300
300.008
300
300
300
300
300
300
300
300
300.093
300.008
300.008
300.036
300
300
300
300
300
300
300
300
300
300
300
300
300.009
300
300.011
300.406
300.023
300
300
300.012
300
300
300.013
300
300
300.001
300
300.018
300
300.066
300.117
300.08
300
300
300
300
300
300
300
300
300.015
300
300
300
300.041
300
300.122
300
300
300
300
300
300
300
300
300
300.056
300.25
300
300
602.776
300
300.005
300.003
300
300.003
300
300
300
300
300.001
300
300.001
300.001
300.004
300.001
300
300.05
300.003
300
300.05
300.001
300.003
300
300.05
300
300
300
300.154
300
300.007
300.017
300
300.155
300
300
300
300
300
300.04
300
300
300.047
300.003
300.588
300
300
300
300
300.002
281.355
300.001
300
300
300
300.001
300.037
300.219
300
300
300
300
300
300
1080.03
300.041
300.129
300
300
300.039
301.051
300.007
300
300
300
300
300
300.127
300.184
300.051
300
300
300
300
300.001
300
313.611
300
300
300
300
300.009
300
300
298.174
300.029
300
300
300.261
300
300.016
300
300.97
300
300.019
300
300.001
300
300.001
300
300.254
300
300.646
300
300
300.532
300.004
300
300
300.036
374.22
300.002
300.2
300
300.058
300.464
300.001
300
300
545.284
300.122
300.12
300.001
300.15
300
300.002
300
300.001
300
300.037
300.024
300.003
300.003
300.13
300.124
300.236
300.034
300.001
300.075
300.262
300.021
300.278
300.237
300
300.007
300
300
300
300.019
300.004
300.075
300.09
300.019
300.002
300.41
300.24
300.252
300
300.003
300.019
300
300.557
300.004
300.102
300.041
300.002
300.595
300.01
346.781
300.016
300.014
300.601
300
300
300.03
300.004
300
314.084
300.005
300.618
300.007
320.408
300.108
300
300
300
300.037
300
300.033
300
300
300
300.001
300.129
353.363
300
349.69
300
300.073
300.041
300
300.08
300.001
300
300.15
300
300
300.002
300.019
300.083
300.07
300
300.053
300
300
300.001
300
300
300.031
300
300
300.001
300
300.001
478.648
300.761
300.001
300.006
300.001
300.006
300.002
300.023
300
300
300
300
300
300.005
300
300
300.032
300
300
300
300
300
300.001
300
300
300.033
300
300
300
300.402
300
300.056
300.093
300
300
325.294
300.11
300.002
300
300.018
300
300
300.002
300
300.006
300
300
300.002
300
301.597
300
300
578.141
300.009
343.788
300.013
300.42
300
300.005
300.012
300
300
300.005
300
300
300
300
300
300
300
300
300.002
300
300.503
300
300
301.164
300
309.441
300.005
300
300.008
687.971
300.005
300
300.002
300.126
300.002
300.009
300.219
300.003
300
300.035
300
300
300.007
570.999
300
300
300
300.002
300
300
300.007
300
300
336.931
300
353.388
300
334.336
300
300.004
300.009
300.043
300.16
300
300.01
300.01
300.09
300.001
670.69
300
300
300
300.118
300.014
300.053
300
300
300.027
393.68
300
300.028
300.063
300.015
300
300.113
300.387
595.444
300.007
300.265
300.001
300.695
300
300.628
313.812
405.134
300
300
300.002
300.033
300.087
300
300
300.105
300.1
300
300.267
300.008
300
300.704
300
300
301.077
344.901
300
300.001
300
300
300.063
300.416
300.738
300
300.761
300.006
300.06
300.002
300
300.026
300.005
300.002
300
300.005
300
300.491
300
300
300.044
300
300.033
300.098
300.028
300.06
300
300.189
300
351.872
300
300
300
300.11
300.397
300
300.007
300.697
300.146
300.109
300
300.051
300.083
300.235
300
300.007
300.861
300.059
300.007
300.052
300
300.162
300.626
300.275
300.029
300.069
300.025
300.026
300.001
300
300.067
300.268
300.007
300
300.001
300.102
300
300
300
300.091
300
300
300
300.001
300
300
300.001
300.536
300
300
300.009
300
499.889
300
300
300.002
300
300.002
634.258
300.005
300
300
300
300.216
300.004
300.276
300.001
300
300.041
300
300.013
300.133
300.03
300
300
300
300
300
300.001
300
300
300
300
300.126
300
300.001
300
300
300.003
300.089
300.011
300.009
300
300
300
300.072
300
300
300
635.707
300
300.009
300
300.005
300
300
300.33
300.14
300.013
300.005
605.056
300.045
300.091
300.003
300.255
300
300
300
300.057
300.009
337.352
300.035
300.001
300.001
300
300.03
300
300.011
300.141
300.004
300.003
300.168
300.088
300.018
300
300
300
300
300
300
300
302.517
300.001
617.919
300
300
300
300.015
300.631
300
300
300
300.022
300
300.023
301.147
300.024
300
300.048
300
300
300
300
300
300
1117.88
300.035
300
300
300
300.001
300.001
300
300
300
300
300
300
300
300
300
300
300
300
300
300
300.066
300.346
300.23
300.778
300
300
300
300
300.001
300
300
300
300
300.41
300.001
300.002
300
300
300
300
297.979
302.307
300
300
300
300.001
300
300
300.128
300
300
300
300
300
300.009
300.001
300.002
300.126
300.002
300
300.001
300.236
300.002
300.001
300
300
300.533
300
300.017
300.004
300.004
300.002
308.624
300.025
300
300.06
300
300.115
300.046
300.002
300
300
300
300
300
300
300.236
479.253
300.01
300
300
300.011
300
300
300
300
300
302.269
300.05
300.112
300
300.014
300
300.011
300.057
300
300
300.046
300.001
300.037
300.032
300.027
300.594
300
300
300.018
300
300
933.695
300
300
300
300.361
300
300
300.004
300
300.064
301.313
300
300.009
300
300.016
300
300
300
300.003
300
300.149
300.042
300
300.252
300
300
300
300.016
300.782
300
300.008
300.096
301.468
300.046
300
300
300.03
300
300.049
300.039
300.033
300.076
300.036
300
300.049
300.052
300.003
300.003
300
300.08
300
300
300
300.004
300
300
300
300.081
300
300
300
300
300.001
300
300
300.124
303.101
300
296.467
300.001
300
300
300.001
300.068
300
300
300.199
300.001
300
300
300
300
300.505
300
300.017
300
300.036
300.152
300.001
300
300.003
300
300.001
300
300
300
300.003
300.02
300
300.245
300
300.13
300.196
300
300.009
300
300.003
300.003
300
300
300.163
300.102
300.091
300
478.523
300.074
300
300
300
300
300.001
300.001
300.449
300
300
300.001
300.006
300.003
300
300
606.238
598.926
300.004
300
300.113
300.001
300
300.001
300
300.085
300
300
300
300.006
620.572
300.015
300.007
300.11
300.134
300
300.102
301.146
300
300
300.001
300.243
300.03
300
300.001
300.178
300.038
300.093
300
300.001
300.615
300.002
300
300.209
300.002
300
300.002
300
516.62
300
300
300.513
300.002
300.499
300.002
300.658
300.002
300.009
300.276
300
300.008
303.89
300.018
300
300.376
300
300
300
300.721
300.113
300
300.012
300
300.357
300.795
300.312
300.002
599.787
300
310.142
300
300
300
300
300
300
300
300
300.017
301.123
300.038
300.007
300
300
300
300
300
300
359.296
300.073
300
300
300
300.299
300
300
300.197
300
300
300
300.002
688.537
300.206
300.12
301.56
300
300
301.099
300
300
300
300.066
300.74
300.029
359.248
300
300
1214.18
300
300.001
300
300
300
300
300.001
300
300.001
344.875
300.103
300.001
300.043
300.114
300
300.461
300
300
300
300
300
300
300
300
300.023
300.342
300.192
300.044
300
300
320.296
301.051
300
300.018
300
300
300.024
300.164
300.399
300.104
300
640.141
458.433
300.285
300
300.107
300.025
300.021
302.93
300.005
300.148
300.018
300.001
300.017
300.029
300.021
300.018
300.153
300.026
300.002
300.269
412.961
299.925
300
300
986.118
300
300
300.518
300
334.716
300.019
300
300
300
300
300.021
300.074
303.001
300.015
361.606
300
300.521
300.027
300.011
300
300.001
300
300
300
300
300.023
300
300
300.003
300.422
300.023
300.019
302.218
300.1
300.001
300.021
300
300
300.004
300
300
300
300.065
300.276
300.153
299.289
618.281
300.004
300
300.078
300.152
300.005
574.097
300
300.002
300
300.249
300.004
300.026
300
300
300
300
300.481
300
300.082
300
440.264
300.171
300
300
426.701
300.214
300.273
300.122
300
300.711
727.914
300
300.005
300.03
300.042
300.087
300
300.092
301.15
300.077
300.075
411.3
300.035
300.093
300
300.773
301.308
300.076
364.551
300.003
300.003
300.039
300
361.124
300.096
300.012
300
300.003
300.028
300.002
300.001
300.001
300
300
300
300.001
300
408.246
497.052
300.014
342.543
300.001
300
300.027
300.234
300.755
300.007
300.048
300.703
303.15
1183.25
300.481
300
409.375
300
300
300
229.818
300
369.669
300.012
300.5
300.385
314.82
300
300.056
300
300
300
300
300
300
300.015
302.161
301.403
299.39
300.016
997.422
300.029
322.365
300
300.797
300.971
303.147
300.001
300
300
300
300
300
300.003
300.016
300.037
448.051
300.059
300.123
335.052
314.289
303.621
365.609
300
302.19
300.056
300
300
300.736
300.322
300
300.001
300
300.013
300
303.222
301.137
304.458
300.914
300
302.191
300.313
300
300.062
300
300.007
356.112
300.006
300.006
304.606
300.011
300
300.008
300
300
300
300.018
300
300.001
300.289
300.113
300.271
300.033
300
300.002
300
300
300
300.216
300.761
300
300
653.372
300
300
300
300
302.536
300.523
353.765
300.188
300.417
300
300.378
300
300.01
300.302
300
300.194
300
300
300.6
300
300
300.424
300.216
300.515
300.498
300
300.037
300.031
300.094
300.002
300.01
300.15
300.487
300.028
548.236
300
300.001
300.02
300.218
300.027
300.175
300.068
300.459
300
300
1224.98
300.36
300.042
300.23
300.059
300.415
573.896
300
300.075
300
300.431
300
300.116
300.302
300
300.712
300
300.294
300.431
300
300
300.275
300
300
300
300
300.073
300
300.464
304.737
300
300
437.841
300.001
300
300.018
300
300
300
300
300.048
300.049
497.786
300
300
300.218
300
300.397
491.683
300
300
300
300
301.155
300
300
300
300
300
377.912
349.035
300.002
300
562.791
300
300.186
300
300.055
300
327.967
300.086
300
300
300
300.263
300.33
300
300.024
300.001
300
300.02
300.005
300
300.007
300
300.602
300
300
300
300
300
300.374
371.059
300
300
300.326
300
300.006
300
300
483.868
456.703
300.003
300.001
300
300.003
300.581
300
300.754
300
324.254
300.183
300
502.062
300.314
478.492
414.964
300.385
300
300
300
300.055
300.005
300.007
327.591
300
300.036
300
300.076
300.341
300.341
300
300.268
300.035
300
298.18
300
300
300
300.54
300.219
300.127
300
300
300
429.097
300.001
593.326
300
300
300.467
300.709
300
300
650.888
300
300
300.003
300.664
300.346
300.119
300
484.185
528.705
300.024
300.912
300.003
303.926
300
300.035
515.353
619.858
312.54
304.073
305.063
302.831
300
1253.17
300.574
301.004
300
301.292
321.862
300
300.108
308.35
300
354.674
300
475.713
300.159
300.216
300.093
300.583
300
300
300
300
881.282
300
300.225
300.12
300
300
300
300
300
300
300.004
300
300.646
300
421.105
300
300.049
300
300.042
300.022
300
300
300
300
300.006
699.349
458.321
313.825
300.019
300.001
300
300
300.003
300.01
300
300
300.353
300.16
322.815
300
300.001
300
300.296
300.007
300
300.001
300.005
300.069
306.475
300.032
305.393
300
300.006
300.539
301.556
300
300.007
300.038
300
300.065
300.002
300.003
300.02
300.004
300
300
300.004
300.459
300
300.016
300
300.02
300
300
300.026
301.142
300.38
300.001
300
300
300.272
330.186
300
299.931
325.622
300.001
300.035
300.003
300.014
337.269
300.001
300.01
300.016
300
346.855
300.017
300
300.001
300
300
300
300
300
300
300.011
300
300
300.057
300
300.032
300.069
300
300
300.195
300.142
300
300.01
300
300
300.109
300
300
300.166
300.005
300
300
300
300
300
300.024
300.165
301.522
300.543
300.972
300.026
300.027
300.009
300.001
300.876
300.007
300.001
300.185
300.007
300.773
300
300.006
300.001
300.02
300.013
300.011
300.014
300
300.01
300.043
300
300.121
300
300.017
300.014
300.084
300.033
300.011
300.029
300.038
300.038
300.01
300
300
300.263
300.037
300
300
300
300.013
300
300.042
300.012
300
300
300
300.011
300.013
300
300.006
300
300
300.016
300
300.059
300
300
300
300
300.014
300
300
300
300.005
300
300
300.212
300
300.049
369.246
300
300
300.004
300
300
300.001
300
300
300.114
300.08
300.013
300
300
300
300.019
300.418
300
300
300.138
300
300
300.128
300
300.014
300.013
300
300
300.004
599.481
300.26
300
300
300
300
300.042
300
300
300
300.002
300.214
300
300
300
399.846
300.048
300.056
312.789
300.015
300
300.004
300.025
300.002
300.001
300.778
300.042
300
300.009
309.278
300
300
355.701
300.195
524.749
300
300.036
300
300
301.058
300
301.564
300.006
300
300.187
300.004
300
300.103
310.472
300
300.066
300.318
300.002
300.008
304.989
300.012
300.001
300.002
300.014
300.446
300.009
432.011
300
300
300.085
300.001
300.076
300.005
300
300
300.001
300.006
300.002
300
300
300
300.005
300
300.004
456.168
300
300.008
300.006
448
300
300.1
603.675
300
300.004
300.051
300.109
300
300.004
300
300
300.003
300
541.064
300.009
300.01
565.233
300.279
300
300.008
300.011
300
300
300
300.028
300.001
300.051
300
300.417
591.822
300.013
300.002
621.614
300.118
300.001
300.009
300.568
300.163
300.039
300.018
300.021
300.011
300.019
305.757
300.032
300.013
300.004
300.026
300.099
300
300.04
300.033
300.026
300.031
300.112
556.352
300.116
300
300.364
300
300.001
394.064
300
301.24
300
301.473
530.026
525.56
300
300
300
300.433
300.026
301.257
300
300.551
301.1
300.362
300
303.33
300.022
300.055
376.605
408.292
300
300.073
300
300.03
300
300.001
300
300.005
300.002
300
300
870.723
300
300.02
300
300.293
300.196
300.001
300.066
300
300
300.018
300.001
300
300
300
300
300.031
300.002
290.982
300
300.021
300.035
436.329
300
300.135
300.009
300
300
988.748
300
300.001
300
300
300
300.014
300
300
300
300
300.194
375.074
300
300.008
300
300.38
300.069
300
300
303.778
300
300.005
300
300.11
300.003
300
300
300.616
519.082
300
300.029
300
300
300.003
300.178
300
300.001
300.024
300
300
300.025
300.003
514.057
300.292
300.002
300
300.005
300.231
300
300
300
300
300
300
300
318.213
300.004
300
300.001
372.834
301.099
300
300.065
311.718
300
300.075
622.612
300
326.531
300.241
300.001
300.003
300.001
300.269
300.078
300.002
300.002
300.001
300
300.004
300.013
301.798
300.124
300
300
300.001
381.983
300.002
300
300
300.427
306.677
300
300
300
300
300.03
583.731
300
300.2
300.004
300.119
300
300
677.805
300
300
300
300
300.001
300.003
300
300.029
300.009
300
300
300
303.626
300.054
300
300.15
300
300
300
306.297
300.017
300.126
300
300
300
300.001
300.014
300.001
303.546
300
300
300.001
341.186
614.164
300.005
300
304.137
311.514
302.396
304.317
332.652
300.001
300.46
300.096
300
300
300
300
300
300
458.98
366.425
300.346
300.067
309.188
300
300.018
300.029
300.259
300.005
396.356
300.019
348.206
370.819
300
312.769
298.941
300.001
300
381.702
300.001
300
447.317
310.96
300
300
300
300.001
300
300
300
300.019
670.509
300
300
300.012
319.581
307.425
300
300
300
326.849
300
300.001
300.086
300
300.004
300
300
300.516
300.011
300
300
300
300
300
300.004
300
300.009
300
300
300.13
300
300
300
300.001
300
300
300.005
300
300
300.149
300
302.136
300.005
300
300
300
300
300.005
300.316
302.278
300.261
302.541
300.032
326.385
300.051
302.49
302.398
300.21
300.07
300
300.005
300
300
300
300
300.038
301.988
300
300.638
300
300.001
300.006
300
300.007
300
300.003
300.922
300.01
300.001
300
300.002
300.007
300
300.027
562.119
300.006
567.806
300
300
300.023
492.337
620.425
578.263
462.179
435.814
300.102
307.416
300.016
503.591
300
300.001
300
300
300.034
300.687
300.16
300.031
300.715
300.702
300
300.621
300.887
300
300
300
300.457
300.163
300.039
300
300.466
375.627
300.332
404.219
300.097
300.321
300.324
300
300.104
300.316
300.03
300
300.003
300.194
300
300
300.295
300
300
317.068
300.001
300.287
304.125
300.002
300.008
300.098
300.119
300.011
300.118
300.226
300.172
300.001
300
300.11
300.015
300.083
300.067
300.022
300.208
300.019
300.107
502.206
300
300
300.135
300
300.389
300
300
300
300.125
300
300.02
300
300
300.179
300.122
300.144
300.012
300
300.776
311.17
302.732
300
300.047
1026.4
300.302
304.938
300
300.131
300
300
300
300
300
300.002
300
307.329
300
300.005
300
300
300
300
300
300.118
300.07
300
300
300.388
300
301.188
300.061
300
300.517
300.001
300
300
300.214
300.002
300
300.018
300.001
300
300
300.01
300
300
300
300
300
300
300.003
300.02
300
300
300
300.041
300
300
300
300.611
300
300
300
300.001
300.305
300
300
300
300
300
300.527
300
300
300
300
300
300.079
300
300
300.002
300.041
300
300
300
300
300
300
300
300.033
300
300
300
300
300
300
324.451
300.048
300.005
300
300
300.096
300
300.028
300.065
300.033
300.164
300
300
300
300.003
300.573
300
300
300.572
300
300
300
300
300
300
534.426
300
300
300
300.595
300.621
300.622
300.042
300.64
453.731
300.001
300
300.004
300.589
300
300.002
300
300.001
302.659
300
300
300
300.115
300.007
300.267
300.081
300
300.338
309.322
300
300.011
300
300
300
300
300
300.003
300
588.138
332.721
410.327
300.577
372.197
300.012
300
300
300
300.013
300
300
300
300.002
312.085
300.017
300.005
300.078
300
303.264
300.026
300.096
300.002
300
300.058
300
300
300
300.251
354.41
313.456
300
301.873
300
300
300
300.001
300
302.86
300.072
300
300
300.178
300.08
300
301.01
300
300
468.982
300
300.004
300
300.048
300.001
300
300.001
300
300.007
300
528.341
300
300.004
300.001
300
300.083
300
300
300
577.76
300.002
300.298
320.733
300.156
300
300.563
300.074
300
300
432.047
300.12
300
300.1
305.064
300.002
300
300
300.145
300
300
300
300.002
304.249
300.002
314.882
300
300.299
300.002
300
300.079
300.002
300.002
300
300
300.008
316.091
300.07
420.501
300.086
300.161
300.078
300
300
300
300.071
508.925
300.264
300.008
300.004
455.125
300.09
538.823
584.03
300
457.837
588.649
300.069
300
303.662
299.44
337.6
365.92
300.221
300.037
451.631
300.001
421.661
300.002
298.032
300.039
302.497
448.162
300
300.001
300.117
333.92
300.002
303.498
300
300
384.501
300
300
300.002
300
300.071
300
1289.12
348.991
300
300
463.076
300.012
411.61
619.315
400.59
300.014
300
300
300.235
300
300
300.002
300.001
300
453.156
300.002
300
301.708
300.45
300
300
564.529
300
300
300.427
300
300
300
300.242
305.175
300.392
300
300.012
300
300.068
330.387
300.013
303.874
300
300
300
300.002
300
305.453
300.057
300
311.096
300
300
300.015
300
300.029
300
300.21
290.835
300
300
300.131
303.164
300
300.016
301.188
300
300.001
300.001
300
300
300
300
300
300.001
300
300
301.216
300
300.073
1079.76
300.106
301.215
300
300.077
300.002
300
301.151
301.122
302.758
301.365
294.52
301.232
300
300.118
339.09
300.352
300.413
300.332
300.001
300.918
300
300
300
300.025
300.325
300
300.397
300
300
300
301.002
298.919
300
300.723
300.528
300.071
300.559
300.544
300
300
300.875
300.004
300
300
300
300
300
300
313.277
300.047
301.785
300.208
300.003
300.206
300
300
300
301.526
300
300
300
302.08
300.001
600.605
300.488
300.21
300.109
300.376
300.001
300.526
300
300
300.092
330.633
300.366
300.002
300
300.001
495.442
300
300.75
324.326
300.694
300.655
300
300
301.058
376.32
300.002
300.667
300.368
300.143
300
300.568
300.018
301.551
300
300
300.01
300.039
300
300
300.494
300.285
300.811
300.001
300
300.481
300.583
300
300
300
610.635
301.371
1015.68
300.584
300
300.317
300.299
300
300
300.002
300
300
300
587.156
300
300.002
300.001
300.294
300
300
300
300
300.195
300.683
300
300.304
300.002
300.001
300
300
300
300.335
300.378
300
300
300.194
300.003
300.001
300.003
300
300
301.049
300
300.017
300
300
300
301.017
300
300
300.491
300
300
300
300
449.545
300
300.028
300
300.421
300
300.002
300
300
300
300.008
300
300.941
524.963
300
300
300.004
300
300.002
300
300
300.001
300.002
300.002
300.002
300
300.036
630.244
300.32
300.015
300.533
300.001
300.001
403.401
300.002
622.963
300.008
300.096
300
300
300
300
300.002
300
300.025
300.959
300
300
300
300
300.002
300.002
300
300
300
300.104
300.023
300.088
300.002
300
300.027
300.029
300.053
300.001
300
300
300.052
300
300.057
300.014
300.002
300.028
300.028
301.369
300.025
300.868
531.937
300
511.068
300
300.722
300
300.509
300.17
300.456
316.526
300
300
300
300.064
563.169
300
300.316
300.001
307.523
300
300
300
300
300.613
300
300
300
300
300.001
300
301.249
302.152
300.135
300
300
300.287
300
300
300.029
304.966
300.039
300
300
300.441
300.029
300
300
300.093
301.121
300.136
300
301.115
300.011
300
300.002
300
300
300.001
300
300
300
300
300
300.001
300
300
300
300
300
300
300
300
300
300
300
300.121
300.255
300.171
300
300
300
300
300.028
300
300
300
300
300
300
300.004
300
300
300
300
300
300.078
300
300.102
300.101
300.05
300
300
300.079
300
300
300
300
300
300
300
300
300.002
300.001
300.334
300.362
300
300.001
300
300
300
300
300
300
300.026
306.594
300
308.011
300
300
309.286
307.175
300
300.136
300.132
300
300
300
300.003
300
308.851
300
307.213
300
300
300
300.951
300.924
300.851
300
300
300
300
300
300
300
300
300
300
300.45
300
300
300.001
300
300
300
300
300.172
300.048
300.207
300
300.002
300
300
300
300
300
300
300.811
300.003
300
300.001
300.051
300
300.024
300.001
300.003
300.037
300
300.032
595.667
300.003
300.004
300
300.014
300.003
300
300
300
300
300.008
300
300.001
300.002
300.089
303.04
300.654
300
300
300.086
300
300
300
300
300
300.001
301.234
300.794
300.916
300.043
300.078
300
300.002
300
300.107
300.279
300
328.371
300
300.079
300.001
300.034
300.001
300
300.051
300
300
300
300
300
300
300.071
300.697
300
300.002
347.505
300
300
300.003
300.001
300
300
300
300
300
300
300.001
300.002
300
300
300
300.004
300
300
300.002
300.009
300.016
312.577
300.001
304.082
300.066
300
300
300.001
301.259
300.001
446.562
344.637
300
410.749
300
300
300
300
300
300
300.099
300.154
300
300
300.002
300.055
300.107
300
300.108
300.007
300.078
300.519
300.007
300
300
300.001
300.127
300.001
300.012
300.001
300.108
300
300.003
300
300.002
300
300.1
300.034
300
300.003
300
300
456.856
300
300
300.899
300.001
300
300
300
300
300
300
344.356
435.829
317.854
308.215
310.956
300.363
705.583
300
300
300.005
300.001
300.011
301.081
300.005
334.372
300.144
300.001
300
307.107
398.859
300
300.002
321.904
300.415
300.747
300
300.002
300.07
300
300
300.391
300
300.001
300
300
300.001
300
300.001
300.001
300.218
300.015
300.113
300.267
300
300.175
306.67
311.675
300.001
300
300.002
302.142
307.222
300
342.334
424.122
300
345.928
358.161
300
300
300
300
375.823
300
300.001
300
300
300.001
300
305.826
300
300
300
376.553
300
305.708
300
300
300
300.034
300
300.005
300
300
300.016
300.35
300.046
300.028
300.409
300.008
300
300
300.133
300
300
300.066
300.069
300.001
300.001
300.019
300.076
300
300.001
300
300.001
300.002
306.848
300.001
299.755
300
304.804
300.011
301.006
300.001
300
300.001
300
299.069
300.003
516.394
300
300
300.051
300
300
300.108
300.253
300
300
300.106
300.567
300
300
300.196
300
300.036
300
300
300.007
300
300.001
300
300
300
300
300.005
300.001
300.054
300
300
300
300.038
300.001
300.006
300.077
300
300
300.164
300
300
300.043
300
300
300
300
511.258
300
300.059
300.006
300.012
300
300.042
300
300
300.016
300
300.002
300.071
300
300
300
300.001
300.003
300.001
300.451
300
300
300
300.046
300
300
300.001
300
300
300
300
300.033
300
300
300
300
300
300
300
300
300
300
295.807
300
300
300
300.031
300
300
300
300
300.027
300
300.156
300
300
300.008
300.029
300.052
300
300
300
300.112
300.569
300.457
300
300
300
300
300
300
300
300
300
300
300.076
367.222
300.067
300
300
300
300
300
331.824
445.236
300.001
300
300
300
300.002
300.001
300
300
300
300
300
300
300
300
300.007
300.007
300.439
300
300
300
300
415.445
300.012
300
300
461.605
300
300
300
300
300.001
300
300
390.818
300.348
300
300.07
300
300
300.013
300
300
300
300
300.001
305.069
300
300
300
300
300
300.573
300
300.065
300.001
303.147
335.827
300
300
332.322
300
300.001
300
300
300
300.374
300
300.001
301.354
300
300
300.001
300
286.639
300
300.122
396.635
300.001
300.001
300.002
300
300
300
300
300
662.138
300
300
300
300.001
300
300.002
330.679
300
300
300.003
300
300
300.004
300
300
300
300.001
300
300
300.004
300
300
300.005
300
300
300
300
300
321.423
300
300
300
300.001
300
300
300
300.012
300
300.051
300
300.016
300.004
300
300.01
322.775
300
300.005
300
300
300
300.009
300
300
300
299.177
300
300
300
300.004
300.009
300
300
762.782
300.004
300.002
300
300
300.007
300.003
299.787
300.001
300
309.488
300.238
300.546
300
300
300
302.481
300
300.062
300
300.001
300
300
300
300
300
300
300
300
300
300
300
300
300
300
300
300
300
300.001
300
300
300
299.126
300
300
300
300
299.843
300
609.36
300.275
300.002
300.059
300.002
300.005
300.009
300.001
300
300
300
300.384
300.385
300.002
300.054
300
300
300
300
300
317.702
300.008
300
300
300.364
300
300.005
300
300.067
300
300
300
300.388
300
300.382
300.21
300.386
520.635
300
300
300
300.024
300.018
300.025
300
300.011
520.654
300.003
300
308.687
300
300.122
300.126
300
300
300.229
465.327
300.019
300
300.025
300
300
300
300.284
300
300
300
300
300
300
300
310.536
302.171
300.377
300
300.254
300
300.24
300.252
300
300.22
300.002
300
300
300
300.016
300.001
300
300
300.037
300
300
300.084
300
300.005
300
300
300
300
300
300
414.541
300
300
436.93
300
300
300
300
300.002
300
300
300
300.086
300
323.629
300
300.099
300
300
300
300
300
468.554
300
300
427.445
300
300
300
300.022
319.941
300
300
300
300
300
316.759
300.057
300
328.214
300
589.834
300
300
300.033
300
300
300
300
300
300
300.348
300
300
300.255
300
300
300.394
464.743
300
300
300
388.748
332.526
300
603.866
300
300
307.865
300
300
302.717
300
300.039
300
300
300
300
539.929
300
300
300.044
300
300
300
300
300
300
300
300.039
300
300.039
300
522.72
300
300.041
300
300
300
300
300
300
300
300
300
300
300
300
300
300
300
300
300
300.431
300
300
300
300
300
610.326
300
300
300
594.076
300
300
300
300.001
300
300
300.41
300.051
300
300
300.105
304.534
300.001
300
300.938
300.001
300
300
300.001
300
300
300.668
300.001
300.001
300.001
300.001
300
300
300.001
300
300
300
506.862
300.042
300.001
300.001
300
300
300
300
300
300.827
300
300
300.185
300
300
300.001
300
300
300
300.001
300
300.639
300
300
300.044
300
300.375
300
300.261
300.001
300.001
300.729
300
300.315
300
300.383
319.749
300.186
324.042
300.27
300.036
300.037
300
544.528
300
300.417
300
300.023
300.014
300.308
300.295
300
300
300
300.188
300.016
300
300.028
300.014
300.017
300
300
300.017
300
300
300
300
300.018
300
300
300
300.01
300.057
300
300
300.05
300.049
300
300
300.1
300
300.061
300.053
300
300.071
348.621
300
300.123
300
300.01
300.323
300.683
300.065
300
300.667
300
300
300.056
300.059
300
300.005
300
300
300
300
300.493
300.573
300
300.464
300.024
300
300.217
300.153
300.313
300.445
300
300.328
300.001
300
300.001
300
300
300
300.003
300
300.003
300
300.04
300.506
300
300
300
300
300
300
300
300
300.006
300
300.943
300
300.003
300.001
300
300.014
300
300
300.06
300.002
300
300
300.056
300.059
320.517
300.002
300.001
300.057
300.298
300.001
300
300.059
300
300.011
300
300
300
300
300
300
300
300
300
300
300.708
300
300
300.025
300
300
300
300
300
300
300
300
300
300
300
300
300.603
300
300
300
300
300
300
300
300
300
401.507
300.052
300.881
300
300.215
300.078
300.105
300.002
300
300.162
300
300
300.093
300
300.446
300.014
300
300.595
300.347
300
300
300
300.213
300
300
300.004
300.003
300
300.049
300
300.005
300.006
300.118
301.157
300.002
300
300
300
300.061
300
300
300.165
300
300
300
301.946
300
300
300
300.216
300.013
300.014
300
300
300
300
300
300.004
411.099
300
300
300
300
300.738
300.009
301.776
300.004
342.975
300
300.002
300
319.118
300
300.752
300
300
300.268
300.648
300.003
300
300
300
300.6
300.299
300.815
300
300.623
301.466
300
300
300.473
300
300
300
300.002
572.096
301.468
300.009
300
309.811
300.614
300
300
356.626
300
300
532.269
300.184
300.096
300.013
300.082
300.095
300.718
300.136
300.463
300
300
300
300.454
300.488
666.875
300.002
300.011
300.743
300
300
325.536
300.056
300
300.017
300
300
300
300
300
300
300
304.637
300
665.453
300
300
300.029
300
300
300.002
302.82
329.489
469.12
297.625
300
300
300.01
300.016
300
300
636.368
300
300
300
300.23
300.009
300
300
300.03
300
334.343
300
300
300.389
300.027
300.01
300.035
411.349
300.097
300.001
300.095
300.012
300
300
1190.17
300