/*--------------------------------*- C++ -*----------------------------------*\
| =========                 |                                                 |
| \\      /  F ield         | OpenFOAM: The Open Source CFD Toolbox           |
|  \\    /   O peration     | Version:  v2012                                 |
|   \\  /    A nd           | Website:  www.openfoam.com                      |
|    \\/     M anipulation  |                                                 |
\*---------------------------------------------------------------------------*/
FoamFile
{
    version     2.0;
    format      ascii;
    class       volVectorField;
    location    "3";
    object      U;
}
// * * * * * * * * * * * * * * * * * * * * * * * * * * * * * * * * * * * * * //

dimensions      [0 1 -1 0 0 0 0];


internalField   nonuniform List<vector> 
108993
(
(-0.00403581 -0.000635461 -0.00134657)
(0.00318852 -0.0160996 -0.016866)
(0.000487591 -0.000503306 0.011902)
(-0.00913179 0.0106613 0.0044638)
(-0.000216175 0.00255288 0.00344458)
(-0.000100311 -0.000135142 -0.000416596)
(0.0320477 -0.00733525 -0.0331513)
(-0.000249213 0.000913238 -0.000156366)
(-0.000125597 -0.00174544 0.00560434)
(-0.00566715 -0.00360755 -0.000190566)
(0.00208214 -0.00117505 0.00377142)
(0.00110033 -0.00092807 0.00417834)
(-0.0029966 0.00649443 0.00725427)
(0.00142912 -0.00300724 -3.85823e-06)
(-4.18912e-05 0.000157929 0.00222444)
(0.0239467 0.0063115 0.000576073)
(-0.0134948 -0.00274157 -0.0010553)
(-0.000297877 -0.00108771 0.000840619)
(-0.00132283 0.0123103 0.00730325)
(-0.00132738 -0.00537733 -0.00320687)
(0.000894954 0.000915864 0.0066956)
(0.00642115 -0.000743348 0.0031488)
(-0.00488077 -0.00145263 0.00066431)
(-5.59052e-06 -7.83148e-06 0.00323713)
(-0.00301757 0.00850424 0.00616745)
(0.000631843 -0.00264196 -0.00151242)
(-0.00243796 -0.0112475 -0.000379117)
(-0.000654646 -0.00721525 -0.00140672)
(-0.00147748 -0.00206121 -0.00544393)
(0.000134035 0.000158327 0.00378453)
(-0.00101902 -0.0074995 0.00537267)
(0.00103375 -0.00268856 0.00120148)
(0.00143551 -0.0067552 0.0080366)
(-0.00948392 -0.00569074 -0.00376657)
(-0.0209426 -0.00222977 0.0406688)
(1.37961e-05 -0.000149918 0.00369353)
(0.000293219 -0.00634285 0.00199376)
(7.78519e-05 0.000357695 0.006505)
(0.0801149 -0.238901 -2.01749)
(0.898215 0.237338 -2.17918)
(-0.00351488 -0.0111794 -0.00208803)
(0.000220696 -0.000759596 0.00599021)
(1.03714e-05 -0.00214485 0.000614959)
(-0.00963185 0.0250404 -0.00323415)
(-0.00416758 0.00735185 -0.0080339)
(-0.583223 -0.739928 -0.707641)
(0.00111484 -0.0130057 -0.00409129)
(0.0285282 0.000353986 -0.0160402)
(0.000290175 -0.00017195 -0.00712995)
(-0.00729729 -0.00278617 -0.000256548)
(0.00286131 -0.0073136 0.0071908)
(-0.0442888 -0.0388605 -0.0680891)
(-0.00106738 -0.0185285 -0.00787624)
(-0.000586912 -0.00347385 0.00186697)
(-0.00136707 -0.000683288 0.00055482)
(-0.000531263 -0.000636737 0.00224009)
(0.00217391 -0.0094779 0.00857076)
(0.000282702 0.00204042 0.0028055)
(0.00020332 -0.000161949 0.00636851)
(0.000327912 0.00249454 0.00277764)
(0.000575001 0.00282318 0.00361627)
(0.00151922 0.00614188 0.0043951)
(9.30701e-05 -5.9513e-05 0.00380225)
(0.00306451 -0.000212564 6.00039e-05)
(0.00440735 0.0122433 0.00412714)
(-0.000220115 -0.00396547 -0.00289946)
(0.0002668 0.00778194 0.000275504)
(0.000684702 0.00214904 0.00603927)
(0.00149522 -0.00412495 0.000933092)
(-0.164911 -0.0508534 -0.000167154)
(-0.000376743 -0.000486744 0.00359772)
(-0.000860317 0.00399976 0.0056875)
(-0.000739414 0.000722424 0.00529531)
(-0.000797321 0.00269538 0.00675152)
(0.0011784 -0.00201764 -0.00807328)
(0.000314174 -0.00242585 0.00607347)
(0.00142151 -0.000468414 0.000329783)
(-0.0127174 -0.00625048 -0.00183016)
(0.00407034 -0.00998702 0.0159479)
(-0.0047704 0.0113179 -0.00298207)
(-3.80161e-05 -0.000648321 0.00401661)
(-0.000825816 -0.00376022 0.000650777)
(-0.000941789 -0.000339741 0.0071763)
(-0.000205934 -0.000852227 0.00625844)
(-0.000389387 -0.0010419 0.00104064)
(0.000964373 -0.00123123 0.000941278)
(0.00013756 -0.000321607 0.00576696)
(0.00167623 -0.000816766 0.00378283)
(3.32618e-05 0.00304054 0.00207787)
(-0.000557937 0.00687874 0.00169776)
(-1.36233e-05 0.00547618 0.00255934)
(-0.000916984 -0.00227811 0.00550988)
(-0.000125513 0.00454707 0.00101256)
(0.000563567 0.00529358 0.00134894)
(0.00117397 0.00443652 0.000925059)
(0.00379886 -0.00262126 0.00126812)
(-0.000217494 -0.00156147 0.00662418)
(0.000206609 -0.000610196 0.00476237)
(0.000129255 -0.00171749 0.00770326)
(-3.15043e-05 -0.000489152 0.00445991)
(0.000405155 0.00395042 0.00208605)
(-0.000671097 -0.0016992 0.00848217)
(6.3229e-06 -0.000858824 0.00292401)
(0.00208626 -0.00398748 0.00185384)
(0.000352008 0.000258541 0.00455638)
(5.69901e-05 0.0082583 -0.000809196)
(0.000406649 -0.000203626 0.00426573)
(0.00877423 -0.0442491 0.0202038)
(-0.00301852 -0.00155323 0.00689043)
(-0.782031 -1.01434 -2.48886)
(-0.0301572 -0.000314349 0.000120434)
(0.00114743 0.00604877 0.00112402)
(0.00383348 -0.0531678 -0.000119315)
(-0.0350883 0.013322 -0.0104227)
(-2.88256e-05 -0.000489391 0.00607743)
(0.00220425 -0.298458 0.246613)
(-6.27897e-05 0.00217093 0.00346168)
(0.00138973 -0.00178637 0.00584542)
(0.0582873 -0.0285458 -0.0344142)
(0.000303457 -0.00254654 0.00629767)
(-0.000257999 -0.00347462 -0.000100769)
(-0.00292429 -0.000882339 0.0104797)
(0.0655928 -0.48484 -0.0504147)
(0.00504224 -0.000782727 0.00726492)
(0.000682287 0.000905961 0.00602828)
(0.0216411 0.00139277 -0.00220246)
(-0.0041171 -0.0105631 -0.00174452)
(0.000556257 -0.00183335 0.00379976)
(-0.00126392 0.000165248 0.0113726)
(-0.00346643 -0.00129856 0.0115385)
(0.00535681 -0.00221767 0.00241648)
(-0.00154828 -0.00142071 0.0112515)
(5.61853e-05 -0.00046645 0.00643264)
(-0.0396813 0.134527 0.102144)
(-0.000885363 -0.00253868 0.00714113)
(0.00168015 0.00103863 0.0102272)
(-0.000187646 -0.00198676 0.0096401)
(-0.000336088 -0.000541348 0.00597692)
(0.000641725 -5.42843e-05 0.00409361)
(0.00149938 -0.00340777 0.000534015)
(0.00442536 -0.00166961 0.00761594)
(0.000826917 -0.000290788 0.00485999)
(0.00588417 -0.0290132 -0.00885514)
(0.00170001 -0.00224786 0.00890953)
(-0.00216812 -0.00760619 0.0100838)
(-0.000328839 0.000990718 0.00474991)
(0.000678739 -0.000799784 0.00465669)
(-0.285437 -0.119209 -0.97996)
(0.00428993 -0.000950318 0.00786301)
(-0.199929 -0.127753 0.674438)
(-0.232416 -0.0719823 0.701889)
(0.000251364 -0.00249302 -0.000381105)
(-0.00362927 -0.00318138 0.00224935)
(-0.269903 -0.0917666 0.749053)
(0.00121788 -0.000464457 0.00588658)
(-0.0254725 -0.00668467 0.00133934)
(0.000195625 -0.00296475 0.00338856)
(0.00580857 0.00412315 -0.0147011)
(-0.0250687 -0.0272829 0.0164727)
(-0.100897 -0.173853 0.0599358)
(-0.261199 -0.114854 0.738665)
(-0.000977669 0.0210832 0.131458)
(-8.8694e-05 -0.00163495 0.00366)
(-0.000168365 -6.8582e-05 0.00326074)
(0.000592362 -0.00215827 0.0018146)
(-0.0454143 -0.024494 -0.0317276)
(0.000280707 0.00196712 0.000616733)
(0.000861978 -5.37488e-05 -0.00013601)
(0.00184117 -0.000405317 -0.000175188)
(0.000257133 -0.000785356 0.00537394)
(-0.00129718 0.000703045 0.00789751)
(-5.56573e-05 -0.00104968 0.00311584)
(-0.0409256 -0.0675551 -0.0417181)
(7.51407e-05 -0.000518065 0.00503609)
(-0.0112155 0.00816662 -0.00689551)
(0.00142039 -0.00498539 -0.00130455)
(-0.0905105 -0.0295549 0.299676)
(0.00160223 -0.000524641 0.000161839)
(0.000912454 -0.00106107 0.00577933)
(-0.000573036 -0.00064718 0.00537419)
(-0.00261612 -0.00980942 -0.000569031)
(0.00105224 -0.00187357 0.00663355)
(0.0128152 0.00776554 0.00585986)
(0.00365516 0.00112995 0.00562228)
(0.00200691 -0.00383954 0.00106476)
(-0.000110059 -0.000559736 0.00393984)
(0.00377673 0.00105578 0.0102735)
(0.000234945 -0.00227011 0.00154488)
(-0.000251817 -0.00218594 0.00162184)
(0.0055124 -0.000797992 0.00785778)
(0.000658642 -0.00137817 0.00442663)
(0.0070759 0.000730418 0.01498)
(-0.000109815 -0.00139214 0.00421307)
(-0.125808 -0.0575655 0.0470603)
(0.00058926 -0.000740928 0.0055291)
(0.00554644 -0.00318023 0.00994247)
(-0.00306277 -0.0110299 -0.00104564)
(0.000401946 -0.000867361 0.00462585)
(-0.000288832 -0.000706229 0.00529685)
(0.00311053 -0.00317805 0.00604731)
(0.000729875 0.00170198 0.00112254)
(-0.115177 -0.0284703 0.0338176)
(2.53763e-06 0.00116301 0.00735883)
(-0.000242948 -0.014071 -0.0396488)
(0.059784 -0.0208805 -0.0213189)
(0.0285103 -0.105255 0.550236)
(-0.000290676 -0.000997352 0.00647555)
(-0.130483 -1.132 -0.716217)
(0.000641423 -0.000396528 0.00576961)
(-0.274039 0.0942324 0.552643)
(0.107094 -0.109908 0.0475848)
(0.000178476 -0.000852605 0.00681229)
(-0.0134446 -0.18578 0.525755)
(-0.0995827 -1.80379 -0.948485)
(-0.0990696 -0.937938 0.259727)
(0.000417304 -0.000709631 0.00479177)
(-0.000340977 -0.00147422 0.00178151)
(0.000593815 -0.000814568 0.00666517)
(0.00603886 0.0119094 -0.008645)
(0.00249488 -0.00304946 0.00741577)
(0.00576224 -0.00788317 -0.00124172)
(-0.222342 -0.11202 0.71225)
(0.00739225 -0.011283 0.00921683)
(-0.15566 -0.0860869 0.152016)
(0.00524185 -0.00124473 -0.000226975)
(0.00125116 -0.000334126 0.000136504)
(0.00809293 0.0169849 -0.0195066)
(0.00142147 -0.000517698 0.00779198)
(-0.0973264 0.163129 -0.124136)
(4.8668e-05 -0.00107154 -0.00073837)
(-0.0470085 -1.54414 0.0700822)
(0.000134663 -0.000368767 0.00340774)
(0.000812734 -0.000347676 0.000221346)
(0.00151413 -0.00727377 -0.00587356)
(0.000734148 -0.00130259 0.00622102)
(-0.00073939 -0.00418278 0.00226052)
(0.000274532 0.00158115 0.0030388)
(0.00308697 0.0024316 0.00546352)
(0.112705 -0.00123475 0.0298183)
(-5.34675e-05 0.0190998 -0.0189728)
(-0.000546617 -0.00134116 0.00511719)
(0.000265915 -0.000812856 0.00614908)
(-4.41699e-06 0.000146811 0.000234018)
(0.00140131 0.0103566 -0.0252571)
(0.00171718 -0.00192667 -0.00581984)
(0.0299064 0.0157915 0.00115462)
(-0.198904 -1.73933 -0.756483)
(0.0149843 -0.36045 0.0890978)
(-0.0100549 0.0247382 -0.0117951)
(0.00206414 -0.000385839 0.0073077)
(0.00060695 -0.000574714 0.00586061)
(0.00492988 0.0124148 0.0168964)
(0.000828034 -1.53881e-05 0.00623252)
(0.000185551 -0.000608906 0.00563846)
(0.00760479 -9.57367e-05 -0.0130686)
(0.0010047 0.0185956 -0.0209757)
(0.006813 -0.00785566 -0.0142074)
(0.00447483 -0.000605033 0.00554633)
(-0.00109726 -0.00187834 0.0085388)
(8.26153e-05 -0.000434129 -0.00015339)
(0.000883327 -0.000768728 0.00801446)
(0.000422688 -0.000541456 -0.00494917)
(0.0208385 -0.00985699 -0.00499762)
(0.0203984 0.000777009 -0.00329609)
(-0.0416145 -0.0472769 0.0422986)
(0.000625274 -0.00261987 1.24e-05)
(0.000202223 -0.000373076 0.00766323)
(-0.000311249 -0.00209281 -0.00591836)
(6.46234e-05 -0.000634766 -0.000250751)
(0.00169265 -0.000662585 0.00608978)
(-0.000290418 0.000812576 0.000534084)
(-0.000319646 -0.00302937 0.0108587)
(0.025357 -0.9911 -0.0778055)
(-0.081261 -0.00229896 0.843234)
(-0.251766 -0.104746 -1.04195)
(0.000473309 -0.000840297 0.00558316)
(9.70545e-05 -0.00198047 0.00423239)
(0.306427 -0.678436 -0.551017)
(0.00305103 -0.00268011 0.00567623)
(-0.00236514 -0.00678944 -0.00369357)
(-0.00108605 -0.00767939 -0.00212544)
(-0.478944 -0.617079 0.0971816)
(-0.772244 -0.837728 0.0674893)
(0.000434174 -0.00305812 -0.000205217)
(0.00248858 -0.00122468 0.00941562)
(0.0154277 -0.00112439 0.00287155)
(0.000820006 0.00486919 0.00981972)
(-0.000535108 -0.00708872 -0.00199538)
(0.00524978 -0.00335311 0.00485413)
(-0.016476 -0.0670512 -0.387508)
(8.8159e-05 -0.00346599 0.000391577)
(0.000132095 -6.31125e-05 0.0071736)
(-0.00233831 -0.00565995 -0.00294578)
(0.000358892 -0.000222883 0.00699324)
(0.0015765 -0.00356367 -0.000973084)
(-0.000247435 -0.0010387 0.00765284)
(-1.39353e-05 -0.00271062 0.00641352)
(0.000494826 -0.000713072 0.00725491)
(-0.038603 -0.0152465 0.00136471)
(0.000245485 0.000411582 0.00102941)
(-0.00239848 -0.305626 0.260105)
(-0.0964404 -0.0233677 0.730374)
(0.000696791 -5.95486e-07 0.00435843)
(0.00031546 -0.000216375 0.000968296)
(0.000541851 -0.000645583 0.00569537)
(0.000627415 -0.00158663 -0.00401855)
(0.000218521 -0.00275048 0.00105225)
(0.00125074 -0.00185263 -0.0108265)
(0.00189786 -0.00224301 -0.00419413)
(0.097527 -1.32114 -0.0834875)
(-5.12128e-05 0.000876664 0.00197149)
(0.00146645 0.00333969 0.00436933)
(0.0101656 -0.0130988 -0.000387015)
(0.000218049 0.000310378 0.00380671)
(0.00189883 -0.00260028 -0.00518401)
(-0.095719 -0.121611 0.571134)
(0.000955587 -0.000196356 0.000168313)
(0.0117386 -0.010089 -0.000459011)
(0.0558599 -1.05113 -0.912415)
(-9.28002e-05 -0.000638418 0.00593289)
(-0.000794463 -0.0147353 -0.00631013)
(0.00303828 -0.000137389 0.000232801)
(-0.00013425 -0.000411641 -0.00797688)
(-0.00037391 0.000274584 -0.00592159)
(0.000126074 -0.000884628 0.00468546)
(-0.362963 0.474033 0.728273)
(-0.0360853 0.752072 0.826986)
(-0.0283146 -0.18112 0.738687)
(0.000574792 -0.00116718 0.00679578)
(0.00339146 -0.00362726 0.0116609)
(0.00580675 -0.000400179 -0.00220535)
(-0.0247235 -0.44316 0.475287)
(-0.230544 0.0129181 0.0275106)
(0.000162024 -0.00104512 0.00631312)
(-0.00801139 -0.874459 -0.474652)
(-7.28496e-06 0.000154929 0.00570258)
(-0.000184242 -0.000284829 0.00554848)
(8.91476e-05 0.0033382 0.00454913)
(0.000160114 -0.00013366 0.00561871)
(0.00196532 -0.000377214 0.00705811)
(-0.000341045 -0.000937508 0.00543927)
(-0.0518229 -0.0153713 0.147408)
(-0.00302164 -0.00741595 -0.00760415)
(0.000722319 -0.000525876 0.00436055)
(0.000622312 -0.00223244 0.00264939)
(-0.000278739 -0.000183553 0.00134795)
(0.000176126 -0.000415935 0.00857787)
(0.000403193 0.00128081 0.00333464)
(-0.0005065 3.61416e-05 0.00198014)
(-0.00160591 -0.000876538 0.00846216)
(0.000585628 -0.000511677 0.00627721)
(-8.10401e-05 -4.92538e-05 -3.69828e-05)
(-0.0121422 -0.193025 0.0189775)
(-0.108946 -0.20773 -0.0816124)
(0.00460768 -0.00796907 0.00173992)
(0.0010506 -0.000688255 0.0039807)
(0.000410749 -0.000658015 0.00570159)
(0.102546 -0.265649 -2.25934)
(0.00164661 -0.000357759 0.00672712)
(1.37865e-05 0.00020532 -0.000171327)
(0.0149277 0.00109282 0.00789837)
(-0.00348189 -0.00724247 -0.00759692)
(0.00192374 -0.000584895 0.00875963)
(0.00125611 0.00016457 0.00873348)
(0.00146222 -3.36902e-05 -0.00846543)
(-0.00405305 -0.00658378 9.23766e-05)
(-0.000106658 -0.000274854 0.00718195)
(-0.00116546 -0.00144479 0.00548019)
(0.000135102 -0.00227614 0.00353561)
(-0.311735 1.36374 0.786619)
(-0.00486971 -0.00947628 0.0271563)
(0.0124774 -0.00221951 0.00335304)
(-0.000945342 -0.000573375 0.00930799)
(-0.322436 0.174623 0.815809)
(-0.0050515 -0.00760008 -0.000828122)
(-0.0529013 -0.0480512 1.15674)
(0.00371902 -0.00536446 0.00262459)
(0.000611001 -0.00110392 0.00606509)
(-0.00865449 -0.0939282 0.77247)
(0.000454189 -0.000810773 0.00463595)
(-0.00501587 -0.219048 0.911878)
(-0.0390629 -0.120509 0.862177)
(-0.00472143 -0.00821227 -0.00115007)
(0.0601674 0.0357427 -0.0107041)
(-0.000660802 -0.000422163 0.00132678)
(-0.000456379 -0.0110769 0.000187389)
(0.0035511 -0.0113223 -0.000414993)
(1.97094 1.8981 -0.118584)
(-1.31198e-06 -0.00604062 -2.86591e-05)
(-0.22222 -0.495923 -0.84589)
(0.0203939 -0.102375 0.742243)
(-0.00035351 -0.0114702 0.000181654)
(0.00882174 -0.209249 1.01755)
(0.00216049 -0.00446445 0.000463643)
(-0.00910787 -0.534521 -0.0474589)
(-0.00246614 -0.00622273 -0.00310514)
(-0.416186 0.363348 0.773177)
(-0.00141917 -0.00385812 0.00677869)
(0.0189212 0.00125771 -0.00507683)
(0.000110564 6.20878e-05 0.00574785)
(-0.00269893 -0.00776836 -0.00267101)
(0.673403 -0.902655 -0.375669)
(0.103199 -1.0141 -0.188758)
(-0.0003171 -0.000365075 0.00579926)
(0.00844701 -0.00507659 0.000674612)
(-3.27317e-05 -0.0105283 0.000445157)
(-0.00171245 -0.0106023 -0.000364406)
(0.000110649 -0.000986237 0.00473546)
(0.0053464 -0.00403043 0.0137819)
(-0.158715 0.0084417 0.67157)
(-9.54024e-05 -0.00304944 0.000236878)
(-0.00615802 -0.00158107 0.00040385)
(0.300428 3.48479 -2.36051)
(-0.000211655 -0.000304856 0.00312373)
(0.00192864 -0.000576316 0.00295575)
(0.000316484 -0.00104142 0.00650512)
(-0.297034 0.151617 1.08236)
(-0.0938379 -0.0483252 -0.00302337)
(-0.0520487 -0.964139 -0.0830622)
(0.000217711 0.000242051 0.00241982)
(-0.197495 0.0802898 0.836927)
(0.00209237 -0.0170751 -0.0113641)
(-0.212097 0.0675719 0.903668)
(0.000454818 -0.000116892 -9.50657e-05)
(-1.20136e-05 0.00243705 0.00125085)
(-0.149548 0.146164 1.06842)
(0.000184175 -5.83927e-05 0.0040788)
(-0.0870939 -0.553705 0.15538)
(-0.0818694 0.236318 0.906361)
(-2.63265e-05 0.000566664 0.000127271)
(-0.446134 0.207529 0.61299)
(0.508512 -0.0689927 -0.879948)
(-0.29564 0.0770145 0.787357)
(0.00471807 -0.00157368 0.00630772)
(0.000158579 -0.000989137 0.00575935)
(-0.00451234 -0.00600733 -0.000269483)
(0.0150009 0.000432007 0.00881097)
(0.00129373 -0.00611776 -0.00260438)
(0.00109118 -0.000834107 -5.79208e-05)
(-4.06827e-05 -0.000587401 0.00561573)
(9.47709e-05 -0.00224927 0.00165592)
(0.00160481 -0.00178998 0.00659821)
(0.00127158 -0.00219397 0.00677555)
(-1.17405e-05 -0.000380112 -0.00241175)
(-0.206826 0.0273961 0.186975)
(-0.0279532 -0.0227559 0.0115213)
(-0.0169408 -0.0178541 0.00318259)
(-0.0423194 -0.056867 -0.0176532)
(0.000395911 -0.00147726 0.00671066)
(-0.000184668 -2.43621e-05 -0.00244801)
(0.00468362 -0.000638388 0.00226421)
(-0.000340053 0.00321293 0.00105268)
(0.000990844 -0.0007668 0.00777192)
(-0.00211906 -0.00860216 0.000771818)
(0.00184806 -0.00205945 -6.50293e-05)
(-0.000142032 -0.000801262 0.00250112)
(7.6442e-05 -0.00265901 0.00147521)
(-0.000156966 -0.000579844 -0.00250232)
(0.00106643 -0.00108338 0.00582594)
(-0.00021281 -0.00100238 0.00443079)
(0.0805262 -0.320436 -0.00549628)
(0.006177 -0.00177201 0.0118107)
(0.0763421 -0.497357 -0.0635847)
(-0.102318 -0.215429 0.514595)
(-0.0368133 -0.0598876 -0.00649034)
(0.00101735 -0.00133104 0.0106517)
(-0.00032723 0.000648577 -0.00347191)
(0.0917645 -0.463575 -0.104273)
(-0.000206426 -0.00229553 0.0110734)
(0.00254001 0.000139181 0.0121083)
(-0.0645534 -0.00367842 -0.00419464)
(-7.1786e-05 0.00160454 0.00350096)
(5.95875e-05 -0.00135131 0.00647852)
(-0.00571934 -0.00167229 0.0101156)
(0.00160575 -0.000386018 -1.07452e-05)
(0.0200569 -0.000709328 0.000798426)
(0.000141177 7.58322e-06 0.00591749)
(0.0966878 -0.0612348 -0.00230397)
(-0.0764732 -0.258511 0.012784)
(0.0585311 0.012667 -0.0322413)
(0.000978108 0.000317564 0.00454101)
(1.16052e-05 -0.000949537 0.006854)
(0.000500292 -0.000989546 0.00577133)
(7.45233e-05 -0.0014742 0.00839805)
(0.0292709 0.00183683 0.0363082)
(0.00315764 0.000520543 0.0101944)
(0.00133573 -0.00101189 0.0114165)
(0.00120568 1.27492e-05 0.0106524)
(-0.0397298 -0.069328 -0.0216014)
(-0.00766759 -0.00476826 -0.00611657)
(0.000160155 -0.00244439 0.00140345)
(0.000773978 -0.00200166 0.00339483)
(0.0233137 -0.000627451 -0.00289706)
(0.00268042 -0.000404626 0.0120496)
(0.0170596 0.0144142 -0.0147065)
(0.000128163 0.000225119 0.00346874)
(0.00919544 0.0313029 0.0203154)
(0.00196623 -0.000734326 0.00760962)
(0.000269753 -0.00105156 0.00843819)
(-7.77449e-05 -0.00983527 -0.00797901)
(-0.00145278 0.00179395 0.00401885)
(-0.000263242 -0.00132339 0.0062404)
(0.000436306 -0.000530639 0.00559597)
(0.000935661 -0.000236654 0.00930276)
(-0.000251491 0.00257911 -0.0038811)
(-0.109649 -0.0813784 0.48328)
(0.000494195 -0.000822386 0.00925378)
(0.000327091 -0.000150938 0.00586452)
(0.363056 -0.334503 -0.640314)
(-0.000622838 -0.00218855 0.00915735)
(0.0523695 0.00231098 -0.010824)
(-0.0139168 -0.0316001 -0.00101675)
(0.000471472 -0.00101215 0.00678803)
(0.00969406 -0.00372888 0.00121723)
(0.000703405 -0.00118512 0.00890894)
(0.00101716 -0.0162665 -0.0230153)
(-6.56426e-05 -0.00200646 -0.00142184)
(0.000592456 -0.0010235 0.00788739)
(0.00335071 -0.00127455 -0.0111238)
(0.00393642 -0.00485553 -0.00696654)
(-0.0218926 0.00838746 -0.063613)
(-0.00545168 0.000799006 -0.0785696)
(-0.0121659 -0.0283163 -0.00291912)
(0.00435886 -0.0169106 -0.00491367)
(-0.000995121 -0.00417677 -0.00574423)
(0.0648495 0.00337537 -0.114804)
(0.00014772 -0.0100713 -0.000946199)
(0.00145092 -0.00114297 0.0065024)
(0.117021 0.0212621 -0.118895)
(0.00407275 -0.016752 -0.00566543)
(0.000624535 0.00148238 -0.00603715)
(0.000438036 0.001432 0.00402247)
(0.0476153 0.0380918 -0.11285)
(0.00120485 -0.00445941 -0.000246291)
(-0.000378208 0.000174446 0.00617173)
(0.000332705 -0.000353935 0.00583743)
(-0.0110549 -0.0170146 -0.00168266)
(0.000888801 -0.00250717 0.00198595)
(-0.01321 -0.01276 -0.00175658)
(-0.0770549 -0.345328 -0.0183127)
(-0.000125565 5.78515e-05 0.00512661)
(-0.0900592 -0.0370053 -0.397835)
(-6.74198e-05 -0.000407749 0.00140838)
(-3.74281e-05 0.000104676 0.0037279)
(0.000440604 -0.00165939 0.0047946)
(0.0008636 -0.00147749 0.00599354)
(0.000252742 0.000299019 0.00413426)
(0.0480975 0.00842122 -0.111264)
(0.00055628 -0.00104379 0.00571084)
(0.000262176 -0.00171638 0.00482216)
(-0.00655367 -0.397476 0.209059)
(0.000159709 0.000757281 -0.00669652)
(-2.4208e-05 -0.577549 -0.0244285)
(-0.000296245 -9.27513e-05 0.00395421)
(-0.000245538 -0.00221314 0.00160543)
(-0.000452794 0.000462823 0.00597235)
(0.000513572 0.000538352 0.00242335)
(-0.00992467 -0.00838286 0.00322383)
(-0.202252 -0.0582158 0.49067)
(0.00141598 -0.00706161 -0.00811366)
(-0.00327419 -0.010771 -0.000935527)
(0.000515619 -0.000736357 0.00593533)
(0.00288792 0.00136842 0.0105946)
(-0.00310884 -0.0240439 -0.00618955)
(-0.0929324 0.0081172 0.0220218)
(-0.0120898 -0.967408 0.0285055)
(-0.000201006 -0.00245002 0.00238898)
(0.000328514 -0.000990108 0.00639288)
(-0.00585217 -0.0111324 -0.000437362)
(-0.00241248 -0.0104433 -0.00191288)
(0.00416691 -0.00158352 0.00791244)
(-0.00346078 -0.0217483 0.0050258)
(-0.67134 0.4672 1.76329)
(-0.0909986 -0.00102496 0.0354126)
(-0.080132 -0.619292 0.436035)
(-0.017812 -0.00739755 0.00152701)
(0.000277095 -0.00210261 0.00293563)
(-0.0798099 0.000249573 0.0189342)
(-0.0589966 0.33741 0.781417)
(0.0693918 -0.0506983 -0.079252)
(0.00956178 -0.00646588 0.00259141)
(0.000305763 -0.00201331 0.00272167)
(0.000421047 -0.0020729 0.00706481)
(0.000165743 -0.0007883 0.00984971)
(-0.000223892 -0.00013313 0.00296916)
(0.00942675 0.00253133 -0.00650627)
(-0.190165 -0.912965 -0.609412)
(-0.075929 0.0149948 0.0498013)
(0.00279236 -0.00183651 0.000968441)
(0.000227263 -0.000205571 -1.5285e-05)
(-0.0072626 -0.0106376 0.000540289)
(-1.32731e-05 0.000287864 0.00345928)
(0.00422582 -0.000903298 -0.0120467)
(0.000769427 -0.00186174 0.00841474)
(0.0525017 -0.116187 0.872038)
(-0.000398081 -0.000586778 0.00699246)
(0.00205465 4.67977e-05 0.00650581)
(0.000129042 0.000123064 0.00478926)
(0.00708121 -0.00632685 -0.0289027)
(-0.00816732 -0.045817 -0.00659751)
(0.00136068 -0.00143172 0.00946517)
(0.00299431 -0.00134235 0.00373084)
(0.0770061 0.00213499 0.982478)
(0.0180345 -0.00582533 -0.000840329)
(0.000946736 -0.00349973 -0.00011888)
(-0.0001296 0.000134087 0.00466553)
(-0.194457 -0.0848106 0.873572)
(-0.000321195 -0.000814911 0.0065171)
(0.0154667 -0.01451 -0.00293647)
(0.0052601 -0.000360693 0.00676009)
(-0.0963767 0.106071 0.105604)
(0.00607217 -0.000678913 0.00869828)
(-0.00298367 -0.0600978 -0.109551)
(0.00504877 -0.000267748 0.00853571)
(-0.0054485 -0.0175876 -0.00217649)
(0.00180242 -0.00138575 0.00817953)
(0.0373141 0.00109555 0.00446106)
(-0.00038747 0.000498517 0.00670564)
(-0.0312912 -1.3013 -0.245287)
(-9.42848e-05 -0.000637014 0.0041572)
(-0.0557515 0.0365698 -0.0347284)
(0.000504776 -0.00096618 0.00444626)
(0.0011278 -0.00209985 0.00321267)
(-0.079142 -0.498597 -1.40393)
(0.00718357 -0.0038316 -0.0147639)
(-3.96329e-05 0.00171454 0.00541503)
(0.00121321 -0.00104859 0.00690355)
(-0.0186683 -0.0279549 0.0529162)
(-1.76267 -1.17144 0.182833)
(0.0233613 0.00108936 0.00185585)
(-0.156023 -0.226343 0.785066)
(-0.000187259 -0.00786359 -0.00456013)
(-0.0547407 -0.095245 0.146921)
(-0.0635942 0.0763012 0.46412)
(0.0226633 0.00474911 0.00651349)
(-0.000105609 -0.00140476 -0.00107296)
(-5.30214e-05 5.61726e-05 0.00362059)
(2.62582 1.08054 -1.27682)
(0.0169693 0.0244665 -0.0329316)
(-0.0353356 -0.0278029 -0.0120371)
(-0.00104912 -0.00128473 0.000115844)
(-0.0339401 -0.0314983 -0.0188925)
(9.74578e-05 -0.000811813 0.00646038)
(-0.0137698 -0.00200556 0.0251207)
(0.000515557 -0.000545065 0.00582755)
(0.0329862 0.00383155 0.000378031)
(0.0103946 -0.00130891 0.00265399)
(-0.00971105 -0.097317 -0.00487804)
(0.00321482 0.00126415 -0.00854804)
(0.0265353 0.00156533 5.57225e-06)
(0.0240749 0.00100187 0.00217633)
(0.0112311 0.0230331 -0.0158364)
(-0.0431582 -0.818026 -0.302606)
(0.0221598 -0.122259 0.0682182)
(-0.11809 -0.00681977 0.000640723)
(0.00350307 0.000741487 -0.0104239)
(0.388638 0.049589 -0.0348485)
(0.112819 -0.274367 0.0601552)
(-0.191443 0.0245829 -0.054537)
(0.149778 -0.286863 0.0917161)
(0.00367868 -0.156231 0.103038)
(0.000333085 -0.00196036 -0.00101708)
(0.0131427 -0.0152417 -0.000714148)
(-0.000137309 -0.000758807 0.00624025)
(0.00038945 -0.00236261 6.40691e-05)
(-0.0104867 -0.000463145 0.00805299)
(0.00805115 -0.00359509 -0.000501953)
(0.0187642 9.80432e-05 -0.000601103)
(-0.0462833 -1.16335 -0.179712)
(-0.0592993 -0.672307 -0.118449)
(0.0181463 -0.00164502 -0.00252213)
(0.0140654 -0.0212443 -0.0102331)
(-0.044076 -0.0132586 -0.0197399)
(0.0966745 -0.0512986 0.0919486)
(0.184175 -0.192824 0.130536)
(0.00110792 0.0065588 0.00402317)
(-0.00776932 0.00379165 0.0689754)
(-0.0722557 -0.00278844 -0.000601017)
(0.000345212 -0.00216564 -0.000276826)
(-0.332613 -0.504418 -1.24721)
(0.0125441 -0.0132576 -0.0254446)
(0.125196 0.0774735 0.141452)
(-0.027735 -0.0667424 -0.020207)
(0.0239745 0.000244518 0.000597215)
(-0.0700292 -0.162143 -0.839762)
(0.0225782 -0.00111087 -0.00184135)
(-0.266041 0.15072 -0.483844)
(-0.0603218 -0.00249468 0.00202597)
(-0.0661359 -0.00956042 -0.00411542)
(-0.561477 0.795792 0.957568)
(0.013535 -0.0183019 -0.0116539)
(0.00137909 -0.00192041 0.00809868)
(-0.0373884 -0.0202371 -0.00469091)
(-0.00401641 -0.00213612 -0.000526654)
(0.000154998 -0.000729223 -0.00455822)
(-0.41431 1.65689 0.136391)
(-0.0242389 0.000983608 -0.00024464)
(-0.00304522 -1.22001 -0.609404)
(-0.0278153 -0.00539989 -0.00288539)
(0.306012 1.69475 -0.128326)
(-0.0347091 0.00153794 0.0112716)
(-0.00112129 0.000592826 0.00981584)
(0.00432236 -0.000553732 0.000292369)
(0.00420054 -0.000965852 0.000667703)
(0.0228321 -0.0157322 -0.00931732)
(-0.00045238 -5.50707e-05 0.00380653)
(-0.00367956 0.00196064 -0.00435668)
(-0.000950799 -0.0120659 -0.0018857)
(0.000668122 -0.000733918 0.00602285)
(0.00419316 -0.000852514 0.000239356)
(-0.0312728 -0.00307037 0.00854673)
(-0.0733385 -0.439844 -0.34252)
(1.4782 1.1254 -1.46974)
(0.000210136 -0.000615101 0.00394062)
(0.18036 1.75923 -0.363174)
(-8.22165e-05 -0.0019965 0.00509832)
(-0.032138 -0.0343838 0.000384387)
(0.0405958 -0.0655103 -0.048109)
(4.27117e-05 6.89221e-05 0.000562302)
(-0.0347234 -0.0223432 -0.00603841)
(0.00365942 -0.000660257 -0.0125637)
(0.0317702 0.00589087 -0.000261761)
(-0.0230862 -0.0502249 -0.0278308)
(0.0275133 0.0112056 -0.00455069)
(-0.00168608 -0.00197206 0.000472849)
(0.0271259 0.00556636 -0.00178932)
(-0.0458319 -0.0423664 -0.0059312)
(-0.0318169 -0.00352983 -0.00302767)
(-0.0358983 -0.0282499 0.143893)
(1.8324e-05 0.00188808 0.00411254)
(-0.0375027 -0.0440584 -0.0190974)
(0.0317913 0.00553298 0.000230993)
(0.0225862 0.00534956 -0.00202483)
(0.0289414 0.00564673 -0.00472305)
(0.00737144 -0.00192681 0.00184647)
(2.81528e-05 0.000553425 0.000943099)
(0.116215 -0.0156207 -0.00216738)
(0.00227455 -0.000451659 -0.000130673)
(0.00157081 -0.00181067 0.00974609)
(0.0186142 -0.00446173 -0.018933)
(0.0034947 0.000412566 0.00436053)
(0.0375357 0.0138491 -0.00736975)
(1.69854 2.84601 -1.38082)
(-0.00535375 -1.14726 -0.758062)
(0.0187223 -0.00729125 0.00605961)
(-0.0245823 -0.0226197 -0.00528404)
(0.0320358 -0.00882301 0.00191836)
(0.0289056 -0.00327294 -0.00277863)
(0.023101 -0.00746015 0.00164141)
(0.0167787 -0.0493497 -0.0208571)
(0.000298328 -0.00280332 0.00229884)
(0.00215339 -0.000509399 -0.000626334)
(0.00264058 -0.00046423 -0.000127357)
(0.0237452 -0.00304761 0.004203)
(0.00203708 -0.000238827 -0.000227104)
(-0.039456 -0.0332358 0.00460309)
(0.00288363 -0.000200937 0.000203816)
(0.0385232 0.000669793 -9.41165e-05)
(0.0241752 0.000897644 -0.0205052)
(0.00106813 -0.000325126 -0.00614384)
(0.0553873 0.007967 -0.00837417)
(0.00241534 -0.000828971 -0.000265247)
(0.0275217 -0.00952034 0.012791)
(0.00971074 -0.00382274 0.00796928)
(-0.131055 -0.0133285 -0.0120263)
(-0.0014048 -0.00825513 -0.000815841)
(0.0132465 -0.00231295 -0.013741)
(-0.0209443 -0.604417 -0.0781853)
(-0.000736766 0.00346557 0.00267464)
(0.00137561 -0.00143637 0.00787749)
(0.011485 -0.00462035 0.008139)
(0.132675 -0.177198 -0.099291)
(1.98758e-05 -0.0013938 0.00603147)
(-0.0376274 -0.249838 0.121128)
(-0.0166426 -0.201556 0.416131)
(0.00198363 -0.00592432 0.000146368)
(0.0120347 -0.00476252 0.00666489)
(-0.287816 0.391145 1.05935)
(0.031613 -0.897139 -0.016331)
(-0.00170743 -0.0114513 3.09839e-05)
(0.00051505 -0.000349701 0.0111822)
(-0.000199247 0.0645945 -0.0139349)
(0.0133448 -0.00304923 0.00615848)
(0.0109482 -0.00541146 0.00658481)
(-0.0161534 -0.0197185 -0.00352641)
(-0.00854964 0.00374503 0.00303831)
(-0.0298109 -0.0362793 0.000947307)
(8.02692e-05 -3.72527e-05 0.00208424)
(-0.000406879 -0.000540374 0.00649018)
(-0.129609 -0.00911652 -0.00765845)
(0.00028151 -0.0012529 0.00503631)
(-0.183397 -1.20442 -1.23392)
(0.000188468 -0.000271506 0.0054573)
(0.0019064 -0.00209597 0.00615868)
(0.168951 2.87934 -3.18088)
(0.0227539 -0.0013683 -0.00205535)
(0.404714 -1.03733 0.60839)
(-0.00539952 -0.0149574 -0.00209326)
(-0.0304311 0.0807468 0.898985)
(0.000246561 -0.000254757 0.00375761)
(-0.034535 -0.0306836 -0.00251988)
(0.0195602 0.000799325 -0.00261968)
(0.000556884 0.00622436 0.00231829)
(0.0105482 0.00120649 0.00695757)
(0.019996 -0.000667416 -7.56448e-05)
(0.000940727 -0.000697945 0.0058425)
(0.000633609 -0.00185181 0.00281069)
(0.000339795 -0.00331799 -0.000162133)
(0.00045048 -0.00137382 0.0059895)
(0.00107209 -0.00104606 0.0062428)
(0.00910825 0.00170418 0.0152249)
(-0.00205228 -0.0101932 -0.00123564)
(0.000193748 -0.00114463 0.00469392)
(-0.13188 -0.0237486 -0.0172658)
(0.000524734 -0.00119992 0.00544392)
(-0.13793 0.310224 -0.100482)
(0.000111197 -0.0016231 -0.00450144)
(0.00190176 -0.00280072 0.00243206)