/*--------------------------------*- C++ -*----------------------------------*\
| =========                 |                                                 |
| \\      /  F ield         | OpenFOAM: The Open Source CFD Toolbox           |
|  \\    /   O peration     | Version:  v2012                                 |
|   \\  /    A nd           | Website:  www.openfoam.com                      |
|    \\/     M anipulation  |                                                 |
\*---------------------------------------------------------------------------*/
FoamFile
{
    version     2.0;
    format      ascii;
    class       volScalarField;
    location    "4";
    object      alphat;
}
// * * * * * * * * * * * * * * * * * * * * * * * * * * * * * * * * * * * * * //

dimensions      [1 -1 -1 0 0 0 0];


internalField   nonuniform List<scalar> 
108993
(
0.000105556
9.67972e-05
8.4989e-05
0.000102908
0.000104999
5.52653e-05
0.000118943
8.26527e-05
0.000105309
9.63691e-05
0.000110646
0.000109446
8.73626e-05
8.66108e-05
9.25599e-05
7.89997e-05
9.00488e-05
9.36795e-05
8.79278e-05
9.43526e-05
9.33074e-05
0.000103605
8.27204e-05
0.000106023
0.000104928
9.36386e-05
0.000106546
0.000100894
0.000113559
6.53836e-05
0.000117307
0.000108433
0.000132735
0.00010781
0.000259875
0.000105126
9.36207e-05
0.000111481
0.0041995
0.00261744
0.000119458
0.000112816
9.53901e-05
0.000165654
9.50081e-05
0.00222802
0.000129538
0.000215411
0.000126737
0.000103044
0.000107198
0.000139022
9.88161e-05
0.000102744
0.000107966
0.000111536
0.000104756
9.79229e-05
8.15684e-05
0.000114294
0.000100762
0.000102975
9.90376e-05
8.84664e-05
0.000100497
0.000113591
0.000101614
0.000109033
0.000118415
0.00141882
9.70266e-05
9.43693e-05
0.000103608
0.000101027
9.25684e-05
0.000111984
8.97862e-05
0.0001209
0.000113456
0.000103756
9.43792e-05
8.9617e-05
8.69193e-05
0.00010061
0.000112764
9.33638e-05
0.000113346
9.07863e-05
9.5752e-05
0.000113336
9.83507e-05
8.41709e-05
0.00011092
8.63952e-05
0.000106829
0.000103318
8.31835e-05
7.17381e-05
8.15979e-05
8.80867e-05
0.000107656
0.00012327
0.000117922
0.00011266
7.77631e-05
0.000114593
0.000112601
0.000239878
0.000112845
0.00213846
9.43231e-05
9.90389e-05
0.000200811
0.000103729
0.000103701
0.00157044
8.89288e-05
8.27617e-05
0.000123122
0.000100542
9.80279e-05
9.4379e-05
0.00224343
6.64639e-05
0.000102731
0.000100208
0.000104539
8.99527e-05
8.73304e-05
0.000113704
9.11096e-05
0.000111255
0.000114943
0.000616293
0.000100187
8.34491e-05
9.52909e-05
8.81419e-05
8.85073e-05
9.47598e-05
8.55625e-05
8.25589e-05
0.000123878
9.72439e-05
0.000107514
0.000104219
8.2367e-05
0.00559489
9.5024e-05
0.000545598
0.000490704
8.10793e-05
8.19481e-05
0.000484717
0.000101311
9.7501e-05
0.00011998
0.000110551
0.000234532
0.000928631
0.000521588
0.000237357
0.000114828
9.51845e-05
9.571e-05
0.000111983
9.65122e-05
8.62711e-05
8.61902e-05
0.000116153
0.000107074
0.000106465
0.000128205
9.03074e-05
0.000103776
9.40882e-05
0.000665621
8.84982e-05
0.000108217
9.13819e-05
8.94592e-05
8.32904e-05
0.000105227
2.88782e-05
0.000118302
0.000102611
0.000109235
0.000102486
0.000102252
3.31892e-05
0.000102273
0.000119307
8.88102e-05
0.000195786
0.000108672
9.69767e-05
0.000115146
0.000103682
0.00011074
3.6996e-05
0.000108529
0.000205093
0.000102715
9.62218e-05
0.000159955
0.00288541
9.27174e-05
0.00236902
9.73383e-05
0.00228899
0.000617939
0.000105721
0.000614272
0.00474417
0.00533828
6.96085e-05
8.94692e-05
0.000101016
0.000102212
0.00012523
0.000101501
0.000466016
0.000188336
0.000317654
9.09526e-05
7.72372e-05
0.000102103
0.00011285
0.000281682
8.20679e-05
0.00353518
0.000102426
8.45236e-05
8.8102e-05
9.37952e-05
8.09892e-05
0.000106625
9.31274e-05
0.00247892
0.000104251
7.14157e-05
0.00010758
6.47381e-05
0.000112972
0.000120359
9.87113e-05
0.00492215
0.00121146
0.000115982
0.000111973
9.59846e-05
0.000105002
9.67107e-05
0.000107674
0.000108699
0.00011406
0.000106308
9.76704e-05
0.000119169
6.42699e-05
0.000100398
0.000100246
0.00011356
8.50819e-05
0.000159955
0.000100092
0.0001116
0.000118543
6.37989e-05
9.79242e-05
7.07439e-05
8.42782e-05
0.00762438
0.00228287
0.00359281
9.40275e-05
0.000108314
0.00343718
0.000111262
9.94386e-05
0.000106874
0.00166046
0.00137675
9.07455e-05
0.00010662
0.00010159
7.86275e-05
0.00010817
0.000115505
0.0034675
9.70247e-05
8.36674e-05
0.000111907
0.000105829
0.000102771
8.31765e-05
0.000117096
9.82001e-05
0.000173197
5.70348e-05
0.00159276
0.00109453
0.000108788
7.77963e-05
0.000104001
8.27449e-05
7.9129e-05
8.82016e-05
7.58861e-05
0.00810505
0.000109432
0.000109563
8.61408e-05
9.50505e-05
0.000111306
0.000445708
7.87361e-05
8.94735e-05
0.00355605
0.000119077
9.39428e-05
7.30963e-05
7.27112e-05
8.46306e-05
7.98096e-05
0.000522729
0.00242162
0.00129441
9.37177e-05
0.000114822
0.000122196
0.00108709
0.000919256
9.65392e-05
0.00599699
0.000103783
0.000101196
0.000106211
0.000103446
9.13851e-05
9.73493e-05
0.00098551
9.2004e-05
0.000106795
9.16747e-05
9.55816e-05
8.99702e-05
8.96031e-05
8.81988e-05
8.61278e-05
0.000104384
6.85007e-05
0.00131594
0.00304166
9.68572e-05
9.90902e-05
8.9661e-05
0.00177911
9.86817e-05
5.66722e-05
0.000122616
9.08722e-05
8.27357e-05
9.4719e-05
0.000105548
0.000109786
0.000107549
8.9897e-05
0.000101687
0.00243615
8.48116e-05
0.000107819
8.73548e-05
0.000374874
0.000125211
0.00268713
0.000111843
0.000136433
0.00286109
0.000107471
0.00213383
0.00092887
0.000112454
9.81899e-05
9.5559e-05
6.59031e-05
9.16185e-05
0.00191311
9.41953e-05
0.00330019
0.00411165
7.03078e-05
0.00205171
8.67415e-05
0.00516791
0.000140605
0.000988344
0.000101905
9.43625e-05
9.92108e-05
0.000137424
0.00573575
0.00424922
0.000101404
0.000105774
7.68876e-05
8.95339e-05
6.17137e-05
9.36783e-05
0.00257934
9.23076e-05
9.03063e-05
0.0027843
8.9003e-05
0.000102495
0.000113027
0.00110745
0.000165124
0.00269887
9.49725e-05
0.00209061
9.7163e-05
0.000776272
7.6326e-05
0.000108514
0.00139605
0.000105956
0.000695657
0.00216349
6.5118e-05
0.000915585
0.00441982
0.000946876
9.78392e-05
9.31179e-05
0.000101344
9.67542e-05
0.000104823
0.000113039
8.95648e-05
9.47421e-05
9.30429e-05
0.000115981
6.64838e-05
0.00297543
0.000114781
8.85031e-05
0.000119254
9.45997e-05
7.26701e-05
9.76059e-05
0.000100162
0.000109465
0.000130952
0.000121888
9.8433e-05
9.85235e-05
9.42615e-05
0.000119938
8.73742e-05
0.00116172
9.82889e-05
0.00190797
0.000372
0.000103317
7.47211e-05
9.17189e-05
0.0020704
7.05294e-05
8.75264e-05
0.000450787
0.000105992
0.000107024
9.57301e-05
0.000119629
0.000115256
8.36784e-05
0.000411733
0.00318203
0.000112314
8.95527e-05
0.000117874
0.000112666
0.000106854
0.000179452
8.88378e-05
8.6555e-05
8.58579e-05
0.00011571
0.000116077
9.95903e-05
0.00010973
0.000116389
9.09172e-05
9.85843e-05
6.71921e-05
0.000168465
0.000107579
7.54941e-05
9.74376e-05
8.69267e-05
9.99869e-05
7.7949e-05
0.000100198
0.000110302
0.00092382
9.44846e-05
8.6094e-05
0.00221077
9.77462e-05
0.000107907
9.41246e-05
0.000107629
0.000114264
9.89122e-05
0.000106848
8.42128e-05
9.87556e-05
0.00011792
0.000120758
0.000212118
0.00028766
0.000103691
0.000105904
0.000116307
0.000138399
9.91205e-05
0.000104836
0.000139869
0.000113449
8.91573e-05
9.24113e-05
0.000104268
9.09885e-05
0.00010815
0.000114383
9.1369e-05
0.000105148
0.000110285
0.00442629
9.22926e-05
0.00516121
9.75922e-05
0.000114257
0.000113604
9.59871e-05
7.86587e-05
0.000121763
0.000111888
7.8035e-05
0.00174107
8.3738e-05
0.00414712
0.000120965
0.000111078
9.35186e-05
0.000109784
0.000116173
0.00258103
8.52803e-05
0.000104445
0.000100799
9.63817e-05
0.000106671
0.0031286
0.00437898
0.000105369
8.2842e-05
0.00013385
0.000111303
0.000105213
7.56246e-05
0.000766892
0.00173685
0.000682711
0.000100235
0.000117616
0.00397242
0.00259174
0.000166763
0.000114605
9.11619e-05
0.000115843
0.000125322
0.000105671
9.32814e-05
0.00329929
0.00236548
0.000112601
7.23201e-05
0.000119955
7.42567e-05
9.91881e-05
9.74196e-05
0.00239581
9.12414e-05
0.000123824
8.21229e-05
0.000120903
0.000110724
0.00010384
0.000113662
0.00469852
8.77415e-05
8.52283e-05
7.59772e-05
0.0028223
9.48139e-05
9.79821e-05
0.000105193
0.000332556
0.000104681
0.000187534
9.63024e-05
0.000124093
9.5824e-05
0.000107893
9.91589e-05
0.00447035
8.72248e-05
0.000130587
9.84411e-05
0.000106035
0.00233973
0.000114173
0.000112278
0.000120583
0.000222392
0.00339177
0.000103896
0.00114186
9.82169e-05
0.000313783
0.000456536
9.66052e-05
8.417e-05
7.51736e-05
0.00355419
9.91251e-05
0.000110453
9.3799e-05
0.000109331
9.66676e-05
8.93641e-05
8.37977e-05
9.05737e-05
9.96078e-05
0.000164308
9.22092e-05
9.64632e-05
0.000102723
8.80564e-05
0.00590439
0.00171748
0.00133212
0.00012288
0.000252823
0.00158843
0.00266722
0.00183872
0.00130706
0.000101035
7.61405e-05
9.68241e-05
8.7495e-05
0.000174693
8.40702e-05
0.000111335
0.00639748
0.00347612
0.000119367
0.00012237
0.000117689
0.002276
0.00198646
0.000119927
0.000168139
0.000114647
0.000101035
0.00347521
9.48886e-05
0.00271437
0.000101766
0.000103987
0.00291613
0.000139093
0.00242426
0.000323785
8.40701e-05
0.0012363
9.38426e-05
9.89761e-05
0.000119578
8.05942e-05
0.000115991
0.00302224
0.000204394
0.0037075
7.92934e-05
0.00141059
0.00015859
0.000106438
5.74118e-05
6.50683e-05
0.000127281
6.75e-05
0.000105878
8.64847e-05
0.000104759
8.78973e-05
0.000103425
0.00354332
0.00398264
0.000110894
0.00198352
7.84276e-05
0.00015222
0.000110389
7.38037e-05
0.000109796
0.000119067
0.000105731
0.000139226
8.76574e-05
8.8265e-05
0.000105506
0.000118205
8.20518e-05
6.99415e-05
0.000106335
0.000100445
0.000101647
8.3368e-05
8.91711e-05
0.000107426
7.9362e-05
0.00380759
8.18843e-05
0.000104565
0.000126097
8.95617e-05
7.55852e-05
0.00352276
0.00332137
0.000110525
0.000114847
0.00012128
0.000132351
0.000107583
0.000148717
0.000108718
7.27953e-05
8.46685e-05
0.000126445
7.54093e-05
9.22907e-05
7.88944e-05
0.000141416
0.0001254
9.25859e-05
0.00010699
9.62321e-05
0.000130586
9.68018e-05
0.000309164
0.000111038
0.000120028
0.00456057
0.000110617
0.000105083
9.13842e-05
0.000574046
0.000103924
0.00106291
0.000534521
0.000122332
9.78378e-05
0.00148621
0.00331401
9.16538e-05
7.665e-05
0.000707952
0.00010643
9.66066e-05
9.9237e-05
0.000166009
0.000103845
7.84847e-05
0.000104909
0.000812798
9.97708e-05
0.00322618
9.86713e-05
9.66867e-05
0.00399128
0.000127116
0.00285064
0.000112051
0.00223177
0.000109715
9.05e-05
9.21765e-05
0.000111954
9.75335e-05
0.000105724
0.000109752
0.000105173
9.53532e-05
8.42101e-05
8.85105e-05
0.000112362
0.000102429
0.000102204
0.000366847
8.10891e-05
0.000588864
8.05437e-05
9.91334e-05
0.00139587
7.88441e-05
0.00112408
8.89689e-05
9.81694e-05
0.000106293
0.00244485
9.66083e-05
8.80967e-05
0.000310367
9.87815e-05
0.000124025
0.000157615
0.00190824
0.00011311
0.000127334
9.41288e-05
9.04945e-05
0.00011037
0.00117069
0.00375772
0.000136423
8.02516e-05
0.000115126
0.000681777
0.00012711
0.000101328
0.000129185
9.83995e-05
0.000109505
0.00226314
0.000102149
0.00165374
0.00010348
0.00269887
0.000107632
0.000104708
5.82046e-05
0.000106572
0.000102573
0.000128479
5.94353e-05
6.79905e-05
0.000938673
9.97042e-05
0.00227384
9.33827e-05
0.0001098
9.88718e-05
8.10569e-05
0.000111211
0.000113978
8.46555e-05
9.25399e-05
8.69626e-05
0.00211997
9.44506e-05
0.00010593
0.000111579
0.00216402
9.26391e-05
0.00037612
0.00145431
0.00268116
8.41482e-05
0.000110812
0.000106247
0.000673458
9.53674e-05
0.000905897
0.00316997
0.00426046
9.8277e-05
9.51897e-05
0.000165007
9.1481e-05
0.00013125
8.92518e-05
9.55988e-05
0.000104627
0.000337105
0.000127507
0.00016534
9.46088e-05
9.16439e-05
0.000688497
0.000114969
0.000100678
0.0010558
0.00164125
8.11965e-05
0.000113614
9.91602e-05
0.000103422
0.00013454
0.000142438
0.000710354
8.17048e-05
0.000897792
0.000140413
0.000118928
0.000119604
7.83616e-05
0.000111664
9.18494e-05
0.000113077
0.000144586
0.000114585
7.82928e-05
0.000146895
9.88369e-05
7.55247e-05
0.000210261
8.00887e-05
8.50479e-05
0.000110255
0.000131018
8.62196e-05
9.23691e-05
0.00122254
0.000107137
0.00412077
9.59609e-05
9.51852e-05
9.7708e-05
0.000125363
0.000115198
8.11123e-05
7.42452e-05
0.000583255
0.000116541
0.000643444
0.000101819
0.000106317
0.000202221
0.00186353
9.23236e-05
0.000392181
0.00663947
9.37405e-05
9.25021e-05
0.000105682
9.00212e-05
8.9968e-05
0.00439089
0.000119926
0.000183028
0.000155581
0.00010981
0.000104143
9.88189e-05
9.34926e-05
0.000142914
0.000534827
7.30697e-05
9.79826e-05
7.73621e-05
0.000220907
9.32313e-05
0.000105491
0.000107478
0.000193929
8.88945e-05
8.71775e-05
9.00975e-05
7.62404e-05
9.237e-05
0.000102829
0.000103036
0.000396009
0.000112627
0.000103172
8.97377e-05
0.000110842
0.00343394
8.2879e-05
8.79594e-05
9.70546e-05
9.55006e-05
7.37926e-05
0.00276983
0.000542
0.000122668
8.1979e-05
9.35082e-05
0.00011589
0.000161012
0.000136864
9.69557e-05
8.72771e-05
0.00195568
8.86643e-05
0.000243897
0.000130374
0.00380265
5.27615e-05
0.000101728
0.000102016
8.89162e-05
0.00010348
0.000101709
7.09886e-05
7.39781e-05
9.15236e-05
9.73948e-05
0.00136696
0.000110158
0.000113481
0.00020331
9.52131e-05
0.000120591
0.000132482
0.000114849
0.000110357
0.000107364
0.00010933
0.0001183
0.000148245
0.000106137
0.000128873
0.000112722
0.00330203
8.20979e-05
0.000107997
0.000103199
0.000203896
0.000125434
0.000101038
0.00172214
0.000114013
0.000133868
9.0869e-05
0.00248033
9.25821e-05
0.000112459
0.000101697
0.00119926
0.00010137
9.87975e-05
8.83317e-05
7.55547e-05
0.000124677
0.0029665
0.000110402
9.76216e-05
0.000120308
0.000125819
0.000148123
9.22147e-05
0.000111353
0.00013743
0.000386316
0.000121786
0.00085295
0.000157508
0.000136072
0.000121372
7.51285e-05
6.2894e-05
9.43924e-05
7.87431e-05
9.07014e-05
0.000109124
0.000909207
8.19537e-05
0.00363638
0.000110428
0.00010939
8.22444e-05
0.00011416
0.000309754
8.17422e-05
0.000100066
0.000111243
0.000107479
6.66335e-05
0.000127362
0.00205828
0.000151634
0.000102915
0.000720835
0.000100651
0.00014576
0.000130365
0.000178922
9.27807e-05
0.000116935
0.00161225
7.86683e-05
8.49467e-05
0.000109999
8.03114e-05
0.00011412
9.41015e-05
6.1858e-05
0.000272647
0.000116294
0.000136625
7.40699e-05
0.000103222
0.000115828
9.32194e-05
9.12733e-05
9.84207e-05
6.59661e-05
8.99717e-05
0.000363294
0.000108174
0.00051355
8.95836e-05
0.000106369
0.00344068
9.78861e-05
9.73038e-05
9.54258e-05
0.000105773
9.23871e-05
0.000108597
6.89347e-05
0.00010182
0.000116937
0.000132241
0.000107074
0.000110334
0.000120163
7.90436e-05
0.000104796
0.000122389
0.00209904
0.00189737
0.000106781
0.000102485
0.000108682
0.000120541
8.47946e-05
9.86091e-05
0.00119631
9.66174e-05
8.72853e-05
6.59202e-05
0.000110457
7.28133e-05
8.69567e-05
0.000125051
0.000123169
0.00221328
9.01518e-05
9.29898e-05
9.45627e-05
0.00328092
0.000121915
9.72901e-05
6.76743e-05
8.13009e-05
0.000200098
0.000109525
0.000175381
7.24144e-05
6.993e-05
7.72377e-05
0.00196799
0.000129344
9.54891e-05
0.000216031
0.0001215
0.000505751
0.00018054
8.69074e-05
0.000104689
7.6408e-05
8.82184e-05
7.41799e-05
0.000119613
9.32876e-05
0.000382915
0.00136152
0.000148081
9.78528e-05
9.347e-05
0.000204202
7.44767e-05
0.000106699
6.68577e-05
8.53723e-05
9.49203e-05
0.000446717
0.000178171
0.0030386
0.000107193
8.4648e-05
0.00010186
0.000469479
0.000123697
9.76115e-05
9.27808e-05
0.000143728
0.000108289
0.00351834
0.000528089
9.93788e-05
0.000823564
0.000104846
9.64224e-05
9.8521e-05
0.000116083
0.00015877
0.00108339
0.000108861
9.58626e-05
0.000105995
0.00458572
0.000128898
9.99289e-05
9.32409e-05
0.00013651
0.000757591
0.00340912
0.000126759
0.000118427
0.000101463
0.000195831
9.86662e-05
0.000128741
0.00011828
0.000119142
0.000108223
0.00214721
0.000106784
9.38474e-05
0.00347229
8.50845e-05
0.000106364
0.000110678
0.000108987
0.00220106
0.000107022
0.000103962
6.95153e-05
0.00160305
0.00075144
0.00010774
9.70288e-05
0.000120165
0.000110738
0.00475644
0.00662223
0.00615988
0.000376896
0.00762725
0.000115247
0.00485717
0.00554905
6.70165e-05
7.50196e-05
9.47472e-05
8.96178e-05
0.000117281
0.000107483
8.90203e-05
8.16484e-05
9.05319e-05
9.81336e-05
9.40163e-05
0.000125405
0.000116564
0.000121839
0.000399193
0.000128539
0.000331656
0.000402594
0.000101724
0.000104095
0.000919923
0.000263018
0.00108306
0.000100835
0.000104625
9.16244e-05
0.000100549
0.000102729
0.000100022
7.99218e-05
0.000100847
0.000306577
0.000102211
0.000116429
0.000162024
0.000130781
0.00165571
0.000115994
0.000103614
0.000129267
9.45227e-05
0.000110723
0.000114328
9.98562e-05
8.35337e-05
0.000100176
0.000112953
9.32057e-05
9.84168e-05
0.000122063
7.65961e-05
9.61337e-05
9.91824e-05
0.000622132
0.000133312
0.00100646
0.0023037
0.000104875
0.00300622
9.62534e-05
0.000112549
0.000113924
8.33889e-05
0.00010872
0.00331796
0.00202346
0.000103584
9.1877e-05
0.00271352
0.000177119
9.85455e-05
0.000110434
0.000103798
0.000118726
0.000119567
0.000126995
0.000471567
0.0001145
9.82913e-05
8.85308e-05
0.000110588
0.000113672
0.00020881
0.000203333
0.00383749
0.00342906
0.000122336
0.000105267
0.000553029
9.37731e-05
7.84331e-05
0.000123542
0.000119439
9.97855e-05
0.00010433
8.83366e-05
0.000124921
0.000109669
0.00232266
9.51827e-05
9.33222e-05
0.000458896
0.000174982
8.67356e-05
0.000114975
0.000924588
9.18693e-05
9.93864e-05
0.00011724
9.61661e-05
8.26812e-05
8.74505e-05
0.000110995
9.3648e-05
0.000236554
0.00259637
0.000146866
0.000130403
0.0026797
7.41035e-05
0.000102395
0.00216894
7.71069e-05
9.763e-05
8.78241e-05
0.000131964
0.00352703
0.000113071
0.000103764
0.000601452
8.90122e-05
0.0027951
8.69996e-05
0.00374036
7.62964e-05
6.13936e-05
0.00307527
0.000153896
7.14397e-05
0.00159044
0.000104048
0.000105564
0.000107228
6.49736e-05
0.000113189
0.000116107
0.0029329
0.000100265
9.05337e-05
0.00205655
9.14921e-05
0.000835098
0.00287812
0.000938602
0.000120816
0.00225198
8.73167e-05
0.00197145
0.00011824
8.87386e-05
9.3345e-05
8.59252e-05
9.6241e-05
0.000111641
0.000101622
8.17694e-05
0.00274453
0.0024356
0.00027293
0.00271851
7.66667e-05
9.11003e-05
9.82612e-05
7.57858e-05
8.60126e-05
0.000114373
0.0033477
0.000672502
0.000116098
9.28874e-05
0.000124021
0.000110846
0.000140057
9.03364e-05
9.04897e-05
9.48539e-05
9.53993e-05
0.000101356
0.000280604
0.00533589
0.000102176
0.00231027
0.000349938
0.000107727
8.75853e-05
0.00307635
8.91282e-05
9.22409e-05
8.75198e-05
0.00245344
0.003323
0.00405964
0.00159349
9.4402e-05
0.000109477
0.00397091
9.83953e-05
0.000387874
0.000104257
8.43019e-05
9.83246e-05
9.6164e-05
0.000326336
0.000100525
0.000486174
0.00172202
0.000164401
0.000419704
0.000421669
9.51757e-05
8.95789e-05
0.000128709
0.000112225
0.000107224
0.000117376
8.88746e-05
9.57817e-05
0.000101283
0.000127706
0.000118915
0.000106563
0.00115298
0.00082038
0.000592139
0.000112479
0.000115563
0.00303982
0.00171951
0.000109907
0.00262192
9.25141e-05
0.000116644
0.00354658
0.00206201
0.00318009
0.00152583
8.48179e-05
0.00306858
0.00415776
0.00117483
9.86541e-05
0.00210403
0.00464744
0.00315381
0.00295981
8.1211e-05
0.00286442
0.00248239
0.000170774
0.00443176
0.0025909
0.00462856
0.000228876
0.000806612
9.39475e-05
9.81856e-05
0.00323863
0.00351258
0.00263756
0.000126738
0.00010266
0.0046206
7.68126e-05
9.80646e-05
0.00223142
0.000115013
0.00334008
0.000294606
9.07015e-05
0.000100276
6.69696e-05
6.2806e-05
0.000325141
0.00173341
0.00181238
0.00296871
0.00291781
9.81111e-05
0.000252257
7.88569e-05
0.000102539
7.00172e-05
9.75382e-05
0.000115022
9.52618e-05
0.000119757
9.5651e-05
0.000102663
9.75603e-05
6.66279e-05
0.000115949
0.00312519
9.37285e-05
0.000153487
0.00261972
7.42248e-05
7.22913e-05
0.00123488
6.33923e-05
9.28827e-05
8.47005e-05
9.90646e-05
0.000120296
0.000101492
0.00229313
0.000654525
0.000165373
0.00107633
0.00293065
0.000238268
9.78101e-05
0.002807
0.000742489
9.83351e-05
0.001372
0.00012759
0.000174524
0.00010985
0.000469278
0.000107068
0.00315409
7.06429e-05
0.000119108
9.98161e-05
9.46867e-05
0.00118743
0.000105714
0.00248629
9.04998e-05
0.00109998
0.000757822
6.63709e-05
0.00020882
0.00313713
0.00113694
0.0025177
0.00102101
5.62951e-05
0.00187444
0.00346416
0.000107317
0.000120572
0.000141813
0.000107509
0.00332504
9.8807e-05
0.00325023
0.00053971
0.00337433
0.00260603
0.00233437
0.00491325
0.00169338
9.56453e-05
0.00511797
0.00299192
0.000119404
0.00189789
7.93481e-05
0.000232739
0.00193174
9.72482e-05
0.00232779
9.42096e-05
9.83427e-05
0.000103889
9.11918e-05
0.00142897
8.7946e-05
0.000109035
0.000100884
6.48149e-05
8.07835e-05
7.81744e-05
9.40186e-05
9.39023e-05
0.00521988
0.00155519
9.5741e-05
0.00148949
0.000255417
0.000104458
8.90912e-05
0.00182074
0.00388193
0.000204616
0.000127393
0.00466861
0.000467696
0.00343967
0.000247399
8.46176e-05
0.00181231
0.000112104
9.85081e-05
8.25177e-05
0.00333236
7.29717e-05
0.0012261
0.000568447
0.000336944
0.000967182
0.00236806
6.54359e-05
0.00252429
9.99338e-05
7.08959e-05
8.95333e-05
0.000124222
7.52304e-05
0.000110782
8.9522e-05
0.00196312
0.000854486
0.00524835
7.52383e-05
0.00727491
8.80685e-05
0.00207697
0.000131004
0.000374637
0.000919426
0.000588652
8.517e-05
0.000171461
0.000100572
9.83963e-05
0.000119745
0.000115297
0.000266314
0.000984649
9.6681e-05
0.00284983
0.00282643
9.85327e-05
0.00193899
0.00226459
0.00514549
0.00166968
9.92941e-05
0.000406579
0.00110987
0.000102416
7.74997e-05
0.000710581
0.00556688
7.95046e-05
9.42712e-05
7.90919e-05
0.000117016
8.23704e-05
0.00113396
0.00125171
0.00176916
0.00106696
0.000108827
0.00224583
0.000137187
9.02127e-05
0.000102282
6.70396e-05
7.11725e-05
0.00122241
0.000247529
0.000103803
0.00103551
0.000111557
0.000112189
6.98064e-05
0.00012261
0.00020238
0.000109105
0.00111202
8.58777e-05
0.00010281
0.0011591
0.000453977
0.00232435
9.33631e-05
0.000122987
9.61866e-05
0.000105851
0.000110732
0.000109002
0.00151776
0.00480517
0.000106667
9.43921e-05
0.00462021
0.000101539
9.55387e-05
9.76298e-05
0.000104506
0.000462308
0.00310814
0.0043502
0.000747053
0.00294946
0.000104128
0.00290825
0.000113594
0.00882693
0.00420447
0.000104154
0.00747741
9.80073e-05
0.000104665
0.00294008
0.000121648
9.36268e-05
0.0036521
0.00888369
0.00504201
0.00455082
9.84857e-05
0.00078583
0.00254314
0.00906047
0.00010904
0.000127241
0.00523499
0.00546224
0.00397074
0.00262655
0.000197271
0.000102149
0.000721396
0.00501557
0.00336577
0.00166991
0.000230512
0.00398432
0.000104697
0.000123809
0.00367879
0.00312042
0.000720361
0.000393481
0.00249434
0.000502181
0.00346161
0.000103082
0.00421611
0.000101292
0.00265314
0.000108953
0.00121364
0.00189094
9.80006e-05
0.00417296
9.43934e-05
0.00320101
0.00368875
8.85214e-05
0.0001018
0.00423022
9.78716e-05
9.38483e-05
0.000104438
5.43292e-05
0.00500526
0.000101592
0.00389097
0.0017495
0.00012306
8.08572e-05
0.00299928
0.00012355
6.37244e-05
0.00367539
6.19731e-05
8.28176e-05
0.000112911
0.000109634
0.00429052
0.00318361
0.00280946
0.000126565
0.000108201
0.00486168
0.000113199
0.00131059
0.00250941
0.000130442
6.3334e-05
0.000130245
0.000173752
0.0026207
7.62585e-05
9.13462e-05
7.0142e-05
0.000239055
0.000107595
0.00699023
0.00156735
0.000112678
9.01432e-05
0.00129227
0.00010833
9.66695e-05
7.223e-05
0.00155923
8.8762e-05
0.00144268
0.00980779
9.75564e-05
0.000103263
0.000124745
7.79965e-05
0.0025082
7.5228e-05
0.00192137
0.000129337
0.000118245
9.92819e-05
0.000287062
9.35006e-05
0.00011897
9.51905e-05
0.00286896
9.47967e-05
7.248e-05
9.00792e-05
0.000100285
9.17079e-05
0.00227576
0.00200748
8.28096e-05
8.72732e-05
0.00516458
7.23818e-05
0.00322947
0.000132695
7.05458e-05
0.00495046
0.00359131
0.00581428
0.000109687
0.00010905
0.00028908
0.00556217
9.33135e-05
0.00423495
8.3933e-05
0.00282891
0.00298637
9.39998e-05
0.00145575
0.00383067
0.00462728
0.00443622
0.00450457
9.21874e-05
0.000104886
7.91183e-05
0.000148136
0.00056978
0.000100532
0.00235781
9.9956e-05
0.000128392
9.56906e-05
0.000169346
0.00618881
0.00393259
0.000107546
9.56748e-05
0.00339898
8.08789e-05
0.00203985
0.000117825
8.87012e-05
9.33865e-05
0.00422895
0.00187343
0.00228737
9.84617e-05
0.000113917
0.000122993
0.00418038
9.47436e-05
0.00425415
7.96099e-05
9.00352e-05
0.00207692
0.00243346
7.52829e-05
0.000104509
0.00559623
9.37904e-05
0.000108644
0.000254337
0.00498533
9.454e-05
0.000814195
8.88423e-05
0.00277207
0.00330819
0.00145646
0.000598026
9.01802e-05
0.000439792
0.000290116
0.00236585
0.00461966
0.00496135
0.000862865
0.000556278
0.000886655
0.00188928
7.43138e-05
0.00139855
0.00256
0.00353996
9.06565e-05
0.000343276
0.00175819
7.69669e-05
0.00290459
0.00073644
0.00010015
0.00120445
7.35007e-05
0.00365648
0.003293
0.000778834
0.00250208
0.00255914
9.97751e-05
7.71045e-05
0.000111899
0.000130159
0.00394834
9.41013e-05
0.00248029
0.00391731
8.49368e-05
8.84011e-05
8.3385e-05
9.72357e-05
6.94561e-05
0.000119115
0.000150006
9.99796e-05
0.0034253
9.80032e-05
0.00205368
8.07402e-05
0.000320605
9.31949e-05
9.53395e-05
0.00109034
7.4588e-05
8.01027e-05
0.000122294
8.0854e-05
7.60424e-05
0.00451655
0.00516072
0.0008148
0.000144798
9.86031e-05
9.74018e-05
9.51798e-05
8.72622e-05
0.00011597
9.56227e-05
0.000115613
9.62089e-05
9.88499e-05
0.00465603
8.59329e-05
0.000100792
9.7259e-05
0.00010353
0.000132704
0.000119234
0.000120351
9.69739e-05
0.000112324
0.00436478
9.00145e-05
0.000574211
0.000148141
0.00012892
0.000340076
0.00030373
0.000124545
0.000117004
0.000112958
0.000109004
0.000105497
9.15108e-05
0.000105096
0.00017602
0.000124378
0.000113224
0.000103742
8.92422e-05
0.00049634
0.000115572
0.00183548
0.000106887
0.000142915
0.000103453
0.000109109
0.000210645
0.000133863
9.81157e-05
0.000126138
8.70459e-05
8.7216e-05
0.00125394
0.0019149
0.000104661
0.00316704
0.00209947
8.32123e-05
8.89208e-05
0.000250366
0.000485046
0.0016959
9.35915e-05
0.000117189
0.000165359
0.000106314
0.00192544
9.17448e-05
0.000104919
0.00010743
8.19107e-05
0.000135718
8.52405e-05
9.36841e-05
0.000108302
6.4691e-05
0.00250203
7.68675e-05
8.10528e-05
0.000109466
7.47932e-05
0.000102253
0.00095513
0.000122303
0.000157373
0.00462772
0.0031719
0.000103091
6.28338e-05
7.61923e-05
9.25644e-05
0.000109042
0.000105162
0.000113355
0.000179309
0.000132413
9.49683e-05
0.000103854
0.00010653
9.12226e-05
9.34124e-05
0.000109081
8.88465e-05
0.00179409
0.00011522
0.00518239
9.82588e-05
0.000234296
6.86737e-05
0.000105192
0.00267628
6.9014e-05
9.01191e-05
0.00379762
6.65999e-05
0.00201004
8.68413e-05
6.89936e-05
0.0001127
0.00341928
0.00063211
0.000422798
0.00126243
9.90275e-05
0.00123374
0.000830319
0.000101248
0.000282999
0.000110125
0.000279394
0.000239561
0.000109975
0.000708007
0.00127467
0.00144205
0.000107718
0.00105857
0.00123283
0.000117669
0.000100968
0.000440921
0.000104944
9.88534e-05
9.80524e-05
0.000111785
0.000330602
0.000124467
0.00010859
8.50693e-05
0.000114752
0.000122452
0.000117196
0.000106577
0.00430304
0.000107417
0.000137084
0.000131435
7.9369e-05
9.42567e-05
9.96764e-05
0.000100193
0.000101099
0.000101026
0.000109241
0.000102188
8.85038e-05
0.000107693
0.000127389
0.000137687
0.000100762
8.78006e-05
0.000108786
0.000554028
8.76085e-05
0.000124489
0.00272397
6.8331e-05
0.000100173
0.000123803
8.83583e-05
9.81435e-05
0.000110105
5.9532e-05
9.15178e-05
0.000107799
0.000112377
9.82823e-05
0.000126633
0.000122437
6.30941e-05
0.000133272
0.000187563
6.10753e-05
8.96296e-05
0.000254034
6.67394e-05
9.79758e-05
0.000138661
0.000112522
0.000441264
0.0021414
9.12015e-05
7.29191e-05
0.000248715
0.00349642
0.00134422
0.000119771
0.00010266
6.28956e-05
0.000105724
0.000107468
0.000125552
9.62094e-05
9.77656e-05
9.98092e-05
0.00428941
6.71002e-05
0.000105211
9.82112e-05
0.00229459
0.00275279
0.000134557
0.00215635
0.000302918
9.07755e-05
9.83685e-05
9.69513e-05
0.000183857
9.36099e-05
0.000745801
8.89985e-05
0.000105336
0.00632037
0.00250124
0.000119807
9.88525e-05
0.00252857
8.74996e-05
0.00245142
0.000120372
8.9547e-05
0.000119581
9.81095e-05
0.00173547
0.000112556
0.00174043
0.000107425
9.21408e-05
0.0019007
0.000104362
9.89078e-05
0.000148498
0.00206148
0.000108913
0.000104519
0.00190705
8.39353e-05
0.000107901
0.00190217
0.00132779
0.00010073
0.00012136
0.00173134
0.000405605
0.00118044
0.00373689
0.000127032
0.000112118
6.97761e-05
0.000129614
9.40634e-05
0.00218695
0.000113342
0.000100364
0.000108929
0.0021725
0.000104196
0.000104415
0.000101413
0.000113456
0.000102907
0.00017203
0.00247087
0.00132161
0.000121953
0.00181783
0.00214047
0.00140252
9.11176e-05
0.000107729
0.0044575
0.00015264
0.0024311
0.000110047
0.000155626
9.70872e-05
0.00253349
5.38783e-05
6.06866e-05
9.67742e-05
7.5831e-05
0.00359295
8.6893e-05
0.000238015
0.00216025
0.00166993
0.000102313
9.97579e-05
0.000120052
0.000111708
0.000102439
0.000108861
0.000265911
9.2157e-05
0.00138929
0.000124742
0.000197199
0.0016499
0.000440968
0.000118128
0.00340259
0.00384949
0.00010847
0.000167564
0.000564232
0.000108001
0.00312959
8.98035e-05
0.00343811
8.51192e-05
0.000124428
0.00703735
0.00284166
0.000100439
8.91955e-05
0.00382224
0.00309234
8.96202e-05
9.77169e-05
0.0026393
9.13886e-05
0.000100633
9.51843e-05
0.00372909
0.000103748
9.34784e-05
0.00204811
0.000107917
0.00011286
0.00125136
0.000120975
0.00156141
9.42051e-05
0.000513854
0.00590964
0.00222845
9.95709e-05
9.09026e-05
8.93659e-05
0.00272895
9.726e-05
0.000471239
0.000116251
0.00221746
0.00158542
0.000103433
7.67498e-05
0.000605036
0.00394814
0.00341175
0.00108561
0.00230764
9.85316e-05
0.000103752
0.000102116
0.000127094
0.00012144
8.07806e-05
9.58222e-05
0.000107195
8.33109e-05
7.71713e-05
0.000108618
0.00310301
0.000124668
8.53985e-05
0.000100235
0.000115637
9.08457e-05
9.37175e-05
0.00450916
0.000107487
0.000105981
0.000111175
7.39738e-05
0.000117069
0.000106967
0.000123655
6.47957e-05
0.000101101
0.000136105
0.00494761
6.67826e-05
0.000770123
0.000584799
0.00339392
6.43711e-05
0.000145124
0.00415566
6.1984e-05
0.00010119
0.00418063
8.79638e-05
0.000127266
6.68715e-05
9.10969e-05
0.000104139
0.000103298
6.33325e-05
0.000108335
9.30909e-05
9.22105e-05
7.40743e-05
0.00148633
6.0855e-05
0.000142649
6.28501e-05
0.0001243
0.000104858
9.12979e-05
8.41961e-05
0.00347602
0.000109012
7.43588e-05
7.52996e-05
8.43207e-05
7.90757e-05
0.000101762
6.51211e-05
0.00238168
0.00545295
9.14175e-05
0.00307717
9.54589e-05
0.000106364
8.14009e-05
0.000343168
9.81492e-05
0.000104946
0.000329784
0.000100228
8.85388e-05
0.00230656
6.65972e-05
0.00188446
0.00185647