/*--------------------------------*- C++ -*----------------------------------*\
| =========                 |                                                 |
| \\      /  F ield         | OpenFOAM: The Open Source CFD Toolbox           |
|  \\    /   O peration     | Version:  v2012                                 |
|   \\  /    A nd           | Website:  www.openfoam.com                      |
|    \\/     M anipulation  |                                                 |
\*---------------------------------------------------------------------------*/
FoamFile
{
    version     2.0;
    format      ascii;
    class       volScalarField;
    location    "4";
    object      CH4;
}
// * * * * * * * * * * * * * * * * * * * * * * * * * * * * * * * * * * * * * //

dimensions      [0 0 0 0 0 0 0];


internalField   nonuniform List<scalar> 
108993
(
4.57805e-59
8.65801e-30
5.48054e-52
9.60469e-146
9.17656e-139
1.63688e-116
1.07479e-19
0
1.09717e-109
4.54635e-62
1.03617e-88
7.02129e-95
1.6088e-145
0
1.32603e-99
2.93562e-22
9.11256e-56
5.38331e-98
2.61521e-139
3.03761e-57
1.32839e-139
1.9957e-125
9.97254e-77
0
5.02673e-149
0
0
4.08546e-63
1.47828e-64
7.33449e-102
8.13717e-122
0
0
7.34e-43
0
9.43865e-131
1.92261e-129
1.03885e-123
1.32884e-05
2.69948e-06
6.4565e-58
5.52526e-106
0
9.29791e-150
4.13511e-28
4.7273e-06
3.76825e-131
1.10312e-22
0
8.50171e-75
0
3.85886e-14
2.7383e-34
2.26329e-137
2.98881e-88
4.82308e-82
0
0
5.90119e-119
0
1.29422e-118
1.34251e-116
1.50339e-100
2.37168e-134
2.77584e-138
1.29825e-75
0
4.91405e-129
0
2.40419e-09
5.74077e-107
2.25038e-134
6.02861e-130
3.90884e-133
8.60651e-58
1.85397e-113
2.51306e-134
6.96545e-43
4.35781e-137
1.02764e-145
6.4103e-79
0
0
3.28793e-105
3.82183e-97
6.63005e-100
2.13807e-94
7.37673e-90
8.94136e-133
0
4.43833e-132
2.3446e-122
2.77999e-135
0
0
4.05386e-82
3.22597e-122
1.40289e-101
0
6.73175e-128
0
0
1.7546e-101
0
0
6.84032e-134
6.2688e-96
1.50899e-130
1.49187e-144
3.37585e-06
2.51592e-40
2.679e-131
0
7.08429e-27
0
7.50141e-14
0
4.84598e-78
2.78844e-21
1.20408e-122
1.50039e-88
1.99035e-112
7.1876e-13
4.55595e-65
7.21767e-129
1.69234e-35
2.48201e-53
4.64991e-70
1.04861e-113
1.33608e-117
3.01733e-76
1.84245e-116
2.48485e-107
5.81662e-13
6.1921e-117
2.36796e-66
5.24845e-112
0
8.86973e-99
2.11986e-91
7.14961e-65
5.27554e-117
2.04888e-24
1.71516e-114
4.51881e-116
5.76716e-129
4.08412e-105
1.09148e-05
1.50659e-63
8.19868e-10
4.9952e-10
0
8.2139e-52
5.65535e-10
0
5.75832e-39
4.68929e-76
1.66124e-131
1.19238e-128
2.65905e-09
5.19327e-10
1.21994e-131
8.89646e-122
0
0
1.85213e-21
1.68973e-139
0
3.55319e-132
2.40972e-106
7.40879e-140
2.35088e-90
0
0
0
2.13633e-88
2.34642e-12
1.31213e-132
9.81117e-91
2.02709e-129
2.13178e-60
2.14318e-119
2.2724e-131
4.70312e-68
1.21467e-83
0
0
0
0
5.05728e-67
4.0873e-98
1.95993e-131
3.6357e-105
0
1.5937e-111
1.44464e-49
3.20726e-55
7.17896e-110
7.49958e-112
2.19205e-68
2.83334e-133
3.29774e-15
2.98655e-131
3.29564e-126
1.17218e-13
9.47488e-13
2.24209e-85
1.85159e-06
2.05213e-94
0
2.10591e-09
5.76003e-120
1.77068e-11
9.05138e-07
0.000122341
1.06167e-116
7.16735e-89
4.58141e-84
7.24876e-130
6.44042e-116
4.66232e-86
7.05332e-10
1.26623e-34
4.71479e-15
0
1.00673e-131
3.39046e-131
5.10476e-74
1.88915e-11
2.00947e-91
1.15205e-08
2.61129e-96
3.3131e-131
0
0
0
1.7264e-121
2.1176e-116
6.29335e-08
0
5.0065e-127
8.18059e-85
0
0
1.11086e-121
2.03648e-22
1.0422e-06
1.23173e-10
3.32628e-126
8.04207e-125
7.92342e-115
4.90868e-133
1.0587e-102
7.4726e-110
7.10974e-129
5.34653e-128
4.04377e-127
2.31045e-72
8.92001e-115
1.13893e-119
2.27927e-79
0
7.04427e-37
4.97248e-33
0
1.09124e-76
1.61132e-79
1.5725e-70
0
6.00506e-97
1.44019e-147
5.66343e-58
3.11306e-07
8.0759e-06
1.47798e-05
5.6796e-96
5.93926e-127
0
0
3.24552e-60
2.15512e-58
2.12705e-07
3.95871e-07
4.44423e-108
1.85655e-107
1.62351e-54
0
2.35946e-62
5.62059e-62
2.72059e-07
1.78669e-88
4.10102e-88
6.15745e-62
2.30222e-86
7.99922e-105
5.71599e-78
1.04846e-117
1.19031e-82
4.69745e-28
1.75306e-143
3.83146e-13
3.36788e-13
3.68215e-105
1.38449e-145
5.88027e-103
8.12992e-65
4.15892e-125
1.21408e-50
1.49608e-62
4.23606e-07
0
6.33439e-116
8.84398e-48
1.01112e-118
2.45449e-59
2.0603e-10
1.35804e-137
2.02371e-49
6.72138e-06
0
7.85879e-42
7.81786e-137
3.30687e-71
0
0
4.12646e-08
5.4083e-10
2.99993e-08
3.29096e-116
8.90462e-47
1.18788e-90
2.5296e-08
1.36804e-08
1.89126e-96
7.06866e-07
0
1.75635e-117
0
2.67462e-100
3.04236e-111
0
8.9751e-18
3.09292e-70
6.12455e-93
1.00749e-89
1.4272e-97
1.04407e-69
1.82475e-108
2.07102e-152
4.73033e-68
7.5003e-97
0
1.04042e-07
2.64425e-07
0
0
4.04203e-90
1.14785e-06
1.15772e-100
3.06925e-132
2.49916e-48
1.15134e-69
2.87245e-71
2.03515e-69
1.09104e-60
5.30058e-63
7.66671e-72
1.51766e-111
2.13359e-101
0.000180395
2.13455e-33
1.06176e-55
1.80562e-66
1.38132e-09
2.96137e-61
3.95552e-08
9.67708e-61
0
1.69664e-10
1.66676e-96
1.04609e-08
4.19034e-09
1.53469e-64
1.26083e-17
5.06659e-91
6.28342e-84
0
2.11821e-07
2.35029e-67
3.50633e-06
1.30595e-09
1.16558e-85
6.82282e-09
5.90015e-85
1.29948e-07
3.2749e-62
1.26718e-06
6.34644e-137
1.0387e-32
6.517e-111
2.76055e-60
1.02853e-08
3.85714e-09
1.57684e-116
2.61753e-93
1.52522e-87
2.44129e-81
2.87219e-107
5.51576e-47
0.000398955
0
3.22702e-78
2.61277e-06
2.32714e-100
0
4.02463e-107
1.02886e-07
1.68931e-12
3.80614e-08
6.07364e-133
0.00341117
7.85349e-34
1.37415e-06
2.02057e-135
4.71116e-135
0
4.6013e-123
2.01495e-08
0
4.76605e-150
0
4.62843e-05
0
2.97197e-119
7.70939e-113
0
3.63162e-110
1.23684e-85
2.38865e-121
2.09112e-105
1.31756e-89
3.40892e-76
4.79731e-72
6.97358e-116
1.18978e-07
3.96746e-25
1.01424e-30
2.99319e-21
1.25908e-74
0
0
2.17587e-137
2.89453e-74
0
1.41087e-119
1.4386e-101
0
0
4.75693e-87
0
2.42449e-16
4.92766e-50
1.65477e-14
2.4841e-11
7.44331e-23
5.22046e-59
7.2469e-71
1.0876e-15
9.04224e-58
2.96112e-55
0
0
4.28833e-111
1.32311e-44
1.74457e-125
0
0
1.67731e-10
4.6814e-08
1.86665e-20
0
3.52986e-104
1.02459e-102
8.74465e-73
1.27985e-40
7.60336e-60
2.15594e-55
7.62409e-60
5.11066e-27
7.87067e-43
0
4.04064e-65
1.12092e-31
2.57338e-55
2.20704e-24
0
2.05083e-39
6.58031e-88
3.21195e-68
2.01688e-41
4.21078e-124
3.11224e-102
0
9.06299e-63
2.31615e-34
1.03769e-13
2.01981e-70
1.07667e-102
2.87532e-07
1.74494e-67
1.86914e-25
9.46301e-31
3.86528e-107
9.5603e-63
4.327e-70
2.32507e-126
0
1.30031e-71
0
0
6.11162e-89
5.20157e-90
5.89182e-32
0
8.98706e-65
2.73036e-11
0
1.19974e-75
6.2507e-12
2.10666e-46
1.01205e-94
1.78433e-120
6.11084e-13
2.90606e-86
1.24619e-122
0
7.2955e-50
1.50477e-97
6.21463e-40
3.13539e-07
6.66297e-99
1.66818e-06
4.72653e-144
9.40241e-96
0
0
1.79338e-103
0
0
1.42537e-129
9.55701e-12
0
8.56471e-07
0
8.5417e-92
0
0
1.63057e-50
0
6.43663e-47
8.86666e-47
2.8135e-108
5.79127e-62
2.46285e-34
4.93239e-08
2.65271e-10
1.24804e-80
2.18096e-102
1.49728e-51
6.68965e-60
2.9476e-61
4.286e-35
0.107303
1.14312e-07
5.01346e-08
5.46737e-43
0
2.65413e-08
2.06964e-12
2.39705e-12
3.88301e-49
4.99608e-71
4.3389e-67
1.11114e-121
4.87084e-79
6.21132e-29
1.04381e-06
1.1449e-07
2.95415e-89
5.96002e-129
4.56079e-49
4.06741e-118
5.81305e-49
3.01785e-69
7.73234e-06
1.29666e-102
1.42688e-106
2.01298e-120
2.43392e-26
3.76243e-28
3.82255e-63
1.61442e-78
0
5.20272e-51
0
0
0
4.61106e-118
1.14269e-41
0
1.02075e-10
2.76549e-57
9.48803e-12
3.26517e-61
6.83671e-42
0
3.43859e-32
5.23389e-120
1.01468e-07
2.57477e-132
4.3494e-19
5.62907e-129
5.61012e-65
2.26767e-06
3.2318e-37
1.23418e-110
3.90291e-100
2.43927e-16
1.68983e-05
6.27276e-35
8.75695e-08
5.85301e-53
3.47666e-14
1.09715e-12
7.14345e-35
1.50255e-105
0
9.58501e-07
4.34028e-21
6.457e-26
0
1.23422e-24
7.96575e-86
7.61013e-31
7.59131e-105
2.63309e-33
9.38193e-61
6.48594e-24
6.39018e-33
8.72756e-35
1.99989e-36
1.53949e-21
2.22677e-07
1.52176e-07
1.00376e-09
5.37697e-47
8.2846e-11
2.57565e-07
1.49955e-07
4.35706e-07
1.0522e-07
0
1.41818e-41
4.9845e-88
1.15276e-106
1.04691e-64
8.60304e-52
8.39346e-44
1.42915e-07
1.56385e-06
7.48917e-41
3.74831e-33
1.88481e-23
2.65826e-07
2.85008e-07
0
6.1751e-20
2.10226e-19
2.78188e-113
9.99335e-06
3.48004e-25
5.8e-08
4.37519e-20
1.94884e-38
3.70978e-06
5.79409e-39
7.99034e-08
9.37548e-22
1.17769e-20
1.40667e-07
0
4.00983e-63
1.5591e-30
0
3.58765e-67
0.000364475
2.96933e-35
7.43361e-08
8.49746e-33
1.32711e-06
1.74512e-33
4.34671e-99
1.29621e-128
0
2.42051e-30
6.77927e-135
8.99223e-35
1.3009e-62
1.1141e-107
0
6.37181e-30
1.98291e-06
0.000323677
1.28349e-72
6.76937e-07
2.96543e-59
1.9599e-31
1.25868e-17
0
2.02376e-33
0
2.89579e-29
1.12756e-19
1.82906e-22
0
4.70335e-29
3.17379e-23
0
6.42627e-18
0
5.31868e-24
3.30118e-28
4.94518e-21
3.88131e-26
2.11985e-69
4.41515e-142
2.18685e-08
1.14002e-133
1.9999e-59
9.08826e-27
1.44721e-83
6.30174e-24
0.000187051
2.03507e-06
2.96814e-40
2.45302e-29
9.83886e-33
3.868e-33
1.05679e-36
9.09321e-22
4.83149e-79
0
4.83765e-135
5.35342e-38
1.99486e-136
1.49862e-25
7.97385e-134
1.52329e-29
0
1.17151e-65
1.27034e-31
6.93624e-130
3.86357e-36
8.63541e-52
1.81764e-12
0
7.30315e-34
1.39426e-07
6.16005e-152
9.30803e-72
2.1055e-48
9.13887e-11
8.49892e-120
2.4828e-10
3.7078e-10
0
5.4234e-47
0.000170754
5.94506e-12
6.25043e-51
2.96096e-70
7.0217e-10
2.61277e-47
1.00038e-48
2.54741e-33
1.17423e-76
3.76897e-24
0
1.59782e-102
0
3.043e-127
1.78978e-05
2.13194e-109
5.41727e-81
6.46672e-05
2.36857e-38
1.14496e-08
6.22447e-56
3.23128e-13
1.89975e-98
3.09473e-26
2.12827e-37
0
3.58597e-55
4.98612e-41
1.85329e-99
0
0
5.42244e-77
2.80719e-79
2.79356e-47
5.09647e-61
0
1.80118e-11
1.41475e-86
3.04471e-09
0
7.33582e-86
0.0119853
0
0.000525996
4.07296e-65
1.10556e-82
0
0
3.08621e-22
6.69507e-65
1.73848e-15
1.25811e-14
4.34267e-31
6.76395e-22
2.00609e-06
2.69196e-16
1.59472e-45
2.27605e-22
1.92855e-66
6.64005e-42
1.52313e-10
0.000112413
6.37375e-41
1.08727e-71
1.33728e-44
2.0407e-10
2.4636e-38
2.41736e-60
1.00326e-10
1.6884e-57
0
1.30028e-05
1.41484e-45
0
0
1.04894e-06
3.10208e-44
9.85163e-30
3.75987e-94
3.56883e-17
3.03056e-33
3.53331e-86
2.03262e-95
1.34472e-97
2.15635e-08
4.47419e-41
4.94091e-06
1.00099e-113
3.35694e-109
8.4301e-67
7.89941e-15
2.09724e-48
3.79331e-15
0
2.89153e-73
6.33233e-22
8.02374e-07
1.56197e-101
1.99102e-16
4.18906e-29
5.66927e-09
0
3.47627e-16
1.4556e-07
1.1116e-05
3.41532e-36
2.27649e-24
1.46369e-60
4.74232e-09
1.18837e-131
1.37872e-08
2.95608e-05
3.40388e-08
0
3.27778e-114
1.43219e-19
1.84763e-33
0
1.12279e-107
9.01459e-143
1.64678e-28
1.24777e-12
0
9.12378e-12
1.08472e-26
2.47311e-54
3.78652e-10
0
1.88283e-98
0
1.70576e-07
3.16129e-52
5.27811e-23
2.6316e-161
1.16643e-105
7.40227e-31
1.04546e-16
6.58637e-07
3.80539e-65
1.31795e-07
0
1.09631e-32
9.18329e-44
0
1.38303e-32
0
0
1.9836e-133
2.14053e-35
1.50075e-57
1.99277e-17
7.42736e-97
2.59622e-113
1.67677e-20
0
1.87433e-26
2.36644e-34
5.05476e-35
8.73438e-39
8.02206e-100
1.85382e-08
1.84217e-98
4.23093e-08
3.23172e-44
1.73063e-46
1.4566e-123
2.4275e-50
1.1985e-16
0
0
1.22938e-05
6.00397e-23
2.91525e-18
4.09752e-106
3.45714e-42
3.44739e-18
4.5704e-11
9.51806e-92
1.95747e-14
7.51588e-08
6.69406e-41
1.10928e-55
2.50062e-39
1.23127e-48
1.75271e-49
1.98863e-05
9.70668e-20
0
1.11679e-11
1.55602e-40
1.92417e-24
2.8946e-50
7.86327e-39
1.49135e-10
1.40925e-09
0
7.14709e-124
0
1.14391e-09
0
1.26542e-106
3.34564e-128
1.03818e-09
1.09052e-53
1.0472e-54
4.51413e-57
0
6.47757e-62
2.74662e-59
8.91705e-61
5.75487e-20
0
4.72649e-66
0
7.86679e-125
4.07386e-05
3.38418e-103
4.45274e-64
5.21202e-107
0
2.40899e-102
1.42098e-07
1.62096e-14
1.5588e-83
3.71203e-55
0
1.15768e-45
5.70301e-20
2.98142e-30
4.28294e-85
0
1.05265e-11
7.10169e-102
2.85953e-11
4.28356e-16
5.05466e-08
9.26064e-117
1.5418e-51
7.50202e-53
4.2084e-105
1.50342e-55
5.9051e-33
4.33636e-113
1.64631e-119
2.2776e-55
1.57381e-100
2.71729e-07
1.58427e-57
1.4815e-32
1.15736e-123
1.16021e-56
6.85922e-36
0
0
8.33575e-62
2.67212e-60
5.16317e-87
1.98813e-43
2.01805e-27
1.20535e-95
1.35613e-143
1.89977e-104
5.43165e-08
1.91558e-68
9.99883e-24
6.77915e-111
7.53442e-19
6.41506e-26
3.45285e-112
9.30375e-08
3.11723e-48
1.98942e-30
2.71718e-31
3.20364e-07
3.1547e-45
0
9.33156e-27
1.39106e-07
7.48299e-82
2.16866e-108
0
5.09697e-22
6.87575e-21
0.000269466
1.31579e-17
2.7437e-88
4.32146e-38
0
6.11448e-15
4.95665e-43
3.01982e-15
5.27314e-39
3.8781e-17
8.02411e-31
5.52073e-10
4.36492e-17
0
4.38296e-84
0
0
1.12927e-76
0
2.85022e-138
2.23745e-35
1.52802e-08
4.37407e-70
2.53306e-05
5.2494e-29
3.8903e-68
4.16341e-76
1.37276e-21
1.27579e-16
0
1.49295e-28
5.16422e-54
3.07503e-56
0
3.51693e-39
2.14865e-11
1.9947e-19
0
1.26362e-14
6.54372e-118
4.4812e-64
2.0592e-57
3.99974e-124
0
2.62658e-60
0.00355825
1.81679e-34
1.12176e-139
2.73341e-60
6.88418e-124
1.60394e-74
1.45749e-89
8.18921e-129
1.54676e-41
1.00498e-53
2.18171e-59
0
4.49804e-59
3.16956e-59
0
5.46221e-55
0
6.79612e-76
9.57554e-102
1.21028e-41
0
3.11643e-09
1.93787e-31
3.52953e-42
7.33517e-07
6.15097e-54
1.02673e-142
2.68083e-35
0
6.78347e-90
2.38439e-53
3.34972e-70
2.99608e-50
2.36446e-70
2.02223e-20
2.63896e-72
7.29429e-41
6.12795e-74
4.5526e-73
7.6264e-55
4.91764e-75
8.67762e-08
1.19042e-09
0
5.7823e-94
1.32454e-87
2.73272e-48
6.16837e-46
0
1.10402e-09
2.18414e-113
0
0
1.20081e-106
0
1.70594e-69
3.58485e-24
9.5446e-48
8.83841e-09
3.3273e-39
1.76229e-38
1.3125e-33
2.9708e-11
4.32744e-24
2.8662e-27
0
6.14045e-39
6.09252e-11
4.44705e-144
3.08462e-20
6.59874e-85
2.01208e-87
2.34043e-87
4.72474e-07
1.40548e-18
0
0
2.98427e-109
3.64091e-09
4.39256e-12
1.16401e-83
7.04469e-66
2.07814e-55
8.0326e-46
4.29826e-53
1.19459e-42
7.57489e-135
1.75994e-12
9.8115e-07
1.71199e-17
4.42051e-89
3.34764e-148
4.25877e-17
0
1.10559e-117
3.15379e-116
0
3.15412e-111
2.43512e-08
5.46271e-12
3.57093e-07
0
0
4.19275e-93
1.24332e-13
7.32075e-20
1.59944e-67
0
4.27167e-12
2.54142e-31
5.06011e-08
1.99845e-10
1.03544e-25
1.49878e-10
8.899e-63
0
4.56874e-41
3.01446e-111
5.78252e-45
0.160265
1.00448e-93
0
7.18174e-97
3.09267e-09
0
1.05875e-91
1.74015e-30
1.215e-45
0
1.33082e-06
1.6921e-92
7.36034e-34
2.15888e-47
2.28873e-19
2.43794e-104
3.71942e-45
1.20125e-114
1.20284e-31
0
0
9.67794e-29
4.79866e-104
6.46087e-07
1.1369e-96
9.54893e-111
7.92247e-109
1.50971e-40
9.7058e-09
0
4.07083e-22
4.67664e-41
0
1.04605e-09
5.10923e-87
0
8.29961e-24
5.13624e-63
2.54147e-08
5.18841e-09
1.58151e-09
2.92777e-20
3.70706e-09
0
1.7906e-08
2.57371e-08
0
0
0
2.59014e-42
3.86825e-61
4.49093e-99
2.59422e-97
2.84099e-76
0
6.85839e-57
4.95982e-59
3.7045e-20
6.62544e-111
1.91498e-61
2.3409e-90
1.13445e-37
6.20961e-88
4.28169e-92
5.63049e-77
0
3.9891e-10
5.27981e-91
1.18941e-08
1.25158e-30
2.07959e-70
5.01889e-44
2.79649e-72
6.1795e-24
4.77502e-99
1.85594e-49
1.14283e-24
1.40675e-89
2.22693e-40
7.55654e-39
3.58785e-109
3.03531e-39
1.92011e-07
2.41983e-40
3.90701e-39
7.10095e-39
5.57882e-24
2.26199e-27
8.43293e-37
7.96227e-88
2.64365e-101
3.3429e-75
9.60256e-36
3.80232e-100
9.09811e-125
8.76968e-38
0
5.93127e-57
6.75345e-46
1.81443e-09
5.31092e-38
1.22359e-19
1.60864e-06
4.63954e-104
3.3762e-12
5.75469e-122
0
7.46216e-97
9.02748e-74
1.54869e-95
3.61988e-06
2.03936e-07
3.35023e-11
2.43442e-28
1.2246e-06
2.67374e-16
1.12985e-97
9.63413e-61
2.61505e-152
5.16195e-33
1.17179e-34
6.26104e-47
1.76955e-09
7.82421e-123
1.37283e-120
3.20337e-47
1.86604e-29
8.19173e-99
2.19916e-39
4.48819e-38
0.000311355
9.56052e-05
2.14117e-28
1.01596e-115
0
1.8315e-85
1.60765e-51
1.3334e-19
1.8232e-41
7.28354e-37
1.95696e-90
1.08615e-51
1.33352e-38
5.10881e-31
1.9326e-07
1.43022e-27
1.53613e-44
1.63427e-14
1.89935e-10
9.629e-50
3.19362e-27
1.46053e-12
6.99617e-55
6.97621e-45
2.0143e-39
0
1.99392e-43
0
1.26094e-43
3.6202e-30
2.70356e-20
3.75392e-06
0
2.9203e-41
6.20784e-07
0
1.56635e-107
1.68972e-06
0
3.16798e-127
0
9.17073e-59
4.07441e-05
4.69843e-97
2.14986e-92
1.29674e-09
0
1.141e-05
0
2.65027e-06
0
1.47883e-64
2.31533e-06
5.46073e-22
6.5621e-68
8.43387e-07
1.53857e-43
2.10493e-48
3.27248e-23
6.95644e-115
7.01858e-117
9.15102e-100
4.59499e-06
2.15541e-26
3.60523e-59
4.40612e-13
1.48276e-92
3.45744e-08
2.35031e-06
4.57817e-08
4.46849e-17
1.31125e-07
7.84721e-84
8.51805e-05
3.29091e-70
4.99108e-73
0
0
2.25258e-122
0
2.87844e-104
5.42387e-122
8.09369e-10
0
2.01825e-21
1.80497e-08
0
3.94809e-85
0
0
0
6.03359e-108
3.46311e-09
7.9547e-09
0
1.83474e-78
2.33353e-71
1.82233e-24
1.34179e-26
3.59316e-66
4.24487e-38
4.70815e-75
4.60748e-73
0
4.90624e-14
0.000128771
3.06917e-22
2.98038e-06
1.13273e-09
2.29872e-71
1.1644e-30
0
3.25958e-82
6.52159e-85
6.88302e-81
2.03947e-07
1.07795e-05
8.41317e-08
3.87594e-07
6.98247e-97
6.17589e-129
0.00128404
6.91866e-91
2.1503e-15
6.1769e-64
5.26207e-87
6.27737e-36
3.85235e-95
3.03562e-20
0
4.63677e-18
5.50961e-07
2.95544e-12
2.89795e-17
3.94865e-15
5.39201e-21
2.99645e-129
0
0
1.26954e-90
0
1.52358e-83
6.24753e-114
3.45911e-81
1.05141e-46
1.12809e-113
7.95594e-25
7.52895e-09
1.47831e-13
5.01272e-08
2.53289e-110
5.8885e-86
3.54031e-06
0
2.09649e-94
3.68353e-14
1.58071e-85
0
1.9329e-08
1.65396e-06
2.32978e-07
3.32111e-08
2.24445e-81
4.28579e-09
7.79109e-05
1.80994e-07
6.50904e-88
8.1937e-07
1.89433e-08
1.64478e-08
5.50531e-07
0
8.53954e-07
7.64535e-09
2.18707e-85
3.03584e-09
5.18195e-10
8.52291e-09
7.83864e-24
3.95559e-09
8.03727e-25
0
2.8152e-07
4.85951e-05
1.27109e-06
3.98605e-102
2.05771e-118
0.000212221
9.1088e-146
1.01665e-31
3.08204e-19
3.55998e-118
7.67155e-07
2.65282e-25
6.13852e-62
1.32999e-51
2.9536e-53
1.5125e-59
8.89572e-27
3.73812e-10
1.44651e-06
8.85618e-08
1.73191e-08
0
1.15935e-14
2.38907e-26
5.58529e-52
5.64394e-78
1.67835e-63
6.19682e-50
7.39342e-59
7.92068e-71
4.9784e-50
1.27408e-45
7.92535e-53
2.37136e-61
7.58752e-38
9.86451e-09
7.49335e-28
0
5.30605e-06
1.43272e-23
1.0246e-105
5.83352e-09
1.43733e-61
2.17423e-55
1.84565e-56
0
7.60809e-106
0
3.27505e-06
5.70203e-15
9.95957e-31
7.87446e-09
3.48107e-07
7.29428e-23
0
6.06238e-08
8.82958e-09
5.56263e-25
1.18243e-07
2.87587e-99
4.60415e-21
0
3.22212e-09
1.57349e-52
3.06234e-08
2.43581e-77
4.2456e-114
5.57589e-129
0
2.57115e-09
1.53133e-120
1.04382e-07
0
6.95827e-08
1.43096e-08
7.24703e-83
9.71141e-105
3.34189e-07
6.83987e-08
1.4414e-06
7.37656e-08
2.34243e-114
3.62805e-13
0.00040618
7.53158e-99
1.73318e-65
3.41869e-24
0
4.39676e-08
3.42883e-70
7.7507e-08
1.58002e-08
3.7772e-07
3.64804e-08
1.10024e-06
3.42952e-10
1.05155e-07
7.20151e-47
0.000409394
0.00473615
2.06695e-22
4.37345e-07
0
1.34925e-15
1.24395e-07
4.43288e-60
8.4589e-07
3.16229e-25
2.30201e-36
0
3.09532e-26
3.85798e-09
1.54489e-39
0
0
2.71073e-37
4.108e-133
0
3.38205e-37
2.7851e-55
5.07683e-05
7.0469e-08
4.86688e-46
3.24269e-07
2.95797e-22
1.8568e-135
3.81609e-33
2.69375e-07
4.10757e-06
5.60673e-13
3.10029e-13
4.35106e-08
1.52131e-08
0.00152665
5.36854e-14
1.07001e-38
3.27207e-06
1.38239e-47
4.91151e-46
2.56445e-50
0
1.00552e-31
2.20385e-08
1.02338e-10
7.15452e-19
8.1378e-11
3.59095e-07
1.67276e-35
6.24497e-08
3.43462e-26
0
1.69964e-98
5.65448e-37
9.97677e-77
6.14189e-33
0
1.97836e-07
1.58204e-07
0.000262625
3.50144e-47
9.23145e-06
2.10941e-46
6.0042e-07
4.45911e-36
1.17779e-09
5.56145e-12
2.66531e-06
1.46256e-49
3.57868e-46
1.01131e-77
1.60827e-106
2.32316e-133
0
3.04814e-20
1.20979e-08
3.10555e-37
4.56948e-08
6.64207e-08
1.346e-35
7.67605e-07
1.55799e-07
0.000192787
3.87222e-07
8.26994e-129
8.03547e-09
2.26957e-15
1.12416e-116
5.07284e-75
5.8419e-08
4.46929e-08
3.26741e-135
2.54443e-101
0
4.85872e-62
0
1.02428e-07
1.03062e-07
2.71444e-07
4.00304e-08
1.15886e-108
3.19433e-05
7.85733e-26
2.83256e-133
5.68812e-39
1.34359e-72
0
2.55383e-07
0
2.19428e-48
0.00394735
0
1.15376e-43
4.45039e-49
1.18549e-48
1.74538e-121
3.24439e-70
3.60249e-10
2.62469e-30
1.73391e-48
2.5142e-13
4.96085e-15
3.31831e-06
5.76641e-47
9.71451e-45
1.61117e-59
3.71703e-46
2.44322e-38
3.98e-48
2.79081e-09
3.02091e-07
2.61143e-48
0
7.19301e-05
1.79839e-39
3.24155e-123
9.43463e-41
2.47162e-39
1.85372e-09
1.4597e-06
2.59518e-05
6.26514e-09
3.01034e-16
1.29501e-129
6.76383e-07
5.21766e-38
2.45397e-07
7.56437e-07
1.29069e-98
9.51464e-09
1.76851e-91
5.87986e-86
1.86644e-06
0
2.2372e-33
9.88963e-07
1.31858e-08
2.24077e-06
1.65369e-06
2.52446e-61
1.12737e-08
1.15912e-15
4.95318e-08
1.92635e-65
6.01818e-18
1.34546e-06
1.61578e-06
2.06688e-06
2.18371e-08
1.24654e-21
5.59053e-62
2.11364e-11
1.60673e-08
1.01203e-06
1.79927e-07
5.58753e-15
8.66316e-07
1.74518e-95
0
0.00506713
4.58938e-06
1.47577e-09
3.27768e-12
2.21363e-07
7.56571e-09
6.90483e-05
0
1.91826e-08
1.43296e-103
5.3079e-06
3.52401e-61
0
4.76619e-13
1.47412e-72
7.03257e-06
3.4577e-64
2.6362e-09
3.4398e-06
4.50288e-85
1.77384e-58
3.72881e-07
7.69789e-62
1.21436e-71
4.39514e-118
1.76729e-114
7.86232e-09
8.57598e-104
3.87247e-06
1.41923e-06
1.44454e-114
1.90548e-114
2.50257e-07
8.69881e-67
0
3.55445e-14
2.49617e-108
3.35708e-104
0
4.50223e-69
4.58638e-08
6.47644e-08
2.25973e-05
8.71423e-66
0
2.49355e-06
2.79189e-83
1.27974e-07
9.45322e-07
0
3.30676e-132
5.06202e-35
9.91737e-54
1.85253e-06
0
1.46088e-68
9.27362e-146
6.83529e-126
0
7.25387e-08
1.52779e-07
2.81829e-36
1.82728e-58
0
5.15811e-50
6.6301e-28
9.61886e-148
1.28742e-10
5.89542e-94
1.40957e-07
1.52128e-07
8.81414e-96
2.49601e-113
4.89716e-37
3.68674e-26
1.10821e-06
0
1.90469e-07
3.13475e-20
0
1.8185e-26
1.95843e-17
8.27297e-85
3.75414e-33
5.63267e-78
3.38287e-06
8.12156e-79
0
0
1.45818e-32
4.88956e-84
9.91625e-07
2.73728e-07
0
0
4.31355e-07
7.66843e-133
5.31711e-08
1.25639e-38
0
8.87044e-05
2.69742e-05
2.42685e-08
6.795e-44
2.50712e-65
1.83909e-11
1.55366e-05
1.2337e-60
9.92218e-07
4.42419e-66
8.94224e-06
4.0436e-08
2.24238e-66
2.97531e-07
3.55297e-06
3.89523e-06
3.84903e-05
6.51983e-07
5.97871e-33
8.96518e-71
3.50174e-105
1.05024e-11
2.75177e-12
2.06924e-16
1.6629e-06
1.17132e-50
0
6.21668e-69
1.71438e-10
4.13777e-06
4.36404e-06
2.30315e-69
3.53018e-22
9.51891e-08
7.64793e-130
1.69798e-07
4.27109e-55
5.3278e-110
2.12183e-109
8.5692e-06
2.29602e-06
2.92771e-06
0
4.2873e-97
1.41854e-63
8.57485e-06
1.3751e-19
3.11686e-05
3.61301e-132
0
5.2139e-07
7.53132e-13
1.00241e-136
1.24548e-58
7.13758e-05
2.81843e-54
3.50649e-54
4.96341e-15
1.4846e-06
1.99756e-22
2.45405e-14
2.32379e-137
2.95128e-06
1.46274e-06
1.30445e-08
1.55342e-17
4.33778e-60
3.66022e-06
3.19531e-82
3.01683e-09
2.51983e-06
9.36942e-08
1.70663e-07
1.0559e-05
6.74895e-08
2.78124e-05
4.9639e-141
0.0470071
2.22536e-06
1.01936e-15
4.10587e-139
0
0.0138246
2.57996e-131
9.48229e-07
0
0
6.77316e-07
2.73612e-138
1.59254e-05
0
3.47326e-14
1.17633e-06
3.63099e-07
1.76655e-83
1.03603e-136
1.14882e-41
2.75355e-29
0.00064253
6.46068e-99
4.30094e-07
1.40599e-07
6.6175e-127
1.37728e-131
4.18085e-134
4.20005e-55
3.04059e-32
0
7.82514e-22
1.17062e-61
3.9533e-06
2.7535e-56
2.29696e-07
8.77849e-129
9.49996e-18
0
6.30795e-43
6.29854e-09
6.3573e-133
4.31531e-129
9.00651e-65
3.05501e-43
1.23631e-35
1.34459e-05
1.16602e-05
1.93066e-07
1.66192e-20
9.18536e-38
0
0
0
6.03538e-48
1.50028e-34
7.69065e-69
5.6561e-28
4.78305e-26
5.24631e-06
4.77505e-41
1.38971e-39
8.89934e-63
5.21041e-34
1.11609e-25
7.62387e-105
1.32289e-18
4.39284e-80
6.13937e-24
5.11349e-06
7.42016e-42
2.54384e-08
1.1649e-75
6.52902e-37
9.92756e-11
1.04639e-10
2.21949e-97
2.54585e-53
1.41682e-63
1.13558e-66
2.1138e-56
2.18776e-72
3.78537e-35
2.18683e-19
2.31532e-44
8.04335e-66
2.39525e-83
8.64872e-68
2.8658e-12
3.26631e-66
1.83075e-08
6.09611e-71
1.07259e-20
1.14404e-66
0
2.21445e-18
1.92776e-08
2.88712e-11
1.94854e-53
4.78358e-104
1.52871e-96
1.61321e-07
3.16665e-07
0
2.20548e-08
2.88338e-06
2.78429e-87
9.08915e-36
0
8.33184e-13
3.41306e-07
1.52411e-70
3.32387e-52
2.94926e-19
0
1.94351e-06
2.86116e-53
8.14765e-104
8.55245e-77
2.14365e-52
3.93252e-58
1.65662e-102
4.77773e-83
1.12866e-64
2.33952e-98
1.32127e-08
4.79753e-63
0
1.27108e-41
5.52341e-100
1.3335e-44
2.98433e-09
2.78093e-64
2.79985e-104
1.64781e-10
7.34017e-11
1.33579e-49
6.40938e-97
0
5.70699e-38
1.85221e-17
0
1.48963e-67
4.34088e-12
2.6217e-52
1.15362e-50
5.77574e-48
7.72817e-46
1.25775e-58
5.75376e-98
1.98167e-28
8.09088e-20
2.52442e-06
1.80817e-17
2.0458e-06
1.33625e-31
1.71345e-11
0
4.45602e-62
3.50199e-06
8.24641e-97
6.15827e-73
3.14523e-09
0
2.66347e-06
0
7.40596e-95
8.24456e-29
4.09095e-09
3.75e-10
8.3064e-12
5.46263e-10
8.51589e-53
2.40382e-12
1.04427e-08
7.4097e-98
7.44117e-10
1.46064e-77
2.7832e-19
1.24066e-12
3.61626e-34
1.34094e-08
1.10991e-14
2.09845e-07
9.16444e-27
9.28312e-08
1.7146e-13
5.72826e-35
6.22122e-92
1.63601e-10
1.55264e-31
4.32107e-31
3.258e-51
8.68305e-100
1.002e-13
1.44558e-50
9.64723e-47
3.63372e-25
6.39868e-90
2.16342e-93
2.4704e-52
3.76473e-28
7.10871e-08
6.91558e-80
3.75576e-44
2.05927e-33
8.87736e-78
6.81589e-26
4.85628e-77
1.039e-43
4.31428e-44
1.28526e-52
1.0088e-78
5.33468e-79
3.54374e-71
4.29562e-75
1.29165e-72
3.18829e-68
4.174e-58
0
2.26453e-90
4.803e-14
0
3.6394e-15
6.17739e-07
2.17636e-109
5.59596e-39
5.21602e-22
9.75263e-76
1.07452e-74
1.58662e-43
3.31104e-128
5.55614e-78
2.94528e-25
1.189e-18
1.84651e-46
3.93534e-72
5.43707e-33
1.00235e-130
4.60901e-37
4.72129e-10
3.15872e-129
1.09451e-79
3.69862e-11
1.17147e-129
9.30502e-79
1.63283e-21
7.77915e-86
7.30031e-17
1.22479e-09
3.76322e-44
1.02976e-131
1.60277e-16
1.03562e-05
1.31777e-07
9.15665e-47
3.1299e-95
0
7.89713e-89
0
5.82266e-60
1.39532e-97
1.78063e-98
4.62224e-59
6.28958e-07
2.79714e-71
3.68422e-98
8.38069e-97
3.04689e-06
9.61076e-08
1.56096e-13
6.5147e-07
1.33599e-13
1.19682e-69
1.70963e-20
0
2.53443e-86
8.19127e-72
6.53984e-10
0
2.69384e-73
5.51058e-08
5.61977e-07
1.65469e-63
1.18804e-66
1.12644e-06
0
6.68095e-06
8.85723e-64
0
0
2.66925e-51
4.13526e-07
2.80795e-63
5.69039e-07
0
1.14463e-89
2.23291e-07
2.24401e-66
0
2.02562e-13
6.34155e-07
7.23572e-69
8.8938e-23
2.14073e-07
9.96797e-91
1.48034e-15
8.58049e-07
1.69597e-16
1.33708e-24
3.59627e-72
5.37105e-15
3.65659e-12
2.29577e-17
5.34626e-08
0
5.24331e-71
8.25098e-46
7.57981e-51
3.61817e-48
2.73028e-08
0
2.12459e-34
5.73295e-78
4.92116e-08
1.39092e-32
4.37239e-48
8.09112e-41
0
1.03134e-20
1.40482e-102
2.9972e-08
7.97192e-07
3.47944e-77
6.17029e-09
5.43304e-08
9.29666e-07
1.72618e-94
8.16333e-50
1.33434e-05
5.96341e-111
1.58901e-08
2.64664e-42
1.05617e-22
4.13845e-86
4.72963e-08
1.72428e-111
1.5185e-111
4.48539e-38
1.36188e-113
2.04132e-08
1.75252e-23
2.84082e-24
4.32826e-07
1.18211e-08
0
1.70048e-56
6.81334e-22
1.95082e-58
8.56382e-102
2.04119e-67
8.38208e-10
1.12768e-59
1.41083e-09
3.19341e-42
5.82163e-22
1.36051e-06
5.77399e-23
0
2.1754e-07
1.32987e-07
0
0
1.1172e-11
2.35289e-32
1.12122e-07
0
3.86286e-08
1.35932e-19
2.99576e-13
2.98205e-08
7.19631e-08
2.0155e-14
5.62295e-20
3.20439e-08
2.20464e-08
1.23494e-90
2.08824e-49
8.62707e-08
9.17319e-39
0
7.55021e-17
1.93849e-05
2.1764e-30
9.12418e-49
6.84594e-08
4.03581e-47
0
3.54399e-08
8.5601e-63
4.5273e-07
2.34941e-75
2.6339e-09
2.44438e-08
3.4656e-07
0
2.33416e-83
0
2.89814e-08
6.26734e-42
0
3.35862e-37
1.75958e-07
3.85637e-07
0
8.03542e-73
8.72337e-08
6.82857e-08
1.59252e-07
1.19822e-06
3.08728e-07
0
1.60379e-22
1.06216e-73
4.39803e-38
2.44958e-109
0
1.56185e-73
6.01789e-41
2.10006e-92
0
0
0.0050344
1.43731e-50
3.3586e-51
5.70864e-92
1.68777e-28
1.2486e-44
1.75096e-86
7.85937e-08
3.84923e-75
0
4.90141e-52
0
6.10057e-46
1.3824e-94
2.96385e-38
4.82567e-73
9.98847e-27
4.15438e-33
0.000288555
8.6081e-75
2.34016e-14
2.52529e-14
2.49843e-05
0
3.41155e-34
1.59886e-11
1.74421e-114
0
0.000682562
9.2896e-65
2.18452e-42
3.73544e-110
1.28637e-88
4.11582e-52
7.84612e-62
1.13216e-114
1.84414e-87
1.81806e-41
1.31095e-80
4.33343e-29
2.62512e-07
1.11785e-113
0
0
6.69111e-24
5.8509e-40
8.58314e-83
6.51272e-115
3.37718e-05
5.27122e-84
0
0
1.03625e-29
0
3.8569e-124
3.25659e-144
2.14307e-06
2.89919e-05
2.97599e-102
5.39563e-08
1.98865e-84
2.45564e-123
0
1.92017e-21
2.21444e-86
4.90206e-39
5.58061e-13
1.16262e-41
3.62735e-85
1.52957e-09
0
4.20485e-08
2.81392e-07
1.3592e-58
4.1244e-79
0
7.66004e-07
0
1.2608e-40
1.07732e-69
2.75057e-70
1.8196e-71
3.56532e-77
5.29143e-75
1.08101e-08
5.5266e-69
5.47695e-34
3.92907e-27
1.9622e-07
3.83856e-07
1.16405e-74
8.72574e-08
4.53402e-08
2.44934e-88
4.01375e-08
0.0193406
0
2.55092e-08
6.8286e-14
3.68672e-52
1.42022e-54
3.78442e-86
1.69738e-11
6.01451e-08
5.75758e-94
4.41437e-96
3.07753e-59
3.65427e-83
0
0
1.33864e-08
1.89064e-13
4.56919e-28
1.70386e-63
1.31939e-15
1.583e-07
0
2.20289e-44
0
1.17256e-06
8.66506e-08
2.49269e-87
9.83701e-45
0
3.94084e-34
2.8118e-08
1.31833e-06
0
4.84141e-23
3.83128e-20
6.0615e-09
2.74096e-136
5.49496e-95
3.7942e-05
6.72554e-89
5.21996e-89
5.64399e-109
1.26791e-92
3.01415e-19
1.61892e-30
3.46559e-29
2.621e-33
0
9.00371e-67
0
2.27013e-111
2.62971e-06
6.03152e-07
4.43452e-110
7.03955e-20
3.75714e-113
0
3.5533e-94
3.42506e-05
7.37172e-09
8.15905e-07
1.04449e-43
0
6.61848e-133
0
3.10416e-12
3.36061e-24
6.68243e-05
1.16321e-50
1.29506e-107
6.9205e-67
3.22374e-06
0.000112628
8.70647e-13
0
0.000286381
0.000549718
1.73919e-08
8.26593e-08
2.52992e-07
1.75888e-18
4.48835e-07
1.61882e-08
0
0
1.40831e-122
7.03178e-73
6.63497e-110
6.06468e-59
3.32735e-07
4.38516e-05
2.67902e-07
4.63051e-09
1.0581e-07
8.58872e-38
0
7.99839e-12
7.74038e-15
0
4.62188e-07
0
2.68878e-08
6.77274e-08
0
1.23404e-08
2.60835e-07
2.65901e-70
0
1.22246e-05
0
4.9266e-129
2.70007e-07
7.16165e-07
0
7.42933e-105
5.57926e-86
1.69913e-99
1.90074e-35
0
5.45582e-107
9.44025e-08
0.000117868
1.21094e-94
2.60928e-39
0
2.11673e-07
1.83797e-07
1.47814e-50
3.67669e-131
9.79077e-118
3.26372e-07
3.25009e-78
1.63393e-49
9.32818e-19
6.55437e-133
7.18508e-31
8.36624e-102
4.54397e-80
8.79087e-07
2.33708e-12
3.92344e-74
0
4.03562e-76
1.33449e-71
1.76378e-42
1.09328e-13
1.46567e-103
2.58422e-22
1.13109e-57
3.44341e-79
1.30053e-32
1.8554e-105
6.88932e-107
7.50321e-105
4.12269e-81
1.82343e-94
5.09035e-74
1.7308e-64
3.58403e-78
1.57707e-74
1.57578e-07
8.03347e-91
3.74614e-08
6.0629e-62
1.10917e-133
1.05194e-84
0
0
3.63103e-60
8.14262e-08
2.22573e-08
3.94918e-06
2.33721e-08
8.05348e-46
1.92955e-08
2.41087e-10
1.12678e-08
3.17202e-08
2.32031e-09
6.89505e-07
5.66784e-61
0
0
3.66841e-59
5.72946e-113
3.46434e-79
3.56173e-45
0
2.28562e-98
1.37491e-06
2.74963e-73
1.06233e-32
0
0
5.37691e-50
0
9.18261e-25
2.09782e-06
5.71131e-08
2.76741e-72
0
3.61405e-25
5.21127e-08
8.76339e-29
4.46343e-32
7.20642e-07
0
8.6101e-07
4.46639e-139
2.23466e-127
7.06385e-24
8.3829e-07
7.3825e-07
8.40537e-07
8.2812e-07
2.21993e-08
2.30877e-08
1.48813e-06
7.07909e-07
9.75474e-07
1.55898e-102
0
2.26915e-76
0
6.83914e-09