/*--------------------------------*- C++ -*----------------------------------*\
| =========                 |                                                 |
| \\      /  F ield         | OpenFOAM: The Open Source CFD Toolbox           |
|  \\    /   O peration     | Version:  v2012                                 |
|   \\  /    A nd           | Website:  www.openfoam.com                      |
|    \\/     M anipulation  |                                                 |
\*---------------------------------------------------------------------------*/
FoamFile
{
    version     2.0;
    format      ascii;
    class       volScalarField;
    location    "4";
    object      CO2;
}
// * * * * * * * * * * * * * * * * * * * * * * * * * * * * * * * * * * * * * //

dimensions      [0 0 0 0 0 0 0];


internalField   nonuniform List<scalar> 
108993
(
2.26504e-56
4.52371e-26
4.69471e-51
5.31171e-144
2.16886e-137
4.37287e-113
5.58802e-15
0
7.80316e-109
1.66748e-58
1.65297e-88
1.03337e-94
0
0
4.49601e-98
1.19582e-21
5.973e-53
0
5.41777e-138
3.11785e-53
4.18835e-138
1.84618e-124
2.65921e-75
0
2.27041e-147
0
0
3.74287e-59
1.30489e-60
2.0251e-100
1.3381e-121
0
0
3.6313e-39
0
1.8741e-129
3.12167e-129
2.53116e-122
0.0091708
0.0172429
2.00299e-56
1.27235e-105
0
8.80285e-149
1.1547e-27
0.0271018
5.90693e-131
5.84115e-18
0
9.71898e-74
0
2.75277e-12
7.39283e-31
3.53617e-137
2.80357e-86
1.16061e-80
0
0
6.77238e-118
0
2.55462e-117
1.88355e-115
3.19449e-99
2.18546e-133
4.28503e-137
2.96425e-72
0
1.0035e-127
0
0.000191362
1.53396e-105
3.56637e-133
1.00058e-128
6.68134e-132
2.66303e-54
2.89035e-113
2.93926e-133
4.86957e-39
7.50231e-137
1.64082e-144
1.48716e-77
0
0
2.26547e-105
6.76191e-97
4.70153e-99
5.05338e-94
1.07894e-89
1.55122e-131
0
6.95225e-131
3.7606e-122
4.57871e-134
0
0
3.33076e-81
7.01963e-122
1.8692e-100
0
1.10449e-127
0
0
4.08812e-100
0
0
6.37979e-133
1.40609e-94
1.35948e-129
4.97818e-144
0.0156568
3.51755e-39
2.81592e-130
3.50027e-27
1.20703e-25
0
7.48616e-11
0
2.15446e-77
9.71636e-20
3.51525e-121
3.0803e-87
3.82655e-111
9.52898e-10
8.8352e-65
1.70476e-127
3.0595e-35
1.11498e-51
1.29745e-68
1.97596e-112
2.50505e-116
3.06591e-76
3.45845e-115
1.08732e-106
4.69043e-11
1.53304e-116
3.89433e-66
9.86033e-111
0
2.48456e-97
2.60683e-90
1.02346e-64
8.82887e-117
9.21882e-23
3.22409e-113
8.48348e-115
6.79533e-128
9.41413e-104
0.0266325
1.56893e-63
1.70175e-07
8.83493e-08
0
6.32606e-51
1.17704e-07
0
2.09154e-37
1.14597e-74
7.96452e-131
2.13734e-128
3.9363e-05
8.78727e-08
2.08605e-131
1.44756e-121
0
0
3.42547e-19
0
0
4.19397e-131
8.10438e-106
1.04228e-138
6.09425e-89
0
0
0
6.54919e-87
1.79623e-09
1.60164e-131
9.81338e-90
3.46368e-129
0
2.94722e-118
8.74576e-131
9.18985e-68
2.89764e-82
0
0
0
0
9.54691e-67
2.30993e-98
8.63261e-131
5.77236e-104
4.70199e-14
1.26322e-110
2.39213e-48
1.32193e-53
1.58968e-108
9.70822e-111
3.53616e-68
5.85277e-132
5.96373e-13
4.75344e-130
6.26755e-125
1.53777e-08
7.93875e-10
3.03331e-84
0.0104882
4.4544e-93
0
6.82467e-05
1.27066e-118
1.35992e-08
0.00927587
0.0386702
2.72652e-115
1.55628e-87
4.69899e-83
5.38914e-129
6.86309e-115
1.19698e-84
1.38664e-07
3.95635e-33
2.42722e-12
0
1.23119e-130
2.3826e-130
1.5323e-73
9.04508e-10
2.74101e-90
0.00452704
8.2962e-95
4.05596e-130
0
0
0
1.17721e-120
4.06463e-115
0.00489044
0
8.15653e-127
7.09612e-84
0
0
1.87643e-120
7.82341e-22
0.009723
6.16479e-08
3.51461e-125
7.42277e-124
1.24154e-114
8.33065e-132
9.8871e-102
2.49745e-109
8.54166e-128
5.61249e-127
7.35411e-126
3.64651e-72
1.85585e-114
2.64032e-116
3.96798e-79
0
1.02949e-35
1.09585e-32
0
1.71859e-75
2.62993e-79
5.33143e-67
0
1.1276e-95
2.95561e-146
9.85771e-58
0.00766291
6.51899e-05
0.0200941
6.50271e-95
9.0325e-127
0
0
2.7302e-58
6.41302e-57
0.0148526
0.0191727
0
3.40364e-106
1.65822e-54
0
6.85792e-61
7.47707e-61
0.0192702
3.67536e-87
6.57501e-88
1.82696e-60
3.92556e-86
1.04066e-103
1.09217e-77
1.64866e-117
2.03924e-82
1.55063e-23
3.56943e-142
2.18213e-10
1.06758e-09
9.13304e-104
2.79028e-144
5.40221e-102
1.29767e-60
2.81358e-124
2.97565e-47
2.60099e-58
0.0067124
0
1.22164e-114
2.43499e-46
2.03591e-117
3.82167e-55
1.02147e-07
1.36512e-136
3.16861e-48
0.0189259
0
3.34943e-38
6.58749e-136
6.03709e-67
0
0
8.00019e-06
3.64168e-07
3.78279e-06
1.77841e-115
1.66985e-45
7.24916e-90
8.79763e-06
1.25319e-07
2.55444e-95
0.0050664
0
2.54269e-117
0
4.27894e-99
3.71549e-110
0
8.61041e-16
8.32086e-69
1.32243e-91
2.30266e-88
0
1.97579e-69
3.51225e-107
3.67762e-152
9.21427e-68
1.3592e-96
0
0.0153858
0.00798431
0
0
8.39663e-89
0.0255974
1.91076e-100
3.64197e-131
1.46273e-47
2.73636e-68
5.92602e-71
3.28346e-69
2.84849e-57
2.16044e-61
1.37265e-71
1.61144e-110
4.05998e-100
0.00186309
6.45825e-32
2.00374e-55
3.11033e-66
1.78249e-07
8.025e-60
0.000126764
2.30004e-59
0
1.10416e-07
6.2047e-96
1.41819e-05
3.5664e-06
6.29498e-63
7.97811e-16
1.3429e-87
1.54083e-81
0
0.00180757
6.60854e-66
0.0113491
1.61538e-06
2.03297e-83
1.44512e-05
1.25822e-83
0.00237228
9.18406e-61
3.55155e-06
1.09953e-136
3.48283e-32
4.91608e-110
7.8763e-59
5.07385e-05
3.06011e-05
4.89442e-116
5.63807e-92
1.48257e-85
8.60351e-78
7.03875e-106
8.51811e-46
0.000630951
0
4.1925e-77
0.00011478
7.00891e-99
0
2.95371e-106
0.000150584
1.04941e-07
0.000712635
1.2714e-131
0.00194249
2.31202e-29
1.09933e-06
2.50222e-134
8.77115e-134
0
1.16676e-121
1.98886e-05
1.85499e-10
9.7914e-149
0
0.0190828
1.00899e-06
5.25982e-118
1.02309e-112
0
1.68648e-109
3.30559e-84
3.01365e-120
3.48227e-105
3.41407e-88
2.83415e-75
4.5172e-71
1.53456e-112
0.00177693
1.85615e-23
4.72524e-29
5.32892e-19
1.05475e-73
0
0
3.22577e-136
2.11474e-73
0
1.78601e-118
4.05237e-100
0
0
1.49666e-86
0
7.88882e-13
1.00033e-49
6.71735e-11
1.05822e-08
7.62257e-20
8.69046e-59
1.77519e-67
5.07728e-12
1.50019e-57
5.20673e-55
0
0
4.03122e-110
1.12553e-43
5.64494e-125
0
0
9.41067e-06
0.00137357
4.12076e-19
0
4.44698e-103
7.06506e-102
1.4838e-72
3.25443e-40
1.26577e-59
3.73935e-55
1.4241e-59
1.79487e-20
5.76138e-39
0
1.2456e-63
3.55423e-31
4.6522e-55
9.12685e-24
0
5.04531e-39
1.14643e-87
6.64569e-68
8.72129e-38
8.07128e-123
2.72803e-101
0
1.57123e-62
4.61717e-34
9.30379e-12
3.42565e-70
1.86476e-102
0.00664634
2.97596e-67
2.6742e-24
1.06799e-27
6.12686e-107
6.85329e-62
7.76768e-70
4.93707e-125
0
4.26175e-71
0
0
2.928e-88
2.51254e-89
1.83919e-29
0
3.13891e-61
1.91188e-09
0
4.22032e-75
7.38644e-10
2.75458e-42
4.02944e-91
3.60861e-119
4.17359e-11
6.10257e-85
1.22159e-121
0
4.78296e-48
1.73801e-96
2.75518e-36
0.00462882
1.91083e-97
0.0217751
9.75894e-143
2.05497e-94
1.47172e-94
0
3.78428e-102
0
0
2.44615e-129
5.68013e-09
0
0.0139075
0
2.2492e-90
0
0
4.53399e-49
0
2.72895e-43
3.0263e-44
5.01698e-108
9.70666e-62
3.40971e-31
0.00660415
2.53418e-06
2.93905e-79
3.63208e-102
1.2993e-49
2.83993e-58
4.72246e-61
9.1447e-32
0.0716947
0.00594851
2.45604e-05
1.49477e-41
0
0.00686306
0
4.11524e-08
9.56599e-48
1.26855e-69
9.40172e-66
1.87073e-120
1.47585e-77
2.01101e-28
0.0228462
0.00599772
2.1859e-88
7.44351e-128
4.05766e-47
7.79317e-117
7.06223e-45
1.89492e-68
8.31462e-05
2.4639e-101
1.00415e-105
4.41055e-119
1.4382e-21
5.90929e-26
3.42497e-62
2.13068e-77
0
2.85697e-50
0
0
6.574e-05
1.21621e-116
2.21166e-40
0
6.76403e-10
4.44485e-57
1.19284e-09
5.30474e-61
4.44674e-40
0
3.34516e-31
1.30258e-118
0.00972002
4.49575e-132
9.62288e-18
9.58141e-129
1.70998e-63
0.0240408
5.68571e-33
2.18217e-109
5.68036e-100
2.54641e-14
0.0300242
1.02065e-34
8.29155e-05
1.1442e-49
6.29314e-12
2.76543e-10
1.18862e-34
1.4348e-101
0
0.00288312
7.42829e-20
1.20567e-23
0
2.56907e-22
1.21045e-85
7.75498e-30
1.2171e-104
4.41446e-33
1.75932e-60
0
1.23296e-31
1.8673e-34
4.54224e-36
7.1714e-21
0.010663
0.0110706
8.86411e-05
6.37958e-43
9.36594e-09
0.013537
0.00428236
0.0191537
0.00924558
0
4.01412e-40
8.34216e-88
1.536e-105
1.12026e-63
2.85019e-47
1.33786e-43
0.0046963
0.00683872
4.80106e-40
6.05925e-29
4.61174e-21
0.0155113
0.0137704
0
1.17454e-17
1.04718e-14
2.22025e-113
0.0192263
9.54866e-21
0.00385304
2.08694e-16
3.08897e-38
0.0240429
2.11571e-38
0.0011805
4.49541e-17
5.50434e-16
0.000112801
0
3.45582e-62
1.23075e-29
0
7.40678e-63
0.00497246
9.51806e-31
0.00677888
1.85007e-28
0.00018121
6.69882e-34
6.86072e-99
5.17185e-128
0
1.0475e-28
1.36943e-133
2.93014e-34
7.63647e-61
1.82155e-107
0
1.87438e-28
0.0234735
0.0161886
3.86427e-71
0.003387
8.65991e-58
1.96754e-29
6.59922e-16
0
2.90149e-31
0
5.90182e-29
1.26896e-17
4.97558e-22
0
6.86515e-29
6.58846e-21
0
6.02939e-16
0
1.19604e-21
6.98534e-28
2.42041e-20
9.33018e-26
0
9.00676e-141
0.00222954
1.37229e-132
1.65957e-58
4.12898e-22
1.4451e-83
1.97639e-23
0.0279269
0.00452027
3.69093e-39
4.3108e-27
2.42009e-31
5.49631e-32
3.22539e-35
2.85185e-19
1.19517e-77
0
5.49553e-134
9.41761e-37
2.38589e-135
9.03867e-24
8.57534e-133
4.50649e-29
0
2.79065e-62
1.32643e-30
8.43602e-129
6.84715e-35
1.21976e-50
1.10764e-07
0
2.95277e-29
0.00237285
4.91617e-151
7.95752e-71
3.2348e-47
0
3.58623e-119
7.81315e-08
1.31101e-07
0
8.4747e-46
0.000492083
8.28993e-08
2.4591e-49
5.73543e-70
1.20931e-08
2.30955e-46
7.99928e-48
3.01883e-31
9.2835e-76
2.47852e-22
0
2.00749e-101
0
5.21536e-127
0.0208376
2.50977e-109
4.7044e-80
0.0413938
4.77307e-38
5.79841e-05
5.31381e-54
3.193e-10
5.17485e-97
2.06966e-24
4.40073e-37
0
6.61576e-55
7.85338e-41
3.0646e-99
0
0
1.20132e-75
2.35699e-78
5.1746e-47
2.39524e-59
0
1.16399e-06
8.77499e-86
2.1691e-07
0
1.57896e-84
0.0398265
0
0.00114063
1.08618e-63
2.31839e-81
0
0
3.34145e-20
1.07761e-60
2.35745e-11
1.06754e-09
1.07625e-26
6.1453e-17
0.0133946
5.93229e-13
1.15756e-44
5.72298e-21
2.89019e-62
4.4709e-41
1.29576e-05
0.0467409
5.53684e-40
3.35137e-70
2.05623e-43
3.41818e-05
4.14394e-37
3.97123e-56
5.882e-07
2.34678e-56
0
0.000504892
2.18301e-44
0.000828831
0
0.000277377
4.99319e-43
6.06519e-28
2.50826e-92
7.07708e-16
1.37188e-28
2.59307e-85
1.28868e-93
8.42387e-96
0.000164298
6.27576e-39
0.031906
2.11184e-112
2.47724e-108
1.22368e-66
4.08998e-13
3.32e-48
1.2425e-13
0
2.43959e-72
6.36708e-21
0.0233701
3.05694e-101
1.04494e-14
9.86071e-29
0.000893744
2.16786e-60
2.97168e-11
0.0161971
0.0346999
9.16636e-35
6.51209e-24
1.76943e-59
5.02266e-08
1.25898e-130
3.28972e-06
0.0250572
0.000291276
0
7.15586e-113
7.11183e-18
7.37849e-32
0
5.27121e-107
2.63589e-141
7.20494e-28
4.57508e-10
0
1.92787e-10
4.97266e-25
1.0943e-51
1.4257e-08
0
4.51641e-97
4.15471e-06
0.000417695
1.06697e-48
2.16273e-18
5.23934e-160
3.02401e-104
1.27256e-29
7.08333e-15
2.71832e-06
8.98984e-64
5.73839e-07
0
1.63604e-31
1.42141e-39
0
1.51975e-31
0
0
1.83931e-132
4.09574e-34
2.68451e-54
9.24428e-15
1.66714e-93
3.20536e-112
4.33604e-18
0
8.40937e-24
3.31498e-34
5.46089e-34
2.50238e-37
1.56345e-98
1.41466e-05
4.09207e-97
0.0074799
1.08189e-39
4.11473e-43
2.89113e-122
3.63499e-49
4.7444e-14
0
0
4.0381e-05
3.15473e-20
1.86367e-15
5.16312e-103
4.88656e-41
2.32084e-16
1.91339e-08
2.14562e-90
7.12069e-11
0.00226608
9.74418e-40
1.21599e-51
3.58231e-38
9.05712e-48
5.28019e-48
0.0318624
2.50774e-17
0
1.22878e-09
6.665e-37
1.132e-22
3.12307e-49
2.19502e-37
1.67744e-08
3.51831e-07
0
2.99685e-123
0
1.29428e-07
0
2.73745e-105
5.56589e-128
1.12365e-07
1.57374e-52
1.7335e-54
6.5643e-56
1.02365e-101
6.9059e-61
4.01227e-58
3.04557e-57
9.5673e-19
0
5.91193e-66
0
1.28359e-123
0.0322801
5.20475e-103
1.16867e-60
2.59545e-103
0
6.06569e-99
0.0130817
3.16806e-10
1.13447e-81
5.37576e-54
0
1.04199e-44
1.38704e-17
2.02405e-27
1.66106e-83
0
7.62654e-08
8.56062e-102
1.79397e-07
7.54662e-15
0.0027454
2.04979e-113
2.21634e-50
1.2787e-51
9.63611e-104
2.26687e-55
1.95846e-31
3.92816e-113
3.65318e-116
3.23356e-54
1.20609e-99
0.000881994
1.93498e-56
1.0742e-30
2.23557e-122
2.36927e-55
1.96635e-34
2.81593e-12
0
7.58896e-60
0
9.03254e-87
7.59121e-42
2.00597e-25
1.96861e-94
2.32335e-143
2.87858e-104
7.39456e-05
3.49904e-68
1.9597e-21
1.54014e-110
1.1159e-15
1.62012e-25
6.38864e-111
0.0125394
6.01438e-47
9.19955e-29
4.09486e-28
0.0141939
4.44438e-44
0
7.8881e-25
0.0192658
1.70365e-78
4.73003e-107
0
2.11634e-19
5.54891e-19
0.00182454
1.36887e-15
7.65255e-87
1.02325e-36
0
2.65632e-13
1.09721e-42
1.53734e-13
4.90155e-37
2.57495e-15
4.31051e-27
9.22155e-09
5.73614e-14
5.69346e-16
3.1991e-83
0
0
2.17583e-76
0
7.37582e-137
8.11488e-32
5.24516e-05
1.68018e-66
0.0186887
1.02683e-25
3.26965e-67
6.86195e-76
1.04054e-20
1.16497e-15
0
3.67032e-25
1.37721e-52
3.57417e-55
0
3.86535e-38
3.42406e-08
2.39407e-18
0
3.49208e-11
1.43136e-114
1.04873e-62
4.72113e-56
2.7822e-123
0
1.6602e-58
0.0155176
4.56894e-34
2.32945e-138
6.75021e-59
8.6545e-123
7.40949e-74
2.74478e-89
9.98704e-128
1.13219e-37
3.25479e-52
6.3486e-58
0
1.06316e-57
7.55085e-58
0
8.19073e-54
0
1.2189e-75
2.14829e-100
8.78692e-38
0
0.000251487
2.11868e-30
1.99856e-40
0.0278723
8.93906e-53
1.2273e-141
4.83864e-35
0
1.74449e-88
3.93755e-52
5.95398e-66
5.03598e-50
1.42754e-69
0
4.95649e-72
2.48986e-38
1.06245e-69
8.18403e-69
9.59266e-54
1.11188e-73
5.71743e-07
1.06434e-06
0
1.24788e-92
2.41906e-87
2.73283e-46
2.40866e-45
0
0.000100754
3.60724e-113
0
0
1.36347e-105
0
4.68451e-65
1.46363e-20
2.26391e-43
0.000847167
1.05771e-37
5.58349e-37
4.43092e-32
1.6281e-08
9.39964e-21
5.96847e-24
0
1.70546e-35
1.12627e-08
9.02851e-143
2.27955e-17
6.40392e-83
1.71512e-84
7.75587e-84
0.00113182
1.46764e-16
0
1.88143e-10
5.16002e-108
3.00121e-05
2.66372e-10
7.27855e-80
2.33019e-64
3.81234e-54
7.78098e-45
6.4974e-52
2.9322e-41
9.345e-134
1.71368e-10
0.0072895
2.35078e-15
7.57642e-89
5.54273e-148
6.22579e-14
0
1.68122e-117
2.68964e-113
0
6.98143e-108
1.65797e-06
1.00346e-08
0.0115775
0
0
1.10474e-91
8.89976e-09
4.83188e-17
2.95375e-65
2.1103e-116
1.84976e-09
2.78595e-30
0.00289163
8.43131e-07
6.85876e-21
9.12812e-08
1.2953e-61
0
1.54046e-37
5.14069e-110
3.78024e-41
0.0529874
1.98546e-93
0
1.9895e-95
8.28473e-05
0
1.73927e-91
1.05343e-28
3.4639e-45
0
0.00952443
1.28486e-91
3.06361e-32
9.12995e-46
1.57792e-14
5.02847e-103
5.47008e-42
2.35467e-113
1.32552e-30
0
0
5.36899e-25
1.42786e-102
0.0105939
3.52937e-95
2.28006e-109
7.4769e-108
1.41993e-38
2.18923e-08
0
6.48278e-19
8.1705e-40
4.63435e-07
5.58003e-05
9.75572e-86
0
7.12486e-23
1.58832e-61
0.00104848
0.000450835
0.00022033
2.69712e-17
0.000363125
0
0.00090885
0.00110835
0
2.54844e-80
0
6.0934e-41
1.19837e-59
5.06636e-98
3.87495e-97
4.57819e-73
0
1.60439e-55
1.18762e-57
5.30687e-19
1.15032e-109
4.57282e-60
1.16523e-89
5.93102e-36
3.11486e-87
2.16828e-91
1.01909e-76
0
1.7195e-06
2.61304e-90
0.000105464
2.49978e-29
1.4159e-68
1.79203e-39
8.1276e-69
8.24032e-23
6.71423e-99
5.1588e-48
2.00727e-20
7.17025e-89
8.54451e-39
3.35143e-37
1.63746e-108
1.30182e-37
0.000282185
9.4971e-39
0
2.07426e-37
2.3306e-22
6.57695e-27
4.51713e-35
1.33956e-87
1.92312e-97
5.81992e-75
1.30378e-33
5.92998e-100
1.54193e-124
9.1564e-37
3.46484e-97
6.11868e-57
4.17801e-45
9.21284e-07
2.19848e-36
9.11967e-17
0.0172086
7.26244e-103
3.24724e-09
6.2661e-121
0
4.46913e-93
1.68056e-73
1.13072e-94
0.0164556
0.00191678
2.06896e-07
3.09963e-25
0.00551763
4.47181e-14
3.07923e-96
0
4.55699e-151
6.27875e-30
1.21737e-32
9.29685e-45
3.72591e-07
6.91169e-122
2.38843e-120
2.38983e-46
1.0479e-25
5.29317e-95
5.56085e-39
1.07941e-37
0.0628571
0.0349583
2.50438e-24
2.17175e-115
0
6.65718e-82
3.30363e-50
1.06943e-18
3.97169e-41
7.6625e-35
2.68244e-90
1.72478e-50
3.03122e-37
2.63835e-27
0.00541803
6.43277e-26
5.14767e-41
4.70911e-12
3.50371e-07
2.66383e-48
2.43674e-26
1.50028e-09
1.89024e-53
6.00241e-44
2.66435e-35
0
3.81167e-43
0
1.55015e-39
1.112e-28
8.67746e-18
0.016388
0
3.68003e-37
0.015842
0
3.41318e-104
0.0167564
0
5.16107e-127
0
1.01393e-58
0.0182116
1.11488e-93
6.85655e-91
1.83241e-06
0
0.0259572
0
0.0259819
0
2.17002e-64
0.0248662
2.2549e-17
1.09253e-67
0.0195265
9.84958e-40
5.17123e-47
8.40438e-23
1.56419e-111
1.47184e-115
2.28428e-98
0.013884
4.25495e-25
9.35157e-56
3.24173e-10
4.67954e-91
0.000282462
0.00789783
6.317e-05
4.42942e-13
0.01092
2.38391e-82
0.00108573
3.97413e-69
1.54184e-71
0
0
2.33121e-121
0
4.80792e-104
1.18867e-118
1.28315e-06
0
4.04083e-19
0.0057329
0
1.19984e-83
0
0
0
8.72519e-108
0.00242854
6.43539e-05
5.2829e-92
2.46796e-77
4.43456e-70
7.37399e-23
3.74367e-23
1.10805e-64
4.03579e-36
1.4549e-74
1.42635e-71
0
7.43253e-09
0.0529661
1.22108e-17
0.015622
3.12999e-07
7.19118e-70
8.73708e-27
0
9.91928e-81
1.93116e-83
1.59988e-77
0.00518827
0.0188155
0.00466328
0.000847966
1.97434e-95
1.27724e-127
0.0283099
1.99746e-89
2.53876e-10
1.00931e-63
1.59588e-85
2.11435e-34
1.11684e-93
0
0
1.37343e-13
0.00121837
5.55565e-11
4.44901e-13
1.11223e-12
3.39777e-20
6.06661e-128
0
0
3.88352e-89
0
2.41438e-83
1.20341e-112
8.26278e-80
6.18821e-45
2.03314e-112
4.06324e-23
1.58558e-06
5.62733e-11
1.80472e-05
5.59222e-107
1.02008e-85
0.0184903
0
4.07292e-93
3.95565e-11
3.08704e-84
0
0.00464322
0.0190253
0.0169929
0.000184096
4.74625e-80
0.00277685
0.0282565
0.000250732
9.11172e-87
0.00527766
0.00468141
0.00403782
0.00566415
0
0.0192304
0.00172972
1.04335e-84
0.000768454
2.54914e-06
0.00223168
4.6802e-19
9.8802e-05
4.71935e-20
0
0.0122842
0.0163361
0.0191248
4.76809e-101
3.52663e-118
0.0165512
1.84557e-144
1.72902e-27
5.54585e-16
3.76003e-117
0.00191787
1.52334e-20
2.44175e-60
5.69564e-49
1.36517e-49
1.84241e-56
4.97008e-22
3.03006e-07
0.0190832
0.000269078
0.000107776
0
3.14463e-11
1.3592e-21
4.9594e-50
8.41558e-77
1.22643e-60
4.30996e-46
0
2.34609e-69
1.8213e-46
9.01665e-45
3.39675e-49
9.64272e-59
1.15663e-37
4.46154e-05
4.14349e-23
0
0.0206589
1.37023e-22
2.561e-102
0.000111477
6.96624e-60
1.01111e-53
2.06332e-52
0
1.39704e-104
0
0.0149468
4.89451e-13
1.38692e-31
1.21767e-05
0.0129865
9.36065e-20
0
0.00707031
8.54223e-06
5.43303e-23
0.000342375
5.93896e-98
1.38455e-19
0
2.24272e-06
0
0.00204988
3.52407e-76
3.51199e-113
1.0189e-127
0
8.75208e-09
2.78427e-119
0.00634352
0
8.28025e-05
1.32511e-05
2.06032e-79
1.99687e-103
0.0159191
0.000120178
0.010728
8.09557e-05
4.55954e-112
4.23867e-10
0.00903446
1.31098e-97
1.52474e-63
1.78396e-21
0
0.00640517
6.25837e-70
0.00679039
7.95021e-06
0.00489355
0.00664094
0.00851928
2.23506e-05
0.00596968
8.01656e-44
0.0525123
0.0245044
3.50613e-21
0.000985207
0
6.25405e-12
0.0038544
2.97111e-59
0.000791551
3.77094e-24
3.33999e-34
0
4.33402e-22
0.000132737
1.11511e-35
0
0
8.60756e-36
1.57235e-132
0
9.05614e-34
2.21615e-51
0.0458261
0.000452819
7.54836e-43
0.000197375
1.34446e-17
3.77329e-134
1.01578e-32
0.000506394
0.0251074
6.03612e-11
1.1705e-11
0.00151312
7.34958e-06
0.0196777
2.43613e-12
1.5902e-37
0.00662215
4.58287e-44
4.98614e-45
3.75589e-49
0
5.76523e-30
0.000105847
2.10515e-09
2.87669e-17
5.5091e-10
0.0186878
8.07479e-34
0.00520398
2.11527e-21
0
2.24374e-97
2.10683e-35
3.00983e-75
3.472e-31
0
0.00115431
2.36219e-05
0.0302158
0
0.00445007
5.83287e-44
0.0160854
4.7909e-35
0
2.98112e-10
2.9208e-05
4.44797e-48
6.956e-45
2.14457e-76
3.09547e-105
6.04955e-132
0
0
0.000339546
1.49213e-33
0.00559853
0.00535455
2.98608e-35
0.00243993
0.0169302
0.0466153
0.000675035
1.56104e-127
6.89646e-07
6.95736e-12
5.32995e-116
7.26465e-74
7.53759e-05
0.00514716
4.48007e-133
1.66431e-100
0
3.67086e-60
0
7.79437e-05
4.82206e-05
0.000508168
9.06827e-05
1.93458e-107
0.000923696
2.4365e-25
2.34179e-132
1.0243e-38
2.40931e-72
0
0.000252821
0
4.81865e-44
0.0035197
0
8.81025e-43
3.17549e-45
8.21609e-48
3.39988e-120
8.06223e-67
8.23868e-08
7.2398e-27
3.29248e-47
2.86144e-11
4.67788e-13
0.0166312
5.0447e-45
6.64712e-43
9.22484e-56
9.46626e-46
2.30378e-35
1.36474e-46
6.70294e-06
0.0119208
8.27175e-47
0
0.0462085
1.35349e-37
4.40912e-122
5.63383e-39
2.11625e-37
1.91126e-06
0.0268541
0.0403546
3.96259e-06
3.1802e-13
2.01458e-128
0.0129556
7.03518e-36
0.00426455
0.0245383
2.57136e-97
0.00033544
3.41619e-90
1.57528e-85
0.0269798
0
5.39961e-30
0.0248413
0.000813626
0.0228317
0.0258073
7.80558e-60
6.26374e-06
7.99714e-12
0.00404243
9.61887e-63
8.62262e-16
0.0192869
0.0224259
0.0122051
0.0041605
9.99691e-17
8.69405e-58
9.08497e-09
0.000427484
0.0141129
0.000336902
9.16164e-13
0.0245083
1.19088e-92
0
0.0255528
0.0231384
1.67246e-06
2.64543e-09
0.000655637
6.9033e-06
0.0471388
0
0.000188238
3.19249e-100
0.0232666
1.14877e-59
0
5.8019e-10
3.62087e-71
0.026086
1.19e-62
0.00087494
0.023918
1.05935e-81
5.95162e-57
0.013277
2.44154e-60
2.38021e-71
7.17108e-118
3.95182e-111
0.000229436
1.90203e-100
0.0240877
0.021679
2.36106e-114
3.37317e-113
0.0171643
4.27045e-64
0
2.24167e-10
3.40436e-108
4.5258e-104
0
3.38571e-68
0.00665853
0.00734403
0.0222287
7.40456e-65
0
0.0193682
5.4482e-82
0.00187658
0.00247107
0
4.03428e-131
8.45133e-34
1.46808e-52
0.00782652
0
3.59611e-65
1.87485e-144
4.78733e-125
0
0.00252624
7.69964e-05
4.07095e-36
5.05208e-57
0
1.08463e-48
1.91122e-26
1.97277e-146
1.19775e-07
1.4875e-92
0.000531433
0.00594888
6.42197e-95
6.45419e-112
1.94111e-32
7.97244e-26
0.0353902
0
0.00060861
3.34912e-16
0
8.52027e-25
4.90853e-14
1.33373e-84
2.85507e-31
9.15874e-78
0.00828586
1.29547e-78
0
0
3.69237e-29
1.23937e-80
0.0214395
0.000675791
0
0
0.0134179
9.56817e-132
0.00521422
7.11052e-35
0
0.0530736
0.0363326
0.00543601
1.65977e-39
7.81992e-64
1.13164e-06
0.0294027
3.18601e-60
0.0302104
7.46672e-66
0.00402676
0.00233176
7.29892e-63
0.000922199
0.0213321
0.0323226
0.0510031
0.0102572
2.53799e-31
1.51754e-70
1.91796e-103
1.5397e-08
3.95795e-08
6.5253e-14
0.0223934
7.47838e-48
0
1.05048e-68
1.31952e-08
0.0198976
0.0204264
4.03128e-69
7.09857e-22
0.00560058
9.54449e-129
0.0146626
7.20729e-55
1.32086e-108
4.08341e-106
0.0258854
0.0117114
0.0149029
0
1.06719e-95
2.05489e-62
0.0222527
5.98785e-16
0.0258492
4.49887e-131
0
0.0204961
4.4295e-10
2.06497e-135
2.34639e-58
0.0470173
4.55686e-54
6.77412e-54
6.90379e-10
0.0303448
1.36871e-21
8.13769e-12
4.77921e-136
0.0266332
0.00534693
0.00024769
0
1.13266e-58
3.34735e-05
2.87134e-78
0.0006222
0.0253959
0.00303608
2.6053e-05
8.48607e-05
5.04484e-06
0.000308308
1.01137e-139
0.0817161
0.0163909
1.3265e-12
8.39346e-138
0
0.0894417
5.34341e-130
0.0170135
0
0
0.000567031
5.63594e-137
0.0285329
0
7.98648e-12
0.0064729
0.0148966
5.36805e-82
2.16659e-135
2.35015e-38
1.03194e-25
0.0225621
5.70152e-96
0.00678417
0.00511926
1.4399e-123
2.98462e-128
9.0332e-131
7.57438e-54
1.41787e-27
0
9.89464e-20
2.96526e-58
0.028875
4.2969e-55
0.00126289
1.90665e-125
9.71284e-16
3.34045e-100
8.83324e-42
5.84262e-05
1.36996e-129
9.36605e-126
1.4994e-63
6.54281e-43
2.21407e-31
0.00902569
0.0100222
9.967e-05
1.38855e-18
8.32279e-37
0
0
1.51253e-75
2.98662e-47
4.23495e-33
8.69882e-68
1.22765e-27
1.37809e-25
0.0106462
1.35843e-39
1.45708e-38
1.25126e-61
2.82465e-32
4.65601e-24
1.70751e-103
9.41441e-14
7.68717e-80
8.38712e-23
0.0103916
3.02104e-37
8.28468e-06
4.96594e-72
2.00561e-32
5.3277e-10
2.93811e-08
3.20353e-96
1.23039e-52
2.2157e-62
5.56174e-65
1.23705e-54
0
7.21897e-31
3.97125e-17
3.21742e-40
2.16942e-64
4.43373e-82
1.22722e-67
9.38758e-12
9.9271e-65
0.00202324
9.18602e-70
1.90132e-18
3.487e-65
0
5.46897e-16
6.30526e-06
1.38705e-08
3.04024e-49
1.01205e-100
4.97983e-95
0.0102983
0.000249191
0
0.00268289
0.000626927
4.41953e-86
5.72507e-32
0
8.8875e-08
0.000350273
1.20934e-69
3.97859e-48
2.73159e-14
0
0.000789075
9.86486e-50
3.74482e-103
6.79441e-76
1.76138e-51
1.20984e-56
7.65151e-102
7.33102e-83
3.4547e-63
1.08326e-97
0.00229032
1.99821e-62
0
1.65422e-40
2.53267e-99
1.86154e-43
9.76091e-07
8.5092e-63
1.27606e-103
1.59883e-06
3.16506e-07
4.62486e-48
1.56616e-95
0
3.20306e-34
1.78544e-12
1.69737e-72
1.0443e-66
6.89916e-11
3.89574e-48
3.91309e-49
2.05779e-46
2.83923e-44
2.12168e-58
7.24031e-98
8.59958e-27
5.1797e-19
0.00234079
1.73893e-16
0.00427532
3.06344e-30
1.72021e-09
0
1.2087e-60
0.00373227
5.91904e-96
1.93818e-69
1.83555e-06
0
0.00224749
0
1.9954e-93
2.9233e-27
0.000980424
1.81395e-07
1.00152e-06
6.21866e-07
8.74432e-52
3.58944e-07
4.74897e-06
1.66756e-96
4.09199e-08
3.45597e-76
1.27003e-14
1.33703e-07
1.24845e-33
5.4941e-06
1.31615e-09
0.000538058
7.29282e-26
0.000209976
2.26303e-08
4.62774e-31
1.33416e-90
7.64197e-09
5.74825e-28
1.15773e-30
2.86641e-50
1.62576e-99
9.85103e-09
9.35497e-50
1.31741e-45
1.70013e-23
1.39351e-88
4.31928e-92
1.99756e-51
4.17077e-27
0.00456584
1.42542e-78
1.64616e-42
1.5436e-29
1.47248e-77
5.23328e-21
8.01723e-76
1.52241e-42
9.99821e-43
1.06424e-51
1.10461e-78
9.91477e-78
3.87466e-67
6.76978e-74
2.6835e-71
6.84613e-67
6.58324e-58
0
3.69402e-90
7.28749e-12
0
3.00291e-13
0.00254527
3.39793e-107
1.06671e-34
2.18675e-20
2.28734e-74
2.70933e-71
6.9443e-40
6.34004e-127
1.29495e-76
1.13066e-24
3.24521e-17
1.10183e-45
2.2293e-71
1.67712e-31
1.9183e-129
3.21689e-36
4.65672e-07
6.04315e-128
2.61525e-78
8.00179e-08
2.23844e-128
2.28907e-77
1.1583e-20
1.71817e-84
3.29881e-12
0.000145712
1.34113e-40
1.96714e-130
4.00361e-13
0.0180092
0.0110968
2.5009e-45
7.61492e-94
0
1.95183e-87
0
1.37294e-58
3.34228e-96
2.15853e-97
1.81395e-57
0.0216983
8.77231e-70
3.98272e-97
1.3737e-96
0.0257554
0.00288591
1.29639e-11
0.0222466
2.66901e-09
1.0342e-66
2.38513e-18
0
1.652e-85
2.51486e-69
1.21797e-07
0
1.17606e-72
0.00638969
0.0224082
1.39749e-62
1.27046e-65
0.023783
2.80333e-63
0.0305412
6.34442e-63
0
0
3.50828e-47
0.0199893
3.39578e-62
0.021168
0
2.58821e-88
0.0187553
7.72986e-63
0
1.90074e-09
0.0216963
1.41572e-68
2.00892e-21
0.0190699
2.69939e-90
4.23335e-14
0.0230838
2.12198e-13
2.06633e-23
3.05709e-68
3.29951e-12
3.54635e-11
5.98824e-14
0.00989431
0
1.27718e-67
1.95503e-44
5.9656e-50
8.5173e-47
0.00441324
0
1.3633e-30
1.83181e-74
0.00608395
1.87248e-28
3.67622e-47
2.18228e-39
0
3.27612e-16
2.20699e-101
0.00576327
0.0122666
8.40972e-74
0.000698716
0.00592297
0.0100973
7.07722e-93
1.19945e-46
0.00613288
2.46949e-111
0.00404905
5.34198e-42
1.13754e-18
9.30986e-85
0.00624165
2.9075e-111
2.42239e-111
6.16048e-35
2.19622e-113
0.00290874
7.35553e-19
1.21806e-19
0.0140281
0.000371595
9.25688e-100
6.56489e-53
3.02288e-17
4.63843e-57
2.4964e-100
4.97939e-66
7.03563e-06
1.21787e-58
0.000109823
8.00699e-41
2.82526e-20
0.015404
2.61068e-18
0
0.00121521
0.00544732
0
0
1.1518e-09
5.79105e-32
0.00466171
0
0.0029612
1.13122e-18
1.84308e-07
0.00104983
0.00634463
8.08471e-11
6.29208e-19
0.00554656
0.00204346
2.80674e-89
6.29369e-47
0.00579255
3.56946e-35
0
3.2244e-16
0.0292531
9.25955e-29
1.90099e-45
0.0138127
4.33292e-46
0
0.000257449
2.989e-59
0.0159285
7.14652e-74
6.12658e-07
0.000552455
0.00567562
0
5.01841e-82
0
0.0122763
4.0538e-38
0
3.41124e-33
0.0148253
0.018598
0
1.66866e-72
2.54901e-05
0.00393889
0.00408911
0.00102073
0.00108238
0
3.83932e-21
0
3.92565e-37
7.6602e-108
0
2.93477e-73
7.72088e-37
3.70916e-92
0
0
0.0701839
4.53118e-50
6.71828e-50
1.29969e-90
8.01954e-27
2.8749e-43
1.4898e-84
0.00654899
7.30401e-75
0
2.47879e-51
0
6.94725e-45
3.27251e-93
5.93681e-37
8.79401e-73
1.31846e-23
3.03816e-29
0.0266735
1.57207e-74
9.14002e-12
6.7679e-10
0.0293613
0
1.21448e-29
6.62139e-09
3.86082e-113
0
0.0116637
2.10671e-63
1.58676e-41
8.36079e-109
2.98376e-87
3.18845e-51
1.11209e-61
2.49622e-113
2.44707e-87
4.10838e-41
3.98775e-79
1.02169e-28
0.000386232
2.48434e-112
0
0
6.48905e-22
3.3798e-38
2.52603e-81
1.236e-113
0.0260735
1.75521e-82
0
0
4.69578e-25
0
7.71025e-123
6.63271e-143
0.0273532
0.0360411
6.75289e-99
0.00537841
5.85961e-83
2.03409e-121
0
8.65024e-17
6.51447e-85
3.8554e-35
2.18292e-09
2.12555e-37
1.09872e-83
0.000330231
0
0.000817534
0.0330924
2.00357e-54
2.79485e-75
0
0.021821
0
4.84575e-36
3.30094e-68
7.47442e-69
5.50454e-70
1.07394e-75
1.59923e-73
0
1.41057e-64
1.98107e-29
2.76071e-22
0.00319965
0.00190698
1.70843e-72
0.00689949
0.00190184
5.54736e-87
0.00697183
0.10518
0
6.73923e-05
5.2167e-11
2.88704e-51
6.3128e-53
1.98929e-85
5.85433e-08
0.00734198
1.07105e-92
9.56634e-95
2.2343e-57
8.19368e-82
0
0
0
1.90342e-08
1.47595e-27
4.43353e-60
9.70434e-12
0.0029533
0
6.15316e-43
0
0.00227961
0.00119551
6.10501e-86
3.52584e-40
0
4.69712e-30
0.00489812
0.0163141
0
2.88525e-18
1.281e-15
0.000181538
2.9271e-135
8.33476e-95
0.039709
1.64929e-87
1.55695e-87
7.4544e-108
3.61815e-91
1.67629e-14
6.25224e-28
8.10819e-25
9.50406e-30
0
3.68351e-62
4.80054e-58
2.97333e-110
0.0129997
0.00543026
9.97474e-107
4.86194e-15
4.89666e-112
0
1.01849e-92
0.021865
0.000253534
0.0212199
3.27976e-42
0
6.08029e-132
0
4.66837e-08
1.49468e-20
0
3.42101e-47
1.71606e-106
2.12257e-62
0.0226169
0.0392479
8.03359e-09
0
6.27073e-05
0.00398256
0.000626458
6.64129e-06
0.000737019
9.96183e-14
0.0227144
1.21552e-05
0
0
3.07565e-119
3.3821e-70
1.67604e-108
1.73634e-57
0.000133721
0.0355475
0.000762212
2.13083e-05
0.000322684
7.24032e-34
0
1.01378e-06
7.83415e-13
0
0.00285112
0
0.00727017
0.000120019
0
0.000187049
0.000825713
6.53817e-69
0
0.0246058
0
1.94342e-128
0.0020347
0.0187566
0
2.43432e-104
1.24992e-84
3.49456e-96
3.37435e-33
0
1.57126e-105
0.00375632
0.0588141
3.44151e-93
7.3535e-38
0
0.000516055
0.0015461
2.52674e-50
1.4818e-130
1.2347e-116
0.000609571
9.25449e-77
3.94535e-45
7.36384e-17
2.58331e-132
1.58084e-26
1.10017e-100
2.81378e-79
0.0348952
9.25448e-09
3.29268e-73
0
3.37969e-75
3.17134e-70
6.04981e-38
1.11954e-09
1.91859e-102
1.32912e-18
7.0151e-56
2.95886e-78
1.96361e-28
2.4192e-104
1.52936e-105
9.64423e-104
2.99437e-80
7.65038e-93
1.33375e-73
0
2.98607e-77
1.24699e-73
0.00516919
1.7864e-90
1.36929e-06
3.13518e-58
1.01388e-132
2.01617e-83
0
0
1.94374e-56
0.00213918
1.25792e-06
0.0141942
1.19906e-06
2.87806e-41
0.000211233
1.09004e-05
8.0118e-07
1.37201e-06
1.35185e-06
0.0100451
5.24975e-60
0
0
3.43341e-58
1.10308e-111
1.04798e-77
2.63613e-43
0
4.39285e-97
0.0211326
2.5861e-72
1.93292e-30
0
0
6.88009e-46
0
9.12422e-20
0.02618
0.0047864
9.52296e-69
0
1.20109e-21
0.00603577
9.16379e-25
1.66359e-28
0.00975456
0
0.00753894
9.10275e-138
4.55195e-126
2.96738e-19
0.00454203
0.00679944
0.00593711
0.00618081
0.00838268
0.00118642
0.0209712
0.00929261
0.00670114
5.63991e-101
0
6.62335e-73
0
0.000490378
0.00674686
1.68762e-07
0.00682189
0.00685298
0.0147163
2.45272e-61
0.0156781
8.20671e-07
8.67458e-115
9.56812e-137
3.14156e-106
1.81598e-08
1.22541e-05
1.06158e-21
0
0
0.0136887
0
0.0308331
1.22361e-05
3.38387e-11
0.0110134
8.4992e-121
4.76587e-13
0.0154694
1.29322e-09
5.09505e-115
7.07401e-26
0
6.35846e-105
0
0.00685783
0
3.3978e-86
0.000521917
0
0.0100989
0.000100447
1.38607e-80
7.77766e-07
3.79274e-06
2.1074e-06
0.000156166
3.47463e-06
1.19832e-19
9.50087e-06
6.83615e-53
3.30234e-135
8.34611e-06
7.43144e-09
1.92528e-06
1.75444e-06
8.90604e-23
1.41817e-39
2.59381e-23
0.00535285
0.0291017
0
1.22721e-45
5.782e-07
1.09196e-117