/*--------------------------------*- C++ -*----------------------------------*\
| =========                 |                                                 |
| \\      /  F ield         | OpenFOAM: The Open Source CFD Toolbox           |
|  \\    /   O peration     | Version:  v2012                                 |
|   \\  /    A nd           | Website:  www.openfoam.com                      |
|    \\/     M anipulation  |                                                 |
\*---------------------------------------------------------------------------*/
FoamFile
{
    version     2.0;
    format      ascii;
    class       volScalarField;
    location    "4";
    object      G;
}
// * * * * * * * * * * * * * * * * * * * * * * * * * * * * * * * * * * * * * //

dimensions      [1 0 -3 0 0 0 0];


internalField   nonuniform List<scalar> 
108993
(
1838.79
1868.1
1837.37
1837.23
1837.23
1837.23
1892.47
1837.23
1837.23
1843.46
1837.39
1837.38
1837.23
1837.51
1837.32
1841.99
1857.08
1837.25
1837.23
1907.01
1837.28
1837.23
1840.35
1837.65
1837.23
1837.24
1837.22
1932.66
1858.41
1837.23
1837.22
1837.31
1837.22
1845.85
1837.23
1837.24
1837.22
1838.34
37057.7
36444.5
1845.25
1838.14
1837.35
1837.23
2089.38
62682
1837.22
1887.89
1837.84
1855.1
1837.23
3198.28
1852.26
1837.23
1837.26
1837.94
1837.23
1837.22
1837.49
1837.22
1837.22
1837.22
1837.23
1837.22
1837.22
1837.26
1837.22
1837.23
1837.35
2373.84
1837.48
1837.23
1837.38
1837.23
1837.62
1837.23
1837.22
1839.54
1837.23
1837.23
1837.23
1837.35
1837.38
1837.6
1837.26
1837.38
1837.92
1837.34
1837.23
1837.23
1837.22
1837.23
1837.22
1837.23
1837.22
1837.91
1837.23
1848.52
1837.23
1837.24
1837.22
1837.23
1837.5
1837.46
1838.34
1837.22
1837.23
1837.22
1837.28
39637
2529.57
1837.22
2634.15
4592.95
1841.68
5762.78
1837.23
1842.8
1912.25
1837.23
1837.33
1837.22
4056.17
1837.97
1837.52
1852.26
1843.67
1840.6
1837.22
1837.22
1837.39
1837.22
1837.55
6243.87
1838.93
1837.73
1837.22
1839.95
1837.23
1837.38
1837.77
1837.25
1887.3
1837.22
1837.22
1837.91
1839.19
36994.3
1837.74
20244.1
21526
1837.23
1840.45
22663.4
1837.94
2015.9
1841.73
1837.22
1837.22
2079
23379.9
1837.22
1837.23
1837.48
1837.28
3620.99
1837.22
1837.22
1837.22
1846.65
1837.28
1837.9
1974.35
1837.92
1864.47
1837.26
1972.49
1837.22
1840.26
1837.91
1840.72
1837.37
1837.23
1837.98
1837.36
1840.36
1837.23
1837.31
1837.36
1838.01
1843.56
1837.23
1842.37
1975.99
1844.04
1839.22
1844.85
1850.38
1839.9
1837.98
1837.22
1972.22
1837.36
1837.22
2130.9
6864.75
1837.23
14402.8
1839.52
17938.3
2575.77
1844.82
1984.05
7521.34
252446
1840.19
1837.42
1837.23
1837.23
1837.22
1837.44
18996
1856.76
1930.32
1837.4
1837.22
1837.22
1837.33
7160.53
1837.26
8105.57
1837.67
1837.22
1858.87
1837.31
1837.22
1837.23
1837.22
3437.11
1837.22
1837.22
1837.3
1837.22
1837.22
1837.22
1848.38
8445.91
3863.73
1837.22
1837.25
1837.23
1837.22
1837.26
1846.19
1837.22
1837.22
1837.22
1837.41
1837.23
1837.23
1837.25
1837.61
1967.08
1883.1
1837.24
1837.27
1837.25
1838.42
1837.23
1837.44
1837.23
1837.29
8898.55
49709.6
27673.5
1841.95
1837.23
4037.86
1838.66
1837.99
1838.24
27878.8
35333.8
1837.23
1837.22
1845.22
1837.23
1840.55
1838.44
26221.7
1837.44
1837.23
1841.67
1837.24
1837.24
1837.23
1837.23
1837.25
1913.74
1837.22
4431.8
5362.91
1837.32
1837.22
1837.3
1837.85
1837.42
1837.31
1837.79
8252.15
1837.22
1837.22
1868.78
1837.24
1838.02
5322.88
1837.22
1889.66
34113
1837.34
1894.58
1837.22
1840.7
1840.83
1850.01
13206.9
52700.8
5423.55
1837.23
1839.07
1849.02
3939.02
10489.3
1837.23
10711.8
1837.33
1837.68
1837.22
1839.15
1837.22
1837.39
4158.49
1846.38
1837.32
1837.93
1837.29
1837.24
1837.23
1837.24
1837.25
1837.32
1837.23
24265.8
13718.2
1837.34
1837.31
1837.72
30938.8
1837.35
1837.22
1837.65
1845.51
1837.24
1837.42
1837.65
1851.93
1837.33
1837.23
1837.41
83799.3
1853.3
1842.16
1837.26
29906.4
1859.3
12615.1
1838.32
1837.69
8784.72
1840.1
8539.52
8880.03
1853.94
1866.36
1837.34
1844.74
1839.62
22533.1
1837.4
20992.7
10986
1849.05
10968
1837.85
6663.96
1848.08
49163.1
1837.3
1966.1
1837.24
1849.79
4450.08
4243.94
1837.64
1837.5
1851.07
1845.9
1842.04
1837.54
34266.3
1837.3
1842.04
115532
1837.43
1837.31
1837.25
21295.9
2044.67
7407.33
1837.23
33331.8
1890.06
28214.5
1837.22
1837.22
35730.2
1837.33
5067.61
41323.2
1837.23
35949.7
38365.6
36417.9
1837.22
1838.76
1843.68
1837.62
1837.31
1837.23
1837.25
1837.37
1837.28
1837.32
1837.97
2941.1
1983.86
1978.1
1962.41
1837.28
1837.94
1837.29
1837.22
1837.32
1843.21
1837.23
1837.36
1837.36
1837.8
1841.88
1837.34
3802.2
1837.95
3791.35
11692.3
1924.71
1837.46
1837.28
3791.3
1837.47
1837.72
1871.75
1837.23
1837.22
1847.83
1837.46
1901.7
1837.26
2522.68
9770.85
2048.91
1837.53
1837.22
1837.24
1837.24
1838.08
1837.94
1837.46
1837.64
1911.93
1848.35
1837.32
1837.26
1990.34
1837.85
2307.01
1837.23
1838.57
1837.46
1837.28
1844.94
1837.22
1837.23
1837.26
1837.37
2096.33
8346.19
1837.29
1837.25
14071.7
1837.27
1853.24
1969.29
1837.23
1843.73
1837.26
1837.22
1837.23
1837.28
1839.5
1851.39
1842.11
1842.18
1970.44
1847.08
1838.82
2037.51
1843.88
1837.84
2017.53
1843.93
1843.01
1837.24
2010.84
1837.63
1843.04
1839.5
2654.18
1837.3
1845.24
10837.3
1837.23
24011.6
1837.23
1837.23
1838.25
1837.67
1837.23
1989.86
1853.5
1837.25
4468.78
1842.14
56075.3
1837.26
1837.32
1837.23
1837.22
1888.85
43519.5
1843.54
1848.85
1837.23
1837.93
1907.27
3985.81
5380.43
1838.12
1837.25
1848.61
1845.09
1837.68
1853.68
114564
3947.39
4826.61
1868.41
1837.84
4177.22
46052.9
2107.72
1838.23
1847.47
1837.23
1837.23
1837.6
2350.94
60805.2
4000.67
1837.46
1837.23
1847.97
1837.47
1840.55
1837.28
47930.2
1837.22
1837.24
1837.47
1837.93
1882.22
1837.36
1837.64
43880.9
1915.62
1837.45
1837.49
46742.1
1837.5
1868.43
1837.51
8882.54
1837.57
1904.29
1837.6
1879.3
1837.63
1840.8
1837.49
7780.52
1837.25
6277.29
1837.25
1841.98
37107.6
1871.24
1837.23
1837.23
3276.03
65367.8
1840.97
6102.84
1837.96
4104.61
4833.02
1838.22
1837.23
1837.49
15342.4
2336.35
2449.78
1837.44
2772.44
1837.41
1863.97
1837.26
1838.48
1837.65
2132.44
1905.36
1841.64
1841.89
2321.98
10418.9
15676.7
2033.38
1840.4
2077
15516.5
3003.56
17708.3
13509.3
1837.24
1850.54
1837.23
1837.24
1867.71
1898.45
1848.1
6646.25
13215.9
1903.65
1898.44
3902.25
17176.9
17615.2
1837.22
1874.96
1884.58
1837.25
31006.3
1882.48
3380.05
1953.63
1840.53
31646.7
1862.01
2399.3
1869.79
1883.76
37032.1
1837.22
1837.62
1995.57
1840.62
1841.01
114000
1859.84
8597.59
1867.38
108401
2169.04
1837.23
1837.23
1837.23
1927.12
1837.23
1986.7
1840.67
1837.29
1837.23
1873.38
17362.4
113094
1837.24
58676.6
1837.24
2213.43
1929.26
1837.22
2353.79
1839.47
1840.11
2273.02
1843.07
1837.3
1842.73
1965.13
2585.15
3494.74
1837.24
2073.95
1841.48
1842.65
1840.41
1837.35
1837.22
3000.98
1837.22
1837.39
1869.12
1837.34
1845.03
79951.6
12026
1839.19
1898.56
1841.39
1848.88
1840.71
1910.36
1839.27
1837.22
1837.23
1839.06
1837.22
1964.2
1837.23
1841.84
1958.65
1837.3
1840.59
1837.22
1839.49
1837.88
1972.18
1858.64
1859.22
7332.81
1837.24
1837.26
1838.04
2369.61
1837.9
3978.35
3449.09
1837.67
1838.08
66818.9
4727.49
1838.75
1837.25
2009.91
1837.73
1837.81
1869.42
1863.26
1980.76
1837.23
1837.78
1896.04
1837.25
37219.4
1837.3
1842.57
81258.1
1860.57
7039.65
1900.35
20913.3
1837.23
1971.9
1879.41
1837.22
1837.43
1851.39
1837.23
1842.13
1837.36
1837.32
1837.38
1838.11
1844.93
1837.29
1976.74
1844.59
3658.01
1838.02
1837.41
87761.8
1837.97
56885.7
1842.32
1837.48
1852.46
115408
1949.48
1837.78
1975.44
2457.62
1871.91
1888.11
13947.1
1977.09
1838.35
2052.45
1837.93
1838
2025.27
87175.6
1837.8
1837.4
1838.02
2068.33
1839.86
1837.9
2085.6
1837.5
1837.28
22402
1838.84
28402
1844.37
19595.6
1838.91
1968.73
1869.44
1962.05
2571.28
1837.34
1870.36
1872.79
2171.42
1857.65
45359.2
1837.39
1837.64
1837.34
2283.06
1871.14
2020.53
1837.24
1837.38
1934.17
38311.1
1837.93
1944.89
2480.51
2448.87
1869.87
2397.59
18308.2
46721.5
1859.75
3885.88
1839.59
12617.9
1837.22
14820.1
41934.5
25799.5
1837.22
1837.22
1888.83
1916.08
2129.62
1838.13
1837.25
2225.96
4545.43
1837.22
3740.26
1981.64
1838.24
11924.2
1837.31
1837.64
22287.1
33789.9
1837.7
1906.22
1837.23
1837.26
2000.94
3485.59
16489.2
1863.2
15623.2
1936.22
1995.91
1844.07
1837.33
1892.76
1856.87
1843.17
1837.23
1846.65
1837.32
4020.51
1837.92
1837.24
3358.42
1837.24
2084.84
2221.93
1897.65
1970.62
1837.22
7679.5
1837.49
8284.94
1843.99
1837.3
1837.22
2250.92
3563.38
1837.24
1850.94
19372.2
2604.29
5164.12
1837.25
1955.37
3374.67
5227.35
1837.3
1999.42
8139.38
1975.97
1850.81
1960.55
1852.51
2895.57
47366.7
3271.51
2002.04
2038.43
1873.46
1918.8
1934.08
1898.72
2050.25
8016.7
1849.1
1837.23
1839.74
2102.84
1837.23
1837.78
1837.24
2114.14
1843.42
1837.49
1843.28
1839.85
1838.62
1845.97
1838.75
4429.42
1845.99
1837.36
1844.2
1837.24
51375.8
1837.59
1837.24
1840.6
1837.24
1840.11
25557.2
2075.96
1838.61
1843.34
1837.23
3434.55
1917.83
3122.17
1845.08
1844.61
3416.58
1837.28
2062.48
2462.16
2561.65
1837.23
1843.64
1844.8
1838.45
1837.63
1880.26
1837.26
1837.23
1838.85
1837.23
5044.54
1840.36
1881.23
1837.22
1840.41
1857.83
2178.82
1870.69
1869.55
1841.56
1837.53
1852
2088.71
1851.78
1837.23
1837.23
57930.3
1837.47
1944.02
1841
1957.69
1843.57
1837.22
24805.9
2977.97
1882.45
1893.92
33957.4
1953.83
2180.44
1944.55
25011.7
1837.87
1838.43
1840.32
2125.84
1910.13
46179
1925.86
1841.38
1839.36
1841.52
1933.94
1837.97
1951.34
2617.11
1929.86
1857.06
2731.2
2355.73
1900.91
1837.28
1837.23
1837.23
1837.24
1837.22
1837.24
1862.46
6162.84
1845.44
75208.1
1903.83
1840.65
1837.5
1887.45
4946.73
1837.22
1909.67
1837.7
1883.32
1837.22
1886.71
29072.2
1907.97
1837.71
3467.75
1837.39
1837.29
1837.51
1837.22
1837.22
1842.07
107493
2131.3
1837.24
1838.74
1837.22
1837.96
1838.26
1837.23
1840.58
1837.42
1837.72
1837.26
1859.3
1854.97
1839.61
1838.02
1838.03
1837.24
1844.3
1841.97
1844.55
2537.76
4164.15
3160.22
38607.3
1841.81
1837.27
1837.93
1837.23
1837.51
1843.79
1841.93
1837.91
1838.57
4859.39
1837.88
1850.31
1840.56
1841.62
1843.85
1837.56
65867.4
39320.4
1844.7
1837.28
1837.26
1840.49
1845.08
1837.32
4953.96
1837.26
1837.47
1837.22
1837.23
1837.23
1869.61
1933.69
1844.92
5617.64
1959.7
1914.9
1917.75
10012.6
1966.71
1932.86
1837.24
1837.74
19457
1837.23
1960.28
1849.23
1851.89
1845.61
32447.1
1977.94
1837.23
2009.86
1837.24
2082.39
1995.83
1844.5
1837.24
1839.19
1837.69
1838.67
1839.54
1837.45
9202.41
46074
1977.64
1837.34
1837.23
1986.73
1838.22
1837.23
1838.24
1837.23
1837.99
52069
2070.43
7196.43
1837.72
1911.85
1837.38
2062.77
4028.21
1839.51
1837.32
2021.31
1840.13
2647.39
2033.4
1950.1
3256.62
1837.25
1837.28
1852.24
1837.23
1837.61
66174.5
1838.12
1837.57
1837.67
8075.71
1843.56
1837.23
1961.66
1837.37
3914.82
10267
1837.25
1868.01
1849.92
1927.44
1837.8
1843.82
1837.23
1867.48
1837.22
3761.56
1933.81
1837.58
12216.1
1837.84
1837.47
1837.26
1897
27391.7
1837.33
1884.39
2687.1
49879.2
2295.27
1838.11
1837.37
1939.78
1837.25
5162.36
5109.02
4792.3
3914.34
4936.28
1837.22
5555.75
5334.07
1847.83
1851.65
1837.24
2533.71
1837.25
1837.23
1837.33
1857.95
1837.22
1843.78
1841.91
2306.14
1837.23
1837.28
1842.87
1897.97
1843.65
1842.84
1837.25
2276.39
4388.85
1842.05
3460.64
1851.11
1839.38
1842.3
1839.48
2088.53
1837.33
1885.35
2708.2
1842.03
1857.34
1868.51
1837.97
1897.19
9942.93
1867.53
1926.59
1873.15
1924.18
3116.87
1874.47
1837.23
1842.08
1837.5
1874.22
1837.23
1837.22
1838.2
1842.12
1889.34
1870.36
7714.15
1873.96
4359.95
15053.7
1837.23
3523.34
1837.22
1842.11
1842.59
1837.43
1837.32
21302.8
5683.99
2128.67
1930.97
14298.3
2897.62
1837.35
1838.55
1837.23
1878.33
1877.04
1843.26
18634.7
1837.24
1837.25
1860.62
1859.7
1842.62
1837.56
1838.58
163982
87956.3
1855.75
1837.22
5017.37
1842.71
1896.35
1841.37
1838.35
2195.03
1837.46
1904.98
1842.56
1857.77
25993.7
1883.8
1844.51
3552.28
2241.38
1895.07
2238.14
16397
1879.72
1838.31
1839.98
2656.66
1944.44
1837.41
1838.59
3350.52
3565.89
15191.9
1838.88
1839.18
15699.5
1838.65
1837.25
15979.6
1838.61
1837.22
1839.17
1837.4
39780.4
1837.23
1837.92
4627.02
1839.17
43751.6
1839.14
36432.6
1838.66
1858.51
30527.4
1877.59
1856.19
39603.4
1860.24
1866.21
4841.62
1837.23
1837.25
1837.44
28265.3
2742.59
1837.24
3665.54
1837.23
2087.57
18629
10283.8
1967.47
18006
1837.24
85468.4
1837.32
1837.24
1840.09
1837.23
1837.22
1837.23
1837.23
1837.77
3678.55
26286.6
2777.05
2646.34
1837.96
1837.24
1837.25
1837.85
1838.01
1837.91
4666.53
2259.19
1837.24
1837.23
1837.31
4405.16
1838.68
1837.23
2997.33
1837.38
1837.23
1837.23
1842.43
132967
2782.48
12132.9
29106.7
1837.23
1866.14
26620.2
1837.24
1837.23
1837.38
8911.36
35642.4
3184.84
101008
1837.23
1837.22
315100
1837.23
1841.14
1837.46
1837.23
1863.87
1837.23
1838.64
1837.37
1839.2
74399.9
2180.72
1839.88
3786.76
2378.79
1837.22
4245.94
1837.24
1837.32
1837.23
1837.46
1837.22
1837.46
1841.63
1837.23
1883.25
5893.55
4186.28
3821.63
1837.6
1837.4
51396.8
22289.2
1837.23
4038.14
1837.23
1837.25
2835.41
13807.3
54017.5
4914.03
1837.23
18713.3
45618.9
6966.04
1837.25
6376.87
2815.29
2572.32
9164.22
1853.37
69166.3
2267.81
1845.23
2140.55
4145.49
2320.14
1921.29
2692.9
1941.3
1838.9
9063.55
36483.3
52696.7
1837.23
1837.24
100359
1837.22
1837.7
10777.7
1837.22
22278.2
1920.37
1837.25
1838.9
1837.25
1837.25
1922.33
4647.3
26752.5
4205.7
6990.4
1837.26
5979.51
1948.86
1888.49
1839.82
1838.82
1837.53
1837.26
1839.84
1837.26
1888.08
1837.25
1837.24
1843.78
17278.5
1929.24
1990.29
72885.1
2268.56
1838.8
2262.12
1837.24
1837.45
1847.4
1837.24
1837.33
1837.73
8104.92
3386.64
2229.64
5316.71
35333.9
1953.49
1837.46
4341.55
4046.07
1944.74
6508.12
1837.43
1880.29
1837.96
5594.98
1855.63
2595.83
1839.79
1837.23
1837.24
1837.23
13306.1
1837.22
4302.52
1837.89
8310
4531.25
1837.24
1837.84
30387.6
5804.9
11556.8
4624.7
1837.23
16723.7
144991
1837.23
1853.06
3617.25
1991.07
4100.15
1837.3
4264.02
32614.5
13028.2
4110.6
24432.3
4397.45
4247.1
1837.28
256200
214969
2133.47
14021.7
1839.11
1968.71
2951.95
1837.48
18389.8
2223.91
1869.53
1869.63
1858.43
2299.1
1901.34
1838.6
1840.61
1841.73
1837.22
1839.83
1922.14
1837.28
235656
6015.36
1864.87
62060.8
1879.37
1837.22
1940.79
6776.07
40912
1896.54
1978.76
7109.84
30586
228242
5176.24
1840.57
32128.4
1837.87
1837.84
1838.05
19244.2
1843.63
3009.62
1872.31
4158.3
6092.69
21192.7
1842.42
3466.8
1837.97
1838.23
1837.25
1839.37
1837.23
1840.93
1892.81
10487.6
8332.06
196389
1896.62
47695.7
1967.31
16506.9
1838.26
6500.87
17946.1
96295.7
1903.39
1842.35
1837.31
1837.22
1837.22
1837.5
1948.2
2229.85
1955.04
5206.61
3415.01
3076.87
21049
17704.8
116118
3503.39
1837.24
59418.9
3518.18
1839.87
1839.77
16616.2
6738.93
1837.22
1838.02
1837.26
1884.45
1837.24
50998.6
60304.1
37409.5
19796
1837.22
63347.5
3279.18
1837.22
2442.36
1837.25
1852.49
9716.49
1866.47
1852.32
47697.3
1880.91
1838.46
1853.81
1838.14
1837.22
1837.27
3385.73
1854.33
1937.53
7824.59
2818.07
16717.8
1995.48
1844.38
1841.87
1837.74
1857.01
1839.55
5040.74
17065.5
1859.35
1837.3
93754.7
1868.74
1837.22
1880.77
1891.63
4347.93
30124.9
107460
6282.73
8410.16
1837.22
12871.3
1892.05
6785.13
21331.9
1837.23
5835.32
1837.23
1837.23
31861
1837.23
1849.66
26052.9
6790.42
28920.7
30398.5
1837.44
4005.19
4330.89
5996.08
1843.89
1882.72
17061.2
28195.2
13296.2
6265.14
1837.91
1837.61
3776.89
14742
10142.4
5576.27
2957.09
27628.9
1837.24
1837.23
236030
26550.3
4276.21
6078.67
4536.26
16177.9
71706.8
1837.23
3732.61
1837.42
28799.6
1837.24
3948.78
6124.5
1837.23
43105.5
1837.24
12764.9
27210.2
1837.25
1837.24
11889.1
1837.24
1837.24
1837.22
1837.23
6272.46
1837.49
28267.2
52146.4
1837.22
1837.23
31552.7
1842.79
1837.25
4025.42
1837.25
1837.26
1837.25
1839.94
3425.01
3601.34
47720.4
1838.13
1837.25
23859.6
1837.23
2206.28
15933.7
1837.22
1837.22
1849.59
1946.3
8823.56
1837.23
1837.25
1837.22
1837.22
1837.68
11426.9
29168.7
1845.02
1852.04
137720
1868.42
3434.11
1837.23
4573.68
1837.26
6093.18
7006.03
1837.64
1837.32
1837.45
4274.53
31360.5
1837.23
4527.99
1931
1837.22
1890.21
1961.83
1837.24
1867.17
1837.24
19855.6
1837.29
1837.23
1837.31
1837.82
1837.23
16844.5
2335.71
1837.23
1837.23
12386.7
1837.23
3095.99
1840.25
1837.22
183968
63813.8
2880.33
1853.96
1838.29
1949.47
44091.7
1837.45
43314.7
1837.38
29264.4
10118.5
1837.25
38828.9
25082.6
39569.4
142556
13012.2
1856.05
1837.38
1837.24
2075.85
2052.04
1920.13
33469.2
1837.91
1995.56
1837.28
2144.2
24769.7
24785.3
1837.38
4003.29
3349.68
1837.23
15582.4
1837.91
1837.23
1837.23
35553.1
13333.9
12751.5
1837.24
1837.26
1837.38
40197.2
1896.35
50296.2
1837.23
1837.23
22418.1
5377.88
1837.26
1837.52
102152
1837.62
1837.97
1856.38
49660.9
5097.24
4618
1837.26
54635.3
55523.7
2286.86
21405.4
1849.32
101784
1882.31
2529.02
31716.9
7955.97
82927.8
121706
82346.8
113472
1837.25
373893
28927.1
23185.1
1837.26
32886.2
455566
1837.22
13788.5
88559.9
1837.23
43138.9
1837.25
47890.8
4141.86
3128.08
12339
13411.2
1837.23
1837.25
1838.92
1837.73
198132
1837.24
9184.97
3899.24
1837.62
1837.64
1837.6
1839.36
1837.47
1837.26
1872.81
1837.31
46612.8
1837.76
4131.01
1837.65
1914.57
1837.32
1941.4
2264.99
1837.6
1837.61
1839.14
1837.91
1862.51
39484.2
42738.8
11080.5
1901.02
1885.52
1853.39
1837.24
1849.18
1872.5
1880.3
1837.46
4537.92
3420.82
45553.4
1854.2
1902.89
1865.73
3196.52
1893.37
1837.81
1895.43
1847.88
2180.57
40543.5
1941.06
29456.5
1919.92
1861.17
4598.53
32625.4
1837.24
1854.39
1969.61
1839.05
2063.14
1845.54
1938.83
2847.91
1851.57
1854.2
1837.45
1845.28
7518.46
1837.28
2405.29
1855.53
2842.08
1837.27
1837.23
3041.74
2063.6
3775.61
1839.6
1837.25
1837.24
15352.7
17250.9
1837.48
2709.22
20836.4
1839.23
1930.28
1998.96
2035
18509.4
1866.72
1871.52
1929.9
1837.35
23675.3
1853.8
1838.37
1838.37
1837.51
1837.66
1838.4
1837.46
1837.29
1838.8
2640.9
1857.65
1838.5
2392.84
1838.69
1935.52
4134.63
1837.3
1838.59
5357.2
5211.89
1837.5
1871.29
1837.44
1837.61
2284.64
1838.6
1839.24
2551.86
1850.63
1837.9
1837.6
1839.5
1837.58
1837.33
1903.27
2473.9
19930.4
5722.01
12881.9
1911.66
1907.37
1868.77
1866.04
16925.9
1860.71
1837.98
8139.77
1861.27
15616.3
1837.38
1858.36
1852.21
2460.51
3726.49
2014.58
3798.51
1891.27
1958.35
4060.52
1837.3
2440.11
1838.63
1880.61
2014.25
2156.82
3883.25
1927.68
4674.01
1975.29
4580.82
1933.73
1843.23
1837.23
3183.63
1884.89
1841.94
1837.66
1837.67
1964.69
1855.89
1949.94
1879.17
1837.23
1837.23
1900.71
1862.44
3124.79
1837.23
1858.58
1851.06
1837.54
1903.61
1837.23
2064.36
1843.22
1837.49
1837.35
1837.23
1892.2
1837.23
1837.23
1837.23
1848.44
1837.31
1837.32
3119.94
1837.29
1968.46
60540.6
1837.23
1856.17
1862.33
1837.23
1837.24
1850.37
1837.22
1837.23
2350.77
2135.06
1885.43
1839.74
1845.45
1837.22
1907.81
3480.9
1837.22
1837.23
2123.72
1837.22
1837.23
2365.25
1837.23
1984.05
2348.99
1837.31
1837.22
1973.82
60756.6
13917.2
1869.37
1837.23
1837.22
1846.29
1995.53
1839.03
1837.23
1837.23
1838.38
16444.2
1837.23
1837.23
1837.23
38650.9
3370.62
1972.53
33996.7
2153.43
1837.48
1948.87
1893.79
1841.25
1840.51
19662.1
1979.17
1840.33
3276.87
33726.7
1839.19
1840.9
37442.1
2802.88
43302.3
1838.96
1887.36
1847.79
1848.5
30276.6
1840.3
30540.9
1850.51
1837.37
29263.5
1840.98
1837.31
2251.19
31434
1837.51
2085.76
28369.8
1840.51
1883.16
31739.1
3947.26
1858.32
1850.5
4005.98
6293.77
3811.63
10339.4
1837.22
1837.47
2508.52
1899.56
2439.24
2605.47
1837.3
1837.4
1839.17
2830.58
1850.48
1892.57
1864.43
1837.23
1885.67
1837.83
2655.23
46161.5
1837.76
2187.82
2917.22
49292
1837.25
2443.02
108981
1837.23
2653.39
2013.76
2817.15
1837.46
2918.49
1837.23
1837.23
1852.7
1837.23
4343.93
1876.29
1867.89
33525.4
3315.2
1837.3
1844.57
1877
1838.77
1837.83
1840.66
2235.56
1840.43
2257.1
1852.44
4029.57
40249.9
1866.77
1845.4
19608.8
3855.89
1895.54
1868.44
6019.09
3364.64
3132.74
1918.19
2969.52
1876.88
2298.7
14633.7
3532.88
1975.91
1855.48
3335.14
2941.58
1837.34
2018.23
3449.46
1868.85
1938.48
2431.05
66763.3
2331.85
1837.39
33156.8
1910.88
1839.75
3560.77
1837.42
45488.7
1837.23
42404.7
21295.4
14126.3
1837.25
1837.53
1837.25
31371.9
1892.23
34864.9
1847.17
39214.1
48508
3226.13
1837.25
80156.2
3135.77
3466.65
79107.2
2565.61
1837.49
2049.73
1837.44
1912.23
1837.37
1837.5
1837.25
1860.3
1840.97
1837.24
1844.19
366125
1838.01
1878.79
1837.33
3283.71
3405.6
1841.83
3860.21
1837.24
1837.93
1895.28
1837.57
1838.79
1837.3
1840.04
1837.25
1921.65
1845.53
221332
1837.25
1886.73
2266.4
48750.5
1837.23
2338.72
3560.2
1837.23
1837.33
117341
1837.24
1838.8
1837.23
1837.33
1838.14
1873.46
1837.23
1837.31
1838.18
1837.25
3738.89
9366.77
1837.23
1944.95
1837.23
3805.64
2250.71
1837.26
1837.22
39525.7
1837.3
1855.8
1837.23
2218.38
1846.64
1837.22
1837.22
59928.4
62743.7
1837.4
3422.45
1837.25
1837.54
1848.16
2707.75
1837.26
1898.62
2014.28
1947.79
1837.25
2463.4
1847.91
3063.97
28961
1858.07
1890.64
1854.58
24477.9
1837.25
1837.38
1837.23
1837.23
1837.23
1837.23
1837.23
4432.01
1853.24
1837.45
1857.19
10756.2
12614.2
1837.24
3776.41
2544.12
1838.72
3890.55
659933
1837.75
4374.05
6321.38
1897.6
1859.47
1846.93
3645.8
3996.39
1843.46
1844.13
1848.78
1837.49
1851.7
2148.13
2120.17
2494.99
1843
1837.32
1933.84
9969.25
1845.99
1889.92
1837.37
12062.4
14772.7
1837.23
1841.87
1837.35
1927.32
2934.56
38265
1838.11
2656.38
1879.28
2509.75
1837.22
1837.28
105226
1837.23
1837.23
1837.23
1837.23
1897.2
1881.6
1837.5
1874.95
1844.33
1841.28
1839.3
1837.23
28603.9
5911.49
1837.23
2351.55
1837.23
1837.23
1837.23
39470.2
5412.29
52353
1882.3
1838.27
1837.23
1843.12
2093.25
1921.8
91068
1837.37
1837.23
1839.31
35751.2
95483.3
2066.97
1837.23
114966
111029
2659.87
83834.4
8804.64
1890.35
26053.1
4740.95
1837.29
1837.3
1837.28
1837.36
1837.63
1837.95
65285.8
57835.6
9505.93
4702.01
8418.02
1846.73
1935.31
1944.35
3424.1
1983.49
7455.54
1989.37
34447.9
6446.64
1837.23
2312.43
8889.44
1839.06
1837.96
53694.4
1838.87
1837.23
9908.91
23193
1837.24
1837.27
1837.97
1839.86
1850.69
1837.23
1837.35
2873.04
118401
1837.38
1839.52
1868.62
8540.13
2694.69
1838.14
1837.23
1840.64
9684.01
1837.33
1859.77
2104.84
1837.23
1905.56
1837.24
1838.81
53045.5
2052.92
1837.25
1837.23
1837.26
1837.8
1844.11
2058.21
1837.23
2002.76
1843.21
1837.3
2443.37
1837.23
1837.44
1837.24
1838.02
1837.27
1837.46
1844.42
1837.26
1837.35
10014.4
1837.92
70539.1
1844.16
1837.22
1837.24
1837.5
1837.46
1844.6
3091.3
72713.9
19619.4
79993.1
1941.11
2333.16
2315.59
66550.1
76273.7
2247.59
5707.27
1837.31
1845.43
1837.23
1837.41
1837.22
1837.3
1997.27
31172.9
1837.22
27366.2
1867.84
1915.3
1847.81
1837.22
1852.05
1837.3
1860.55
59276.7
3139.51
1838.63
1837.23
1872.98
2732.03
1837.49
1878.18
42425.1
1847.92
32011.5
1837.24
1837.25
1990.98
21008
33670.8
31324.2
23475.9
6470.21
2466.02
31576.3
11227.4
28145
1837.29
1912.11
1837.24
1837.31
2474.28
18715
2673.93
3262.95
17960.8
19569.1
1837.76
22413.9
6971.92
1845.59
1837.23
1837.23
3547.5
5309.85
3476.65
1837.23
3610.65
26127.2
3565.73
63097.3
4546.17
3859.77
14213.1
1837.29
2521.86
16562.4
2225.14
1837.54
1913.32
2685.15
1837.23
1837.27
11895.5
1837.29
1847.53
51318.9
1843.38
14640.6
37590.3
1845.87
2089.29
4730.83
4868.29
2262.96
4795.15
2411.15
4991.38
1842.66
1837.24
4824.37
2023.52
4492.69
4486.58
1914.79
3026.22
1955.15
4013.21
55918.8
1837.23
1844.88
4788.79
1837.39
27274.4
1837.45
1837.37
1837.23
4808.68
1841.14
2419.64
1837.77
1837.35
2865.37
4875.08
5049.57
2101.44
1837.22
5952.25
33820.4
31734.1
1837.22
18028.8
61457.8
8535.94
43120.5
1837.51
16179.4
1837.5
1837.41
1837.48
1837.23
1837.32
1848.09
1837.24
37988
1837.5
1937.79
1837.23
1837.23
1837.23
1837.25
1837.25
2599.13
2695.11
1837.23
1837.22
44918.6
1893.8
28874.7
1965.92
1837.22
25984.9
1838.04
1837.22
1837.25
24855.9
1893.98
1837.22
1966.11
1846.88
1838.75
1837.23
1924.63
1842.38
1837.33
1837.23
1837.25
1837.27
1838.95
1839.45
4411.29
1837.22
1913.18
1837.23
3383.01
1837.23
1934.3
1884.26
7374.87
1838.23
1838.35
1838.58
1839.11
3024.64
1840.48
1837.23
1842.44
1837.25
1837.23
49332.4
1837.23
1837.22
1838.03
1838.58
1845.11
2750.64
1843.69
1843.9
1856.53
1925.44
1837.29
1837.6
1837.24
1843.06
1838.46
1837.42
1837.7
2305.66
1837.31
1837.27
1837.34
1837.4
1838.1
1837.36
58215.9
1938.4
1841.16
1849.31
1837.6
2357.07
1837.83
2058.18
3767.45
1940.39
2461.25
1837.31
1837.46
1837.23
1845.17
34507.7
1837.87
1837.4
36829
1837.36
1837.23
1837.24
1837.22
1837.7
1841.78
102329
1837.38
1837.55
1837.26
38594.1
41973.3
43325.5
2094.76
10074.1
6251.86
1882.89
1837.82
1875.34
41418.6
1837.24
1840.05
1837.24
1891.83
35192.4
1837.24
1837.23
1837.41
2214.39
2038.56
2719.57
4368.09
1837.49
8113.5
3953.15
1837.48
2369.93
1837.88
1837.23
1837.51
1908.56
1839.4
1848.62
1837.48
4875.33
3582.96
5310.79
7076.24
7291.69
2051.52
1837.49
1837.51
1844.75
1881.93
1837.49
1837.42
1837.45
1840.26
61257.6
2055.74
2114.39
3404.43
1837.25
7009.86
3307.02
5013.6
2008.31
1837.44
5077.31
1838.21
1837.42
1837.23
15835.7
8159.5
7405.31
1837.32
7183.78
1837.23
1844.44
1837.24
1854.13
1837.28
42986.1
4283.46
1837.23
1837.23
3177.86
2176.15
1837.23
20712.6
1837.44
1837.23
42632.4
1837.22
1899.27
1837.44
3796.79
1840.34
1837.33
1840.39
1837.22
2042.25
1839.82
84537.9
1837.24
1990.23
1840.36
1855.43
13833.4
1837.26
1839.7
1837.24
23438.2
1844.19
6582.63
36737.9
8293.12
1837.23
39565.6
3637.02
1839.74
1838.24
29472.3
3541.94
1837.23
4761.44
15147.5
1875.97
1844.69
1837.59
5642.31
1837.28
1837.32
1837.24
1840.9
85018.8
1840.98
309685
1845.84
3785.19
1840.42
1837.5
2231.42
1840.74
1845.67
1837.32
1837.26
2166.56
11381.4
6938.02
2720.11
8602.99
8358.22
7399.62
1870.95
1837.27
1837.23
18850.1
49108.2
32142.8
3112.48
1950.13
2930.04
8864.84
62779.2
27751.4
1837.23
222342
65487.1
7633.9
1837.22
6503.87
6561.68
7904.52
22664.8
8301.42
3971.74
10661.7
1874.13
12567.6
1873.39
5752.28
1964.23
43989
15152.4
1845.09
1882.07
3855.89
7326.63
2020.6
2308.52
1837.59
1837.23
15100.4
1912.31
1837.54
1874.78
1837.23
2096.57
1837.23
595385
2160.16
1837.22
1838.35
13221.9
2051.09
110623
33534.7
18398.9
2054.77
1837.23
1837.29
22611.9
1837.23
1837.23
1840.34
1853.65
1933.35
15103
1855.15
1841.44
15337.5
14305.8
1837.49
1838.31
19667.6
1902.35
1944.57
13173.5
1837.22
1837.23
1914.36
7480.53
308749
13825
1837.4
1993.52
1837.23
8792.45
109772
3839.89
80807.1
1837.22
1902.7
1837.22
1870.37
1837.22
33662.8
9435.19
1837.22
31229.9
1837.22
1837.22
3412.18
1837.42
2154.98
1895.22
25316.5
51225.2
1837.22
1837.24
3166.02
71318.8
1837.26
1893.16
120427
1846.51
1921.14
1871.02
1837.22
1837.24
1837.24
1837.24
1837.24
1845.01
1837.48
1936.37
12719.3
1837.31
17117.6
149143
5496.54
13183.1
1837.24
2386.5
1847.88
1837.24
10551.6
17555.4
30709.9
13022.6
30625.8
31122.6
1837.63
2329.64
36185
13141.1
9909.93
4551.75
1875.08
16080.7
1837.24
1837.24
1837.22
2192.04
3579.87
1882.8
32132.9
1837.22
1853.54
1837.38
17185.3
22410
1837.24
12287
7215.01
3045.4
12574.5
15613.3
1837.22
1838.27
28392.5
1959.47
1839.52
1837.34
1837.42
1837.22
1844.65
1837.23
29982.6
16360.5
30869.1
2412.88
2309.48
3150.8
1838.74
1837.22
1837.22
33660.3
1837.38
1837.23
1837.38
45883.5
1856.75
37796.7
7759.38
3364.66
4427.8
8675.42
1960.63
8289.07
1838
1839.66
2063.41
9242.59
3627.11
1958.16
1850.27
1838.18
5074.36
1840.31
17740
5772.58
6213.94
10982.4
1837.46
1837.6
29285.9
2597.07
1846.36
11218.1
2704.43
2260.02
1837.23
12195.8
1914.87
24857.7
1839.26
1837.23
2994.77
1967.4
1837.82
1837.28
4024.14
31559.8
7386.08
1932.05
1839.02
3948.87
4908.4
1838.48
1837.23
1837.33
88739.7
26295.9
82865.4
6424.94
1840.99
40334.1
30738.7
1840
1841.01
1962.93
1838.55
1837.8
1848.67
8245.88
1837.42
2001.63
1838.7
29796.6
1837.24
1837.26
1837.3
1837.24
22623.7
13450.5
1837.67
35802.4
1994.68
1844.25
1837.25
1845.94
1837.26
40187
3787.09
1837.24
1837.24
3359.63
1841.76
1847.12
1844.72
1837.3
1864.35
10245.8
1847.69
2287.49
1837.41
1837.25
1837.25
9742.17
1837.27
1837.25
13512.3
1837.46
1846.82
1839.15
1838.47
45739.9
1840.64
3168.71
1957.28
2440
1837.25
1843.72
1837.58
1837.26
1837.25
1974.91
1923.99
9503.13
30744.1
1837.33
1843.66
1878.26
1837.43
1842.35
1837.25
1837.64
1839.89
1842.92
1849.5
1842.82
1837.23
2034.85
73525.1
11660.9
1926.66
6959.64
1840.93
1875.06
8714.65
1842.34
53297.7
1989.61
4197.94
1840.46
1837.22
1855.23
1837.23
1843.21
1838.23
1905.98
22859.8
1837.42
1837.26
1837.83
1956.05
1920.81
1881.45
1837.36
1838.06
1837.33
2398.54
1879.37
2226.04
1864.7
1837.24
1910.25
1913.52
2061.56
1876.22
1872.46
1837.64
2054.39
1837.53
2090.16
1886.5
1930.91
1883.16
3450.38
33330.3
1876.71
10560.1
4921.68
1843.72
33783.2
1848.37
13032.1
1837.39
12181.7
2283.62
9857.85
10959.9
1837.54
1837.55
1851.33
8115.1
52941.1
1837.24
7106.05
1867.07
30743.5
1837.23
1838.58
1837.41
1877.18
6470.84
1839.19
1840.36
1868.15
1837.48
1846.88
1837.35
12975.7
46725.8
2139.69
1837.88
1837.23
3194.05
1837.84
1837.23
3759.44
30086.7
3846.23
1837.23
1838.8
8304.16
3787.3
1837.22
1837.22
11073.4
9850.54
20780.2
1841.29
12261.7
1877.21
1837.66
1845.19
1837.24
1837.22
1848.26
1852.07
1837.22
1837.24
1837.27
1845.31
1851.36
1837.25
1837.28
1837.53
1837.22
1837.24
1842.69
1837.87
1837.23
1837.22
1837.23
1837.24
4757.97
3295.97
3006.11
1837.22
1837.23
1837.23
1837.23
3497.25
1837.26
1837.91
1860.43
1837.23
1837.37
1837.23
1987.68
1837.26
1837.23
1837.94
1837.23
1837.3
2187.11
1837.42
2261.95
2283.51
4334.8
1837.22
1837.27
2423.94
1837.58
1837.22
1837.54
1837.24
1837.25
1841.3
1837.23
1840.96
1841.92
1854.98
11138.2
9217.32
1838.49
1855.44
1837.89
1837.23
1837.23
1837.22
1837.8
1837.23
12599.1
24178.9
1837.24
29894.4
1837.64
1837.24
58649.8
64221.1
1837.54
2531.35
6504.08
1837.58
1837.24
1837.22
1867.02
1837.23
33788.7
1839.58
34973
1837.71
1837.22
1837.65
7720.49
7811.61
6597.59
1838.54
1837.34
1837.36
1837.41
1837.26
1837.24
1837.23
1837.23
1837.25
1837.24
5776.13
1837.86
1845.97
1853.49
1837.94
1837.33
1837.29
1837.37
2799.36
2898.69
2675.35
1837.56
1871.82
1838.44
1838.03
1876.03
1837.6
1838.89
1837.64
2992.72
1842.43
1837.25
1850.52
2194.07
1837.44
3586.45
1851.76
1862.62
1947.61
1838.68
1962.59
75985.7
1961.45
1960.91
1837.23
1920.55
1896.41
1865
1837.22
1837.36
1837.82
1918.68
1842.06
1914.82
1886.47
5155.85
7189.11
28640.4
1837.3
1840.86
6348.53
1846.95
1950.02
1838.71
1838.18
1837.42
1849.31
12756.5
47473.5
10211.8
2933.54
8163.38
1837.37
1849.96
1848.18
4895
3103.86
1837.33
46672.9
1837.54
3324.32
1843.47
1992.56
1958.04
1838.61
6830.34
1848.97
1849.28
1837.34
1841.81