/*--------------------------------*- C++ -*----------------------------------*\
| =========                 |                                                 |
| \\      /  F ield         | OpenFOAM: The Open Source CFD Toolbox           |
|  \\    /   O peration     | Version:  v2012                                 |
|   \\  /    A nd           | Website:  www.openfoam.com                      |
|    \\/     M anipulation  |                                                 |
\*---------------------------------------------------------------------------*/
FoamFile
{
    version     2.0;
    format      ascii;
    class       volScalarField;
    location    "4";
    object      H2O;
}
// * * * * * * * * * * * * * * * * * * * * * * * * * * * * * * * * * * * * * //

dimensions      [0 0 0 0 0 0 0];


internalField   nonuniform List<scalar> 
108993
(
1.85437e-56
3.70352e-26
3.84351e-51
4.34865e-144
1.77562e-137
3.58003e-113
4.57486e-15
0
6.38838e-109
1.36515e-58
1.35327e-88
8.46009e-95
0
0
3.68084e-98
9.79009e-22
4.89004e-53
0
4.43548e-138
2.55255e-53
3.42896e-138
1.51145e-124
2.17707e-75
0
1.85877e-147
0
0
3.06425e-59
1.0683e-60
1.65793e-100
1.09549e-121
0
0
2.97291e-39
0
1.53431e-129
2.55568e-129
2.07224e-122
0.00750806
0.0141166
1.63983e-56
1.04166e-105
0
7.20682e-149
9.45346e-28
0.022188
4.83595e-131
4.7821e-18
0
7.95684e-74
0
2.25367e-12
6.05245e-31
2.89503e-137
2.29526e-86
9.50183e-81
0
0
5.54449e-118
0
2.09145e-117
1.54204e-115
2.6153e-99
1.78922e-133
3.50811e-137
2.4268e-72
0
8.21558e-128
0
0.000156666
1.25584e-105
2.91976e-133
8.19164e-129
5.46995e-132
2.1802e-54
2.3663e-113
2.40634e-133
3.98667e-39
6.14208e-137
1.34332e-144
1.21752e-77
0
0
1.85472e-105
5.53591e-97
3.8491e-99
4.13716e-94
8.83315e-90
1.26997e-131
0
5.69174e-131
3.07877e-122
3.74855e-134
0
0
2.72687e-81
5.74691e-122
1.53029e-100
0
9.04236e-128
0
0
3.3469e-100
0
0
5.22308e-133
1.15115e-94
1.11299e-129
4.07559e-144
0.0128181
2.87978e-39
2.30537e-130
2.86564e-27
9.88183e-26
0
6.12886e-11
0
1.76384e-77
7.9547e-20
2.8779e-121
2.52182e-87
3.13276e-111
7.80129e-10
7.2333e-65
1.39567e-127
2.50479e-35
9.12827e-52
1.06221e-68
1.6177e-112
2.05086e-116
2.51003e-76
2.8314e-115
8.90178e-107
3.84001e-11
1.25509e-116
3.18825e-66
8.07257e-111
0
2.03408e-97
2.13419e-90
8.37896e-65
7.22812e-117
7.54737e-23
2.63954e-113
6.94535e-115
5.56327e-128
7.70727e-104
0.0218038
1.28447e-63
1.39321e-07
7.23308e-08
0
5.17909e-51
9.63636e-08
0
1.71232e-37
9.38197e-75
6.52048e-131
1.74982e-128
3.22262e-05
7.19406e-08
1.70783e-131
1.1851e-121
0
0
2.8044e-19
0
0
3.43357e-131
6.63499e-106
8.53308e-139
4.98931e-89
0
0
0
5.36177e-87
1.47056e-09
1.31125e-131
8.03413e-90
2.83569e-129
0
2.41287e-118
7.16008e-131
7.52365e-68
2.37227e-82
0
0
0
0
7.81597e-67
1.89112e-98
7.06744e-131
4.72578e-104
3.84947e-14
1.03419e-110
1.95841e-48
1.08225e-53
1.30146e-108
7.94804e-111
2.89502e-68
4.79161e-132
4.88245e-13
3.8916e-130
5.13119e-125
1.25895e-08
6.49938e-10
2.48334e-84
0.00858658
3.64678e-93
0
5.58729e-05
1.04028e-118
1.11335e-08
0.00759407
0.031659
2.23218e-115
1.27411e-87
3.84702e-83
4.41204e-129
5.61875e-115
9.79961e-85
1.13523e-07
3.23903e-33
1.98714e-12
0
1.00797e-130
1.95061e-130
1.25448e-73
7.40512e-10
2.24404e-90
0.00370625
6.79202e-95
3.32057e-130
0
0
0
9.63769e-121
3.32767e-115
0.00400376
0
6.67768e-127
5.80953e-84
0
0
1.53622e-120
6.40496e-22
0.00796013
5.04706e-08
2.87738e-125
6.07696e-124
1.01644e-114
6.82023e-132
8.09448e-102
2.04464e-109
6.99298e-128
4.59489e-127
6.02075e-126
2.98536e-72
1.51937e-114
2.16161e-116
3.24855e-79
0
8.42837e-36
8.97162e-33
0
1.407e-75
2.1531e-79
4.36479e-67
0
9.23157e-96
2.41973e-146
8.07042e-58
0.00627355
5.33704e-05
0.0164509
5.32371e-95
7.39483e-127
0
0
2.23519e-58
5.25028e-57
0.0121597
0.0156965
0
2.78653e-106
1.35757e-54
0
5.61451e-61
6.12141e-61
0.0157763
3.00899e-87
5.3829e-88
1.49572e-60
3.21382e-86
8.51978e-104
8.94148e-78
1.34974e-117
1.66951e-82
1.26949e-23
2.92226e-142
1.78649e-10
8.74019e-10
7.47714e-104
2.28438e-144
4.42274e-102
1.06239e-60
2.30345e-124
2.43613e-47
2.12941e-58
0.00549539
0
1.00014e-114
1.9935e-46
1.66678e-117
3.12877e-55
8.36271e-08
1.11761e-136
2.59411e-48
0.0154945
0
2.74215e-38
5.39312e-136
4.94251e-67
0
0
6.54969e-06
2.98141e-07
3.09694e-06
1.45597e-115
1.36709e-45
5.93483e-90
7.20254e-06
1.02598e-07
2.0913e-95
0.00414782
0
2.08168e-117
0
3.50313e-99
3.04184e-110
0
7.04926e-16
6.81222e-69
1.08266e-91
1.88517e-88
0
1.61756e-69
2.87544e-107
3.01083e-152
7.54364e-68
1.11276e-96
0
0.0125962
0.00653669
0
0
6.87424e-89
0.0209563
1.56432e-100
2.98165e-131
1.19753e-47
2.24023e-68
4.85158e-71
2.68814e-69
2.33203e-57
1.76873e-61
1.12377e-71
1.31927e-110
3.32387e-100
0.0015253
5.28731e-32
1.64044e-55
2.5464e-66
1.45931e-07
6.57e-60
0.000103781
1.88303e-59
0
9.03965e-08
5.07973e-96
1.16106e-05
2.91978e-06
5.15364e-63
6.53161e-16
1.09942e-87
1.26146e-81
0
0.00147984
5.41036e-66
0.00929138
1.32249e-06
1.66437e-83
1.18311e-05
1.03009e-83
0.00194216
7.51891e-61
2.90762e-06
9.00175e-137
2.85136e-32
4.02475e-110
6.44826e-59
4.15392e-05
2.50529e-05
4.00702e-116
4.61584e-92
1.21377e-85
7.04362e-78
5.76256e-106
6.97371e-46
0.000516554
0
3.43236e-77
9.39697e-05
5.73813e-99
0
2.41818e-106
0.000123282
8.59144e-08
0.000583428
1.04088e-131
0.0015903
1.89283e-29
9.0001e-07
2.04855e-134
7.18086e-134
0
9.55216e-122
1.62826e-05
1.51867e-10
8.01614e-149
0
0.015623
8.2605e-07
4.30616e-118
8.37592e-113
0
1.38071e-109
2.70626e-84
2.46725e-120
2.8509e-105
2.79507e-88
2.3203e-75
3.69819e-71
1.25633e-112
0.00145476
1.51962e-23
3.86852e-29
4.36274e-19
8.63512e-74
0
0
2.64091e-136
1.73132e-73
0
1.46219e-118
3.31764e-100
0
0
1.2253e-86
0
6.4585e-13
8.18962e-50
5.49944e-11
8.66358e-09
6.24053e-20
7.1148e-59
1.45333e-67
4.15673e-12
1.2282e-57
4.2627e-55
0
0
3.30032e-110
9.21463e-44
4.62146e-125
0
0
7.70444e-06
0.00112453
3.37363e-19
0
3.64071e-103
5.7841e-102
1.21478e-72
2.66437e-40
1.03628e-59
3.06137e-55
1.1659e-59
1.46944e-20
4.71679e-39
0
1.01976e-63
2.90982e-31
3.80871e-55
7.47207e-24
0
4.13055e-39
9.38571e-88
5.44077e-68
7.14005e-38
6.60788e-123
2.23342e-101
0
1.28635e-62
3.78004e-34
7.61693e-12
2.80455e-70
1.52667e-102
0.0054413
2.43639e-67
2.18935e-24
8.74357e-28
5.01601e-107
5.61073e-62
6.35933e-70
4.04194e-125
0
3.48905e-71
0
0
2.39712e-88
2.05699e-89
1.50573e-29
0
2.5698e-61
1.56524e-09
0
3.45514e-75
6.04721e-10
2.25515e-42
3.29887e-91
2.95433e-119
3.41688e-11
4.99612e-85
1.0001e-121
0
3.91577e-48
1.4229e-96
2.25565e-36
0.00378958
1.56438e-97
0.0178271
7.98956e-143
1.68238e-94
1.20488e-94
0
3.09815e-102
0
0
2.00264e-129
4.65027e-09
0
0.011386
0
1.8414e-90
0
0
3.71194e-49
0
2.23417e-43
2.47761e-44
4.10736e-108
7.94676e-62
2.7915e-31
0.00540676
2.07471e-06
2.40617e-79
2.97355e-102
1.06372e-49
2.32502e-58
3.86623e-61
7.48668e-32
0.0586958
0.00486999
2.01074e-05
1.22376e-41
0
0.00561873
0
3.36911e-08
7.83159e-48
1.03855e-69
7.69711e-66
1.53155e-120
1.20826e-77
1.64639e-28
0.018704
0.00491028
1.78958e-88
6.09394e-128
3.32197e-47
6.3802e-117
5.78179e-45
1.55135e-68
6.80711e-05
2.01717e-101
8.22086e-106
3.61088e-119
1.17745e-21
4.83789e-26
2.80399e-62
1.74437e-77
0
2.33897e-50
0
0
5.38208e-05
9.95702e-117
1.81066e-40
0
5.53765e-10
3.63896e-57
9.76564e-10
4.34294e-61
3.64051e-40
0
2.73865e-31
1.06641e-118
0.0079577
3.68063e-132
7.87817e-18
7.84422e-129
1.39995e-63
0.019682
4.65484e-33
1.78652e-109
4.65046e-100
2.08472e-14
0.0245806
8.35601e-35
6.78822e-05
9.36745e-50
5.15214e-12
2.26403e-10
9.73116e-35
1.17466e-101
0
0.00236038
6.08148e-20
9.87073e-24
0
2.10328e-22
9.90985e-86
6.34893e-30
9.9643e-105
3.61408e-33
1.44034e-60
0
1.00942e-31
1.52874e-34
3.71869e-36
5.87116e-21
0.00872968
0.00906343
7.25697e-05
5.2229e-43
7.66781e-09
0.0110826
0.00350593
0.015681
0.00756928
0
3.28633e-40
6.82965e-88
1.25751e-105
9.17145e-64
2.33342e-47
1.0953e-43
0.00384482
0.0055988
3.93058e-40
4.96066e-29
3.77559e-21
0.012699
0.0112737
0
9.61586e-18
8.57313e-15
1.8177e-113
0.0157404
7.8174e-21
0.00315445
1.70856e-16
2.52892e-38
0.0196837
1.73211e-38
0.000966466
3.68035e-17
4.50635e-16
9.23489e-05
0
2.82925e-62
1.0076e-29
0
6.06386e-63
0.00407091
7.79235e-31
0.00554981
1.51463e-28
0.000148355
5.48427e-34
5.61681e-99
4.23415e-128
0
8.57578e-29
1.12114e-133
2.39888e-34
6.25191e-61
1.49129e-107
0
1.53454e-28
0.0192176
0.0132535
3.16364e-71
0.00277291
7.08979e-58
1.61081e-29
5.40273e-16
0
2.37542e-31
0
4.83177e-29
1.03888e-17
4.07346e-22
0
5.62044e-29
5.39392e-21
0
4.93621e-16
0
9.79191e-22
5.71884e-28
1.98157e-20
7.63854e-26
0
7.37376e-141
0.0018253
1.12349e-132
1.35867e-58
3.38036e-22
1.18309e-83
1.61805e-23
0.0228635
0.00370071
3.02173e-39
3.52921e-27
1.98131e-31
4.49978e-32
2.6406e-35
2.33478e-19
9.78477e-78
0
4.49914e-134
7.71012e-37
1.95331e-135
7.39988e-24
7.02056e-133
3.68942e-29
0
2.28468e-62
1.08594e-30
6.9065e-129
5.6057e-35
9.98609e-51
9.06813e-08
0
2.4174e-29
0.00194263
4.02482e-151
6.51475e-71
2.64831e-47
0
2.93601e-119
6.39656e-08
1.07331e-07
0
6.93816e-46
0.000402864
6.78689e-08
2.01324e-49
4.69555e-70
9.90053e-09
1.89081e-46
6.54894e-48
2.47149e-31
7.60032e-76
2.02914e-22
0
1.64351e-101
0
4.26977e-127
0.0170596
2.05473e-109
3.85145e-80
0.0338888
3.90767e-38
4.7471e-05
4.35037e-54
2.61408e-10
4.2366e-97
1.69441e-24
3.60284e-37
0
5.41626e-55
6.42949e-41
2.50896e-99
0
0
9.83508e-76
1.92965e-78
4.2364e-47
1.96096e-59
0
9.5295e-07
7.18401e-86
1.77582e-07
0
1.29268e-84
0.0326056
0
0.000933827
8.89242e-64
1.89804e-81
0
0
2.73561e-20
8.82231e-61
1.93002e-11
8.73986e-10
8.81118e-27
5.03111e-17
0.010966
4.85672e-13
9.47687e-45
4.68536e-21
2.36617e-62
3.66029e-41
1.06083e-05
0.0382664
4.53296e-40
2.74374e-70
1.68342e-43
2.79843e-05
3.39261e-37
3.25121e-56
4.81554e-07
1.92129e-56
0
0.00041335
1.78721e-44
0.000678556
0
0.000227086
4.08788e-43
4.96552e-28
2.05349e-92
5.79395e-16
1.12315e-28
2.12292e-85
1.05503e-93
6.89654e-96
0.000134509
5.13791e-39
0.0261212
1.72894e-112
2.0281e-108
1.00182e-66
3.34843e-13
2.71806e-48
1.01722e-13
0
1.99727e-72
5.21267e-21
0.0191329
2.50269e-101
8.55485e-15
8.07288e-29
0.0007317
1.7748e-60
2.43289e-11
0.0132604
0.0284085
7.50442e-35
5.33139e-24
1.44862e-59
4.11201e-08
1.03072e-130
2.69326e-06
0.0205141
0.000238465
0
5.85844e-113
5.82239e-18
6.04071e-32
0
4.31549e-107
2.15798e-141
5.89862e-28
3.74558e-10
0
1.57833e-10
4.07108e-25
8.95897e-52
1.16721e-08
0
3.69754e-97
3.40142e-06
0.000341963
8.73519e-49
1.77061e-18
4.2894e-160
2.47573e-104
1.04183e-29
5.79906e-15
2.22546e-06
7.3599e-64
4.69797e-07
0
1.33941e-31
1.1637e-39
0
1.24421e-31
0
0
1.50583e-132
3.35315e-34
2.19779e-54
7.56821e-15
1.36487e-93
2.6242e-112
3.54988e-18
0
6.88468e-24
2.71394e-34
4.47078e-34
2.04868e-37
1.27998e-98
1.15817e-05
3.35014e-97
0.00612373
8.85736e-40
3.36869e-43
2.36695e-122
2.97593e-49
3.8842e-14
0
0
3.30596e-05
2.58275e-20
1.52577e-15
4.227e-103
4.00058e-41
1.90005e-16
1.56647e-08
1.7566e-90
5.82965e-11
0.00185522
7.97748e-40
9.95517e-52
2.93281e-38
7.41499e-48
4.32285e-48
0.0260855
2.05306e-17
0
1.00599e-09
5.45657e-37
9.26758e-23
2.55683e-49
1.79705e-37
1.3733e-08
2.88041e-07
0
2.45349e-123
0
1.05962e-07
0
2.24113e-105
4.55675e-128
9.19919e-08
1.28841e-52
1.4192e-54
5.37413e-56
8.38054e-102
5.6538e-61
3.28481e-58
2.49338e-57
7.83266e-19
0
4.84004e-66
0
1.05086e-123
0.0264275
4.26108e-103
9.56779e-61
2.12487e-103
0
4.96593e-99
0.0107099
2.59366e-10
9.28782e-82
4.40109e-54
0
8.53068e-45
1.13556e-17
1.65707e-27
1.35989e-83
0
6.24378e-08
7.00851e-102
1.46871e-07
6.17835e-15
0.00224764
1.67815e-113
1.8145e-50
1.04686e-51
7.889e-104
1.85587e-55
1.60337e-31
3.21595e-113
2.99083e-116
2.64729e-54
9.87413e-100
0.000722081
1.58415e-56
8.79437e-31
1.83024e-122
1.9397e-55
1.60984e-34
2.30538e-12
0
6.21301e-60
0
7.39486e-87
6.21485e-42
1.64227e-25
1.61168e-94
1.90211e-143
2.35667e-104
6.05386e-05
2.86463e-68
1.60439e-21
1.2609e-110
9.13576e-16
1.32638e-25
5.23032e-111
0.0102659
4.92392e-47
7.53159e-29
3.35242e-28
0.0116204
3.63857e-44
0
6.45792e-25
0.0157728
1.39477e-78
3.87243e-107
0
1.73263e-19
4.54284e-19
0.00149373
1.12068e-15
6.26507e-87
8.37727e-37
0
2.1747e-13
8.98273e-43
1.25861e-13
4.01285e-37
2.10809e-15
3.52897e-27
7.5496e-09
4.69613e-14
4.66119e-16
2.61907e-83
0
0
1.78133e-76
0
6.03852e-137
6.64358e-32
4.29416e-05
1.37555e-66
0.0153003
8.40653e-26
2.67683e-67
5.61781e-76
8.51884e-21
9.53752e-16
0
3.00486e-25
1.12751e-52
2.92614e-55
0
3.16453e-38
2.80325e-08
1.96001e-18
0
2.85893e-11
1.17184e-114
8.58586e-63
3.86515e-56
2.27776e-123
0
1.35919e-58
0.0127042
3.74055e-34
1.9071e-138
5.52633e-59
7.08536e-123
6.06608e-74
2.24713e-89
8.1763e-128
9.26913e-38
2.66467e-52
5.19754e-58
0
8.70402e-58
6.18181e-58
0
6.70567e-54
0
9.97902e-76
1.75879e-100
7.19377e-38
0
0.00020589
1.73454e-30
1.6362e-40
0.0228188
7.31833e-53
1.00478e-141
3.96135e-35
0
1.4282e-88
3.22363e-52
4.87447e-66
4.12291e-50
1.16871e-69
0
4.05784e-72
2.03842e-38
8.69815e-70
6.70019e-69
7.85343e-54
9.10287e-74
4.68081e-07
8.7137e-07
0
1.02163e-92
1.98046e-87
2.23734e-46
1.97195e-45
0
8.24867e-05
2.95321e-113
0
0
1.11626e-105
0
3.83517e-65
1.19826e-20
1.85344e-43
0.000693568
8.65939e-38
4.57115e-37
3.62756e-32
1.33291e-08
7.69541e-21
4.88634e-24
0
1.39625e-35
9.22068e-09
7.39156e-143
1.86625e-17
5.24283e-83
1.40416e-84
6.34966e-84
0.000926613
1.20154e-16
0
1.54031e-10
4.22446e-108
2.45706e-05
2.18076e-10
5.95888e-80
1.90771e-64
3.12113e-54
6.37022e-45
5.31937e-52
2.40057e-41
7.65067e-134
1.40297e-10
0.00596785
1.92456e-15
6.20275e-89
4.53779e-148
5.097e-14
0
1.3764e-117
2.20198e-113
0
5.71564e-108
1.35736e-06
8.2152e-09
0.00947837
0
0
9.04441e-92
7.28615e-09
3.95582e-17
2.41821e-65
1.72769e-116
1.51438e-09
2.28083e-30
0.00236735
6.90264e-07
5.6152e-21
7.47311e-08
1.06045e-61
0
1.26116e-37
4.20864e-110
3.09485e-41
0.0433803
1.62548e-93
0
1.62879e-95
6.78264e-05
0
1.42393e-91
8.62434e-29
2.83587e-45
0
0.00779756
1.0519e-91
2.50815e-32
7.47461e-46
1.29183e-14
4.11676e-103
4.4783e-42
1.92775e-113
1.08519e-30
0
0
4.39554e-25
1.16897e-102
0.00867315
2.88947e-95
1.86667e-109
6.12127e-108
1.16248e-38
1.79231e-08
0
5.30739e-19
6.68911e-40
3.7941e-07
4.56833e-05
7.98692e-86
0
5.83306e-23
1.30035e-61
0.000858377
0.000369095
0.000180383
2.20811e-17
0.000297287
0
0.000744068
0.000907398
0
2.08639e-80
0
4.98861e-41
9.81098e-60
4.14779e-98
3.17238e-97
3.74812e-73
0
1.3135e-55
9.72293e-58
4.34469e-19
9.41759e-110
3.74373e-60
9.53967e-90
4.85567e-36
2.55011e-87
1.77516e-91
8.3432e-77
0
1.40774e-06
2.13927e-90
8.63425e-05
2.04655e-29
1.15918e-68
1.46712e-39
6.654e-69
6.74628e-23
5.49688e-99
4.22347e-48
1.64333e-20
5.87022e-89
6.99532e-39
2.74378e-37
1.34057e-108
1.06579e-37
0.000231022
7.7752e-39
0
1.69817e-37
1.90805e-22
5.38449e-27
3.69814e-35
1.09669e-87
1.57444e-97
4.76472e-75
1.0674e-33
4.85482e-100
1.26236e-124
7.49626e-37
2.83664e-97
5.00931e-57
3.4205e-45
7.54247e-07
1.79987e-36
7.46619e-17
0.0140885
5.94569e-103
2.65849e-09
5.13e-121
0
3.65884e-93
1.37586e-73
9.25707e-95
0.0134721
0.00156925
1.69384e-07
2.53764e-25
0.00451724
3.66103e-14
2.52094e-96
0
3.73077e-151
5.14036e-30
9.96652e-33
7.61125e-45
3.05037e-07
5.65854e-122
1.95539e-120
1.95653e-46
8.57906e-26
4.33347e-95
4.55262e-39
8.83702e-38
0.0514605
0.0286201
2.05031e-24
1.778e-115
0
5.45018e-82
2.70465e-50
8.75532e-19
3.25159e-41
6.27322e-35
2.19609e-90
1.41207e-50
2.48163e-37
2.16e-27
0.00443569
5.26645e-26
4.21435e-41
3.85531e-12
2.86845e-07
2.18085e-48
1.99494e-26
1.22827e-09
1.54752e-53
4.91412e-44
2.18128e-35
0
3.12058e-43
0
1.26909e-39
9.10381e-29
7.10416e-18
0.0134167
0
3.01281e-37
0.0129697
0
2.79434e-104
0.0137183
0
4.22532e-127
0
8.30095e-59
0.0149096
9.12742e-94
5.6134e-91
1.50018e-06
0
0.0212509
0
0.0212711
0
1.77658e-64
0.0203577
1.84606e-17
8.94441e-68
0.0159861
8.06376e-40
4.23364e-47
6.88059e-23
1.28059e-111
1.20498e-115
1.87012e-98
0.0113667
3.48349e-25
7.65605e-56
2.65397e-10
3.8311e-91
0.000231249
0.00646588
5.17167e-05
3.62633e-13
0.00894008
1.95169e-82
0.000888874
3.25358e-69
1.26229e-71
0
0
1.90854e-121
0
3.93621e-104
9.73158e-119
1.05051e-06
0
3.30819e-19
0.00469348
0
9.82301e-84
0
0
0
7.14323e-108
0.00198823
5.26859e-05
4.32506e-92
2.02049e-77
3.63054e-70
6.03702e-23
3.06491e-23
9.07149e-65
3.30407e-36
1.19111e-74
1.16774e-71
0
6.08495e-09
0.0433629
9.99691e-18
0.0127896
2.5625e-07
5.88736e-70
7.15297e-27
0
8.12083e-81
1.58102e-83
1.30981e-77
0.00424759
0.0154041
0.00381779
0.000694222
1.61637e-95
1.04567e-127
0.0231771
1.6353e-89
2.07846e-10
8.26313e-64
1.30653e-85
1.731e-34
9.1435e-94
0
0
1.12441e-13
0.000997467
4.54836e-11
3.64236e-13
9.10573e-13
2.78172e-20
4.96668e-128
0
0
3.17941e-89
0
1.97663e-83
9.85223e-113
6.76467e-80
5.06623e-45
1.66451e-112
3.32654e-23
1.2981e-06
4.60705e-11
1.47751e-05
4.5783e-107
8.35127e-86
0.0151378
0
3.33447e-93
3.23845e-11
2.52733e-84
0
0.00380136
0.0155759
0.013912
0.000150718
3.88571e-80
0.00227339
0.0231333
0.000205272
7.45969e-87
0.00432078
0.00383263
0.00330572
0.00463719
0
0.0157438
0.0014161
8.5418e-85
0.000629127
2.08696e-06
0.00182706
3.83164e-19
8.08883e-05
3.86369e-20
0
0.010057
0.0133742
0.0156573
3.90359e-101
2.88722e-118
0.0135503
1.51095e-144
1.41554e-27
4.54034e-16
3.0783e-117
0.00157014
1.24715e-20
1.99904e-60
4.66297e-49
1.11765e-49
1.50836e-56
4.06896e-22
2.48068e-07
0.0156233
0.000220292
8.82354e-05
0
2.57448e-11
1.11276e-21
4.06021e-50
6.88976e-77
1.00407e-60
3.52852e-46
0
1.92072e-69
1.49108e-46
7.38185e-45
2.78089e-49
7.89441e-59
9.46923e-38
3.65263e-05
3.39224e-23
0
0.0169133
1.12179e-22
2.09666e-102
9.12651e-05
5.7032e-60
8.27787e-54
1.68922e-52
0
1.14374e-104
0
0.0122368
4.00709e-13
1.13546e-31
9.96899e-06
0.010632
7.66348e-20
0
0.0057884
6.99345e-06
4.44798e-23
0.0002803
4.86218e-98
1.13352e-19
0
1.8361e-06
0
0.00167822
2.88512e-76
2.87524e-113
8.34164e-128
0
7.16525e-09
2.27946e-119
0.00519338
0
6.77897e-05
1.08486e-05
1.68677e-79
1.63482e-103
0.0130328
9.83889e-05
0.00878295
6.62777e-05
3.73286e-112
3.47016e-10
0.00739643
1.07329e-97
1.24829e-63
1.46051e-21
0
0.00524386
5.12367e-70
0.00555923
6.50877e-06
0.00400631
0.00543688
0.00697466
1.82982e-05
0.00488733
6.56308e-44
0.0429914
0.0200615
2.87044e-21
0.00080658
0
5.12014e-12
0.00315556
2.43242e-59
0.000648036
3.08723e-24
2.73442e-34
0
3.54822e-22
0.000108671
9.1293e-36
0
0
7.04693e-36
1.28727e-132
0
7.41418e-34
1.81435e-51
0.0375174
0.000370719
6.17978e-43
0.000161589
1.10069e-17
3.08916e-134
8.31613e-33
0.00041458
0.0205552
4.94171e-11
9.58278e-12
0.00123878
6.01704e-06
0.01611
1.99444e-12
1.30188e-37
0.00542149
3.75195e-44
4.0821e-45
3.07491e-49
0
4.71994e-30
8.66559e-05
1.72346e-09
2.35512e-17
4.51025e-10
0.0152995
6.61076e-34
0.00426045
1.73175e-21
0
1.83693e-97
1.72484e-35
2.46412e-75
2.8425e-31
0
0.000945022
1.9339e-05
0.0247374
0
0.00364323
4.77532e-44
0.013169
3.92227e-35
0
2.44062e-10
2.39123e-05
3.64151e-48
5.69481e-45
1.75574e-76
2.53423e-105
4.95272e-132
0
0
0.000277984
1.2216e-33
0.00458347
0.00438372
2.44467e-35
0.00199755
0.0138606
0.0381635
0.000552646
1.27801e-127
5.64607e-07
5.69593e-12
4.36358e-116
5.94751e-74
6.17096e-05
0.00421393
3.66779e-133
1.36256e-100
0
3.0053e-60
0
6.38118e-05
3.94778e-05
0.000416033
7.42411e-05
1.58383e-107
0.000756222
1.99474e-25
1.91721e-132
8.38583e-39
1.97248e-72
0
0.000206982
0
3.94499e-44
0.00288155
0
7.21288e-43
2.59975e-45
6.72644e-48
2.78345e-120
6.60048e-67
6.74494e-08
5.92716e-27
2.69553e-47
2.34263e-11
3.82974e-13
0.0136158
4.13005e-45
5.44194e-43
7.5523e-56
7.74994e-46
1.88609e-35
1.1173e-46
5.48764e-06
0.00975948
6.77201e-47
0
0.0378305
1.10809e-37
3.60971e-122
4.61237e-39
1.73255e-37
1.56473e-06
0.0219852
0.033038
3.24413e-06
2.6036e-13
1.64932e-128
0.0106066
5.75964e-36
0.00349135
0.0200893
2.10515e-97
0.000274622
2.7968e-90
1.28967e-85
0.0220881
0
4.42061e-30
0.0203374
0.000666109
0.0186921
0.0211282
6.39036e-60
5.12807e-06
6.54719e-12
0.0033095
7.87488e-63
7.05926e-16
0.01579
0.0183599
0.00999219
0.00340616
8.18438e-17
7.11774e-58
7.43778e-09
0.000349977
0.0115541
0.000275819
7.50056e-13
0.0200647
9.74966e-93
0
0.0209198
0.0189432
1.36923e-06
2.16579e-09
0.000536764
5.65167e-06
0.0385921
0
0.000154108
2.61367e-100
0.0190482
9.40484e-60
0
4.74997e-10
2.96437e-71
0.0213564
9.74241e-63
0.000716305
0.0195815
8.67281e-82
4.87254e-57
0.0108698
1.99887e-60
1.94865e-71
5.8709e-118
3.23532e-111
0.000187837
1.55718e-100
0.0197204
0.0177484
1.93298e-114
2.76159e-113
0.0140523
3.49618e-64
0
1.83524e-10
2.78712e-108
3.70523e-104
0
2.77185e-68
0.00545128
0.00601249
0.0181984
6.06204e-65
0
0.0158566
4.46039e-82
0.00153634
0.00202304
0
3.30283e-131
6.91903e-34
1.2019e-52
0.0064075
0
2.9441e-65
1.53492e-144
3.91934e-125
0
0.00206821
6.30363e-05
3.33285e-36
4.13609e-57
0
8.87978e-49
1.5647e-26
1.61509e-146
9.80584e-08
1.21781e-92
0.000435079
0.0048703
5.25761e-95
5.28399e-112
1.58917e-32
6.52697e-26
0.0289737
0
0.000498264
2.7419e-16
0
6.97547e-25
4.01857e-14
1.09191e-84
2.33742e-31
7.49818e-78
0.00678356
1.06059e-78
0
0
3.02291e-29
1.01467e-80
0.0175523
0.000553264
0
0
0.0109851
7.83338e-132
0.00426884
5.82132e-35
0
0.0434509
0.0297452
0.00445041
1.35884e-39
6.4021e-64
9.26467e-07
0.0240717
2.60836e-60
0.024733
6.11294e-66
0.00329667
0.00190899
5.97556e-63
0.000754996
0.0174644
0.0264623
0.0417558
0.00839749
2.07783e-31
1.24239e-70
1.57022e-103
1.26054e-08
3.24034e-08
5.34221e-14
0.0183333
6.12248e-48
0
8.60015e-69
1.08028e-08
0.01629
0.0167229
3.30037e-69
5.81153e-22
0.00458514
7.81399e-129
0.0120042
5.90055e-55
1.08138e-108
3.34305e-106
0.0211921
0.00958805
0.0122008
0
8.73696e-96
1.68232e-62
0.0182181
4.9022e-16
0.0211625
3.68319e-131
0
0.01678
3.62639e-10
1.69058e-135
1.92097e-58
0.0384926
3.73066e-54
5.54592e-54
5.65207e-10
0.0248431
1.12055e-21
6.66225e-12
3.9127e-136
0.0218043
0.00437749
0.000202781
0
9.27301e-59
2.74045e-05
2.35074e-78
0.00050939
0.0207914
0.00248561
2.13294e-05
6.94747e-05
4.13017e-06
0.000252409
8.28004e-140
0.0669002
0.013419
1.086e-12
6.87165e-138
0
0.0732251
4.3746e-130
0.0139288
0
0
0.000464223
4.6141e-137
0.0233596
0
6.53846e-12
0.00529931
0.0121957
4.39478e-82
1.77377e-135
1.92405e-38
8.44839e-26
0.0184714
4.66779e-96
0.00555414
0.00419109
1.17884e-123
2.44348e-128
7.3954e-131
6.20108e-54
1.1608e-27
0
8.10065e-20
2.42763e-58
0.0236397
3.51783e-55
0.00103392
1.56096e-125
7.95181e-16
2.73479e-100
7.2317e-42
4.7833e-05
1.12157e-129
7.66791e-126
1.22755e-63
5.35654e-43
1.81264e-31
0.00738925
0.00820508
8.15989e-05
1.13679e-18
6.8138e-37
0
0
1.2383e-75
2.44512e-47
3.46711e-33
7.12165e-68
1.00507e-27
1.12823e-25
0.00871593
1.11213e-39
1.1929e-38
1.0244e-61
2.31252e-32
3.81184e-24
1.39792e-103
7.7075e-14
6.29342e-80
6.86646e-23
0.00850752
2.47329e-37
6.78259e-06
4.06557e-72
1.64198e-32
4.36174e-10
2.40541e-08
2.6227e-96
1.00731e-52
1.81398e-62
4.55335e-65
1.01276e-54
0
5.91011e-31
3.25123e-17
2.63407e-40
1.77608e-64
3.62986e-82
1.00471e-67
7.68553e-12
8.12723e-65
0.00165641
7.52051e-70
1.55659e-18
2.85478e-65
0
4.4774e-16
5.16206e-06
1.13556e-08
2.48902e-49
8.28559e-101
4.07694e-95
0.00843109
0.00020401
0
0.00219646
0.00051326
3.61823e-86
4.68706e-32
0
7.27612e-08
0.000286765
9.90077e-70
3.25724e-48
2.23633e-14
0
0.000646008
8.07628e-50
3.06585e-103
5.56253e-76
1.44202e-51
9.90483e-57
6.26422e-102
6.00184e-83
2.82833e-63
8.86854e-98
0.00187506
1.63591e-62
0
1.3543e-40
2.07348e-99
1.52403e-43
7.99117e-07
6.9664e-63
1.0447e-103
1.30895e-06
2.59121e-07
3.78634e-48
1.2822e-95
0
2.62232e-34
1.46173e-12
1.38962e-72
8.54958e-67
5.64828e-11
3.18941e-48
3.20362e-49
1.6847e-46
2.32445e-44
1.737e-58
5.92758e-98
7.0404e-27
4.24057e-19
0.00191638
1.42365e-16
0.00350017
2.50801e-30
1.40832e-09
0
9.89551e-61
0.00305558
4.84586e-96
1.58677e-69
1.50275e-06
0
0.00184
0
1.63362e-93
2.39328e-27
0.000802664
1.48506e-07
8.19937e-07
5.09116e-07
7.1589e-52
2.93864e-07
3.88794e-06
1.36522e-96
3.35008e-08
2.82937e-76
1.03976e-14
1.09462e-07
1.0221e-33
4.49797e-06
1.07752e-09
0.000440504
5.97057e-26
0.000171905
1.85272e-08
3.78869e-31
1.09227e-90
6.25642e-09
4.70604e-28
9.47827e-31
2.3467e-50
1.33099e-99
8.06495e-09
7.65883e-50
1.07855e-45
1.39188e-23
1.14085e-88
3.53616e-92
1.63538e-51
3.41458e-27
0.00373802
1.16698e-78
1.3477e-42
1.26373e-29
1.2055e-77
4.28444e-21
6.56363e-76
1.24638e-42
8.18545e-43
8.71287e-52
9.04333e-79
8.11713e-78
3.17215e-67
5.54236e-74
2.19696e-71
5.60487e-67
5.38964e-58
0
3.02426e-90
5.9662e-12
0
2.45846e-13
0.00208379
2.78185e-107
8.73304e-35
1.79027e-20
1.87262e-74
2.21811e-71
5.68524e-40
5.19053e-127
1.06017e-76
9.25659e-25
2.65682e-17
9.02061e-46
1.82511e-71
1.37305e-31
1.57049e-129
2.63364e-36
3.81242e-07
4.94747e-128
2.14108e-78
6.55099e-08
1.83259e-128
1.87404e-77
9.48286e-21
1.40665e-84
2.7007e-12
0.000119294
1.09797e-40
1.61048e-130
3.27772e-13
0.014744
0.00908488
2.04747e-45
6.23427e-94
0
1.59795e-87
0
1.12401e-58
2.7363e-96
1.76717e-97
1.48506e-57
0.0177642
7.18181e-70
3.26062e-97
1.12463e-96
0.0210858
0.00236267
1.06135e-11
0.0182131
2.18509e-09
8.46688e-67
1.95268e-18
0
1.35247e-85
2.05889e-69
9.97142e-08
0
9.62833e-73
0.00523118
0.0183454
1.14411e-62
1.04011e-65
0.0194709
2.29506e-63
0.0250038
5.19412e-63
0
0
2.8722e-47
0.0163651
2.7801e-62
0.0173301
0
2.11894e-88
0.0153548
6.32837e-63
0
1.55612e-09
0.0177626
1.15904e-68
1.64469e-21
0.0156123
2.20996e-90
3.4658e-14
0.0188985
1.73725e-13
1.69169e-23
2.50281e-68
2.70128e-12
2.90337e-11
4.90252e-14
0.00810038
0
1.04562e-67
1.60057e-44
4.88399e-50
6.97303e-47
0.00361308
0
1.11612e-30
1.49969e-74
0.00498088
1.53298e-28
3.00968e-47
1.78662e-39
0
2.68213e-16
1.80684e-101
0.00471834
0.0100425
6.88497e-74
0.000572033
0.00484908
0.0082666
5.79405e-93
9.81977e-47
0.00502094
2.02175e-111
0.00331492
4.37343e-42
9.31298e-19
7.6219e-85
0.00510998
2.38034e-111
1.98319e-111
5.04353e-35
1.79802e-113
0.00238136
6.02191e-19
9.97213e-20
0.0114847
0.000304221
7.57853e-100
5.37462e-53
2.4748e-17
3.79744e-57
2.04378e-100
4.07659e-66
5.76001e-06
9.97062e-59
8.99108e-05
6.55525e-41
2.31301e-20
0.0126111
2.13734e-18
0
0.000994884
0.00445967
0
0
9.42967e-10
4.74108e-32
0.0038165
0
0.00242431
9.26119e-19
1.50891e-07
0.000859488
0.00519429
6.61888e-11
5.15127e-19
0.00454092
0.00167296
2.29786e-89
5.15259e-47
0.00474231
2.92228e-35
0
2.63979e-16
0.0239493
7.58072e-29
1.55632e-45
0.0113084
3.54733e-46
0
0.000210771
2.44707e-59
0.0130406
5.85079e-74
5.01578e-07
0.00045229
0.00464658
0
4.10853e-82
0
0.0100505
3.31881e-38
0
2.79275e-33
0.0121373
0.015226
0
1.36612e-72
2.08685e-05
0.00322473
0.00334772
0.000835663
0.000886136
0
3.14321e-21
0
3.21389e-37
6.27134e-108
0
2.40267e-73
6.32102e-37
3.03666e-92
0
0
0.057459
3.70963e-50
5.5002e-50
1.06404e-90
6.56553e-27
2.35365e-43
1.21969e-84
0.0053616
5.97973e-75
0
2.02936e-51
0
5.68765e-45
2.67918e-93
4.86041e-37
7.19958e-73
1.07941e-23
2.48731e-29
0.0218373
1.28704e-74
7.48285e-12
5.54082e-10
0.0240378
0
9.94287e-30
5.42087e-09
3.16082e-113
0
0.00954898
1.72474e-63
1.29907e-41
6.8449e-109
2.44278e-87
2.61036e-51
9.10459e-62
2.04364e-113
2.00339e-87
3.3635e-41
3.26474e-79
8.36448e-29
0.000316205
2.03391e-112
0
0
5.31253e-22
2.76701e-38
2.06804e-81
1.01191e-113
0.0213461
1.43697e-82
0
0
3.84439e-25
0
6.31232e-123
5.43015e-143
0.0223939
0.0295066
5.52853e-99
0.00440325
4.79721e-83
1.66529e-121
0
7.08188e-17
5.33334e-85
3.15638e-35
1.78714e-09
1.74017e-37
8.99509e-84
0.000270357
0
0.000669308
0.0270925
1.64031e-54
2.28812e-75
0
0.0178647
0
3.96717e-36
2.70245e-68
6.11924e-69
4.50651e-70
8.79223e-76
1.30928e-73
0
1.15482e-64
1.62188e-29
2.26017e-22
0.00261953
0.00156123
1.39868e-72
0.00564855
0.00155702
4.54157e-87
0.00570778
0.0861103
0
5.51735e-05
4.27086e-11
2.3636e-51
5.16824e-53
1.62861e-85
4.79289e-08
0.00601081
8.76861e-93
7.83187e-95
1.8292e-57
6.70809e-82
0
0
0
1.55832e-08
1.20834e-27
3.62969e-60
7.94486e-12
0.00241784
0
5.03754e-43
0
0.00186629
0.00097875
4.99812e-86
2.88657e-40
0
3.84549e-30
0.00401005
0.0133562
0
2.36213e-18
1.04875e-15
0.000148623
2.3964e-135
6.82359e-95
0.0325094
1.35026e-87
1.27466e-87
6.10285e-108
2.96215e-91
1.37236e-14
5.11866e-28
6.6381e-25
7.78089e-30
0
3.01566e-62
3.93016e-58
2.43424e-110
0.0106427
0.0044457
8.16624e-107
3.98043e-15
4.00886e-112
0
8.33832e-93
0.0179007
0.000207566
0.0173726
2.68511e-42
0
4.97788e-132
0
3.82195e-08
1.22368e-20
0
2.80075e-47
1.40492e-106
1.73773e-62
0.0185163
0.0321319
6.57703e-09
0
5.1338e-05
0.00326049
0.000512876
5.43716e-06
0.000603391
8.15566e-14
0.018596
9.95136e-06
0
0
2.51801e-119
2.7689e-70
1.37216e-108
1.42152e-57
0.000109476
0.0291024
0.000624016
1.74449e-05
0.000264179
5.92759e-34
0
8.2997e-07
6.41375e-13
0
0.00233419
0
0.00595203
9.82588e-05
0
0.000153135
0.000676004
5.35274e-69
0
0.0201446
0
1.59106e-128
0.00166579
0.0153559
0
1.99296e-104
1.0233e-84
2.86096e-96
2.76255e-33
0
1.28638e-105
0.00307526
0.0481506
2.81753e-93
6.02024e-38
0
0.00042249
0.00126578
2.06862e-50
1.21314e-130
1.01084e-116
0.00049905
7.57657e-77
3.23002e-45
6.02872e-17
2.11493e-132
1.29422e-26
9.00699e-101
2.30362e-79
0.0285684
7.57656e-09
2.69569e-73
0
2.76692e-75
2.59635e-70
4.95293e-38
9.16561e-10
1.57073e-102
1.08814e-18
5.7432e-56
2.42239e-78
1.60759e-28
1.98057e-104
1.25207e-105
7.89565e-104
2.45146e-80
6.2633e-93
1.09193e-73
0
2.44467e-77
1.0209e-73
0.00423197
1.46251e-90
1.12102e-06
2.56675e-58
8.30056e-133
1.65062e-83
0
0
1.59132e-56
0.00175133
1.02985e-06
0.0116207
9.81661e-07
2.35625e-41
0.000172935
8.92409e-06
6.55919e-07
1.12325e-06
1.10675e-06
0.00822381
4.29793e-60
0
0
2.8109e-58
9.0308e-112
8.57971e-78
2.15817e-43
0
3.59639e-97
0.017301
2.11722e-72
1.58246e-30
0
0
5.63267e-46
0
7.46992e-20
0.0214334
0.00391859
7.79636e-69
0
9.83322e-22
0.00494143
7.50231e-25
1.36197e-28
0.00798598
0
0.00617206
7.45234e-138
3.72664e-126
2.42937e-19
0.00371852
0.00556664
0.00486066
0.00506017
0.00686283
0.000971311
0.0171689
0.00760778
0.00548617
4.61734e-101
0
5.42248e-73
0
0.000401468
0.0055236
1.38164e-07
0.00558502
0.00561047
0.0120481
2.00802e-61
0.0128355
6.71876e-07
7.1018e-115
7.83334e-137
2.57197e-106
1.48672e-08
1.00324e-05
8.69105e-22
0
0
0.0112068
0
0.0252428
1.00176e-05
2.77035e-11
0.00901654
6.95822e-121
3.90178e-13
0.0126646
1.05874e-09
4.17127e-115
5.79143e-26
0
5.20561e-105
0
0.00561445
0
2.78175e-86
0.000427289
0
0.00826789
8.22354e-05
1.13476e-80
6.3675e-07
3.10508e-06
1.72531e-06
0.000127851
2.84465e-06
9.81057e-20
7.77828e-06
5.59669e-53
2.7036e-135
6.83289e-06
6.08406e-09
1.57621e-06
1.43634e-06
7.29129e-23