/*--------------------------------*- C++ -*----------------------------------*\
| =========                 |                                                 |
| \\      /  F ield         | OpenFOAM: The Open Source CFD Toolbox           |
|  \\    /   O peration     | Version:  v2012                                 |
|   \\  /    A nd           | Website:  www.openfoam.com                      |
|    \\/     M anipulation  |                                                 |
\*---------------------------------------------------------------------------*/
FoamFile
{
    version     2.0;
    format      ascii;
    class       volScalarField;
    location    "4";
    object      ILambda_3_0;
}
// * * * * * * * * * * * * * * * * * * * * * * * * * * * * * * * * * * * * * //

dimensions      [1 0 -3 0 0 0 0];


internalField   nonuniform List<scalar> 
108993
(
146.203
146.203
146.202
146.201
146.202
146.202
146.214
146.202
146.201
146.204
146.202
146.202
146.202
146.203
146.202
146.204
146.212
146.203
146.202
146.203
146.202
146.201
146.239
146.202
146.202
146.202
146.201
146.207
146.204
146.202
146.201
146.203
146.201
146.203
146.201
146.202
146.201
146.202
2316.27
3062.45
146.208
146.202
146.203
146.201
165.454
3586.69
146.201
146.205
146.202
146.203
146.201
211.821
146.202
146.201
146.203
146.202
146.201
146.202
146.202
146.202
146.202
146.202
146.202
146.202
146.201
146.202
146.201
146.202
146.203
155.136
146.202
146.202
146.202
146.202
146.202
146.201
146.202
146.203
146.201
146.202
146.202
146.203
146.201
146.202
146.203
146.203
146.202
146.202
146.202
146.202
146.202
146.201
146.202
146.202
146.202
146.202
146.201
146.202
146.201
146.201
146.202
146.202
146.202
146.202
146.202
146.202
146.202
146.201
146.201
4202.3
1005.13
146.202
255.986
774.776
146.202
306.833
146.202
146.202
146.21
146.201
146.203
146.201
146.784
146.202
146.202
146.207
146.207
146.202
146.201
146.201
146.202
146.201
146.202
1936.3
146.202
146.202
146.201
146.202
146.202
146.203
146.202
146.201
146.254
146.201
146.201
146.202
146.202
3392.06
146.202
560.776
578.802
146.202
146.203
654.909
146.202
147.321
146.202
146.201
146.201
212.862
660.774
146.201
146.201
146.202
146.203
164.184
146.202
146.202
146.202
146.202
146.202
146.202
187.091
146.202
146.203
146.202
146.488
146.202
146.202
146.202
146.203
146.202
146.201
146.202
146.202
146.202
146.201
146.202
146.202
146.202
146.202
146.201
146.202
146.223
146.202
146.202
146.207
146.202
146.202
146.202
146.202
146.56
146.202
146.201
147.923
146.965
146.202
1160.18
146.202
207.301
311.209
146.202
146.489
381.664
12378.5
146.202
146.202
146.202
146.201
146.201
146.202
422
146.202
146.221
146.201
146.202
146.201
146.202
3184.54
146.202
1904.44
146.202
146.202
146.206
146.201
146.201
146.201
146.201
390.243
146.201
146.201
146.202
146.202
146.201
146.201
146.204
428.709
146.964
146.201
146.201
146.201
146.202
146.202
146.202
146.201
146.201
146.201
146.202
146.201
146.202
146.202
146.202
146.21
146.212
146.201
146.202
146.202
146.202
146.202
146.202
146.202
146.202
372.59
154.602
2121.65
146.202
146.201
147.117
146.202
146.202
146.202
1610.81
1850.35
146.202
146.201
146.203
146.202
146.202
146.202
1864.28
146.203
146.201
146.202
146.201
146.202
146.202
146.201
146.202
146.217
146.202
146.904
165.627
146.202
146.202
146.202
146.203
146.201
146.202
146.203
376.715
146.202
146.202
146.204
146.202
146.203
202.509
146.202
146.204
2783.46
146.202
146.204
146.202
146.204
146.204
146.202
1497.27
161.511
158.713
146.201
146.202
146.202
157.131
1439.31
146.202
757.418
146.202
146.202
146.202
146.202
146.201
146.201
153.862
146.202
146.202
146.202
146.203
146.202
146.202
146.201
146.202
146.201
146.202
1654.18
239.898
146.201
146.202
146.202
2701.47
146.202
146.202
146.202
146.202
146.202
146.202
146.202
146.203
146.202
146.201
146.202
167.358
146.203
146.203
146.202
527.195
146.203
160.328
146.202
146.202
148.007
146.202
150.045
148.753
146.202
146.208
146.203
146.234
146.203
8557.43
146.202
1889.49
148.921
146.233
150.435
146.203
180.789
146.202
190.546
146.201
146.224
146.201
146.202
147.726
147.228
146.202
146.202
146.237
146.239
146.202
146.202
154.932
146.203
146.204
278.451
146.202
146.202
146.201
590.593
146.314
188.798
146.202
168.103
146.203
168.34
146.202
146.202
151.425
146.202
478.716
152.767
146.202
195.008
3299.46
172.418
146.201
146.202
146.204
146.201
146.202
146.202
146.201
146.202
146.202
146.202
146.202
333.865
146.223
146.208
186.803
146.202
146.202
146.202
146.202
146.202
146.203
146.202
146.202
146.202
146.202
146.202
146.201
146.555
146.202
146.564
519.779
146.219
146.202
146.202
146.598
146.202
146.202
146.251
146.202
146.201
146.203
146.201
146.217
146.201
336.482
186.317
146.218
146.202
146.201
146.201
146.202
146.202
146.202
146.202
146.202
187.455
146.203
146.202
146.202
146.222
146.202
146.488
146.202
146.202
146.202
146.202
146.202
146.201
146.201
146.201
146.202
149.839
246.136
146.202
146.201
4507.17
146.202
146.205
146.218
146.201
146.203
146.202
146.201
146.202
146.202
146.203
146.203
146.202
146.202
146.207
146.22
146.202
146.458
146.204
146.202
146.483
146.217
146.21
146.202
146.595
146.203
146.202
146.202
151.089
146.203
146.203
216.33
146.202
2226.14
146.202
146.202
146.202
146.202
146.202
146.994
146.202
146.201
146.88
146.209
1278.26
146.202
146.202
146.202
146.201
146.204
422.083
146.202
146.203
146.201
146.202
146.222
381.445
149.776
146.202
146.201
146.204
146.208
146.202
146.202
6124.97
365.779
384.996
146.226
146.202
392.897
154.438
147.117
146.202
146.202
146.202
146.202
146.202
146.821
2703.1
365.35
146.203
146.202
146.207
146.202
146.206
146.202
153.582
146.202
146.201
146.202
146.203
146.216
146.202
146.202
160.248
146.209
146.203
146.202
155.97
146.202
146.204
146.202
1628.99
146.202
146.668
146.202
146.212
146.202
146.203
146.202
738.082
146.201
1397.15
146.201
146.202
4927.41
146.209
146.202
146.201
146.934
2837.01
146.203
263.229
146.202
160.359
1126.84
146.203
146.202
146.202
1823.86
146.981
207.584
146.203
208.044
146.202
146.206
146.201
146.203
146.202
247.751
146.98
146.203
146.203
146.616
435.193
1406.93
147.382
146.205
146.253
1612.95
319.518
1698.55
1387.98
146.202
146.203
146.201
146.202
146.203
146.22
146.205
221.955
252.612
146.214
146.238
193.118
1424.6
1634.5
146.202
146.21
146.235
146.202
2885.67
146.205
364.426
146.213
146.203
2361.94
146.206
153.466
146.244
146.232
1246.84
146.201
146.202
222.89
146.205
146.204
2655.5
146.217
718.582
146.212
3696.43
161.266
146.201
146.202
146.201
146.219
146.202
158.545
146.212
146.201
146.202
146.403
555.504
6700.88
146.202
2181.8
146.202
202.543
146.22
146.202
239.494
146.203
146.203
149.99
146.206
146.203
146.205
146.467
975.914
150.375
146.202
193.048
146.203
146.204
146.204
146.202
146.202
353.505
146.202
146.202
146.211
146.202
146.207
6105.35
1660.59
146.202
146.364
146.203
146.203
146.203
146.209
146.202
146.202
146.202
146.202
146.202
146.285
146.202
146.203
146.241
146.202
146.203
146.202
146.202
146.202
146.221
146.206
146.208
179.997
146.201
146.202
146.202
164.277
146.202
179.284
153.409
146.203
146.202
158.653
147.509
146.203
146.202
146.962
146.202
146.202
146.279
146.202
146.243
146.202
146.202
146.22
146.201
3711.63
146.201
146.202
7599.86
146.207
199.659
146.355
148.185
146.202
146.268
146.21
146.202
146.202
146.206
146.201
146.202
146.203
146.202
146.202
146.202
146.207
146.201
146.221
146.202
1296.47
146.203
146.202
1731.87
146.203
757.442
146.203
146.203
146.203
173.575
146.207
146.203
146.22
235.475
146.214
146.22
1059.2
146.217
146.202
304.338
146.203
146.202
146.299
8951.93
146.202
146.202
146.202
147.801
146.202
146.203
146.237
146.202
146.203
3717.08
146.202
3729.85
146.202
1906.51
146.202
146.228
146.265
146.22
147.12
146.202
146.263
146.267
146.526
146.244
4119.05
146.201
146.201
146.202
146.269
146.205
146.217
146.202
146.202
146.256
2583.33
146.202
146.215
913.323
188.866
146.208
182.604
2098.1
4370.15
147.635
2494
146.311
1546.8
146.202
3432.82
3629.46
290.003
146.202
146.201
146.21
146.212
155.591
146.201
146.202
146.325
147.122
146.202
1787.33
146.228
146.202
1817.35
146.201
146.202
3583.53
347.661
146.202
146.213
146.202
146.203
146.215
180.899
1348.04
146.202
1520.29
146.218
146.217
146.207
146.203
146.206
146.276
146.21
146.201
146.203
146.202
183.237
146.202
146.202
146.565
146.202
424.331
146.709
146.205
146.21
146.202
151.373
146.202
1934.42
146.203
146.202
146.201
151.985
175.144
146.202
146.214
1183.56
208.244
163.191
146.202
146.208
149.356
152.32
146.203
146.231
378.523
146.211
146.219
146.208
146.204
268.66
4826.98
179.84
146.233
146.221
146.206
146.233
146.209
146.22
146.225
331.902
146.212
146.201
146.205
146.236
146.201
146.202
146.201
146.242
146.202
146.202
146.202
146.204
146.202
146.202
146.203
1650.58
146.202
146.202
146.204
146.202
5335.1
146.202
146.202
146.206
146.202
146.204
2112.24
189.632
146.204
146.202
146.202
714.267
149.422
155.491
146.203
146.202
157.695
146.203
146.222
158.691
260.66
146.202
146.202
146.202
146.202
146.202
146.274
146.203
146.202
146.202
146.201
561.045
146.202
146.303
146.201
146.202
146.524
187.996
146.215
146.309
146.202
146.202
146.232
147.368
146.202
146.201
146.201
365.03
146.202
146.325
146.202
146.219
146.203
146.201
1632.16
1080.9
146.233
146.349
2844.13
146.212
146.286
146.288
1786.84
146.202
146.202
146.202
205.322
146.212
13025
146.247
146.243
146.202
146.21
146.221
146.202
146.225
185.381
146.219
146.203
414.448
560.373
185.438
146.202
146.202
146.202
146.202
146.202
146.202
146.203
2179.2
146.202
8758.64
146.203
146.202
146.202
181.034
1665.64
146.202
146.204
146.202
146.204
146.202
146.204
707.561
146.293
146.202
148.234
146.202
146.202
146.202
146.201
146.201
146.211
871.052
490.469
146.202
146.202
146.202
146.202
146.203
146.202
146.203
146.202
146.202
146.201
146.202
146.202
146.202
146.202
146.201
146.202
146.202
146.203
146.202
269.469
853.58
251.881
4148.53
146.202
146.202
146.202
146.202
146.204
146.202
146.205
146.202
146.202
1707.91
146.202
146.292
146.203
146.204
146.202
146.203
157.994
171.989
146.202
146.202
146.202
146.23
146.203
146.201
148.656
146.201
146.202
146.201
146.202
146.202
146.212
146.207
146.21
150.355
146.204
146.202
146.203
147.467
146.418
146.206
146.202
146.202
487.909
146.202
221.78
146.244
146.242
146.237
1160.96
146.395
146.201
146.234
146.202
146.297
146.23
146.244
146.202
146.202
146.202
146.202
146.203
146.202
312.102
3495.04
146.223
146.201
146.201
146.226
146.202
146.201
146.202
146.202
146.202
1718.3
146.231
549.574
146.202
194.515
146.202
148.304
149.688
146.22
146.201
146.237
146.203
284.951
146.268
146.236
755.263
146.202
146.202
146.204
146.202
146.203
2270.76
146.202
146.203
146.202
150.871
146.202
146.201
146.221
146.202
149.507
991.913
146.202
146.437
146.203
146.24
146.202
146.203
146.202
146.401
146.201
153.798
146.21
146.202
1357.29
146.202
146.201
146.201
146.465
154.149
146.202
167.68
1044.62
155.714
149.165
146.211
146.202
146.234
146.202
257.36
167.922
160.702
149.374
162.302
146.201
248.524
278.486
146.228
146.225
146.202
916.003
146.202
146.201
146.202
146.227
146.201
146.202
146.202
272.249
146.202
146.202
146.202
146.203
146.202
146.202
146.202
148.735
2282.65
146.202
208.847
146.212
146.206
146.203
146.203
146.676
146.202
146.202
159.263
146.202
146.202
146.202
146.201
146.202
290.48
146.202
174.791
146.202
146.221
1745.35
146.203
146.201
146.209
146.202
146.203
146.201
146.201
146.202
146.208
146.205
146.221
252.313
146.203
158.918
1318.45
146.202
146.775
146.201
146.209
146.21
146.202
146.203
2359.62
172.587
270.84
146.207
1280.88
147.749
146.202
146.203
146.202
146.203
146.203
146.234
389.74
146.201
146.201
146.204
146.204
146.21
146.202
146.202
15355.7
9116.17
146.203
146.201
164.968
146.202
146.202
146.206
146.202
147.514
146.202
146.202
146.202
146.203
2435.49
146.229
146.203
147.965
150.055
146.202
147.173
960.785
146.202
146.202
146.204
151.272
146.227
146.202
146.203
1111.81
146.523
1161.17
146.203
146.204
1938.18
146.206
146.202
1402.5
146.205
146.201
146.208
146.202
3774.9
146.202
146.202
2351.98
146.205
3922.68
146.208
4433.87
146.206
146.205
2829.17
146.206
146.205
1858.47
146.205
146.216
2646.25
146.202
146.202
146.202
3170.77
916.823
146.202
146.582
146.202
145.548
2916
264.161
146.21
2165.64
146.202
2692.8
146.202
146.202
146.203
146.201
146.201
146.201
146.201
146.202
154.078
657.053
146.45
253.426
146.202
146.202
146.202
146.202
146.202
146.202
1126.94
147.994
146.202
146.202
146.202
1529.54
146.202
146.202
173.069
146.202
146.202
146.202
146.207
12667.7
192.885
1075.29
1092.22
146.202
146.204
647.103
146.202
146.202
146.202
182.315
3760.38
334.998
4897.84
146.202
146.202
4386.92
146.202
146.207
146.202
146.202
146.202
146.202
146.204
146.202
146.205
2351.37
146.421
146.206
146.622
162.589
146.202
640.252
146.202
146.202
146.202
146.202
146.201
146.202
146.224
146.202
146.212
2791.43
152.011
172.949
146.202
146.202
2721.96
617.815
146.202
146.657
146.202
146.202
387.172
710.811
1880.87
158.061
146.202
1893.79
3557.45
501.191
146.202
243.056
331.38
339.821
862.698
146.25
2286.56
209.162
146.202
160.704
146.928
194.99
146.241
252.002
146.239
146.207
841.492
3230.73
2415.56
146.201
146.201
2761.12
146.202
146.202
353.767
146.201
1265.82
146.247
146.202
146.202
146.202
146.202
146.249
148.385
3815.63
166.378
199.955
146.202
1789.55
146.237
146.374
146.202
146.217
146.203
146.202
146.202
146.202
147.791
146.202
146.202
146.204
159.108
146.247
154.346
2197.61
156.313
146.203
155.119
146.202
146.202
146.212
146.202
146.202
146.203
534.536
1564.58
173.746
2043.51
2610.77
146.606
146.202
423.538
181.806
146.309
2449.67
146.201
146.208
146.201
208.718
146.264
280.215
146.202
146.202
146.202
146.202
1022.92
146.202
394.831
146.201
2239.96
173.291
146.202
146.201
2600.86
176.365
921.737
180.632
146.202
480.794
4887.03
146.202
146.276
146.783
146.228
368.677
146.202
440.919
839.544
239.453
380.248
2120.91
146.885
419.946
146.202
4974.27
11485.2
146.268
6344.61
146.203
146.219
283.056
146.202
6066.63
149.524
146.211
146.21
146.203
152.916
146.204
146.202
146.232
146.204
146.202
146.202
146.212
146.202
20428.7
2782.82
146.208
2044.59
146.21
146.202
146.216
233.859
4389.49
146.228
146.293
278.94
1197.94
2725.06
1652.25
146.204
2703.93
146.202
146.202
146.202
213.16
146.205
230.579
146.517
1604.23
1253.32
2459.33
146.205
400.804
146.203
146.202
146.202
146.204
146.202
146.204
146.217
222.564
2664.52
3096.19
146.217
5869.25
146.569
2012.82
146.202
3447.65
934.23
1590.36
146.202
146.202
146.202
146.202
146.202
146.201
153.36
146.937
146.822
485.203
391.029
1714.54
2195.22
2288.27
2768.12
251.509
146.202
999.895
151.603
146.202
146.202
769.058
749.02
146.202
146.203
146.203
146.35
146.202
1393.17
1388.14
1254.97
790.25
146.201
3465.14
776.889
146.202
911.901
146.202
146.214
4010.71
146.219
146.22
683.461
146.352
146.202
146.212
146.202
146.201
146.202
148.508
146.202
146.204
191.122
1172.34
922.005
146.628
146.225
146.203
146.202
146.202
146.202
395.298
1798.81
146.202
146.201
6102.67
146.202
146.201
146.202
146.202
191.858
2907.42
4969.78
532.426
302.533
146.202
1199.3
146.203
273.838
1239.24
146.202
161.458
146.202
146.202
2797.32
146.201
146.202
2862.3
173.834
2006.93
2895.48
146.202
188.058
146.843
310.732
146.264
150.357
319.23
1738.63
689.739
2267.17
146.203
146.203
157.683
170.186
226.042
190.775
147.87
2701
146.202
146.202
2451.63
1912.72
157.985
324.84
233.782
179.55
7326.97
146.202
237.063
146.202
2484.28
146.202
174.663
307.018
146.202
4523.39
146.202
253.864
2682.21
146.202
146.202
462.126
146.202
146.202
146.201
146.202
148.006
146.202
2681.92
2388.85
146.201
146.202
2865.72
146.257
146.203
146.611
146.203
146.203
146.202
146.202
338.086
414.896
5129.23
146.202
146.202
1908.11
146.202
145.858
1388.48
146.201
146.202
146.253
146.209
990.503
146.202
146.202
146.202
146.201
146.201
457.924
887.948
146.69
146.202
435.938
146.212
1116.62
146.202
148.565
146.202
416.46
256.687
146.203
146.202
146.202
2559.4
2209.59
146.202
158.887
146.205
146.202
146.219
146.225
146.201
146.436
146.202
1876.56
146.202
146.202
146.202
146.202
146.202
1267.69
155.814
146.202
146.202
1306.03
146.202
235.272
146.203
146.202
7704.74
5847.31
259.394
146.208
146.202
146.214
4228.64
146.202
4051.37
146.202
3028.76
154.352
146.202
1895.35
2390.77
7475.47
6032.01
2059.52
146.202
146.202
146.202
146.23
146.23
148.03
2885.35
146.202
146.573
146.202
146.276
2143.75
2027.66
146.202
2538.57
345.422
146.202
2054.97
146.202
146.202
146.202
3288.29
828.731
1055.46
146.202
146.202
146.202
3038.16
146.203
3920.99
146.202
146.202
2076.95
1159.57
146.202
146.202
7801.25
146.202
146.202
146.212
4285.71
2782.98
146.856
146.202
3078
6802.48
152.059
610.522
146.329
1814.64
146.203
358.495
6530.91
2341.34
2066.6
1807.95
1519.7
2251.5
146.202
19394.4
3888.52
584.305
146.202
1092.72
25868.5
146.202
621.337
2312.74
146.202
3811.87
146.202
4143.45
345.846
1528.94
285.394
1688.49
146.202
146.202
146.202
146.202
1317.02
146.202
810.071
387.134
146.202
146.202
146.202
146.202
146.202
146.202
146.226
146.202
4034.39
146.202
311.252
146.202
148.459
146.203
146.208
168.807
146.202
146.202
146.202
146.202
146.212
2199.77
1994.49
3357.86
147.374
146.217
146.289
146.202
146.228
146.216
146.293
146.202
2272.29
2133.36
1683.37
146.322
146.217
146.204
164.572
146.458
146.202
146.206
146.203
196.424
1489.74
146.222
1335.39
146.204
146.217
2043.04
921.359
146.202
147.021
146.562
146.209
146.926
146.266
146.207
146.442
146.208
146.204
146.202
146.203
1143.63
146.202
175.974
146.203
146.419
146.202
146.202
146.497
146.677
337.798
146.203
146.202
146.202
1296.46
301.445
146.202
204.78
301.929
146.203
146.21
155.857
146.349
805.23
146.202
146.238
146.227
146.203
1060.82
146.205
146.201
146.202
146.202
146.202
146.201
146.202
146.202
146.201
213.177
146.205
146.201
848.726
146.201
146.214
217.434
146.202
146.201
149.263
148.346
146.202
146.275
146.201
146.202
160.463
146.209
146.202
234.65
146.205
146.202
146.202
146.202
146.202
146.202
147.935
147.552
2570.15
2588.73
1039.89
147.059
149.94
146.279
146.204
2534.16
146.269
146.203
147.771
146.279
2349.56
146.203
146.269
146.205
358.68
149.03
150.668
153.996
146.207
146.544
201.98
146.203
146.365
146.202
146.25
148.807
146.262
168.398
146.238
185.774
146.227
191.49
146.245
146.203
146.202
976.916
146.205
146.203
146.202
146.203
146.628
146.218
146.213
146.294
146.202
146.202
146.208
146.204
315.866
146.202
146.207
146.203
146.202
146.218
146.202
149.313
146.202
146.202
146.202
146.202
146.209
146.202
146.202
146.202
146.206
146.203
146.202
1514.99
146.203
146.218
1578.36
146.202
146.204
146.207
146.202
146.202
146.202
146.201
146.202
151.403
146.249
146.214
146.202
146.203
146.201
146.218
812.573
146.201
146.202
193.438
146.201
146.202
147.82
146.202
146.265
306.702
146.202
146.201
173.971
5793.89
955.506
146.202
146.202
146.201
146.202
146.52
146.224
146.202
146.201
146.203
434.876
146.202
146.201
146.201
2997.19
341.768
146.235
2332.72
303.379
146.203
146.213
146.205
146.202
146.237
285.304
146.514
146.202
369.265
2398.67
146.202
146.202
2513.38
151.434
3373.07
146.202
146.208
146.202
146.211
2285.16
146.202
2205.39
146.203
146.202
2019.52
146.204
146.203
159.566
2388.39
146.202
146.243
1987.18
146.203
146.247
2672.64
146.568
146.205
146.203
146.582
1492.3
146.563
2026.3
146.201
146.203
730.489
146.21
723.879
227.151
146.203
146.202
146.202
224.608
146.203
146.207
146.251
146.202
146.209
146.201
251.964
3729.89
146.202
154.678
233.337
3664.41
146.203
149.794
9368.4
146.201
245.053
146.341
285.756
146.202
262.492
146.201
146.201
146.203
146.201
193.051
146.227
146.234
3075.57
213.01
146.203
146.204
146.232
146.202
146.202
146.21
165.277
146.203
147.078
146.202
1164.26
3919.95
146.241
146.246
853.657
377.568
146.21
146.234
2197.55
2073.93
324.917
199.413
327.777
146.264
187.708
295.579
332.041
147.15
146.236
307.085
333.336
146.202
146.589
334.796
146.208
146.641
338.784
7591.92
149.566
146.202
1586.8
146.206
146.204
188.474
146.202
1779.54
146.202
904.289
282.967
5225.66
146.202
146.202
146.202
1368.12
146.211
804.845
146.203
1589.99
1803.49
162.4
146.202
1435.97
328.956
343.608
4211.33
167.331
146.202
146.221
146.202
146.207
146.201
146.203
146.202
146.205
146.203
146.202
146.202
7008.12
146.202
146.204
146.202
280.996
933.674
146.239
406.899
146.202
146.203
146.212
146.203
146.202
146.203
146.202
146.202
146.212
146.203
4589.94
146.202
146.304
336.238
3737.67
146.202
146.266
146.846
146.202
146.202
1761.62
146.202
146.202
146.202
146.202
146.202
146.206
146.202
146.202
146.202
146.202
2461.42
2926.63
146.202
182.724
146.202
185.296
274.96
146.202
146.201
3934.31
146.203
146.214
146.202
146.276
146.205
146.202
146.202
3402.33
5911.73
146.202
342.782
146.202
146.202
146.208
193.515
146.202
146.211
146.237
146.212
146.202
302.047
146.208
182.505
2069.83
146.212
146.202
146.212
2131.25
146.202
146.202
146.202
146.202
146.202
146.202
146.202
275.159
146.211
146.202
146.205
1304.15
1200.3
146.202
412.988
275.706
146.202
368.276
24772.9
146.201
196.511
289.155
146.21
146.203
146.202
188.699
422.995
146.243
146.244
146.203
146.202
146.255
154.82
157.12
249.108
146.204
146.202
146.212
1011.01
146.25
146.216
146.202
1745.23
1201.09
146.202
146.203
146.201
146.214
403.159
3457.11
146.21
158.478
146.211
289.187
146.202
146.203
6386.3
146.202
146.202
146.202
146.202
146.213
146.204
146.202
146.205
146.204
146.205
146.203
146.202
2769.06
304.721
146.202
156.664
146.202
146.202
146.202
3782.76
158.159
2717.21
146.202
146.202
146.201
146.206
189.363
146.209
1392.9
146.202
146.202
146.204
2608.59
8778.1
202.832
146.202
1498.4
1405.88
318.626
1513.19
672.733
146.215
3921.76
370.687
146.202
146.203
146.202
146.203
146.202
146.203
1250.36
5602.85
732.151
148.152
453.043
146.203
146.319
146.273
1554.96
157.449
788.115
154.723
1582.82
3113.21
146.201
157.407
786.763
146.203
146.202
2854.65
146.203
146.201
796.138
2105.24
146.202
146.203
146.202
146.204
146.202
146.201
146.202
257.863
7137.58
146.202
146.203
146.217
820.351
265.084
146.202
146.202
146.202
499.363
146.202
146.212
153.538
146.201
146.21
146.202
146.202
5386.02
164.665
146.202
146.202
146.202
146.202
146.203
184.453
146.202
146.736
146.214
146.202
150.076
146.202
146.202
146.202
146.202
146.203
146.202
146.214
146.202
146.202
151.315
146.202
1441.6
146.21
146.202
146.202
146.202
146.202
146.209
346.153
1305.45
1610.97
1421.17
146.223
158.697
252.099
1224.4
1387.04
212.843
360.54
146.202
146.213
146.202
146.202
146.201
146.202
146.651
275.305
146.202
2154.54
146.202
146.202
146.218
146.202
146.223
146.202
146.208
3108.82
312.043
146.202
146.202
146.202
191.455
146.202
146.204
2533.41
146.219
2203.3
146.202
146.202
146.815
1652.46
1945.73
1862.05
1752.89
2025.27
237.418
2148.98
458.582
1972.21
146.203
146.205
146.202
146.202
324.547
2559.52
220.219
409.766
2601.14
2734.04
146.203
2623.62
2986.86
146.202
146.202
146.202
1910.14
162.441
146.486
146.202
1941.42
3350.07
208.254
3262.36
153.424
1833.97
1690.13
146.202
400.654
1755.25
298.02
146.202
146.212
157.532
146.202
146.202
1450.42
146.202
146.202
1222.55
146.207
1466.37
1365.68
146.208
146.867
148.768
153.095
193.424
151.3
524.157
163.182
146.267
146.202
156.079
146.231
150.915
149.345
146.206
166.422
249.779
380.019
3614.44
146.202
146.219
147.763
146.202
1797.28
146.202
146.202
146.202
147.613
146.206
200.937
146.201
146.202
181.658
148.429
156.531
263.925
146.202
2315.6
1728.35
2467.65
146.201
885.508
2175.64
497.99
2163.46
146.203
448.097
146.202
146.202
146.202
146.202
146.202
146.202
146.202
2107.47
146.202
146.273
146.202
146.202
146.202
146.202
146.202
216.816
304.515
146.202
146.202
4214.82
146.209
1270.62
146.208
146.201
3140.9
146.203
146.202
146.202
1239.36
146.205
146.202
146.271
146.205
146.203
146.202
146.211
146.202
146.201
146.202
146.201
146.201
146.203
146.203
157.408
146.202
146.21
146.202
154.31
146.202
146.206
146.206
3051.09
146.203
146.203
146.203
146.201
153.804
146.225
146.202
146.202
146.201
146.202
3971.34
146.202
146.202
146.202
146.203
146.202
304.955
146.202
146.202
146.203
146.206
146.202
146.202
146.202
146.203
146.202
146.201
146.202
177.09
146.203
146.203
146.201
146.202
146.202
146.202
5606.98
146.209
146.204
146.203
146.202
171.63
146.202
146.242
411.248
146.215
151.628
146.203
146.202
146.202
146.212
3334.14
146.202
146.201
3637.19
146.202
146.201
146.202
146.202
146.202
146.203
176.166
146.203
146.201
146.202
3611.91
3950.98
3952.32
147.591
911.519
2007.6
146.223
146.202
146.203
3851.38
146.202
146.205
146.202
146.204
175.6
146.202
146.202
146.202
150.027
146.561
176.971
248.955
146.201
314.898
1144.88
146.201
157.725
146.201
146.202
146.201
146.202
146.212
146.216
146.201
2409.93
200.324
1798.54
1604.7
894.403
146.986
146.201
146.202
146.202
146.293
146.201
146.201
146.201
146.205
1309.8
146.241
242.719
368.592
146.202
894.448
146.531
487.234
146.243
146.201
163.031
146.201
146.201
146.202
1350.68
940.699
938.303
146.202
948.618
146.202
146.206
146.202
146.217
146.202
3959.38
150.241
146.202
146.202
459.786
147.909
146.202
794.654
146.201
146.202
3591.92
146.202
146.205
146.201
147.854
146.201
146.202
146.201
146.202
146.778
146.201
4637.7
146.202
146.226
146.201
146.204
455.288
146.202
146.201
146.202
1826.93
146.231
483.548
1111.9
656.567
146.202
3481.52
196.946
146.201
146.202
3268.46
147.383
146.202
148.022
279.712
146.205
146.203
146.202
159.804
146.203
146.202
146.202
146.206
1617.73
146.207
12197.4
146.202
505.316
146.206
146.202
189.29
146.206
146.251
146.202
146.202
148.195
666.294
153.217
173.631
162.776
238.8
157.062
146.202
146.202
146.201
1198.97
2299.6
2332.79
271.739
146.208
168.645
163.091
5839.48
3081.35
146.201
16610.1
7052.45
153.169
146.201
188.736
1888.75
1901.48
2020.16
840.301
216.425
1360.43
146.205
1778.72
146.205
1882.19
146.214
4352.71
1272.59
146.202
146.208
171.343
1895.38
146.296
162.655
146.202
146.201
1598.86
146.203
146.202
146.203
146.201
146.293
146.202
35688.8
147.814
146.201
146.202
1312.81
146.879
5287.1
2409.74
1261.05
146.885
146.202
146.202
2044.94
146.202
146.202
146.203
146.206
146.213
1302.82
146.213
146.202
1664.17
1934.53
146.202
146.207
2266.84
146.202
146.212
1827.61
146.201
146.201
146.207
263.922
2739.82
1026.13
146.202
146.224
146.202
229.334
2672.72
154.574
1979.38
146.202
146.205
146.202
146.214
146.201
1038.81
203.762
146.202
2151.54
146.202
146.202
146.611
146.202
152.712
146.206
2530.62
158.762
146.202
146.202
1713.21
1464.4
146.202
146.398
1136.03
146.202
146.207
146.209
146.202
146.202
146.202
146.202
146.202
146.202
146.202
146.212
2654.36
146.202
1094.86
5978.24
190.054
2657.86
146.202
307.287
146.202
146.202
2381.89
1604.66
2135.09
2461.28
265.11
1160.65
146.202
158.829
215.782
320.175
1290.23
1614.15
146.203
1889.84
146.202
146.202
146.201
156.077
1572.55
146.208
3025.65
146.201
146.202
146.202
2323.36
2027.16
146.202
1483.63
1219.29
355.749
1150.8
1494.53
146.202
146.201
347.043
146.205
146.202
146.202
146.202
146.201
146.203
146.201
463.968
477.343
630.101
390.891
189.614
219.359
146.202
146.201
146.201
841.179
146.202
146.202
146.202
916.502
146.335
3848.37
1631.05
2026.27
146.918
534.579
146.219
1617.74
146.202
146.202
155.016
4057.06
1958.78
146.205
146.202
146.214
2056.99
146.202
1358.01
1999.52
2414.45
1638.59
146.202
146.202
451.033
263.748
146.211
1839.09
171.537
166.28
146.202
1615.54
146.449
746.996
146.203
146.202
243.614
146.371
146.202
146.202
364.693
2768.18
2191.68
146.208
146.203
611.296
1938.43
146.203
146.202
146.202
7971.51
508.836
4406.18
1795.26
146.203
4388.63
2561.99
146.205
146.203
146.225
146.202
146.202
146.202
1735.29
146.202
146.235
146.217
2390.25
146.202
146.202
146.202
146.202
1174.61
1155.52
146.202
2626.07
146.232
146.211
146.202
146.203
146.202
4058.02
1500.93
146.203
146.203
741.954
146.202
146.202
146.21
146.202
146.203
2485.93
146.204
183.285
146.202
146.202
146.203
2405.31
146.202
146.203
2089.58
146.202
146.203
146.202
146.202
4515.27
146.202
343.453
146.212
179.247
146.203
146.202
146.202
146.202
146.203
146.206
146.211
2397.13
2616.53
146.202
146.202
146.202
146.202
146.211
146.202
146.202
146.202
146.211
146.202
146.21
146.202
238.049
6114.45
1290.48
146.234
1016.23
146.248
146.202
1841.01
146.21
1770.75
146.247
161.037
146.202
146.202
146.202
146.201
146.21
146.202
146.256
601.929
146.202
146.202
146.201
146.212
146.202
146.215
146.201
146.201
146.202
246.588
146.259
156.686
146.202
146.202
146.271
146.282
187.176
146.202
146.21
146.202
146.218
146.202
146.727
146.477
146.206
146.271
146.611
948.758
146.266
1648.18
2495.8
146.202
4057.52
146.202
1894.33
146.201
1111.29
176.069
1113.5
1139.63
146.202
146.201
146.202
217.267
5987.62
146.202
1181.74
146.205
2145.5
146.202
146.203
146.202
146.202
1511.51
146.202
146.205
146.202
146.202
146.202
146.202
2343.62
1041.84
220.577
146.202
146.202
1316.11
146.202
146.202
371.979
2046.59
362.767
146.201
146.202
767.417
377.45
146.202
146.201
292.02
1987.41
1895.33
146.201
2136.76
146.286
146.202
146.202
146.202
146.202
146.202
146.204
146.202
146.202
146.202
146.202
146.203
146.202
146.202
146.201
146.202
146.202
146.202
146.202
146.202
146.202
146.202
146.202
155.441
1385.08
1450.85
146.202
146.201
146.202
146.202
149.355
146.202
146.202
146.209
146.202
146.202
146.202
146.241
146.202
146.202
146.202
146.202
146.202
155.5
146.201
154.693
162.914
223.232
146.201
146.201
540.876
146.201
146.201
146.202
146.202
146.202
146.202
146.202
146.207
146.203
146.202
1177.11
862.644
146.201
146.202
146.201
146.202
146.202
146.202
146.202
146.202
236.633
3057.08
146.202
2890.86
146.203
146.202
2429.38
2421.22
146.202
148.248
666.753
146.202
146.202
146.202
146.203
146.202
2541.5
146.201
2539.69
146.202
146.202
146.201
2474.42
2552.11
2007.79
146.202
146.201
146.202
146.202
146.202
146.202
146.202
146.202
146.202
146.201
1963.1
146.201
146.202
146.202
146.202
146.201
146.202
146.202
155.267
200.315
184.945
146.203
146.203
146.202
146.201
146.209
146.203
146.202
146.202
437.528
146.202
146.202
146.202
495.77
146.201
147.544
146.202
146.203
146.231
146.202
146.258
7205.93
146.222
146.31
146.202
146.224
146.222
146.202
146.201
146.201
146.202
146.222
146.203
146.206
146.219
147.033
2708.27
149.131
146.201
146.217