/*--------------------------------*- C++ -*----------------------------------*\
| =========                 |                                                 |
| \\      /  F ield         | OpenFOAM: The Open Source CFD Toolbox           |
|  \\    /   O peration     | Version:  v2012                                 |
|   \\  /    A nd           | Website:  www.openfoam.com                      |
|    \\/     M anipulation  |                                                 |
\*---------------------------------------------------------------------------*/
FoamFile
{
    version     2.0;
    format      ascii;
    class       volScalarField;
    location    "4";
    object      ILambda_2_0;
}
// * * * * * * * * * * * * * * * * * * * * * * * * * * * * * * * * * * * * * //

dimensions      [1 0 -3 0 0 0 0];


internalField   nonuniform List<scalar> 
108993
(
146.203
146.202
146.202
146.201
146.202
146.202
146.219
146.202
146.201
146.203
146.202
146.202
146.202
146.203
146.202
146.203
146.206
146.203
146.202
146.203
146.202
146.201
149.143
146.202
146.201
146.202
146.201
146.204
146.202
146.202
146.201
146.203
146.201
146.202
146.201
146.202
146.201
146.202
1240.01
3821.63
146.23
146.202
146.203
146.201
146.189
3550.99
146.201
146.266
146.202
146.203
146.201
786.075
146.202
146.201
146.203
146.202
146.201
146.202
146.202
146.202
146.202
146.201
146.202
146.202
146.201
146.202
146.201
146.202
146.203
146.364
146.202
146.202
146.202
146.202
146.202
146.201
146.202
146.203
146.201
146.201
146.202
146.203
146.201
146.202
146.203
146.203
146.202
146.202
146.202
146.202
146.202
146.201
146.202
146.202
146.202
146.203
146.201
146.202
146.201
146.201
146.202
146.201
146.202
146.202
146.202
146.202
146.202
146.201
146.201
2397.02
164.828
146.202
181.291
2469.1
146.202
150.762
146.202
146.202
146.205
146.201
146.203
146.201
146.618
146.202
146.202
146.203
146.227
146.202
146.201
146.201
146.202
146.201
146.202
1775.68
146.202
146.202
146.201
146.202
146.202
146.203
146.202
146.201
146.212
146.201
146.201
146.202
146.202
3190.56
146.202
147.799
148.12
146.202
146.203
149.035
146.202
347.619
146.202
146.201
146.201
149.548
148.625
146.201
146.201
146.202
146.203
930.633
146.202
146.202
146.202
146.202
146.201
146.202
208.953
146.202
146.202
146.202
147.9
146.202
146.202
146.202
146.203
146.201
146.201
146.202
146.203
146.202
146.201
146.203
146.202
146.202
146.202
146.201
146.202
146.213
146.202
146.202
146.221
146.202
146.202
146.202
146.202
152.051
146.202
146.201
210.005
146.656
146.201
1030.38
146.202
147.816
173.923
146.202
147.913
351.585
15368.7
146.202
146.202
146.201
146.201
146.201
146.202
147.273
146.202
146.21
146.201
146.202
146.201
146.202
2037.47
146.202
2697.08
146.202
146.202
146.213
146.201
146.201
146.201
146.201
354.46
146.201
146.201
146.202
146.202
146.201
146.201
146.203
424.461
146.615
146.201
146.201
146.201
146.201
146.201
146.202
146.201
146.201
146.201
146.202
146.201
146.202
146.201
146.202
146.208
146.203
146.201
146.202
146.201
146.202
146.202
146.202
146.202
146.202
223.324
152.222
2102.11
146.202
146.201
146.58
146.202
146.202
146.202
1691.48
1721.06
146.202
146.201
146.203
146.202
146.202
146.202
953.258
146.203
146.201
146.202
146.201
146.202
146.201
146.201
146.201
146.208
146.202
146.661
146.697
146.202
146.202
146.201
146.209
146.201
146.202
146.21
216.216
146.202
146.202
146.203
146.202
146.223
146.761
146.202
146.203
1971.35
146.202
146.204
146.202
146.208
146.207
146.202
242.359
150.308
146.857
146.201
146.202
146.201
146.86
8171.33
146.201
362.325
146.202
146.202
146.202
146.202
146.201
146.202
146.481
146.202
146.202
146.202
146.203
146.202
146.202
146.201
146.202
146.202
146.202
1501.41
187.559
146.201
146.202
146.202
3726.19
146.202
146.202
146.202
146.202
146.202
146.202
146.202
146.203
146.202
146.201
146.203
146.991
146.203
146.203
146.202
150.623
146.203
146.898
146.202
146.202
146.762
146.202
146.846
146.797
146.202
146.205
146.203
151.56
146.203
4411.42
146.202
1146.14
146.886
154.161
146.995
146.203
169.141
146.202
149.472
146.201
146.205
146.201
146.202
146.571
146.789
146.202
146.202
156.811
153.225
146.202
146.202
150.187
146.203
146.217
155.764
146.202
146.202
146.201
151.809
146.213
222.329
146.202
150.606
146.203
148.59
146.202
146.202
149.532
146.202
158.314
149.141
146.202
149.247
2697.05
149.156
146.201
146.202
146.203
146.201
146.202
146.202
146.201
146.202
146.202
146.202
146.202
175.973
146.207
146.205
191.315
146.202
146.202
146.203
146.202
146.202
146.202
146.202
146.202
146.203
146.202
146.202
146.202
146.565
146.202
146.569
149.026
146.211
146.202
146.202
146.569
146.202
146.202
146.238
146.202
146.201
146.203
146.201
146.206
146.201
208.471
198.948
146.21
146.202
146.201
146.201
146.202
146.202
146.202
146.202
146.202
169.351
146.202
146.203
146.202
146.204
146.202
146.212
146.202
146.202
146.202
146.202
146.202
146.201
146.201
146.201
146.202
146.221
146.732
146.202
146.201
2695.78
146.202
146.203
146.217
146.201
146.203
146.202
146.201
146.202
146.202
146.203
146.216
146.202
146.202
146.206
146.476
146.202
146.219
147.535
146.202
146.22
146.533
146.207
146.202
146.219
146.203
146.202
146.202
590.329
146.203
146.203
237.449
146.202
1529.56
146.202
146.202
146.202
146.202
146.202
146.262
146.202
146.201
146.647
146.205
1013.41
146.202
146.203
146.202
146.201
146.207
147.028
146.202
146.202
146.201
146.202
146.248
337.284
147.486
146.202
146.201
146.208
146.24
146.202
146.202
5889.94
304.698
148.069
146.863
146.202
365.194
149.211
147.051
146.202
146.202
146.202
146.201
146.202
146.215
2257.61
301.644
146.203
146.202
146.277
146.202
146.203
146.202
151.931
146.201
146.201
146.202
146.203
146.209
146.202
146.202
151.63
146.207
146.203
146.202
152.073
146.202
146.203
146.202
1777.71
146.202
146.234
146.202
146.223
146.202
146.202
146.202
672.795
146.201
2370.71
146.201
146.202
3479.34
146.204
146.202
146.201
146.416
2609.96
146.203
147.455
146.202
146.51
167.907
146.202
146.202
146.202
293.196
146.221
462.161
146.203
570.16
146.202
146.204
146.201
146.202
146.202
168.74
146.218
146.203
146.203
146.213
514.675
1977.54
146.352
146.203
146.237
2621.85
209.968
2662.11
1980.59
146.202
146.203
146.201
146.202
146.209
147.58
146.203
372.122
352.769
146.209
147.606
1151.42
1931.42
2507.06
146.202
146.21
146.218
146.202
2517.74
146.203
288.63
146.21
146.203
1131.22
146.204
147.434
146.232
146.217
177.832
146.201
146.202
232.357
146.203
146.208
2187.83
146.215
362.474
146.208
1192.91
545.791
146.201
146.202
146.201
146.212
146.202
146.203
146.352
146.202
146.202
148.818
511.584
3200.21
146.202
917.551
146.202
346.478
146.21
146.202
483.29
146.203
146.203
318.563
146.203
146.203
146.203
167.012
263.996
146.454
146.202
269.286
146.203
146.203
146.203
146.202
146.202
322.544
146.202
146.202
146.214
146.202
146.203
4266.7
530.345
146.202
153.676
146.202
146.203
146.202
146.205
146.202
146.202
146.202
146.202
146.202
146.543
146.202
146.203
146.214
146.202
146.202
146.202
146.202
146.202
146.218
146.208
146.21
166.751
146.201
146.202
146.202
173.121
146.202
146.728
146.659
146.203
146.202
151.831
146.988
146.203
146.202
146.879
146.202
146.202
149.719
146.202
146.233
146.202
146.202
146.219
146.201
3668.22
146.202
146.203
6296.65
146.204
150.278
173.982
147.524
146.202
146.328
146.204
146.202
146.202
146.203
146.201
146.202
146.203
146.202
146.202
146.202
146.231
146.202
146.219
146.202
210.64
146.21
146.203
1519.64
146.212
148.809
146.203
146.203
146.203
93.5478
146.206
146.212
146.219
273.127
146.209
155.703
1034.91
146.215
146.202
148.336
146.21
146.202
146.292
8280.67
146.202
146.202
146.202
154.541
146.202
146.227
146.23
146.202
146.203
322.136
146.202
320.766
146.202
222.887
146.202
146.232
186.867
146.208
196.598
146.203
188.048
191.107
146.268
148.154
5743.66
146.201
146.201
146.202
146.216
146.204
146.21
146.202
146.202
146.204
3704.36
146.202
146.208
145.521
173.483
146.207
301.635
3488.36
7084.08
162.688
390.446
147.368
7587.79
146.202
10390.7
3848.77
169.281
146.201
146.201
146.207
146.207
505.011
146.201
146.202
146.21
146.566
146.202
194.924
146.21
146.202
7374
146.201
146.202
10684.7
158.834
146.202
146.212
146.202
146.203
146.21
920.836
6895.08
146.202
7624.82
146.213
146.212
146.205
146.203
146.204
170.843
146.208
146.201
146.203
146.202
1143.53
146.202
146.202
146.486
146.202
169.274
146.217
146.204
146.209
146.201
146.818
146.202
1721.63
146.208
146.202
146.201
663.378
964.316
146.202
146.207
576.133
346.866
146.707
146.202
146.208
146.473
146.684
146.203
146.228
207.947
146.209
146.215
146.207
146.203
1361.03
3787.82
685.401
146.222
146.211
146.205
146.214
146.209
146.23
146.213
146.97
146.207
146.201
146.203
146.217
146.201
146.202
146.201
146.219
146.202
146.202
146.202
146.202
146.202
146.202
146.202
1847.48
146.202
146.202
146.203
146.201
3976.93
146.202
146.202
146.204
146.202
146.203
1333.42
146.334
146.216
146.202
146.202
1603.74
146.275
643.639
146.203
146.202
155.734
146.203
146.218
146.229
188.737
146.202
146.202
146.202
146.202
146.202
148.858
146.203
146.202
146.202
146.201
183.542
146.202
150.024
146.201
146.202
154.617
278.192
151.405
179.194
146.202
146.202
147.428
235.982
146.203
146.201
146.201
153.118
146.202
146.469
146.202
146.217
146.203
146.201
1508.79
659.154
146.212
147.607
2024.32
146.211
146.212
146.867
1620.42
146.202
146.202
146.202
225.965
146.207
6764.32
146.214
150.916
146.202
146.273
146.212
146.202
146.218
605.356
146.215
146.203
146.586
279.199
164.608
146.202
146.202
146.202
146.201
146.202
146.202
146.202
1450.63
146.202
5585.95
146.203
146.203
146.202
157.07
1984.83
146.202
146.203
146.202
146.204
146.202
146.203
160.516
146.204
146.202
146.703
146.202
146.202
146.202
146.201
146.201
146.318
2969.52
145.871
146.201
146.202
146.202
146.203
146.203
146.202
146.203
146.202
146.202
146.201
146.202
146.202
146.202
146.202
146.201
146.202
146.202
146.203
146.202
148.437
2351.47
1654.7
4464.94
146.202
146.202
146.202
146.202
146.203
146.202
146.208
146.202
146.202
1193.36
146.203
151.47
146.205
146.207
146.202
146.203
152.008
149.089
146.202
146.202
146.201
146.615
146.203
146.202
150.098
146.201
146.201
146.202
146.201
146.202
146.279
146.205
146.206
150.706
146.203
146.202
146.203
146.808
146.822
146.205
146.202
146.202
147.374
146.202
164.237
159.547
162.682
154.393
184.914
146.37
146.201
146.225
146.202
146.249
146.222
153.01
146.202
146.202
146.202
146.202
146.202
146.202
146.959
1813.17
146.218
146.202
146.201
146.219
146.202
146.201
146.202
146.202
146.202
406.313
146.222
587.385
146.202
146.405
146.202
146.216
146.546
147.482
146.201
146.231
146.203
195.599
146.245
162.525
917.918
146.202
146.202
146.204
146.202
146.202
1807.94
146.202
146.202
146.202
148.211
146.202
146.201
146.208
146.202
146.449
769.119
146.201
170.454
146.202
164.716
146.202
146.202
146.202
149.762
146.201
146.533
146.21
146.202
875.565
146.202
146.201
146.201
188.36
148.508
146.202
148.902
323.21
150.092
146.398
146.467
146.202
146.204
146.202
314.926
189.397
176.71
146.639
169.541
146.201
329.742
330.554
150.809
152.058
146.202
258.093
146.202
146.201
146.202
151.007
146.201
146.202
146.202
146.226
146.202
146.202
146.202
146.202
146.202
146.202
146.202
569.658
952.617
146.202
341.359
146.203
146.291
146.22
146.202
146.218
146.202
146.202
169.01
146.202
146.202
146.202
146.201
146.202
150.549
146.202
146.187
146.202
146.209
147.507
146.202
146.201
146.206
146.202
146.202
146.201
146.201
146.202
146.205
146.205
146.234
146.866
146.202
146.843
925.079
146.202
146.573
146.201
146.204
146.207
146.202
146.203
1360.41
148.739
231.557
146.205
512.941
146.511
146.202
146.202
146.202
146.202
146.202
146.569
147.641
146.201
146.201
146.203
146.203
146.208
146.202
146.202
12923.4
6388.27
146.203
146.201
146.558
146.202
146.202
146.203
146.202
269.476
146.202
146.202
146.202
146.203
1494.76
146.213
146.203
146.532
178.033
146.202
146.221
160.719
146.202
146.202
146.203
586.862
146.208
146.202
146.203
814.768
146.477
1076.97
146.203
146.203
1558.48
146.205
146.202
1091.07
146.203
146.201
146.207
146.202
3609.11
146.202
146.202
1010.88
146.204
4088.35
146.206
2844.26
146.204
146.204
2103.38
146.206
146.204
1883.04
146.204
146.249
1324.62
146.202
146.202
146.202
3662.82
447.104
146.202
146.558
146.202
147.226
1805.18
147.837
146.208
1607.15
146.202
2763.67
146.202
146.202
146.204
146.201
146.201
146.201
146.201
146.202
147.285
151.88
146.431
242.252
146.202
146.202
146.202
146.202
146.202
146.202
1280
146.274
146.202
146.201
146.202
1353.82
146.202
146.202
734.571
146.202
146.202
146.202
146.206
10916.5
221.701
625.919
179.322
146.202
146.203
153.419
146.202
146.202
146.202
165.069
2587.9
314.679
1766.51
146.202
146.202
1653.34
146.202
146.206
146.202
146.202
146.203
146.202
146.204
146.202
146.205
713.526
146.211
146.206
146.523
146.22
146.202
1181.6
146.202
146.202
146.202
146.202
146.201
146.202
146.475
146.202
146.206
249.288
146.605
146.8
146.202
146.202
2506.73
150.283
146.201
146.635
146.202
146.202
392.796
766.29
1203.35
146.946
146.202
995.647
2857.84
149.421
146.202
158.105
355.242
386.355
238.201
166.321
1721.96
334.992
146.202
241.386
146.607
282.591
150.62
174.803
162.143
147.656
771.225
2453.63
1785.74
146.201
146.201
1528.89
146.202
146.202
148.431
146.201
215.936
148.517
146.202
146.202
146.202
146.202
148.49
146.861
1742.04
149.726
150.732
146.202
1269.3
162.656
159.35
146.202
146.628
146.202
146.202
146.202
146.202
206.666
146.202
146.202
146.203
147.15
155.488
146.283
1831.13
146.229
146.202
149.583
146.202
146.202
146.208
146.202
146.202
146.202
286.217
224.527
608.697
1222.13
2852.14
146.214
146.202
396.108
146.823
147.449
707.078
146.201
146.206
146.201
147.185
150.461
200.214
146.202
146.202
146.202
146.202
190.012
146.201
352.779
146.201
449.141
146.852
146.202
146.201
2032.16
146.976
889.149
147.133
146.202
152.5
2768.85
146.202
163.182
146.485
146.206
375.998
146.202
377.932
165.439
276.581
388.074
1576.68
146.635
351.312
146.202
3107.56
8910.16
146.214
2390.13
146.203
146.219
194.82
146.202
2413.54
146.225
146.207
146.204
146.202
151.301
146.204
146.202
147.717
146.203
146.202
146.202
146.216
146.202
21016.7
947.867
146.205
282.764
146.21
146.202
146.204
148.223
3509.01
146.214
146.208
161.155
209.546
1708.07
691.696
146.203
2547.98
146.202
146.202
146.202
147.291
146.203
453.668
146.355
1318.82
1849.26
5026.13
146.203
358.695
146.203
146.202
146.202
146.203
146.202
146.203
146.206
163.244
1202.86
1996.95
146.206
4532.89
182.51
889.824
146.202
1474.86
154.403
169.528
146.202
146.203
146.202
146.201
146.202
146.201
146.25
146.351
159.204
988.154
345.691
151.055
1093.21
3871.39
2166.32
382.883
146.202
165.824
146.754
146.202
146.202
182.277
626.223
146.202
146.203
146.203
189.682
146.202
197.981
181.746
179.64
201.385
146.201
18394.8
1325.05
146.202
145.29
146.202
146.207
1354.16
146.214
146.216
151.699
179.635
146.202
146.207
146.202
146.201
146.202
146.574
146.203
146.207
146.655
168.899
895.069
190.762
146.529
146.202
146.202
146.202
146.202
167.212
1035.12
146.202
146.201
4969.11
146.202
146.201
146.202
146.202
902.715
1895.94
11608.1
151.218
149.562
146.201
696.979
146.202
231.037
1846.17
146.202
154.482
146.201
146.201
3442.88
146.201
146.202
1542.95
164.855
2019.26
2475.76
146.202
146.733
146.681
436.316
153.003
146.407
296.456
2219.39
578.519
1226.58
146.203
146.203
146.847
159.868
206.918
147.354
146.532
2158.55
146.202
146.202
2992.08
1760.57
146.734
149.114
155.457
147.21
7011.71
146.202
174.451
146.202
1902.27
146.202
149.577
150.355
146.202
3740.6
146.202
168.717
1273.11
146.202
146.202
350.995
146.202
146.202
146.201
146.202
148.772
146.202
1171.1
1949.3
146.201
146.202
1635.45
151.778
146.203
146.64
146.203
146.203
146.202
146.202
369.133
397.915
3314.59
146.202
146.202
1817.18
146.202
145.699
274.264
146.201
146.202
146.216
146.211
522.305
146.202
146.202
146.202
146.201
146.201
245.104
164.541
147.452
146.202
155.106
146.237
818.746
146.202
146.784
146.202
153.495
391.254
146.203
146.202
146.202
789.623
1904.39
146.202
147.051
146.204
146.202
146.208
146.219
146.201
155.739
146.201
2301.52
146.202
146.202
146.202
146.202
146.202
938.382
146.715
146.202
146.202
857.355
146.202
229.581
146.203
146.202
5530.37
5200.53
280.157
146.21
146.202
146.211
3604.48
146.202
4301.75
146.202
3188.18
174.546
146.202
500.384
1312.81
9203.25
13086.1
905.481
146.203
146.202
146.202
146.225
146.233
146.234
3213.07
146.202
146.215
146.202
146.24
2126.23
1724.84
146.202
437.014
334.168
146.202
4259.14
146.202
146.202
146.202
2326.17
941.804
817.061
146.202
146.202
146.202
4616.81
146.203
3601.74
146.202
146.202
4328.1
173.219
146.202
146.202
5977.34
146.202
146.202
146.207
4432.65
1249.76
146.545
146.202
3018.61
2846.97
149.55
150.498
159.939
178.284
146.202
219.894
5933.21
1140.69
332.061
181.693
201.474
3274.38
146.202
10351.2
2165.62
151.026
146.202
210.381
26935.2
146.202
311.407
1883.78
146.202
1210.39
146.202
3969.61
203.373
202.232
416.966
840.41
146.202
146.202
146.202
146.202
844.081
146.202
233.585
338.413
146.202
146.202
146.202
146.202
146.202
146.202
146.208
146.202
4147.71
146.202
525.272
146.202
178.929
146.203
146.206
153.819
146.202
146.202
146.202
146.202
146.209
1130.67
1220.98
1723.68
162.046
146.204
146.094
146.202
150.974
146.207
146.869
146.202
1435.23
162.06
1165.8
146.202
146.207
146.214
1083.55
146.214
146.202
148.547
146.203
146.251
1127.5
154.125
246.607
146.203
146.213
577.455
160.213
146.202
165.23
288.622
146.522
383.115
155.442
146.204
146.446
146.203
146.209
146.202
146.203
175.714
146.202
156.127
146.205
146.409
146.202
146.202
146.47
146.281
1027.69
146.95
146.202
146.202
2564.11
200.432
146.202
201.03
240.858
146.203
146.209
146.22
146.222
228.327
146.202
150.489
168.849
146.203
263.995
146.204
146.201
146.203
146.202
146.202
146.201
146.202
146.202
146.201
190.126
146.215
146.201
146.276
146.201
146.211
146.694
146.202
146.201
147.482
147.273
146.202
189.149
146.201
146.202
216.401
146.562
146.202
146.223
149.007
146.202
146.202
146.202
146.202
146.203
146.22
146.216
2304.13
1731.27
511.649
146.218
146.914
185.928
146.207
878.991
175.754
146.203
146.798
176.426
1594.33
146.203
172.761
146.205
373.317
146.65
269.217
146.648
146.215
200.982
146.884
146.203
146.244
146.202
146.231
257.914
146.211
146.638
167.051
147.868
146.207
146.772
174.749
146.203
146.202
170.922
146.205
146.203
146.202
146.203
209.107
146.209
146.211
146.214
146.202
146.202
146.208
146.203
298.852
146.202
146.203
146.203
146.202
155.729
146.202
426.37
146.202
146.202
146.202
146.202
153.901
146.202
146.202
146.202
146.204
146.203
146.202
193.725
146.203
146.21
357.255
146.202
146.455
146.204
146.202
146.202
146.202
146.201
146.202
146.221
146.211
146.208
146.202
146.202
146.201
146.209
769.447
146.201
146.202
158.208
146.201
146.202
146.216
146.202
146.209
148.394
146.202
146.201
146.321
2776.74
1552.84
146.202
146.202
146.201
146.202
345.509
146.947
146.202
146.201
146.203
761.659
146.202
146.201
146.201
6066.78
220.296
146.213
3881.72
152.846
146.203
146.206
146.204
146.202
149.142
148.048
323.963
146.202
351.702
3158.41
146.202
146.202
3626
1364.49
6245.09
146.202
146.207
146.202
146.358
3532.37
146.202
3516.8
146.203
146.203
2726.13
146.203
146.203
158.438
3185.75
146.202
146.212
2421.28
146.203
146.206
3260.86
146.575
146.204
146.202
146.575
1274.37
146.565
1765.89
146.201
146.202
412.441
146.207
331.306
182.702
146.203
146.202
146.202
175.734
146.202
146.205
146.446
146.202
146.204
146.201
242.624
1966.16
146.202
153.007
178.323
1955.04
146.203
226.399
4024.73
146.201
212.958
146.213
168.208
146.202
227.791
146.201
146.201
146.202
146.201
306.824
146.212
146.221
1788.03
178.621
146.203
146.203
146.217
146.202
146.202
146.295
146.249
146.203
146.232
146.202
1675.43
2042.7
146.233
152.238
187.453
338.627
146.203
146.222
1707.06
156.159
233.073
146.799
283.987
146.203
182.824
184.432
273.531
146.216
146.204
277.449
226.845
146.203
190.522
271.53
146.206
176.322
146.281
4987.77
438.102
146.202
1341.13
146.207
146.203
328.265
146.202
1664.4
146.202
164.25
172.553
3032.69
146.202
146.202
146.202
1038.89
146.206
162.809
146.203
1197.25
1670.98
910.51
146.202
220.504
313.736
276.11
1531.04
149.109
146.202
146.212
146.203
146.205
146.201
146.203
146.202
146.203
146.203
146.202
146.202
5753.62
146.202
146.204
146.203
1443.95
1348.72
151.473
382.918
146.202
146.203
146.208
146.203
146.202
146.203
146.202
146.202
146.211
146.203
6891.19
146.202
146.262
176.796
3391.43
146.202
218.113
146.64
146.202
146.202
1142.01
146.202
146.203
146.202
146.203
146.202
146.204
146.202
146.202
146.202
146.202
240.248
708.647
146.202
146.675
146.202
1067.75
494.786
146.202
146.201
2811.96
146.203
146.312
146.202
213.743
146.263
146.202
146.202
3613.78
5052.32
146.202
217.47
146.202
146.201
146.286
249.278
146.202
146.22
146.233
146.21
146.202
296.925
146.272
177.854
2927.93
146.204
146.202
146.354
2635.17
146.202
146.202
146.202
146.202
146.202
146.202
146.202
971.707
146.24
146.202
146.553
291.478
331.655
146.202
392.692
156.754
146.202
384.558
20254.8
146.201
718.815
148.022
146.209
146.203
146.202
279.779
406.613
153.73
154.627
146.204
146.202
164.27
152.915
146.466
266.367
146.203
146.202
146.212
260.526
157.044
146.457
146.202
509.649
239.041
146.202
146.21
146.201
146.294
352.881
2652.21
146.687
243.982
146.206
149.357
146.202
146.203
6419.52
146.202
146.202
146.202
146.202
146.213
146.203
146.202
146.205
146.203
146.292
146.204
146.202
1706.15
211.79
146.202
219.173
146.202
146.202
146.202
3070.75
148.406
1912.2
146.202
146.202
146.201
146.207
146.261
146.208
161.816
146.202
146.202
146.21
3472.06
6957.18
146.263
146.202
169.168
175.366
153.968
170.959
167.058
146.215
2047.58
153.672
146.202
146.203
146.202
146.203
146.202
146.202
171.658
4525.37
153.039
146.856
154.169
146.203
146.28
146.284
263.54
146.232
176.806
146.237
616.154
1335.65
146.201
148.573
159.266
146.203
146.202
2848.77
146.203
146.201
206.166
3708.99
146.202
146.203
146.202
146.203
146.202
146.201
146.202
188.876
6854.35
146.202
146.202
146.209
162.109
153.83
146.202
146.202
146.202
158.649
146.202
146.208
317.409
146.201
146.205
146.202
146.202
5188.48
146.223
146.202
146.202
146.202
146.202
146.216
146.303
146.202
147.948
146.347
146.202
168.721
146.202
146.202
146.202
146.203
146.203
146.202
146.21
146.202
146.202
148.753
146.202
180.048
146.205
146.202
146.202
146.202
146.202
146.205
200.029
180.053
1029.95
161.725
151.878
149.455
147.066
167.234
178.06
147.278
294.304
146.202
146.207
146.202
146.202
146.201
146.202
192.104
147.155
146.201
2690.27
146.202
146.202
146.214
146.201
149.371
146.202
147.573
3070.71
314.114
146.202
146.202
146.202
163.278
146.202
146.204
1716.77
146.215
1667
146.202
146.202
148.769
1050.06
1310.27
1376.9
1678.51
1170.1
160.67
4662.42
445.633
1350.79
146.203
146.203
146.202
146.202
168.603
2582.96
163.256
396.269
2239.06
2292.35
146.203
2775.46
2202.85
146.202
146.202
146.202
443.383
147.409
146.47
146.202
434.853
1568.57
197.021
3320.35
146.823
274.453
3116.48
146.202
152.499
3120.12
156.711
146.202
146.207
1182.21
146.202
146.202
3011.96
146.202
146.201
250.952
146.208
2941.99
357.793
146.203
146.26
146.941
147.144
146.764
147.043
454.861
147.343
150.315
146.202
147.202
146.234
146.898
146.818
146.205
777.013
148.718
343.953
2765.12
146.202
146.334
146.993
146.202
1609.26
146.202
146.202
146.202
147.018
146.238
155.471
146.201
146.202
245.653
146.957
146.998
148.795
146.201
1862.57
1555.48
2963.16
146.201
612.36
1169.72
149.76
1906.21
146.203
540.729
146.202
146.202
146.202
146.201
146.202
146.202
146.202
1979.93
146.202
149.946
146.202
146.202
146.202
146.202
146.202
172.021
202.119
146.202
146.201
4681.86
146.203
1331.8
146.207
146.201
1575.1
146.203
146.201
146.202
1239.06
146.204
146.201
146.214
146.761
146.205
146.201
164.437
146.202
146.201
146.202
146.201
146.201
146.205
146.203
146.947
146.202
146.36
146.202
149.675
146.202
146.205
146.211
2294.46
146.207
146.207
146.205
146.202
716.411
147.433
146.202
146.202
146.201
146.202
4038.19
146.202
146.201
146.202
146.207
146.202
202.003
146.202
146.202
146.202
146.206
146.202
146.203
146.201
146.202
146.202
146.201
146.202
155.998
146.203
146.203
146.201
146.202
146.202
146.202
4898.55
146.205
146.203
146.202
146.202
160.441
146.202
146.301
387.224
146.21
736.929
146.203
146.202
146.202
146.207
2141.32
146.202
146.201
2592.7
146.202
146.201
146.202
146.202
146.202
146.208
157.791
146.203
146.201
146.202
2231.6
3397.53
3267.84
154.553
442.842
1148
146.205
146.202
146.203
3029.73
146.202
146.203
146.202
146.205
148.643
146.202
146.202
146.202
194.29
146.595
187.253
150.25
146.201
147.681
186.906
146.201
147.786
146.201
146.202
146.201
146.203
146.373
146.21
146.201
648.124
196.867
1186.43
225.086
197.716
147.447
146.201
146.202
146.202
202.614
146.201
146.201
146.201
146.203
269.029
146.218
146.45
285.164
146.202
202.364
146.507
314.299
146.243
146.201
146.927
146.201
146.201
146.202
988.776
209.419
200.487
146.202
199.999
146.202
146.204
146.202
146.204
146.202
3858.32
146.584
146.201
146.201
146.598
170.272
146.201
149.808
146.201
146.201
2817.87
146.201
146.205
146.201
146.533
146.201
146.202
146.201
146.201
146.978
146.201
6647.77
146.202
146.224
146.201
146.277
295.241
146.202
146.201
146.202
821.361
149.481
158.869
247.226
663.848
146.202
3233.44
166.623
146.201
146.202
1614.21
146.525
146.202
148.883
159.728
146.203
146.264
146.202
155.424
146.203
146.202
146.202
146.204
187.784
146.204
21391.8
146.202
2165.22
146.203
146.202
243.261
146.204
156.418
146.202
146.202
186.563
258.956
154.154
188.616
193.731
166.262
164.581
146.202
146.202
146.201
768.01
1247.98
2985.34
217.72
146.206
186.68
198.19
5015.26
1536.18
146.201
12964.5
6832.88
165.267
146.201
147.906
2025.74
2032.29
4174.05
556.178
163.261
286.146
146.203
498.181
146.204
2034.42
162.841
4112.74
469.663
146.202
146.203
146.661
1655.19
146.375
151.063
146.202
146.201
564.073
146.202
146.202
146.202
146.201
214.561
146.202
38864.5
146.725
146.202
146.202
534.881
146.86
9433.14
1407.96
377.018
146.833
146.201
146.202
1685.41
146.201
146.201
146.203
146.205
146.265
524.391
146.21
146.202
863.345
4617.41
146.202
146.424
381.06
146.202
146.215
3978.97
146.202
146.202
146.206
161.847
8195.17
905.18
146.202
146.207
146.202
224.84
1115.99
147.298
1381.48
146.202
146.203
146.202
146.216
146.201
181.052
197.902
146.201
2602.64
146.202
146.202
147.65
146.202
152.932
146.205
1998.59
150.299
146.202
146.202
242.764
178.184
146.202
215.476
678.624
146.202
146.207
146.205
146.202
146.202
146.202
146.202
146.202
146.202
146.202
146.224
7154.98
146.202
831.016
5615.09
146.989
7625.06
146.202
256.71
146.202
146.202
4943.98
1329.46
2307.02
7140.17
147.241
231.897
146.202
732.889
151.008
147.134
306.602
2026.14
146.203
2440.82
146.202
146.202
146.201
146.219
553.611
146.221
4007.16
146.201
146.203
146.202
676.575
3453.27
146.202
1118.49
3577.37
262.118
3826.54
526.473
146.201
146.201
147.161
146.203
146.201
146.202
146.202
146.201
146.237
146.201
161.818
495.143
149.132
597.06
255.056
210.242
146.202
146.201
146.201
154.353
146.202
146.202
146.202
158.742
146.908
2798.13
4643.1
164.076
146.539
196.544
146.229
5295.45
146.202
146.202
268.076
1375.9
429.695
146.204
146.202
146.807
786.918
146.202
126.773
1329.94
1317.82
6966.72
146.202
146.202
147.37
150.664
146.211
7227.39
653.197
619.653
146.202
9467.65
178.482
150.097
146.203
146.202
233.185
310.715
146.202
146.202
1161.35
3620.74
2868.25
146.204
146.203
1310.35
955.884
146.203
146.202
146.202
7416.85
147.601
7860.84
1296.78
146.203
4655.04
3530.28
146.424
146.203
146.224
146.202
146.202
146.202
989.509
146.202
146.244
147.392
2888.66
146.202
146.202
146.202
146.202
1008.84
952.898
146.202
4227.4
146.313
146.203
146.202
146.203
146.202
4863.74
270.051
146.203
146.203
952.472
146.202
146.202
146.206
146.202
146.203
4584.31
146.206
224.618
146.202
146.202
146.203
4086.75
146.202
146.203
848.923
146.202
146.291
146.202
146.202
3526.18
146.202
307.709
146.273
276.238
146.203
146.202
146.202
146.202
146.203
146.204
146.217
4137.38
1093.32
146.202
146.202
146.202
146.202
146.208
146.202
146.202
146.202
146.209
146.203
146.209
146.202
146.195
9240.4
854.686
146.23
157.879
149.352
146.202
1339.56
146.209
572.124
146.208
147.103
146.202
146.202
146.202
146.201
146.209
146.202
146.23
155.259
146.202
146.202
146.201
146.243
146.202
146.204
146.201
146.202
146.202
146.106
146.247
146.23
146.202
146.202
146.239
146.249
146.333
146.202
146.236
146.202
169.718
146.202
239.045
206.713
146.204
146.263
146.507
189.757
146.257
1393.04
592.728
146.203
5255.44
146.202
3119.89
146.201
4154.47
639.493
2312.42
702.434
146.202
146.201
146.202
222.823
4817.48
146.202
1765.73
147.34
2458.02
146.202
146.203
146.202
146.202
1799.79
146.202
146.228
146.202
146.202
146.202
146.202
5268.05
211.765
433.823
146.202
146.202
186.081
146.201
146.202
316.213
2641.32
303.689
146.202
146.202
212.399
315.484
146.202
146.201
302.202
3301.11
1395.65
146.201
2968.16
194.698
146.202
146.202
146.202
146.202
146.202
146.272
146.202
146.202
146.202
146.202
146.202
146.202
146.202
146.201
146.201
146.202
146.202
146.202
146.202
146.201
146.202
146.202
146.744
182.284
166.111
146.201
146.201
146.202
146.202
148.113
146.202
146.202
146.205
146.202
146.202
146.202
156.118
146.202
146.202
146.202
146.202
146.202
146.229
146.201
146.227
146.246
258.012
146.201
146.201
149.322
146.201
146.201
146.202
146.202
146.202
146.202
146.202
146.256
146.202
146.202
849.625
734.42
146.201
146.202
146.201
146.202
146.202
146.202
146.202
146.202
249.32
1551.87
146.202
1599.2
146.202
146.202
792.542
1165.04
146.202
177.543
423.899
146.202
146.202
146.202
146.203
146.202
911.056
146.201
1285.07
146.202
146.202
146.201
2704.56
2723.54
2134.76
146.202
146.201
146.202
146.202
146.202
146.202
146.202
146.202
146.202
146.201
1689.3
146.201
146.202
146.202
146.202
146.201
146.202
146.202
637.019
146.246
226.67
146.202
146.203
146.202
146.201
146.209
146.202
146.202
146.202
146.265
146.202
146.202
146.202
243.826
146.201
146.444
146.202
146.202
146.208
146.202
146.21
7012.78
146.22
147.035
146.202
146.216
146.221
146.202
146.201
146.201
146.202
146.211
146.202
146.207
146.218
146.727
2458.25