/*--------------------------------*- C++ -*----------------------------------*\
| =========                 |                                                 |
| \\      /  F ield         | OpenFOAM: The Open Source CFD Toolbox           |
|  \\    /   O peration     | Version:  v2012                                 |
|   \\  /    A nd           | Website:  www.openfoam.com                      |
|    \\/     M anipulation  |                                                 |
\*---------------------------------------------------------------------------*/
FoamFile
{
    version     2.0;
    format      ascii;
    class       volScalarField;
    location    "4";
    object      ILambda_8_0;
}
// * * * * * * * * * * * * * * * * * * * * * * * * * * * * * * * * * * * * * //

dimensions      [1 0 -3 0 0 0 0];


internalField   nonuniform List<scalar> 
108993
(
146.204
146.673
146.203
146.202
146.202
146.203
146.436
146.202
146.202
146.228
146.203
146.203
146.202
146.203
146.203
146.206
146.249
146.203
146.202
146.283
146.202
146.202
146.205
146.202
146.202
146.203
146.202
146.301
146.36
146.203
146.202
146.203
146.201
146.211
146.202
146.202
146.201
146.202
2067.76
3815.32
146.335
146.202
146.203
146.202
146.322
2262.32
146.201
146.549
146.539
146.203
146.202
146.327
146.711
146.201
146.203
146.203
146.202
146.202
146.202
146.202
146.202
146.202
146.202
146.202
146.202
146.209
146.202
146.202
146.203
146.287
146.202
146.202
146.202
146.202
146.56
146.202
146.202
146.224
146.202
146.202
146.203
146.203
146.202
146.202
146.203
146.203
146.202
146.203
146.202
146.202
146.202
146.202
146.202
146.202
146.202
146.206
146.202
146.202
146.202
146.202
146.202
146.202
146.202
146.204
146.202
146.202
146.202
146.202
146.201
12615.2
146.423
146.202
146.572
146.861
146.202
147.131
146.202
146.202
146.256
146.202
146.203
146.202
146.626
146.202
146.202
146.223
146.346
146.203
146.202
146.202
146.204
146.202
146.202
147.382
146.202
146.202
146.202
146.202
146.202
146.203
146.202
146.202
146.227
146.202
146.202
146.202
146.202
2462.32
146.202
150.314
151.128
146.202
146.203
170.714
146.202
146.666
146.203
146.202
146.202
146.228
155.333
146.202
146.202
146.202
146.203
146.499
146.202
146.202
146.202
146.202
146.202
146.203
146.254
146.202
146.214
146.203
146.678
146.202
146.202
146.202
146.208
146.202
146.202
146.202
146.204
146.202
146.202
146.203
146.203
146.202
146.202
146.202
146.202
146.647
146.202
146.203
146.327
146.202
146.202
146.202
146.202
146.736
146.202
146.202
146.425
146.723
146.202
799.487
146.202
200.082
146.28
146.202
146.658
301.581
16389
146.202
146.203
146.202
146.202
146.202
146.204
150.635
146.22
146.625
146.201
146.202
146.202
146.202
146.518
146.202
229.234
146.202
146.202
146.394
146.202
146.202
146.202
146.202
194.825
146.202
146.202
146.202
146.202
146.202
146.202
146.211
370.796
146.563
146.202
146.202
146.202
146.202
146.202
146.202
146.202
146.202
146.202
146.203
146.202
146.202
146.202
146.571
146.271
146.242
146.202
146.202
146.202
146.371
146.202
146.202
146.202
146.202
327.709
109.201
1233.52
146.202
146.202
146.553
146.203
146.225
146.212
994.302
1084.94
146.202
146.202
146.217
146.202
146.208
146.203
2407.98
146.203
146.202
146.208
146.202
146.202
146.202
146.202
146.202
146.245
146.202
146.603
146.781
146.202
146.202
146.202
146.291
146.201
146.264
146.292
238.631
146.202
146.202
146.288
146.202
146.323
146.952
146.202
146.279
1449.18
146.202
146.584
146.202
146.462
146.461
146.202
150.707
145.092
147.154
146.202
146.203
146.202
146.89
148.725
146.202
324.779
146.202
146.202
146.202
146.202
146.202
146.202
146.606
146.205
146.202
146.203
146.203
146.202
146.202
146.201
146.202
146.202
146.202
1023.08
1350.6
146.202
146.202
146.202
2060.33
146.202
146.202
146.207
146.205
146.202
146.202
146.576
146.205
146.202
146.202
146.203
298.478
146.23
146.214
146.202
842.845
146.204
148.107
146.206
146.202
147.123
146.202
147.134
147.198
146.206
146.243
146.203
146.234
146.212
318.692
146.205
543.816
147.075
146.222
147.213
146.203
175.698
146.206
670.053
146.202
146.281
146.202
146.207
146.613
146.882
146.202
146.203
146.222
146.241
146.202
146.203
168.182
146.203
146.202
993.019
146.202
146.203
146.202
879.965
146.247
458.02
146.202
178.052
146.707
175.253
146.202
146.202
154.425
146.202
148.244
155.039
146.202
1582.93
3106.11
482.985
146.202
146.202
146.223
146.201
146.204
146.202
146.202
146.203
146.202
146.202
146.221
150.679
146.854
146.696
146.258
146.202
146.221
146.203
146.202
146.202
146.218
146.202
146.202
146.203
146.216
146.202
146.202
146.581
146.203
146.6
148.061
146.242
146.202
146.253
146.598
146.202
146.202
146.242
146.202
146.202
146.204
146.201
146.249
146.202
146.292
1100.82
146.261
146.202
146.202
146.202
146.202
146.203
146.202
146.202
146.202
146.235
146.217
146.203
146.204
146.297
146.202
146.425
146.203
146.203
146.202
146.202
146.653
146.202
146.202
146.202
146.202
146.344
147.188
146.202
146.202
391.842
146.202
146.221
146.696
146.202
146.222
146.202
146.202
146.202
146.202
146.687
146.524
146.202
146.202
146.713
146.615
146.33
146.286
146.255
146.202
146.279
146.596
146.297
146.202
146.284
146.203
146.202
146.202
146.748
146.203
146.222
1091.21
146.203
2238.41
146.202
146.202
146.202
146.202
146.202
146.275
146.202
146.202
146.613
146.286
976.333
146.202
146.203
146.203
146.201
146.211
513.671
146.562
146.216
146.202
146.202
146.591
319.441
147.222
146.203
146.202
146.246
146.274
146.202
146.385
5377.13
338.779
149.074
146.26
146.203
331.361
149.911
147.136
146.224
146.203
146.202
146.202
146.203
146.503
2165.03
333.388
146.204
146.202
146.312
146.202
146.661
146.202
114.242
146.202
146.202
146.202
146.665
146.233
146.202
146.203
79.7467
146.261
146.203
146.202
93.3704
146.202
146.298
146.202
147.525
146.203
146.234
146.202
146.575
146.202
146.21
146.202
188.363
146.202
146.688
146.202
146.203
2785.96
146.569
146.202
146.202
146.451
4475.61
146.213
148.634
146.36
146.654
147.356
146.205
146.202
146.202
3190.02
146.409
146.315
146.204
146.317
146.202
146.271
146.202
146.205
146.205
146.29
146.277
146.212
146.212
146.454
562.398
1307.18
146.275
146.676
146.313
1155.61
160.232
1382.75
1208.42
146.206
146.284
146.202
146.202
146.204
146.259
146.22
286.644
988.294
146.236
146.679
146.452
1700.54
1369.25
146.202
146.617
146.243
146.207
1294.23
146.577
173.806
146.242
146.213
3342.64
146.222
148.68
146.241
146.244
6653.46
146.202
146.202
146.287
146.213
146.466
17210.6
146.227
224.28
146.263
13526.6
146.428
146.202
146.201
146.201
146.256
146.202
146.29
146.384
146.202
146.201
146.599
1304.68
39550.4
146.203
33479.3
146.204
146.407
146.268
146.202
146.34
146.683
146.205
146.484
146.211
146.203
146.214
146.653
146.473
146.551
146.202
146.279
146.205
146.208
146.208
146.203
146.202
153.293
146.202
146.202
146.5
146.203
146.212
25424.3
294.918
146.221
146.658
146.228
146.225
146.232
146.282
146.203
146.202
146.202
146.216
146.202
146.739
146.202
146.203
146.269
146.281
146.21
146.202
146.216
146.203
146.263
146.222
146.574
219.861
146.201
146.202
146.204
146.477
146.202
146.688
146.614
146.205
146.205
123.134
146.96
146.212
146.202
146.399
146.205
146.205
146.651
146.203
146.72
146.202
146.202
146.269
146.202
1933.93
146.202
146.202
16743.4
146.22
154.003
146.579
148.016
146.203
146.763
146.237
146.202
146.203
146.22
146.202
146.203
146.203
146.202
146.202
146.203
146.268
146.202
146.263
146.202
146.575
146.319
146.203
7208.75
146.32
4966.3
146.21
146.203
146.239
734.891
146.909
146.298
146.269
146.429
146.513
146.531
681.229
146.275
146.203
146.28
146.303
146.203
146.348
9723.03
146.203
146.204
146.212
153.527
146.21
146.296
146.274
146.206
146.203
36.0238
146.204
37.0765
146.209
37.6149
146.205
146.727
146.249
146.278
146.623
146.203
146.241
146.241
146.308
146.533
4213.34
146.202
146.201
146.203
146.303
146.229
146.269
146.202
146.202
146.281
2945.24
146.202
146.253
146.299
158.522
146.47
146.445
1200.67
4986.17
146.466
146.887
146.205
148.845
146.202
149.237
2529.5
167.935
146.202
146.202
146.228
146.28
146.401
146.201
146.202
146.452
146.612
146.202
146.48
146.819
146.675
148.624
146.201
146.202
125.228
421.663
146.626
146.447
146.202
146.203
146.251
146.65
135.126
146.203
147.407
146.263
146.253
146.647
146.203
146.233
146.245
146.394
146.202
146.232
146.216
146.647
146.221
146.202
146.461
146.202
146.264
146.43
146.239
146.297
146.202
147.297
146.202
226.886
146.562
146.204
146.202
146.475
146.423
146.202
146.243
142.228
146.403
146.662
146.208
146.283
146.523
146.785
146.203
146.271
182.862
146.303
146.236
146.281
146.204
146.554
3773.73
146.36
146.283
146.268
146.253
146.238
146.208
146.236
146.27
147.596
146.244
146.202
146.24
146.282
146.201
146.202
146.202
146.299
146.204
146.202
146.203
146.24
146.203
146.203
146.626
147.596
146.203
146.203
146.222
146.202
14037.9
146.202
146.208
146.248
146.21
146.244
350.243
146.242
146.202
146.203
146.202
146.774
146.227
146.604
146.202
146.203
146.837
146.203
146.732
146.434
163.476
146.203
146.204
146.204
146.202
146.204
146.579
146.203
146.202
146.203
146.202
148.656
146.203
146.621
146.202
146.203
146.575
146.243
146.33
146.534
146.203
146.202
146.294
146.557
146.202
146.202
146.202
451.922
146.204
146.659
146.202
146.267
146.204
146.202
892.08
146.588
146.239
146.562
1798.21
146.296
146.337
146.77
1157.84
146.251
146.202
146.202
146.27
146.267
220.945
146.247
146.213
146.223
146.353
146.266
146.203
146.26
146.638
146.247
146.233
146.52
146.292
146.233
146.202
146.202
146.202
146.202
146.202
146.202
146.23
146.567
146.259
3516.85
146.256
146.203
146.202
146.234
147.754
146.202
146.255
146.204
146.27
146.202
146.247
149.434
146.267
146.202
146.616
146.216
146.203
146.203
146.202
146.202
146.376
5974.68
146.296
146.202
146.203
146.202
146.208
146.205
146.202
146.223
146.205
146.203
146.202
146.203
146.203
146.202
146.203
146.201
146.202
146.202
146.224
146.203
146.388
147.009
146.575
1689.59
146.203
146.202
146.204
146.203
146.205
146.203
146.467
146.202
146.203
146.481
146.206
146.583
146.464
146.463
146.203
146.204
129.671
145.444
146.202
146.202
146.202
146.604
146.204
146.202
1469.71
146.202
146.201
146.201
146.202
146.202
146.225
146.269
146.623
1408.46
146.32
146.306
146.41
147.076
146.547
146.267
146.204
146.43
148.978
146.202
146.251
146.241
146.226
146.226
5876.47
146.656
146.201
146.267
146.202
146.293
146.267
146.241
146.207
146.202
146.203
146.202
146.231
146.202
147.524
9199.15
146.267
146.202
146.201
146.268
146.223
146.202
146.223
146.202
146.221
676.068
146.271
242.624
146.202
146.251
146.202
146.245
146.574
146.226
146.202
146.268
146.211
163.59
146.272
146.433
146.714
146.202
146.203
146.222
146.202
146.224
2253.86
146.202
146.221
146.202
147.706
146.202
146.202
146.739
146.202
146.556
811.322
146.202
146.69
146.215
146.305
146.202
146.211
146.202
146.681
146.201
146.58
146.243
146.202
582.021
146.202
146.202
146.202
146.654
150.49
146.203
146.23
146.482
151.85
146.266
146.203
146.202
146.277
146.204
172.697
184.33
170.474
146.588
171.892
146.202
194.024
194.184
146.225
146.218
146.213
146.443
146.204
146.202
146.202
146.233
146.202
146.203
146.203
146.384
146.202
146.203
146.202
146.223
146.202
146.202
146.202
146.731
146.813
146.202
146.904
146.208
146.209
146.542
146.411
146.34
146.203
146.213
146.657
146.202
146.217
146.222
146.201
146.22
328.899
146.218
146.257
146.221
146.252
146.667
146.244
146.202
146.277
146.202
146.246
146.202
146.202
146.208
146.277
146.245
146.204
147.426
146.232
146.65
599.53
146.202
146.497
146.202
146.287
146.29
146.204
146.203
1031.64
147.957
146.266
146.262
4202.83
146.45
146.202
146.204
146.202
146.249
146.249
146.614
153.287
146.202
146.202
146.206
146.238
146.291
146.203
146.203
34866.3
16791.8
146.241
146.202
146.73
146.221
146.21
146.211
146.203
146.691
146.202
146.21
146.218
146.236
314.061
146.232
146.224
146.502
146.558
146.211
146.405
149.446
146.207
146.203
146.242
146.528
146.276
146.202
146.224
146.461
146.471
724.757
146.23
146.235
376.767
146.21
146.209
572.107
146.21
146.201
146.213
146.203
3838.03
146.206
146.203
146.826
146.214
2767.04
146.21
3824.11
146.212
146.228
1289.48
146.255
146.23
1186.35
146.262
146.204
146.909
146.202
146.202
146.202
804.391
146.443
146.207
146.522
146.202
146.48
373.809
156.563
146.269
369.8
146.203
12471.2
146.202
146.205
146.443
146.202
146.202
146.202
146.202
146.218
146.614
149.284
146.396
171.08
146.219
146.202
146.216
146.222
146.217
146.202
159.613
146.312
146.202
146.202
146.202
146.495
146.223
146.204
146.644
146.202
146.204
146.204
150.736
26435.5
146.609
543.772
150.751
146.205
146.245
149.285
146.203
146.203
146.316
1134.51
3520.85
187.797
9102.4
146.202
146.202
15126.9
146.203
149.144
146.202
146.203
146.266
146.202
147.311
146.202
147.102
40014.4
146.412
147.66
146.518
146.481
146.202
146.459
146.202
146.203
146.202
146.202
146.202
146.202
146.6
146.202
146.282
146.422
146.593
146.745
146.226
146.202
4549.32
148.805
146.202
146.608
146.202
146.203
171.603
734.003
1534.27
146.69
146.202
167.961
7112.85
195.273
146.202
151.649
180.109
157.299
208.912
146.244
2531.9
151.997
146.203
153.949
146.689
162.794
146.324
147.143
146.353
146.24
268.553
3278.3
2176.09
146.202
146.202
21849.6
146.202
146.509
147.3
146.202
4911.65
146.295
146.21
146.21
146.219
146.215
146.329
146.785
2761.78
146.595
152.827
146.202
147.471
146.383
146.619
146.203
146.426
146.218
146.212
146.206
146.219
146.285
146.22
146.215
146.214
148.315
146.378
146.228
1394.08
146.404
146.243
158.901
146.213
146.208
146.547
146.207
146.202
146.203
271.721
146.841
146.639
146.604
1068.26
146.23
146.207
360.095
146.851
146.764
147.896
146.203
146.225
146.201
147.496
146.614
169.189
146.203
146.201
146.202
146.202
149.333
146.202
361.367
146.201
148.301
146.924
146.204
146.202
728.319
147.429
604.699
147.637
146.202
148.026
60227.1
146.202
146.428
146.507
146.298
340.537
146.202
366.478
163.905
977.379
326.05
8106.76
146.885
359.187
146.222
21542.3
28274.6
146.312
167.865
146.206
146.272
154.713
146.206
241.122
146.398
146.23
146.342
146.613
161.579
146.615
146.271
146.455
146.203
146.201
146.203
146.625
146.217
20636.4
146.953
146.228
21239.8
146.266
146.202
146.259
164.487
5768.59
146.299
146.356
155.408
171.214
61385
147.502
146.203
9937.43
146.56
146.203
146.205
177.516
146.203
146.343
146.368
147.551
148.156
1533.58
146.203
213.648
146.815
146.231
146.202
146.203
146.207
146.203
146.241
162.793
156.592
17185.1
146.24
971.772
146.688
709.676
146.208
146.488
150.402
9178.97
146.214
146.203
146.202
146.202
146.202
146.201
146.226
146.328
146.708
157.494
184.405
146.568
4893.6
1375.58
6779.32
147.023
146.202
6759.29
146.624
146.202
146.203
154.958
160.975
146.201
146.204
146.203
146.548
146.202
9171.15
9215.74
6368.46
152.319
146.202
824.22
147.094
146.201
146.407
146.202
146.246
146.97
146.225
146.238
1882.9
146.554
146.203
146.247
146.203
146.202
146.23
146.492
146.25
146.205
147.032
146.607
905.017
146.69
146.597
146.525
146.203
146.231
146.209
147.537
633.336
146.209
146.202
9285.75
146.222
146.202
146.22
146.223
146.435
2607.29
9407.27
148.516
147.168
146.202
337.422
146.227
176.74
1722.43
146.202
151.155
146.202
146.202
1354.84
146.202
146.568
2155.01
169.012
2788.4
2720.31
146.203
146.724
146.679
234.506
146.383
146.234
1924.74
2627.98
676.156
159.772
146.58
146.21
146.618
151.214
521.183
148.549
146.451
1916.43
146.203
146.202
9988.74
2380.59
146.814
147.148
146.916
152.99
12358.4
146.202
147.149
146.23
2423.64
146.208
146.808
147.102
146.203
5018.75
146.209
911.975
2772.7
146.225
146.208
345.685
146.207
146.202
146.202
146.202
174.694
146.222
2859.57
1521.5
146.202
146.202
686.93
146.317
146.203
146.654
146.203
146.203
146.206
146.202
249.799
269.97
15082.2
146.202
146.202
1068.93
146.202
148.002
4129.07
146.202
146.202
146.207
146.209
591.276
146.202
146.219
146.202
146.202
146.201
166.614
1771.32
146.216
146.207
3973
146.204
146.456
146.202
146.771
146.202
187.923
312.285
146.204
146.202
146.355
146.798
2476.68
146.202
146.666
146.257
146.202
146.259
146.265
146.202
146.624
146.202
357.213
146.202
146.202
146.217
146.292
146.203
600.657
146.842
146.202
146.202
513.018
146.202
178.373
146.214
146.202
18585.7
8756.58
183.763
146.586
146.204
146.257
3049.95
146.202
2648.64
146.202
2599.29
1791.48
146.214
206.506
2255.81
1969.19
27126.3
670.326
146.279
146.202
146.203
146.268
146.309
146.226
1376.83
146.203
146.237
146.202
146.337
1709.05
818.357
146.202
146.837
180.704
146.202
1190.53
146.202
146.202
146.203
3359.74
627.834
587.234
146.202
146.203
146.202
4406.55
146.496
5310.41
146.202
146.202
1836.5
147.735
146.202
146.202
9617.74
146.202
146.202
153.039
4072.82
146.652
146.558
146.202
3404.93
789.292
156.344
148.394
146.246
20217.5
146.209
147.614
1019.91
156.608
6528.85
23008.7
9779.35
13948.8
146.202
14791.6
2057.97
148.691
146.202
154.18
105406
146.202
547.615
9193.67
146.202
1638.56
146.202
3607.55
147.429
146.837
656.409
331.256
146.204
146.202
146.416
146.218
6599.09
146.202
212.924
229.921
146.212
146.213
146.21
146.203
146.236
146.202
146.822
146.272
3700.32
146.203
147.994
146.213
147.167
146.203
146.257
150.257
146.21
146.21
146.203
146.203
146.245
2645.92
1901.1
146.468
147.152
146.205
146.206
146.212
146.228
146.231
146.341
146.203
147.054
146.567
1110.9
146.213
146.209
146.203
146.553
146.225
146.204
146.53
146.215
146.365
863.269
146.369
165.855
146.216
146.236
146.873
150.649
146.202
146.24
146.564
146.217
146.653
146.278
146.579
146.402
146.585
146.203
146.203
146.216
148.301
146.203
151.585
146.203
146.399
146.203
146.202
146.426
146.237
146.35
146.343
146.222
146.202
1332.42
37.3898
146.227
163.511
37.3608
146.206
146.293
146.232
146.251
42.6838
146.204
146.401
146.458
146.203
40.8173
146.242
146.201
146.208
146.203
146.204
146.201
146.202
146.203
146.201
159.803
146.203
146.201
146.385
146.201
146.277
146.812
146.203
146.201
147.225
147.067
146.211
146.237
146.201
146.457
146.505
146.206
146.202
146.522
146.318
146.211
146.213
146.213
146.205
146.203
146.27
146.48
612.471
146.828
286.079
146.291
146.264
146.241
146.203
328.711
146.237
146.207
146.883
146.246
242.77
146.203
146.243
146.269
152.093
146.492
146.513
146.536
146.204
146.524
146.732
146.203
146.347
146.203
146.253
146.371
146.389
146.609
146.303
146.788
146.275
146.776
146.385
146.218
146.202
146.525
146.236
146.206
146.204
146.203
146.32
146.203
146.296
146.229
146.202
146.202
146.205
146.219
179.421
146.202
146.227
146.231
146.202
146.524
146.202
146.511
146.216
146.205
146.203
146.202
146.237
146.202
146.202
146.202
146.223
146.203
146.202
146.837
146.203
146.258
15557.1
146.202
146.591
146.247
146.203
146.209
146.645
146.202
146.203
146.508
146.308
146.236
146.202
146.239
146.202
146.253
146.331
146.202
146.203
146.229
146.202
146.203
146.532
146.202
146.249
146.43
146.252
146.202
146.227
9021.43
1492.12
146.211
146.202
146.202
146.203
146.319
146.437
146.202
146.202
146.205
1663.59
146.207
146.202
146.202
3998.83
220.766
146.262
2677.9
146.249
146.204
146.913
146.262
146.203
146.224
1013.1
146.508
146.202
179.131
2323.71
146.202
146.202
2983.96
146.689
4636.45
146.202
146.231
146.203
146.537
1524.63
146.203
1485.81
146.218
146.203
1418.64
146.216
146.203
146.353
1419.78
146.204
146.283
1440.39
146.207
146.29
1485.25
146.584
146.217
146.279
146.606
147.871
146.573
291.677
146.202
146.203
146.472
146.207
146.451
174.977
146.203
146.21
146.287
176.204
146.659
146.205
146.237
146.202
146.258
146.202
181.75
14620.9
146.333
148.209
174.681
15215.6
146.203
146.546
7512.69
146.202
175.334
146.333
146.447
146.203
181.043
146.202
146.202
146.24
146.202
150.593
146.239
146.233
6652.69
146.507
146.203
146.236
146.241
146.208
146.202
146.203
146.239
146.227
146.259
146.206
147.503
15577.8
146.236
146.294
530.62
228.795
146.4
146.233
147.189
146.713
165.891
146.248
163.11
146.243
146.508
170.999
295.513
146.23
146.239
270.413
152.81
146.203
146.605
273.047
146.23
146.667
146.477
7081.7
146.731
146.235
883.272
146.205
146.671
146.73
146.299
1278.81
146.203
153.435
157.982
410.166
146.219
146.203
146.202
877.606
146.291
151.111
146.218
1355.87
1432.84
146.475
146.202
1983.03
178.064
193.912
8098.66
149.117
146.203
146.256
146.204
146.23
146.203
146.203
146.202
146.63
146.207
146.202
146.207
41285.3
146.203
146.27
146.203
146.981
146.595
146.231
250.811
146.202
146.212
146.262
146.204
146.203
146.203
146.223
146.202
146.241
146.23
10842.2
146.202
146.734
146.301
4033.19
146.202
146.513
146.448
146.202
146.203
15186.4
146.202
146.211
146.202
146.203
146.203
146.241
146.202
146.203
146.203
146.203
146.679
161.285
146.202
146.225
146.202
146.441
146.4
146.203
146.202
3929.12
146.203
146.241
146.202
146.604
146.256
146.202
146.202
2808.97
7591
146.261
217.239
146.203
146.205
146.238
146.575
146.203
146.596
146.269
146.569
146.203
146.552
146.241
148.113
3223.74
146.472
146.205
146.254
1607.23
146.203
146.281
146.203
146.204
146.204
146.203
146.203
146.356
146.236
146.292
146.59
217.41
186.257
146.202
301.134
148.287
146.205
311.662
49006.9
146.201
146.378
146.942
146.211
146.241
146.203
146.292
326.281
146.217
146.209
146.207
146.203
146.221
146.448
146.216
146.406
146.205
146.261
146.334
187.324
146.21
146.242
146.288
201.495
230.905
146.202
146.53
146.202
146.6
204.812
8754.15
146.3
146.611
146.256
146.289
146.202
146.203
31480.1
146.202
146.203
146.202
146.202
146.266
146.278
146.236
146.235
146.219
146.347
146.423
146.202
5743.29
209.022
146.203
146.59
146.202
146.202
146.202
3170.66
149.425
2007.59
146.212
146.202
146.202
146.446
146.235
146.265
19006.2
146.348
146.202
146.263
2132.5
16711.9
146.238
146.202
19163.9
16850.9
146.574
11836.3
526.776
146.519
1357.39
147.28
146.217
146.203
146.216
146.203
146.202
146.205
5575.38
12306.6
667.001
146.797
252.83
146.23
146.557
146.343
146.896
146.228
420.735
146.228
195.641
146.74
146.201
150.636
686.547
146.205
146.202
2767.6
146.207
146.201
276.902
1126.28
146.202
146.203
146.204
146.262
146.23
146.201
146.202
161.432
33598.6
146.202
146.231
146.247
1115.01
148.472
146.202
146.201
146.202
479.546
146.203
146.554
146.983
146.201
146.515
146.202
146.202
5037.54
146.234
146.202
146.202
146.202
146.204
146.556
146.242
146.202
146.485
146.495
146.202
146.655
146.202
146.202
146.202
146.207
146.203
146.202
146.229
146.202
146.202
1242.61
146.202
1810.74
146.234
146.202
146.202
146.202
146.203
146.239
152.55
3062.1
852.836
3951.48
146.333
154.59
146.224
2942.83
3876.21
146.228
205.954
146.202
146.242
146.202
146.202
146.202
146.203
146.698
147.999
146.202
1531.34
146.205
146.738
146.226
146.202
146.437
146.281
146.566
2541.36
189.014
146.38
146.202
146.593
163.122
146.217
146.236
21177
146.233
15968.1
146.202
146.202
146.507
7837.7
18748.3
15981.7
8807.24
186.121
166.164
2405.69
403.631
10991.5
146.203
146.3
146.205
146.294
146.458
323.569
146.221
201.263
310.329
556.465
146.209
495.179
146.712
146.202
146.202
146.202
147.059
147.552
146.455
146.202
147.178
4423.92
146.317
3492
146.863
146.523
894.094
146.202
146.391
1048.32
146.263
146.202
146.513
146.719
146.202
146.202
735.243
146.212
146.202
218.321
146.415
911.217
156.569
146.266
155.255
146.791
146.925
146.537
146.915
147.025
147.412
146.27
146.202
146.955
146.269
146.861
146.788
146.269
146.776
146.249
280.099
2404.63
146.202
146.545
147.027
146.202
1212.26
146.202
146.202
146.202
147.026
146.212
165.023
146.201
146.203
146.74
146.852
146.803
146.229
146.202
146.783
1422.86
1167.34
146.202
1575.72
12131.3
195.498
1990.85
146.204
1047.43
146.202
146.215
146.202
146.202
146.257
146.203
146.202
1694.16
146.214
146.653
146.202
146.202
146.203
146.202
146.205
146.234
150.021
146.202
146.202
3254.36
146.319
1534.39
146.289
146.202
1549.17
146.206
146.202
146.203
1524.3
146.287
146.202
146.251
146.54
146.385
146.202
146.552
146.202
146.202
146.202
146.202
146.202
146.385
146.217
146.597
146.202
146.547
146.202
146.784
146.202
146.263
146.204
146.641
146.347
146.347
146.353
146.203
146.468
146.23
146.202
146.202
146.202
146.204
3552.37
146.202
146.202
146.203
146.386
146.205
157.072
146.202
146.202
146.289
146.3
146.203
146.204
146.202
146.22
146.202
146.202
146.203
151.128
146.203
146.203
146.202
146.203
146.203
146.203
6040.36
146.259
146.216
146.214
146.203
146.402
146.203
147.828
262.25
146.24
146.729
146.203
146.203
146.202
146.406
3429.87
146.203
146.202
3627.58
146.203
146.202
146.202
146.202
146.614
146.526
271.531
146.203
146.202
146.203
3678.08
3661.91
3866.28
146.424
158.259
180.195
146.204
146.204
146.667
3703.5
146.203
146.289
146.203
146.204
148.224
146.202
146.203
146.348
146.484
146.48
146.341
146.974
146.203
147.058
146.411
146.203
147.367
146.202
146.203
146.203
146.206
146.203
155.201
146.203
146.813
146.248
152.483
147.674
526.708
146.439
146.203
146.272
146.205
146.249
146.203
146.201
146.201
146.343
445.477
146.688
146.257
168.846
146.205
366.281
146.533
154.627
146.543
146.201
146.744
146.202
146.201
146.203
503.424
398.842
560.964
146.203
434.765
146.202
146.217
146.202
146.233
146.202
5429.89
146.578
146.202
146.202
146.455
146.469
146.202
150.001
146.202
146.202
14809.1
146.202
148.487
146.201
146.551
146.202
146.203
146.202
146.202
146.44
146.202
11534.7
146.213
146.273
146.202
146.593
741.328
146.202
146.202
146.202
9891.88
146.287
147.599
3717.21
314.271
146.201
3424.06
146.96
146.202
146.247
8886.74
146.488
146.202
1371.83
656.93
146.207
146.576
146.204
1684.08
146.203
146.203
146.203
146.25
10147.2
146.251
79603.7
146.28
146.781
146.246
146.224
146.253
146.249
146.269
146.207
146.216
146.386
171.629
693.886
155.721
768.005
173.687
778.037
146.29
146.202
146.202
1270.21
867.048
1210.94
174.294
146.714
148.046
799.369
8922.11
1213.2
146.202
36517.5
10429.5
696.299
146.202
148.499
185.946
261.776
1166.22
300.156
147.033
1195.25
146.208
396.114
146.299
171.09
146.55
4570.59
4763.77
146.204
146.207
146.721
226.875
146.461
146.268
146.202
146.201
3141.66
146.257
146.393
146.556
146.201
146.597
146.202
103564
146.44
146.201
146.637
2917.97
146.438
22443.1
649.305
5767.07
146.431
146.202
146.261
1200.16
146.202
146.202
146.211
146.317
146.595
4623.37
151.022
146.228
551.363
918.4
146.202
146.203
3438.18
146.21
146.582
760.907
146.201
146.201
146.253
166.984
21036.7
785.281
146.328
146.756
146.202
544.777
47778.5
146.534
5631.8
146.202
146.244
146.202
151.199
146.202
4961.84
265.712
146.202
1547.78
146.202
146.202
147.02
146.211
146.361
146.237
2359.13
326.034
146.202
146.204
146.435
8831.76
146.202
146.322
2591.9
146.202
146.337
146.241
146.202
146.212
146.202
146.21
146.209
146.203
146.202
146.583
146.677
146.204
836.721
10153.5
146.811
146.727
146.202
146.338
146.204
146.209
146.826
1231.88
1532.81
146.813
143.641
150.019
146.271
146.777
146.233
147.533
148.468
146.824
146.207
148.431
146.209
146.211
146.202
146.238
147.259
146.58
2728.63
146.202
146.243
146.313
321.509
1312.28
146.202
149.063
148.225
158.058
140.724
163.204
146.202
146.202
148.894
146.777
146.202
146.202
146.202
146.202
146.584
146.202
2280.47
1151.32
149.525
147.151
146.665
146.405
146.504
146.202
146.202
272.256
146.202
146.202
146.202
470.367
146.391
11852.7
148.372
146.724
146.56
181.405
146.586
148.39
146.223
146.49
147.195
173.608
147.116
146.232
146.226
146.341
153.184
146.205
164.705
165.587
146.568
148.606
146.243
146.331
153.323
147.507
146.503
148.392
146.627
147.014
146.203
148.914
146.671
150.728
146.203
146.202
162.745
146.31
146.202
146.253
146.807
2695.2
147.086
146.325
146.203
147.331
146.694
146.203
146.202
146.202
14555.7
150.323
3521.39
147.313
146.203
2778.35
2662.43
146.378
146.203
146.617
146.373
146.436
146.244
206.354
146.209
146.615
146.298
2898.34
146.21
146.221
146.202
146.202
1532.46
1133.32
146.411
2950.04
146.482
146.215
146.203
146.204
146.203
3096.86
146.775
146.203
146.203
146.46
146.203
146.204
146.565
146.202
146.207
146.738
146.213
146.376
146.264
146.202
146.203
147.016
146.203
146.203
683.589
146.254
146.555
146.202
146.223
4762.15
146.203
178.224
146.61
146.475
146.203
146.204
146.285
146.204
146.203
146.792
146.598
146.985
582.563
146.215
146.21
146.246
146.202
146.35
146.208
146.23
146.69
146.351
146.203
146.369
146.203
146.29
6814.13
555.902
146.689
148.123
146.238
146.204
252.455
146.36
189.695
146.765
146.678
146.203
146.201
146.204
146.201
146.369
146.209
146.248
148.604
146.325
146.202
146.202
146.581
146.219
146.248
146.202
146.203
146.216
146.46
146.247
146.392
146.204
146.202
146.249
146.251
146.33
146.203
146.532
146.206
146.346
146.209
146.418
146.368
146.557
146.252
146.516
150.154
146.251
148.67
147.004
146.205
2075.29
146.203
148.366
146.201
149.395
146.961
149.33
1020.49
146.207
146.201
146.206
555.692
13594.3
146.202
148.49
146.59
1687.48
146.202
146.695
146.202
146.237
147.857
146.202
146.202
146.214
146.206
146.203
146.202
146.977
595.493
147.115
146.238
146.202
147.135
146.202
146.202
314.716
1595.99
318.37
146.201
146.203
161.721
317.183
146.202
146.202
797.174
147.034
854.204
146.201
147.517
146.24
146.202
146.203
146.202
146.202
146.218
146.556
146.202
146.202
146.207
146.205
146.228
146.219
146.202
146.202
146.202
146.202
146.209
146.202
146.202
146.202
146.202
146.209
146.599
147.382
146.653
146.202
146.202
146.204
146.204
146.695
146.203
146.224
146.397
146.203
146.28
146.203
146.527
146.202
146.202
146.228
146.204
146.202
146.387
146.201
146.402
146.391
156.017
146.202
146.202
146.344
146.201
146.201
146.21
146.202
146.21
146.202
146.202
146.24
146.552
146.281
494.169
374.919
146.201
146.333
146.202
146.202
146.204
146.202
146.206
146.202
1289.94
763.795
146.208
977.615
146.443
146.202
4681.84
5707.57
146.254
146.555
202.496
146.291
146.203
146.202
146.735
146.202
1731.94
146.202
1742.53
146.211
146.202
146.201
146.795
146.839
146.91
146.362
146.202
146.202
146.202
146.208
146.202
146.205
146.202
146.203
146.202
147.135
146.201
146.305
146.349
146.206
146.203
146.202
146.221
146.764
146.385
146.609
146.239
146.595
146.206
146.202
146.247
146.272
146.205
146.341
146.392
146.203
146.202
146.699
146.376
146.201
146.512
146.264
146.676
146.303
146.203
146.305
11787.1
146.276
146.767
146.202
146.293
146.287
146.206
146.202
146.202
146.543
146.292
146.202
146.351
146.271
418.912
146.833
148.713
146.202
146.203
706.607
146.204
146.582
146.225
146.205
146.201