/*--------------------------------*- C++ -*----------------------------------*\
| =========                 |                                                 |
| \\      /  F ield         | OpenFOAM: The Open Source CFD Toolbox           |
|  \\    /   O peration     | Version:  v2012                                 |
|   \\  /    A nd           | Website:  www.openfoam.com                      |
|    \\/     M anipulation  |                                                 |
\*---------------------------------------------------------------------------*/
FoamFile
{
    version     2.0;
    format      ascii;
    class       volScalarField;
    location    "4";
    object      ILambda_12_0;
}
// * * * * * * * * * * * * * * * * * * * * * * * * * * * * * * * * * * * * * //

dimensions      [1 0 -3 0 0 0 0];


internalField   nonuniform List<scalar> 
108993
(
146.203
146.234
146.374
146.202
146.202
146.202
146.212
146.202
146.205
146.225
146.216
146.215
146.202
146.203
146.203
151.623
146.234
146.203
146.202
146.204
146.202
146.202
146.221
146.202
146.202
146.202
146.204
146.203
146.209
146.202
146.204
146.203
146.204
146.203
146.202
146.202
146.204
146.202
6342.8
2454.91
146.208
146.216
146.203
146.202
146.279
3675.01
146.204
146.205
146.203
146.204
146.206
147.532
146.261
146.206
146.203
146.202
146.204
146.202
146.202
146.202
146.202
146.202
146.202
146.202
146.202
146.203
146.202
146.202
146.21
264.835
146.202
146.202
146.202
146.202
146.202
146.207
146.202
146.211
146.204
146.202
146.202
146.216
146.203
146.216
146.203
146.204
146.226
146.214
146.202
146.202
146.202
146.207
146.202
146.202
146.202
146.205
146.207
146.203
146.206
146.217
146.202
146.202
146.202
146.216
146.202
146.202
146.202
146.202
146.203
4440.4
146.349
146.202
146.575
146.733
146.209
167.005
146.202
146.231
159.356
146.207
146.206
146.202
2485.41
146.389
146.202
146.374
146.21
146.203
146.202
146.202
146.214
146.202
146.203
152.631
146.21
146.825
146.202
146.203
146.202
146.203
146.392
146.229
146.275
146.202
146.202
146.202
146.203
3419.8
146.416
566.051
559.145
146.202
147.096
589.849
146.203
146.572
146.203
146.202
146.204
163.637
560.994
146.203
146.206
146.202
146.203
146.813
146.202
146.202
146.202
146.207
146.202
146.202
146.638
146.218
146.206
146.205
169.506
146.202
146.215
146.206
146.258
146.203
146.203
146.355
146.205
146.202
146.202
146.203
146.203
146.364
146.206
146.203
146.204
168.924
146.205
146.576
146.208
146.203
146.202
146.361
146.202
151.239
146.202
146.202
146.22
6330.78
146.202
2612.97
146.205
7320.74
172.646
146.202
176.281
1998.07
20994.5
146.202
146.203
146.205
146.203
146.202
146.206
599.086
146.842
164.389
146.206
146.203
146.203
146.318
166.175
146.237
324.29
146.202
146.202
146.203
146.209
146.201
146.203
146.202
354.918
146.202
146.202
146.213
146.202
146.202
146.202
159.515
2181.61
2372.44
146.202
146.203
146.206
146.202
146.206
146.206
146.202
146.202
146.202
146.271
146.205
146.202
146.23
146.202
146.321
146.353
146.203
146.239
146.225
146.208
146.202
146.205
146.202
146.272
2138.23
43763.2
2713.84
146.209
146.208
1863.45
146.251
146.211
146.211
1044.03
1786.61
146.203
146.202
146.313
146.202
146.206
146.265
3339.6
146.205
146.208
146.206
146.222
146.214
146.206
146.206
146.23
146.231
146.202
3274.22
1211.68
146.202
146.202
146.206
146.203
146.201
146.202
146.203
2130.46
146.202
146.202
146.228
146.202
146.203
920.204
146.202
146.229
3924.8
146.21
146.206
146.202
146.203
146.203
146.203
304.909
44225.9
3808.45
146.206
146.523
146.206
2138.6
171.687
146.202
3149.68
146.202
146.218
146.202
146.208
146.202
146.208
736.464
146.205
146.202
146.203
146.203
146.217
146.202
146.209
146.219
146.263
146.202
1292.1
1737.14
146.202
146.202
146.204
2055.9
146.221
146.202
146.354
146.205
146.217
146.436
146.202
146.204
146.323
146.203
146.203
43778.9
154.588
146.301
146.231
821.525
146.205
12541.7
146.232
146.214
8418.14
146.208
7954.04
8470.43
146.204
180.261
146.203
146.215
146.247
1352.25
146.216
3513.82
10902
146.214
10846.2
146.203
1758.58
146.205
39141.1
146.206
146.324
146.206
146.205
1972.01
2249.1
146.213
146.205
146.214
146.215
146.202
146.456
32905.8
146.203
146.205
48695.2
146.202
146.207
146.208
1095.17
149.069
627.71
146.202
29923.2
146.212
26633.9
146.204
146.202
37233.6
146.202
972.617
41779.5
146.202
24924.3
6424.99
30275.6
146.202
146.213
146.24
146.202
146.207
146.205
146.225
146.203
146.243
146.235
146.202
366.408
146.893
146.317
146.546
146.249
146.202
146.22
146.202
146.276
146.212
146.206
146.202
146.204
146.202
146.216
146.21
2142.34
147.081
2114.37
410.83
146.507
146.487
146.202
2124.2
146.498
146.816
146.246
146.202
146.202
147.146
146.201
146.25
146.24
156.311
717.902
159.174
146.202
146.202
146.209
146.212
147.235
147.069
146.482
146.718
146.262
146.203
146.204
146.202
146.342
146.985
146.815
146.202
147.804
146.295
146.262
146.212
146.201
146.203
146.24
146.373
146.285
555.98
146.281
146.235
892.911
146.252
154.593
146.258
146.207
146.238
146.241
146.202
146.202
146.263
146.209
146.203
146.204
146.203
146.254
146.24
146.211
181.068
146.215
146.284
180.722
146.242
146.21
146.202
161.512
146.203
146.202
146.213
146.644
146.204
146.22
1785.86
146.202
2406.6
146.202
146.202
146.215
146.208
146.202
158.466
146.206
146.211
3265.15
146.21
1387.43
146.202
146.203
146.202
146.203
146.216
427.296
146.212
146.208
146.212
147.053
146.226
390.275
3611.7
146.203
146.227
146.21
146.208
146.576
147.797
30134.1
373.72
1070.55
146.314
146.203
392.897
43402.2
189.362
146.3
146.203
146.204
146.202
146.202
146.318
2529.93
388.608
146.205
146.204
146.219
146.202
146.21
146.261
39721.4
146.202
146.207
146.202
146.209
146.273
146.364
146.228
30954.4
146.318
146.203
146.202
39013
146.202
146.282
146.412
178.071
146.513
160.043
146.532
146.213
146.698
148.966
146.202
942.58
146.212
147.214
146.212
146.203
3864.57
146.212
146.202
146.205
927.729
2353.19
146.547
1158.57
146.212
809.108
166.723
146.628
146.202
146.202
4890.6
148.03
146.476
146.204
146.497
146.392
147.414
146.227
146.631
146.278
146.342
146.251
146.64
146.576
147.296
1197.16
880.428
147.697
146.207
285.366
608.772
324.56
820.375
604.506
146.202
146.303
146.206
146.212
146.217
146.239
146.271
743.153
3510.69
146.264
146.232
146.743
1106.53
928.767
146.202
152.681
146.252
146.202
3770.71
146.217
378.168
147.952
146.374
3427.21
146.316
340.121
146.251
146.251
1300.07
146.202
146.424
146.304
146.216
146.203
684.793
146.217
2817.96
146.219
5145.32
146.778
146.207
146.205
146.205
146.309
146.202
146.252
146.208
146.226
146.205
146.57
2222.49
16345.6
146.202
4485.32
146.203
146.458
155.544
146.202
146.413
146.207
149.24
146.932
151.735
146.205
147.563
146.611
146.374
868.84
146.202
146.36
150.946
151.571
148.509
146.234
146.202
297.652
146.203
146.393
146.206
146.236
153.258
11448
3477.35
146.558
146.396
147.641
147.082
146.684
150.471
146.203
146.203
146.203
146.814
146.203
146.619
146.203
151.835
146.98
146.202
149.826
146.202
146.969
146.416
156.682
146.203
146.205
1779.78
146.202
146.238
146.418
239.008
146.208
968.065
1646.85
146.219
146.454
50439.3
3087.8
146.245
146.22
169.425
146.427
146.413
146.358
146.204
146.601
146.202
146.207
146.223
146.211
4123.06
146.256
146.221
8483.38
146.32
4689.06
146.33
22865.3
146.202
146.608
146.276
146.202
146.371
146.285
146.205
146.203
146.203
146.206
146.232
147.241
146.204
146.211
160.76
146.219
191.29
146.203
146.211
741.93
146.203
427.385
146.219
146.204
146.265
48281.1
150.167
146.203
152.797
146.307
146.209
146.232
2611.04
159.112
147.384
146.712
146.203
147.103
178.134
7418.87
146.88
146.202
146.419
158.137
147.144
146.203
266.223
146.278
146.204
985.803
146.59
2453.18
146.387
206.066
146.656
146.351
146.232
181.92
146.522
146.205
146.231
146.233
313.2
146.336
2539.3
146.204
146.204
146.256
181.742
146.31
202.81
146.202
146.273
147.042
2465.5
146.233
214.623
146.271
320.009
146.203
146.35
1470.31
2543.33
146.624
146.51
146.308
177.878
146.202
152.469
3767.57
18311.5
146.202
146.202
205.437
146.263
146.721
146.203
146.202
146.374
3489.86
146.202
161.08
146.488
146.205
174.102
146.206
146.202
196.621
24003.5
146.202
146.21
146.202
146.203
146.536
147.553
186.408
146.21
186.623
190.155
146.352
146.209
146.203
146.85
146.225
146.206
146.202
146.691
146.218
147.403
146.205
146.218
2058.15
146.22
146.278
146.29
146.465
146.26
146.202
6841.74
146.202
419.578
146.203
146.252
146.202
146.69
147.088
146.219
146.22
229.904
146.49
266.814
146.202
146.283
918.161
3568.46
146.205
210.332
3709.36
146.28
146.22
146.284
146.79
146.632
5198.74
146.75
272.087
238.058
146.237
146.576
146.268
146.384
251.11
808.807
146.22
146.207
146.207
251.87
146.205
146.202
146.204
253.068
146.261
146.527
146.249
146.207
146.291
146.245
146.206
147.075
146.225
146.285
146.227
146.202
6538.73
146.231
146.202
146.207
146.202
146.208
1111.19
157.34
146.202
146.264
146.202
146.581
146.346
146.658
146.203
146.278
181.84
146.204
216.383
152.834
342.771
146.202
146.276
146.285
146.202
146.322
146.431
146.203
146.202
146.44
146.203
1043.45
146.347
146.432
146.202
146.34
146.53
148.308
146.267
146.287
146.333
146.274
146.313
146.528
146.204
146.204
146.203
29772.5
146.265
146.56
146.21
180.536
153.835
146.202
992.56
146.455
146.244
146.282
1851.87
146.294
149.008
146.521
1798.3
146.207
146.202
146.202
146.429
162.294
3950.78
158.243
146.212
146.737
146.208
210.061
146.959
241.35
146.709
226.263
146.219
161.42
147.102
146.433
146.221
146.204
146.204
146.211
146.203
146.202
146.207
210.434
146.21
3683.56
146.232
146.263
146.545
146.319
148.525
146.202
146.243
146.206
146.248
146.202
146.35
167.081
147.288
146.219
174.805
146.202
146.206
146.22
146.202
146.202
146.208
23076.9
146.287
146.202
146.216
146.202
146.216
146.208
146.205
146.203
146.205
146.206
146.208
146.229
146.237
146.202
146.424
146.204
146.212
146.203
146.203
146.313
332.94
146.708
146.699
3741.87
146.318
146.202
146.75
146.202
146.204
146.411
146.203
147.052
146.249
147.508
146.234
146.359
146.203
146.203
146.341
146.207
53597.8
37303.4
146.203
146.202
146.234
146.268
147.102
146.263
153.117
146.235
146.208
146.202
146.203
146.205
146.219
146.537
146.211
159.069
146.299
146.403
147.675
10039.8
146.382
146.49
146.203
146.219
520.19
146.202
146.292
146.217
146.215
146.212
1778.09
149.063
146.206
270.523
146.202
308.03
270.108
146.212
146.202
148.503
146.546
147.696
146.313
146.202
571.028
1802.91
232.38
146.339
146.207
234.819
146.203
146.206
146.203
146.202
146.203
303.976
278.87
1307.32
146.222
146.236
146.202
148.742
210.186
146.217
146.203
286.085
148.776
349.525
304.262
146.252
179.709
146.218
146.202
146.243
146.202
146.203
27929.6
146.234
146.203
146.202
7125.14
146.223
146.203
146.379
146.366
766.274
1521
146.218
146.491
146.208
146.241
146.202
146.206
146.202
146.57
146.204
819.657
146.289
146.202
1407.89
146.202
146.202
146.205
146.444
27864.9
146.226
146.271
146.382
45420.3
269.291
146.203
146.202
146.622
146.203
522.849
362.407
376.742
154.35
285.038
146.203
518.559
526.318
146.219
146.217
146.202
146.339
146.203
146.204
146.295
146.229
146.201
146.489
146.371
146.914
146.202
146.203
146.203
146.224
146.204
146.202
146.228
146.675
173.673
146.203
255.049
147.064
146.204
146.203
146.21
146.638
146.21
146.241
146.524
146.204
146.228
146.223
146.201
146.229
3545.47
146.226
146.248
146.313
146.973
146.332
146.227
146.211
146.21
146.435
146.23
146.202
146.203
147.014
146.21
146.305
146.338
848.669
146.229
150.461
2814.21
146.202
1605.84
146.202
146.21
146.21
146.259
146.203
2198.14
2390.58
151.041
146.436
1721.44
1203.05
146.202
146.203
146.202
146.215
146.252
146.244
698.54
146.203
146.208
146.62
146.223
146.21
146.6
147.814
7858.14
8853.35
146.223
146.202
697.251
146.21
146.244
148.726
147.536
146.522
146.258
146.237
146.619
146.221
1194.91
146.286
146.22
2135.75
209.355
146.25
146.432
162.293
146.234
147.417
146.207
146.716
146.261
146.202
146.207
146.441
2328.56
2764.19
146.204
146.206
3000.38
146.207
146.202
2947.01
146.207
146.205
146.208
146.296
5575.65
146.202
146.202
195.758
146.212
3542.52
146.208
4315.61
146.208
146.255
4000.27
146.212
146.24
1574.32
146.226
146.305
146.71
146.202
146.202
146.202
3466.37
146.359
146.204
2096.88
146.202
315.863
3415.02
1315.61
148.738
1101.86
146.202
475.497
146.238
146.202
146.203
146.21
146.202
146.205
146.21
146.202
894.513
156.616
1187.29
316.825
146.202
146.211
146.202
146.202
146.202
146.223
244.271
322.125
146.203
146.203
146.276
146.625
147.535
146.202
146.806
146.355
146.202
146.202
146.231
10516.5
146.504
2385.16
288.19
146.202
146.208
151.391
146.202
146.202
146.202
257.272
4635.89
343.143
4237.85
146.202
146.202
82768.1
146.202
146.211
146.376
146.202
149.662
146.202
146.207
146.202
146.209
6442.08
155.918
146.209
2579.4
146.561
146.202
148.443
146.214
146.202
146.202
146.479
146.202
146.21
146.253
146.202
147.398
291.351
2317.64
1342.33
146.202
146.257
5689.87
156.381
146.202
2472.45
146.202
146.202
198.655
2730.11
3517.65
2571.07
146.202
702.818
6997
1049.3
146.228
2240.72
202.596
157.157
3609.42
146.216
3177.08
155.224
146.205
158.816
2223.44
181.576
146.246
214.128
146.25
146.217
1074.55
6137.29
3798.34
146.203
146.208
14088.9
146.202
146.208
149.297
146.202
2576.98
146.247
146.202
146.203
146.202
146.202
146.249
3157.91
2333.64
1374.93
4559.65
146.202
161.802
146.253
146.339
146.219
146.221
146.203
146.202
146.205
146.202
146.642
146.202
146.202
146.335
18124.2
146.25
179.855
1825.15
147.132
146.204
318.089
146.202
146.203
146.213
146.202
146.203
146.203
2018.52
146.775
146.81
214.498
1726.57
146.444
146.203
393.784
1180.06
146.6
389.541
146.204
194.736
146.204
1320.02
146.279
329.142
146.223
146.205
146.202
146.202
193.281
146.202
390.088
146.205
292.553
1675.3
146.202
146.201
1861
3719.46
2188.91
2310.01
146.202
152.26
21663.6
146.202
146.242
217.857
146.288
368.542
146.283
368.587
433.2
2566.49
380.248
2548.8
2159.17
369.076
146.203
23176.5
1268.17
148.188
228.266
146.218
151.35
332.23
146.27
348.927
146.67
146.263
146.203
146.246
324.16
146.207
146.206
146.247
147.808
146.201
146.22
146.214
146.202
30041.5
279.635
146.254
7907.82
146.215
146.202
146.312
3663.54
3807.56
194.027
176.019
3613.5
385.342
36322.7
156.222
147.831
6382.35
146.207
146.872
146.38
6314.66
147.563
182.879
178.827
147.529
172.018
1525.92
147.75
349.982
146.206
146.203
146.223
147.853
146.202
147.588
146.238
8553.93
307.165
17208.2
146.239
1110.02
146.4
1145.14
147.036
184.768
198.403
285.43
146.219
151.744
146.204
146.202
146.202
146.202
146.292
299.374
146.438
355.177
387.256
146.337
5977
1263.6
2331.43
326.542
146.202
478.601
174.987
146.211
146.226
489.704
750.153
146.202
146.204
146.204
146.287
146.202
1324.32
820.417
1561.22
330.629
146.202
189.772
146.838
146.202
146.354
146.22
146.22
310.199
146.222
146.219
398.296
146.298
147.517
146.22
147.178
146.202
146.202
1419.89
159.308
146.228
773.34
148.978
3601.15
146.409
146.243
146.212
146.819
146.208
146.207
353.065
3046.86
146.209
146.206
7510.98
146.216
146.202
146.209
146.215
168.984
3310.21
3247.74
848.937
148.702
146.202
3094.92
146.215
2088.69
2710.28
146.202
2578.81
146.202
146.203
3502.48
146.202
146.377
2825.15
2632.97
3092.28
3007.69
146.272
1334.63
2802.26
611.888
146.239
146.534
2338.54
3053.15
2734.85
273.434
146.212
146.205
936.488
14317.7
2148.46
2636.76
1241.4
2804.87
146.202
146.202
76150.8
2513.69
2059.35
359.804
1264.01
14376.2
5932.78
146.202
363.391
146.202
2726.65
146.202
170.259
166.442
146.202
3780.44
146.202
2547.5
2860.48
146.202
146.202
2701.51
146.202
146.21
146.203
146.202
1719.14
146.202
2964.97
1793.61
146.203
146.202
1709.57
146.233
146.204
2349.42
146.204
146.205
146.202
146.297
327.196
329.553
6867.81
146.358
146.206
2095.65
146.203
327.377
3200.13
146.202
146.202
146.631
146.232
1460.44
146.202
146.202
146.202
146.202
146.207
5883.62
14821.6
146.683
146.211
59780.1
146.281
146.453
146.202
2924.46
146.207
2744.06
613.967
146.203
146.202
146.202
146.47
4432.54
146.202
1655.48
146.532
146.202
146.354
199.72
146.215
146.415
146.22
3842.39
146.283
146.202
146.202
146.296
146.202
2921.74
335.238
146.202
146.202
919.809
146.204
339.51
146.204
146.204
12947.8
6411.38
331.671
146.204
146.203
147.032
4582.18
146.473
3785.09
146.39
5294.23
1050.17
146.202
693.059
2191
2809.69
4974.52
926.581
150.439
146.385
146.202
283.727
207.573
147.628
2163.8
146.983
191.14
146.268
283.543
2100.63
3168.26
146.387
146.551
383.972
146.204
830.553
147.051
146.202
146.202
3286.16
2868.41
2466.38
146.206
146.204
146.24
2354
150.505
8280.6
146.204
146.204
1611.58
154.127
146.202
146.566
8779.19
146.695
147.091
146.3
3862.59
146.848
3604.09
146.202
2701.58
2765.87
322.199
162.829
146.308
1472.52
146.205
205.8
2520.5
503.442
633.229
1095.3
744.85
233.415
146.202
102660
4022.73
150.199
146.202
233.144
14768
146.202
2282.81
339.922
146.202
1366.41
146.202
4620.05
275.996
146.892
3277.65
2910.55
146.202
146.202
146.237
146.51
41460.8
146.202
3505.29
425.891
146.202
146.202
146.202
146.315
146.203
146.202
150.373
146.202
3869.62
146.304
325.092
146.202
148.074
146.203
146.296
292.937
146.202
146.202
146.251
146.843
146.218
6588.39
6307.17
294.96
147.943
146.472
146.46
146.202
146.221
146.236
146.432
146.262
146.554
146.361
5219.44
146.44
146.401
146.213
146.787
146.27
146.203
146.208
146.224
146.419
5346.57
146.26
349.682
146.205
146.217
155.832
214.851
146.207
146.466
146.333
146.21
146.439
146.236
146.207
1374.33
146.213
146.21
146.207
146.254
190.308
146.203
349.361
146.207
1369.42
146.203
146.202
1644.68
259.408
150.277
146.214
146.202
146.209
704.147
577.267
146.204
324.954
1244.21
146.205
146.267
147.382
146.439
285.868
146.205
146.274
146.24
146.204
1258.04
146.258
146.202
146.206
146.335
146.204
146.203
146.399
146.203
146.204
320.313
146.222
146.203
146.379
146.203
146.298
1004.48
146.203
146.202
3615.31
3622.22
146.204
146.231
146.201
146.208
146.297
146.206
146.288
153.66
146.227
146.204
146.204
146.207
146.288
146.207
146.293
147.924
5596.53
147.841
3671.83
146.271
160.772
146.233
146.212
3760.27
146.228
146.219
7542.99
146.231
4120.63
146.203
146.23
148.732
157.6
1300.63
146.263
1306.2
146.244
146.264
1128.21
146.204
276.796
146.204
146.256
146.243
146.28
1331.76
146.238
1541.19
146.705
1556.53
146.244
146.203
146.202
165.721
146.241
151.552
146.394
146.204
146.238
146.308
146.307
146.349
146.202
146.202
146.267
149.319
303.915
146.202
146.224
146.205
146.582
146.244
146.204
146.651
146.29
146.311
146.216
146.203
146.239
146.203
146.202
146.203
146.249
146.203
146.261
146.862
146.203
219.161
1826.43
146.202
146.207
155.841
146.202
146.202
146.213
146.201
146.202
146.368
162.226
146.262
146.266
146.962
146.201
146.261
152.385
146.201
146.202
156.774
146.201
146.202
146.483
146.202
146.298
232.355
146.207
146.201
146.786
4771.25
744.362
146.212
146.202
146.202
146.203
146.36
146.224
146.202
146.203
146.234
2387.99
146.202
146.204
146.205
2290.42
362.314
180.85
2269.54
147.605
146.212
150.333
146.295
146.207
146.221
4378.36
146.355
146.246
328.705
2332.57
146.354
146.305
2476.49
146.701
2436.41
146.337
146.277
146.264
146.214
1878.16
146.316
1828.97
146.248
146.208
2016.95
146.22
146.205
151.266
2075.59
146.233
150.005
1895.07
146.21
182.857
2099.2
2334.21
169.67
146.209
2398.53
168.308
2157.61
620.347
146.202
146.203
146.425
146.303
146.419
260.987
146.206
146.21
146.21
341.626
146.212
146.299
146.371
146.202
146.248
146.202
259.213
2289.4
146.203
224.551
362.925
1939.98
146.203
146.508
9162.08
146.204
273.862
146.322
146.48
146.203
342.411
146.203
146.202
146.217
146.202
285.029
146.235
146.235
2012.49
210.682
146.203
146.225
146.242
146.235
146.202
146.222
246.535
146.224
245.984
146.457
146.957
3306.31
146.242
146.222
10480
414.605
146.203
146.235
158.672
146.342
329.241
146.274
360.224
148.25
191.717
6059.95
302.51
166.493
159.483
299.994
371.006
146.208
146.403
303.643
146.279
146.433
147.002
5238.75
146.668
146.226
1095.26
146.279
146.206
211.028
146.204
1466.15
146.202
424.786
13921.3
663.679
146.202
146.203
146.202
946.483
146.254
360.937
146.203
1161.48
1619.84
146.888
146.224
607.655
345.834
370.946
2471.3
346.17
146.39
151.018
146.221
146.385
146.203
146.206
146.227
146.213
146.208
146.216
146.206
73167.5
146.922
146.228
146.206
146.841
146.52
146.21
407.044
146.211
146.206
146.276
146.204
146.928
146.204
146.642
146.224
146.27
146.209
18645.8
146.223
159.587
146.39
3914.54
146.202
146.438
1282.29
146.202
146.228
38553.1
146.213
146.437
146.202
146.208
146.514
146.28
146.202
146.212
147.236
146.202
146.38
459.454
146.203
147.964
146.203
146.738
146.45
146.202
146.202
5578.46
146.209
146.214
146.202
146.368
146.21
146.202
146.202
3753.23
6048.77
146.202
354.847
146.202
146.202
146.213
146.54
146.202
146.21
286.974
146.203
146.202
151.611
146.211
283.131
2235.14
146.205
146.206
146.214
1478.72
146.202
146.202
146.202
146.202
146.202
146.202
146.202
172.709
146.211
146.203
146.205
5046.27
5248.02
146.212
333.486
281.02
146.205
358.337
109626
146.202
173.567
309.864
146.319
146.204
146.204
150.127
359.96
146.219
146.217
146.204
146.213
146.222
179.613
265.395
146.442
152.6
146.203
222.833
4811.33
146.216
146.298
146.202
4611.97
6674.14
146.202
146.203
146.201
146.212
210.7
2329.2
146.207
146.485
146.235
312.017
146.202
146.204
3415.24
146.202
146.202
146.208
146.202
146.234
146.768
146.212
146.236
146.226
146.204
146.203
146.209
4373.78
1750.89
146.202
146.316
146.207
146.207
146.202
5221.89
1969.32
2496.75
146.221
146.202
146.202
146.206
188.154
146.332
14455.8
146.202
146.207
146.204
2627.28
11969.3
158.769
146.207
13966.5
14708.7
338.407
1658.05
3653.84
146.215
2319.66
987.331
146.202
146.203
146.202
146.206
146.202
146.208
28373.1
6672.42
1260.75
2631.29
4944.1
146.203
146.253
146.358
146.759
152.332
2750.4
179.142
869.904
254.687
146.203
339.267
1176.25
146.21
146.203
4127.73
146.205
146.205
5008.22
1683.8
146.202
146.203
146.205
146.208
146.227
146.205
146.202
365.739
4428.93
146.202
146.403
146.226
1430.17
361.468
147.324
146.203
146.202
5095.98
146.202
146.204
147.011
146.204
146.21
146.222
146.235
5097.26
178.191
146.223
146.202
146.229
146.212
146.203
153.162
146.21
146.404
146.213
146.221
146.543
146.204
146.202
146.218
146.205
146.205
146.374
146.217
146.227
146.28
1870.14
146.235
341.702
146.218
146.202
146.204
146.202
146.202
146.219
372.301
348.234
3753.08
317.659
146.261
332.963
256.555
331.554
354.857
230.762
1244.1
146.268
146.219
146.202
146.344
146.202
146.202
146.416
828.464
146.202
2078.52
146.206
146.668
146.218
146.202
146.267
146.202
146.214
3732.94
320.154
146.208
146.202
146.792
334.154
146.245
146.238
2383.93
146.219
2998.77
146.202
146.202
146.357
3168.72
3751.33
2597.64
2976.06
262.327
337.695
2118.52
2461.99
1683.64
146.204
146.203
146.202
146.202
224.537
3337.43
160.058
293.697
3334.28
3200.06
146.252
3190.41
173.131
146.202
146.202
146.202
154.139
3553.54
2221.17
146.202
160.157
2728.19
152.915
4949.75
3072.9
155.456
748.569
146.202
164.023
1065.58
147.605
146.202
146.208
146.732
146.203
146.21
630.582
146.202
146.208
529.579
146.207
960.297
265.71
146.207
283.76
3366.83
3400.46
219.029
3385.02
147.593
3154.57
146.287
146.202
3130.44
272.811
2965.52
3048.94
146.238
146.819
146.325
412.581
2639.73
146.202
146.226
3053.7
146.202
1859.62
146.202
146.211
146.202
3144.95
146.203
176.961
146.204
146.202
146.709
2969.51
2983.35
152.939
146.202
160.971
1893.66
2093.48
146.202
2470.89
11253.5
958.476
2334.97
146.212
3818.4
146.235
146.21
146.202
146.202
146.202
146.205
146.203
2331.05
146.202
146.231
146.202
146.202
146.202
146.202
146.202
156.954
328.111
146.203
146.202
4674.01
146.203
1746.99
146.436
146.202
4250.26
146.215
146.202
146.224
1081.93
147.026
146.202
146.273
146.214
146.203
146.202
146.227
146.209
146.202
146.202
146.211
146.245
146.203
146.22
1626.29
146.202
146.205
146.202
172.637
146.202
146.369
146.255
149.973
146.203
146.203
146.203
146.206
146.847
146.238
146.202
146.209
146.204
146.202
3698.4
146.202
146.202
146.202
146.203
146.213
344.905
146.208
146.208
146.208
146.288
146.206
146.221
146.214
146.214
146.215
146.203
146.784
291.482
146.203
146.203
146.203
146.232
146.217
146.234
5684.55
150.76
146.221
146.207
146.203
181.196
146.202
266.729
352.059
146.773
146.724
146.203
146.272
146.202
146.207
3566.75
146.534
146.203
3504.69
146.226
146.202
146.204
146.202
146.204
146.203
53657.6
146.206
146.204
146.206
3535.31
3972.16
3977.95
147.656
910.078
257.47
146.439
146.207
146.211
3663.25
146.202
146.209
146.203
146.217
28986.6
146.211
146.203
146.203
146.765
148.665
192.046
667.251
146.202
187.082
279.386
146.202
298.338
146.203
146.203
146.201
146.212
146.223
146.261
146.201
290.017
207.275
262.999
204.885
1764.57
146.398
146.202
146.202
146.205
146.236
146.201
146.201
146.201
146.21
560.599
202.532
154.46
364.357
146.203
1718.02
156.067
1001.31
146.284
146.201
2154.99
146.206
146.201
146.202
2829.54
2652.07
1508.77
146.203
1517.52
146.207
147.488
146.21
161.874
146.202
4038.06
181.146
146.209
146.207
219.117
201.694
146.205
157.661
146.201
146.203
7540.51
146.202
151.127
146.201
170.382
146.205
146.203
146.204
146.202
146.719
146.206
2236.4
146.202
164.81
146.203
146.204
2159.16
146.237
146.205
146.222
4070.52
146.223
426.406
1016.6
1414.09
146.203
3472.61
188.635
146.204
146.209
2637.23
2158.76
146.202
149.474
8878.97
146.596
146.204
146.495
163.229
146.203
146.203
146.202
146.208
585.554
146.209
5443.33
146.207
146.712
146.208
146.202
146.993
146.208
146.212
146.25
146.202
146.396
5889.21
169.769
338.413
531.234
2442.54
185.454
146.491
146.252
146.203
2219.7
1199.94
2146.75
326.226
156.082
321.223
551.373
6590.38
1943.21
146.203
19986.9
5453.1
322.107
146.202
4718.4
270.033
278.035
1500.89
1612.43
957.93
3504.2
146.495
4694.04
148.39
173.06
146.277
4129.69
2192.15
146.532
146.419
1085.7
276.38
146.27
265.344
146.202
146.206
3251.68
146.426
146.209
146.215
146.206
146.28
146.204
38655.9
286.876
146.201
146.205
2299.88
147.11
2365.5
1430.95
1472.76
147.07
146.203
146.202
2221.74
146.203
146.203
147.304
148.86
146.208
2114.53
146.215
149.325
1035.87
676.895
146.202
146.203
7050.35
146.295
146.203
716.025
146.201
146.205
146.6
2523.4
27681.3
2594.42
146.203
149.119
146.202
1645.85
9193.06
1204.73
6509.44
146.202
147.173
146.202
161.473
146.204
949.039
2090.38
146.202
2144
146.202
146.202
217.694
146.202
150.915
147.732
2525.58
39853.3
146.202
146.203
146.392
465.821
146.232
146.321
4310.4
146.209
195.316
163.226
146.202
146.202
146.209
146.202
146.202
146.206
146.202
146.204
229.904
146.265
2520.93
41819.4
524.02
228.932
146.205
146.538
146.207
146.202
228.454
3435.69
2131.51
223.469
1544.16
179.288
146.211
146.737
28560.4
362.485
193.337
146.6
146.205
201.5
146.202
146.202
146.202
235.154
149.553
146.203
2689.59
146.201
158.766
146.206
4636.68
1345.61
146.205
204.168
170.633
315.746
190.34
219.277
146.202
146.206
368.757
147.129
146.209
146.276
146.207
146.201
146.203
146.202
12218.1
2683.07
286.621
147.058
149.255
146.627
146.211
146.201
146.201
439.93
146.202
146.207
146.202
341.962
146.613
2614.66
165.894
146.374
3361.21
3456.04
146.235
165.641
146.206
146.212
148.029
679.673
147.601
146.289
146.208
146.212
287.475
146.205
236.347
252.451
179.822
172.908
146.205
146.239
375.347
349.675
146.209
173.716
157.511
146.864
146.202
170.223
146.385
275.44
148.598
146.202
324.172
146.285
146.202
146.202
147.467
2314.5
150.155
146.361
148.284
148.725
156.48
147.6
146.202
146.26
7941.35
280.585
1638.32
168.668
150.771
3666.99
2149.44
146.208
150.794
146.242
146.277
146.229
154.328
556.108
146.228
146.285
146.212
2244.36
146.202
146.202
146.291
146.203
2890.48
2136.76
146.204
3068.82
146.27
151.765
146.208
156.781
146.217
3391
166.283
146.203
146.203
146.483
146.208
146.207
146.214
146.213
147.219
159.075
146.205
148.244
146.203
146.207
146.203
157.223
146.221
146.203
1098.07
146.202
146.204
146.209
147.278
5793.94
146.208
347.576
146.205
190.896
146.203
146.207
146.202
146.203
146.203
147.183
146.203
151.283
1175.48
146.205
146.268
146.209
146.404
146.209
146.202
146.202
146.21
146.209
146.207
146.208
146.202
146.323
4181.83
1030.63
161.664
152.172
146.243
146.207
510.129
146.207
745.528
147.59
164.975
146.203
146.203
146.226
146.206
146.209
146.203
146.264
151.616
146.202
146.206
146.202
146.204
146.222
146.686
146.201
146.205
146.207
147.244
146.265
147.154
146.207
146.204
146.269
146.271
146.97
146.209
146.211
146.206
146.327
146.202
146.268
146.36
152.203
146.271
154.712
163.063
146.266
204.52
283.259
152.012
554.38
146.208
194.035
146.202
186.773
146.879
188.087
1728.12
146.352
146.204
146.206
1144.99
4756.98
146.208
182.419
146.208
2140.77
146.206
146.204
146.202
146.423
162.359
146.219
146.205
146.224
146.217
146.206
146.36
200.055
249.711
147.054
146.214
146.21
161.112
146.208
146.213
343.229
2116.52
371.541
146.205
146.206
894.142
327.613
146.202
146.202
2604.64
169.29
2700.52
146.207
180.975
146.232
146.202
146.209
146.202
146.202
146.208
146.204
146.202
146.212
146.211
146.203
146.208
146.202
146.209
146.202
146.202
146.203
151.83
146.207
146.202
146.202
146.202
146.202
152.823
167.438
146.734
146.202
146.204
146.202
146.202
605.142
146.21
146.203
146.203
146.202
146.202
146.202
146.214
146.209
146.202
146.211
146.202
146.206
146.442
146.201
146.812
149.722
346.766
146.202
146.205
148.785
146.202
146.205
146.202
146.208
146.202
146.206
146.202
146.204
146.212
146.212
1211.96
1428.18
146.205
146.213
146.202
146.202
146.202
146.202
146.203
146.202
1325.57
344.253
146.202
346.113
146.213
146.206
355.377
348.724
146.203
146.517
1303.69
146.205
146.203
146.202
146.218
146.202
346.598
146.204
342.364
146.202
146.202
146.201
153.052
153.595
150.658
146.212
146.202
146.369
146.406
146.202
146.213
146.202
146.203
146.202
146.208
157.649
146.204
146.213
146.213
146.204
146.203
146.202
146.202
146.718
283.67
146.461
146.204
146.207
146.207
146.204
146.203
146.205
146.205
146.206
280.788
146.207
146.212
146.214
146.353
146.206
760.878
146.21
146.214
188.774
146.219
205.702
7290.06
152.848
146.678
146.202
221.153
146.224
146.206
146.202
146.204
146.202
220.114
146.203
198.924
146.219
287.633
270.892
31640
146.21
146.224
878.695
146.203
146.204
146.203
147.274
146.207
146.214
247.851
4916.54
221.689
335.375
651.343
146.204
146.204
146.208
236.863
146.868