/*--------------------------------*- C++ -*----------------------------------*\
| =========                 |                                                 |
| \\      /  F ield         | OpenFOAM: The Open Source CFD Toolbox           |
|  \\    /   O peration     | Version:  v2012                                 |
|   \\  /    A nd           | Website:  www.openfoam.com                      |
|    \\/     M anipulation  |                                                 |
\*---------------------------------------------------------------------------*/
FoamFile
{
    version     2.0;
    format      ascii;
    class       volScalarField;
    location    "4";
    object      ILambda_13_0;
}
// * * * * * * * * * * * * * * * * * * * * * * * * * * * * * * * * * * * * * //

dimensions      [1 0 -3 0 0 0 0];


internalField   nonuniform List<scalar> 
108993
(
146.471
146.205
146.202
146.211
146.206
146.202
146.208
146.202
146.211
146.238
146.363
146.364
146.211
146.203
146.214
146.367
146.243
146.207
146.211
146.204
146.203
146.215
146.206
146.22
146.211
146.206
146.202
146.204
146.205
146.202
146.202
146.207
146.202
155.844
146.211
146.21
146.202
147.588
3011.05
2153.13
146.203
147.352
146.203
146.212
146.258
4543
146.202
146.205
146.206
146.203
146.212
146.639
146.206
146.206
146.208
146.795
146.205
146.202
146.542
146.202
146.202
146.202
146.203
146.202
146.203
146.206
146.203
146.213
146.231
331.434
146.227
146.21
146.391
146.209
146.205
146.203
146.202
146.409
146.213
146.205
146.202
146.281
146.401
146.663
146.209
146.207
147.055
146.322
146.203
146.203
146.202
146.204
146.202
146.21
146.202
146.225
146.205
160.552
146.203
146.21
146.202
146.212
146.461
146.377
147.604
146.202
146.205
146.205
146.28
2340.71
146.377
146.202
146.579
146.72
151.857
146.836
146.207
153.191
150.182
146.204
146.21
146.202
563.731
146.916
146.55
146.279
146.203
150.459
146.203
146.202
146.297
146.202
146.616
146.696
148.367
146.22
146.203
149.661
146.202
146.204
146.662
146.211
146.227
146.204
146.204
147.066
148.692
3761.28
146.595
149.659
149.752
146.205
146.206
149.502
147.107
146.316
151.859
146.206
146.204
146.417
149.783
146.204
146.202
146.228
146.218
146.642
146.202
146.202
146.202
158.175
146.278
146.898
146.388
147.063
146.205
146.205
146.356
146.202
150.036
147.076
146.333
146.391
146.212
146.968
146.221
150.136
146.218
146.275
146.319
147.003
154.194
146.216
152.684
146.33
154.849
148.327
146.203
162.886
149.59
146.968
146.202
146.377
146.207
146.202
146.253
190.905
146.202
1535.13
149.113
1347.95
146.543
155.818
146.361
815.012
39897.4
149.953
146.341
146.202
146.209
146.201
146.205
149.44
170.236
146.352
146.203
146.202
146.208
146.214
146.75
146.205
282.774
146.566
146.202
146.203
146.306
146.201
146.209
146.201
235.431
146.204
146.202
146.289
146.202
146.204
146.204
146.378
806.31
411.145
146.204
146.241
146.202
146.205
146.244
157.59
146.206
146.204
146.206
146.352
146.203
146.202
146.203
146.204
146.266
146.283
146.221
146.205
146.202
146.208
146.202
146.467
146.202
146.202
1818.56
11323.2
3775.75
152.189
146.205
664.514
147.896
146.205
146.205
1365.82
1884.02
146.205
146.202
146.249
146.212
146.206
147.605
3320.15
146.206
146.202
146.206
146.202
146.205
146.202
146.203
146.202
146.257
146.202
257.71
150.517
146.306
146.202
146.292
146.203
146.201
146.204
146.203
1408.4
146.202
146.202
146.239
146.209
146.203
148.777
146.202
146.255
4897.64
146.336
146.204
146.202
146.203
146.203
162.437
167.251
8243.41
201.541
146.211
148.193
146.206
204.585
146.864
146.202
1293.55
146.205
146.76
146.202
148.639
146.201
146.41
147.043
146.207
146.316
147.023
146.205
146.202
146.202
146.218
146.202
146.255
146.202
1127.4
3071.81
146.201
146.299
146.822
1731.1
146.338
146.202
146.27
146.207
146.202
146.205
146.205
146.204
146.203
146.207
146.393
36593.2
146.218
146.281
146.202
153.117
146.204
330.558
147.424
146.776
221.589
149.811
267.871
224.968
146.205
146.493
146.208
146.21
146.291
434.183
146.204
2979.47
318.172
146.21
310.807
146.203
2365.23
146.206
4680.6
146.299
146.278
146.216
146.205
767.865
828.278
146.718
146.204
146.212
146.209
152.304
146.325
5035.98
146.203
146.202
32233.8
146.213
146.286
146.225
180.303
186.812
173.649
146.202
5073.26
146.205
1707.28
146.202
146.202
3699.67
146.291
185.317
3016.25
146.202
2564.75
6826.23
2565.11
146.201
148.144
146.254
146.201
146.204
146.202
146.216
146.337
146.225
146.286
146.202
338.726
146.227
146.208
146.367
146.221
146.202
146.251
146.202
146.241
153.614
146.202
146.242
146.33
146.202
152.057
146.344
634.897
146.23
634.231
148.366
147.221
146.203
146.202
624.6
146.203
146.203
146.249
146.208
146.202
146.21
146.201
146.255
146.209
146.373
869.468
146.39
146.589
146.202
146.211
146.202
146.23
146.236
146.203
146.203
146.278
158.371
146.292
146.216
146.289
146.205
146.258
146.202
146.276
146.399
146.202
146.204
146.201
146.202
146.207
146.203
146.278
148.558
146.202
146.207
771.342
146.202
146.672
146.213
146.202
146.31
146.202
146.203
146.203
146.204
146.21
146.203
146.202
146.202
146.21
146.211
146.205
146.573
146.211
146.897
146.577
146.211
146.21
146.209
146.42
146.204
153.558
149.075
146.546
146.236
147.744
2948.92
146.202
2321.11
146.202
146.203
147.47
146.755
146.202
146.421
166.859
146.229
319.287
146.21
4119.77
146.227
146.28
146.202
146.202
146.203
169.906
146.204
160.787
146.202
146.242
146.211
381.458
596.545
147.253
146.204
146.203
146.203
146.394
146.209
15371.2
360.717
233.891
146.206
146.914
388.217
4421.86
146.364
146.562
159.145
146.202
146.21
146.245
146.279
3876.54
367.856
146.221
146.202
146.203
146.224
146.21
146.204
14050.8
146.202
146.221
146.218
146.21
146.331
146.211
146.645
13811.7
146.292
146.203
146.214
11876.5
146.211
146.301
146.341
146.867
146.311
146.519
146.334
146.205
146.219
146.316
146.208
792.286
146.223
146.793
146.223
152.182
2591.57
146.206
146.203
146.203
146.588
3135.8
146.262
153.812
146.204
146.74
148.286
146.262
146.203
146.228
538.578
146.256
146.592
146.207
146.639
146.239
146.232
146.227
146.262
146.286
146.39
146.244
146.26
146.259
146.292
664.675
581.48
172.374
146.209
151.247
466.022
354.117
520.976
559.186
146.205
146.497
146.202
146.205
146.203
146.239
146.271
346.474
1927.14
146.24
146.225
146.764
774.855
579.927
146.202
146.307
146.414
146.204
4181.75
146.206
289.398
159.563
146.255
3395.65
146.246
270.296
146.269
146.429
236.432
146.201
146.463
146.33
146.22
146.203
201.415
146.219
1040.77
146.235
574.324
146.481
146.202
146.203
146.204
146.243
146.202
146.253
146.203
146.264
146.203
146.248
2669.01
21614.1
146.206
801.926
146.21
146.475
151.07
146.202
146.535
146.209
146.296
146.424
146.321
146.236
146.27
146.291
146.438
146.853
146.222
146.488
146.313
146.368
146.298
146.293
146.202
175.532
146.202
146.207
146.204
146.301
146.32
7940.04
1239.9
146.446
146.245
147.42
146.399
146.787
212.819
148.727
146.202
146.202
147.442
146.202
146.249
146.202
146.356
146.243
146.203
146.564
146.202
147.833
146.692
258.791
146.203
146.204
2422.76
146.227
146.208
146.902
146.435
147.056
148.157
154.199
146.239
146.904
15394.4
616.358
146.599
146.202
146.797
146.484
146.594
146.224
146.202
146.237
146.202
146.903
171.607
146.229
5570.07
146.24
152.912
6321.18
146.254
445.549
146.243
372.48
146.202
146.232
146.289
146.203
146.268
146.272
146.202
152.37
146.203
146.315
146.359
146.273
146.203
146.271
259.254
155.513
146.81
146.203
146.329
663.672
146.203
152.685
146.222
146.205
146.311
53417
146.256
146.203
298.508
146.374
146.205
146.238
1465.45
305.985
146.373
146.251
146.203
146.24
306.446
5791.14
146.222
146.227
146.686
146.713
148.447
146.203
319.534
146.357
146.246
95.9718
147.746
1238.83
155.001
54.2348
147.757
146.218
146.228
146.47
146.511
146.239
146.228
146.23
285.945
146.211
2351.51
146.202
146.202
146.275
146.516
146.257
147.091
146.218
146.329
146.304
2294.33
147.06
148.218
146.314
219.025
146.203
146.385
1022.72
2286.4
146.295
146.588
146.214
146.901
146.202
148.582
5797.02
950.889
146.202
146.201
148.056
146.241
146.423
146.201
146.231
146.269
160.506
146.202
146.608
146.215
146.209
146.89
146.202
146.563
148.142
1192.95
146.205
146.205
146.203
146.208
146.253
146.546
146.964
179.194
146.942
222.639
146.247
146.21
146.204
146.297
146.221
146.205
146.211
146.454
146.204
146.644
146.205
146.205
155.159
146.205
146.281
146.299
146.296
146.262
146.202
238.803
146.334
438.23
146.203
146.207
146.202
146.448
146.632
146.205
146.222
147.031
146.635
146.76
146.204
146.281
146.926
153.984
146.219
280.433
810.682
146.269
146.221
146.27
146.206
146.659
5299.83
146.666
150.707
149.553
146.349
146.239
146.203
146.209
149.7
148.514
146.223
146.205
146.206
149.75
146.202
146.818
146.227
148.947
153.944
146.203
153.782
146.207
147.788
157.215
146.209
146.725
157.268
146.269
146.232
146.219
3576.36
146.637
146.205
146.207
146.202
146.208
773.01
152.661
146.202
153.844
146.203
146.649
146.226
146.623
146.203
155.434
146.568
146.256
146.331
146.32
177.91
146.202
154.211
155.678
147.679
146.249
146.222
146.206
146.202
147.991
146.202
326.255
150.011
146.222
146.202
150.095
146.247
146.446
146.238
146.227
151.562
146.511
146.207
146.362
164.656
146.212
146.202
5148.61
146.282
146.274
150.989
260.74
146.352
146.201
1107.46
146.517
146.235
146.24
1649.66
146.283
146.277
146.239
1672.83
146.208
147.667
150.076
146.444
220.235
155.141
146.532
146.207
147.069
146.203
185.772
146.318
192.695
146.711
182.98
166.045
146.739
146.501
146.297
146.246
146.202
146.202
146.202
146.202
146.215
177.066
146.692
146.206
2722.2
230.069
150.404
146.207
146.257
146.757
146.202
237.127
146.772
146.285
146.202
146.317
149.505
146.337
146.79
146.562
146.202
146.275
146.53
146.201
146.201
146.203
14341.8
146.34
146.217
148.103
146.202
146.284
146.219
146.202
146.654
146.414
146.806
146.244
174.212
168.686
149.173
146.974
146.202
146.202
155.162
146.529
155.329
290.238
146.69
146.695
3958.83
151.818
146.254
146.27
146.203
146.205
154.272
146.203
146.204
147.789
146.733
146.288
146.218
146.203
146.203
154.422
146.222
13148.1
2303.42
155.654
146.262
146.211
146.211
146.209
146.265
146.088
146.21
146.206
146.202
146.204
146.202
146.22
267.016
146.211
161.072
146.206
146.207
146.21
194.342
146.241
266.447
146.206
146.205
149.876
146.202
146.308
146.212
146.212
146.21
292.477
146.315
146.202
177.345
146.226
174.036
199.023
146.209
146.202
146.206
146.318
146.206
148.574
146.48
148.023
1227.37
229.713
146.21
146.206
238.381
146.203
146.202
146.203
146.202
146.203
167.093
243.994
771.016
146.792
146.242
146.386
162.209
146.597
146.203
146.201
198.296
146.345
183.355
174.065
146.261
146.532
146.206
146.218
146.561
146.202
146.431
14460.1
147.303
146.407
146.761
360.599
154.211
146.202
146.212
146.202
146.846
858.706
146.217
146.253
162.172
146.252
146.82
154.214
146.203
146.249
146.202
148.167
148.963
146.456
893.697
146.89
146.201
146.247
146.252
2978.36
146.287
146.227
146.455
6191.97
336.003
146.203
146.374
146.291
146.214
188.532
162.845
154.298
146.564
154.552
146.206
194.353
208.409
146.212
146.212
146.202
146.391
146.214
146.203
146.24
146.215
146.201
146.205
146.205
146.321
146.202
146.255
146.202
223.301
146.203
146.202
146.202
146.375
147.412
146.202
146.646
146.25
146.203
146.203
146.209
146.24
146.314
146.205
146.528
146.202
171.661
185.849
146.201
222.328
199.476
184.61
146.254
191.676
146.353
146.439
193.177
146.202
146.21
146.31
192.851
146.202
146.201
146.307
146.21
146.29
146.205
148.483
192.678
146.588
1609.6
146.202
435.129
146.201
146.209
146.21
146.263
146.209
3007.05
930.874
146.432
264.828
782.767
146.796
146.341
146.501
146.21
198.096
196.327
146.209
149.379
146.229
146.225
146.206
161.429
146.21
146.203
146.275
6712.24
6252.06
156.115
146.202
147.295
146.206
146.204
146.363
146.269
146.362
146.436
146.204
152.418
159.426
666.41
146.231
146.511
149.196
146.424
146.205
146.247
150.027
146.205
146.318
146.324
146.5
146.288
146.433
146.324
146.595
158.043
1778.55
146.302
146.318
1505.53
146.209
146.204
1702.35
146.211
146.202
146.21
146.285
5851.5
146.203
146.918
146.987
146.218
4712.71
146.209
3406.98
146.214
146.24
4434.3
167.044
146.233
2057.63
146.281
146.205
146.698
146.202
146.202
146.317
3225.01
146.489
146.207
469.453
146.202
228.906
2200.1
167.575
299.397
698.842
146.203
182.377
146.277
146.202
146.203
146.202
146.201
146.205
146.202
146.202
151.169
149.105
147.019
212.816
146.202
146.205
146.202
146.202
146.202
147.045
216
291.561
146.205
146.202
146.205
146.682
146.22
146.202
146.802
146.235
146.202
146.202
146.908
8725.8
146.598
1367.03
148.661
146.202
178.293
148.7
146.203
146.202
146.203
1588.64
3328.99
297.462
1107.91
146.202
146.202
66565.1
146.202
147.052
146.317
146.202
146.212
146.202
146.261
146.378
146.925
650.802
146.465
146.896
177.929
146.299
146.202
146.719
146.203
146.251
146.202
146.219
146.202
146.486
146.21
146.203
146.985
149.276
151.087
285.225
146.202
146.368
8800.2
149.08
146.202
595.968
146.202
146.209
157.336
1405.93
10595.2
698.287
146.202
290.786
7363.13
155.166
146.205
872.904
166.204
148.642
836.699
146.215
13668.2
148.286
146.203
151.018
732.769
166.192
146.253
146.672
146.264
146.209
948.782
5634.92
10209.7
146.202
146.217
18910.9
146.202
146.209
147.378
146.201
359.835
146.253
146.202
147.69
146.202
146.202
146.253
428.727
2121.96
463.025
477.702
146.235
146.725
146.267
146.239
149.41
146.205
146.253
146.203
146.208
146.202
146.343
146.202
146.202
146.255
429.349
146.258
147.005
4513.26
146.275
146.205
173.108
146.202
146.361
146.208
146.202
146.333
146.644
1057.13
146.74
146.491
146.609
1595.89
146.244
146.354
352.364
149.791
146.254
353.371
146.202
150.242
146.201
152.805
146.225
225.308
149.371
146.203
146.204
146.205
146.98
146.202
335.112
146.203
322.421
154.972
146.202
146.201
1599.76
178.374
1093.35
202.907
146.204
147.682
12359.1
146.202
146.211
146.543
146.296
356.61
146.202
334.99
150.039
2518.85
358.331
1330.07
983.546
326.132
146.202
58814.8
753.545
146.265
208.595
146.22
299.393
352.95
146.33
266.259
146.247
146.267
146.204
146.206
161.027
146.204
146.208
146.209
146.227
146.202
149.426
146.206
146.203
31358.7
213.547
146.256
366.136
167.375
146.202
146.288
194.166
3465.98
146.593
146.45
740.882
156.241
9538.73
146.709
146.226
2077.64
146.207
146.281
146.955
1701.98
146.255
146.675
146.729
146.669
146.777
1137.96
146.229
233.549
146.212
146.203
146.206
146.238
146.202
146.252
146.255
338.156
178.011
52527.5
146.257
510.502
146.266
1075.06
146.393
146.71
147.507
157.12
146.204
146.208
146.302
146.202
146.202
146.201
146.234
332.427
146.302
263.834
249.877
146.422
1195.73
921.17
7136.57
165.722
146.204
161.121
146.56
149.555
149.345
149.489
494.975
146.202
146.204
146.218
146.227
146.216
284.898
242.948
262.24
149.984
146.202
159.544
146.612
146.202
146.382
146.202
146.223
167.477
146.222
146.22
157.6
146.226
146.375
146.225
146.336
146.202
146.207
270.447
146.222
146.203
148.976
146.628
2356.1
146.278
146.208
146.207
146.214
171.113
149.088
147.014
2220.17
174.25
146.294
7287.05
186.164
146.202
201.366
215.187
146.58
3332.23
4986.37
147.305
146.976
146.202
1326.32
215.663
1159.03
2777.76
146.205
1059.47
146.202
146.202
3338.24
146.215
146.206
2862.89
1403.51
3138.76
3024.29
146.204
308.836
613.577
271.284
146.209
146.229
2569.43
3110.02
2002.35
217.435
146.242
146.22
146.887
577.389
2375.96
191.623
147.094
2900.6
146.206
146.202
68568
3037.86
503.323
147.139
614.855
203.716
4504.46
146.204
146.986
146.202
3237.31
146.202
146.653
146.925
146.202
3739.87
146.202
2587.43
2849.31
146.202
146.203
1925.9
146.202
146.202
146.202
146.202
2365.57
146.203
2952.03
2430.21
146.202
146.203
1504.9
146.208
146.208
685.385
146.208
146.217
146.203
149.494
254.876
250.703
3954.91
147.17
146.202
3165.79
146.207
264.6
436.884
146.202
146.202
146.238
146.203
836.83
146.202
146.205
146.202
146.201
146.206
570.538
713.663
146.268
146.205
27914.5
146.204
146.627
146.202
527.02
146.205
426.7
347.619
146.205
146.206
146.204
146.565
2386.98
146.202
712.807
255.663
146.202
146.275
245.301
146.202
146.247
146.202
2012.05
146.204
146.202
146.206
146.206
146.203
1743.9
203.747
146.202
146.202
940.935
146.202
328.596
148.689
146.202
17750
6647.58
259.254
146.203
147.216
239.001
4965.5
146.212
4375.06
146.203
4143.98
397.516
146.202
493.888
2693.58
2376.06
8097.89
749.093
146.217
146.206
146.204
222.241
328.767
146.293
2291.49
146.208
167.088
146.202
150.098
2752.65
3621.04
146.208
146.608
286.92
146.202
506.158
146.216
146.202
146.204
3562.65
1674.05
1373.5
146.205
146.204
146.352
2367.09
146.226
7699.57
146.202
146.202
1192.02
149.796
146.203
146.204
7796.29
146.203
146.247
146.224
4577.18
146.682
156.321
146.202
2616.3
1544.44
215.642
148.757
146.232
180.823
146.206
157.901
2024.47
377.409
230.674
180.149
263.417
158.973
146.203
81763.6
2551.03
148.367
146.202
147.179
12706.9
146.202
2146.68
173.826
146.202
584.504
146.204
6101.56
146.798
146.824
1795.49
1416.83
146.202
146.204
146.204
146.231
46038.5
146.206
851.113
379.28
146.202
146.202
146.202
148.783
146.213
146.207
146.291
146.206
4216.71
146.775
172.292
146.202
146.384
146.204
146.265
147.16
146.202
146.202
148.57
146.306
146.222
4022.54
5269.65
150.436
146.357
146.21
146.218
146.203
146.211
146.241
146.218
146.382
146.662
146.417
5017.47
146.221
146.208
146.203
146.647
146.226
146.201
146.213
146.226
146.253
4476.28
146.255
163.494
146.207
146.22
146.844
150.155
146.205
146.259
146.274
146.203
146.347
146.215
146.204
155.75
146.206
146.203
146.418
146.244
146.897
146.26
305.918
146.203
152.716
146.238
146.206
158.631
154.24
146.643
146.208
146.202
146.205
459.427
69.2671
146.207
162.404
710.2
146.209
146.317
146.434
160.266
48.6506
146.203
146.241
146.252
146.306
712.044
146.292
146.201
146.231
146.334
146.726
146.201
146.3
146.262
146.202
259.306
146.203
146.202
146.397
146.201
146.273
156.987
146.282
146.201
596.667
531.61
146.51
146.223
146.201
146.208
146.373
146.203
148.599
146.552
146.215
147.01
146.625
149.021
146.264
146.297
146.234
146.295
1941.2
146.765
1492.81
146.241
146.424
146.223
146.203
2287.39
146.223
146.249
276.797
146.224
1797.35
146.203
146.224
146.261
151.118
372.049
146.246
373.19
146.203
146.243
290.566
146.252
148.89
147.907
147.947
146.249
146.279
296.828
146.24
680.034
146.256
684.846
146.243
147.93
146.204
146.641
148.83
146.315
146.446
146.207
146.246
146.205
146.289
146.228
146.203
146.202
146.203
146.313
322.971
146.202
146.221
160.253
146.212
146.253
146.203
146.376
153.595
146.318
146.316
146.202
146.237
146.202
146.202
146.202
146.236
146.204
146.258
146.775
146.204
153.247
418.744
146.203
146.206
162.146
146.202
146.202
146.204
146.201
146.202
146.3
146.372
146.239
149.262
155.102
146.201
146.262
146.6
146.201
146.202
146.373
146.201
146.202
146.32
146.204
148.691
178.859
146.208
146.201
146.269
2091.42
656.259
186.993
146.202
146.201
157.701
146.294
146.205
146.202
146.202
146.366
2514.1
146.202
146.202
146.202
2118.11
358.663
154.077
2109.69
146.293
146.288
146.26
146.313
146.207
146.206
161.508
146.292
150.037
225.35
2239.76
148.479
150.72
2352.17
146.665
2241.46
148.195
146.546
159.523
146.204
1666.22
149.913
1672.56
146.264
146.312
1863.34
146.235
146.21
146.36
1906.21
146.306
146.29
1831.67
146.214
146.475
1935.84
628.006
147.129
146.206
623.993
146.775
634.067
507.181
146.201
146.298
146.483
146.203
146.432
320.575
146.218
146.214
146.208
350.605
146.208
146.204
146.212
146.202
167.511
146.201
225.162
1354.75
146.208
328.774
350.864
1288.99
146.204
146.477
3250.85
146.202
297.577
146.332
146.517
146.403
332.111
146.202
146.202
163.239
146.202
149.918
146.286
146.256
1619.55
146.777
146.204
146.256
146.333
147.994
146.868
146.203
269.772
146.242
327.162
165.217
146.658
1724.87
146.259
146.208
572.035
387.562
146.203
146.249
146.618
146.436
353.422
146.233
214.237
146.337
146.327
676.848
325.835
149.066
146.352
319.224
192.911
146.257
146.278
320.418
146.545
146.277
146.379
2849.64
146.401
146.205
1360.74
146.203
146.21
146.812
146.206
2196.48
146.202
150.498
621.156
633.674
146.202
146.488
146.218
1008.17
146.268
150.283
148.834
1776.61
2345.55
146.568
146.202
287.33
293.146
365.844
931.434
193.526
146.312
146.354
146.316
146.246
146.201
146.206
146.202
146.205
146.209
146.202
154.907
70312.9
146.403
146.251
146.269
146.569
146.603
146.206
312.468
146.202
146.213
146.272
146.206
147.337
146.219
148.573
146.202
146.897
152.414
63757.6
146.202
146.415
146.343
7185.91
146.205
146.461
269.926
146.205
146.289
14413.1
146.21
146.259
146.206
146.278
146.929
146.261
146.206
146.288
146.308
146.209
146.497
259.622
146.206
146.29
146.206
146.76
146.504
146.204
146.202
5037.36
146.237
146.214
146.204
146.385
146.209
146.202
146.202
4954.5
6497.91
146.202
348.244
146.204
146.201
146.211
146.556
146.204
146.205
211.018
146.203
146.204
146.417
146.212
153.443
1802.88
146.203
146.208
146.217
1735.74
146.204
146.204
146.203
146.202
146.202
146.202
146.202
146.65
146.213
146.208
146.207
669.743
1010.82
146.205
255.527
152.931
146.204
304.197
96140.5
146.201
146.641
147.036
146.204
146.204
146.203
146.593
291.937
146.211
146.207
146.203
146.435
146.215
146.289
151.988
146.361
146.315
146.207
146.343
688.167
146.209
146.205
146.206
1067.95
773.053
146.202
146.203
146.201
146.208
160.76
1890.09
146.204
146.574
157.505
207.843
146.202
146.225
3547.47
146.202
146.202
146.204
146.202
185.762
200.563
146.227
148.529
146.234
146.203
146.203
146.204
2143.02
784.654
146.202
146.423
146.204
146.204
146.202
5488.39
1462.32
3441.39
203.433
147.469
146.213
146.205
156.771
249.634
2257.69
146.203
146.204
146.204
2305.3
11373.6
147.761
146.204
3793.06
3324.55
199.239
192.174
383.27
146.211
2331.38
182.128
146.202
146.207
146.202
146.273
146.663
146.995
1475.16
5021.05
199.608
688.362
357.794
148.974
146.783
149.227
146.738
146.648
518.612
149.67
650.638
150.597
146.203
227.503
230.866
146.213
147.068
6938.6
146.213
146.204
465.698
1832.3
146.203
146.211
146.206
146.208
163.215
146.204
146.312
331.634
3929.91
146.389
148.145
146.23
260.738
275.938
146.23
146.203
150.536
306.131
146.308
146.203
146.414
146.204
146.204
146.205
148.174
4146.93
151.985
146.212
146.203
146.22
146.822
146.203
147.337
146.202
146.259
146.203
146.268
146.482
146.202
146.308
146.205
146.223
146.209
146.322
146.22
146.221
146.274
2352.51
147.044
178.885
146.221
146.202
146.222
146.465
146.211
146.223
303.219
170.041
2923.93
165.234
146.25
222.92
181.614
162.216
178.728
148.805
525.895
146.233
146.222
146.202
146.284
146.202
146.263
146.275
197.746
146.202
2027.76
146.206
146.208
146.219
146.202
146.233
146.203
146.218
6335.78
297.615
146.208
146.202
146.21
327.833
146.224
157.352
1028.84
146.22
1026.82
146.206
146.208
146.282
899.969
943.148
907.011
1146.75
322.885
171.361
2030.61
1871.44
898.044
146.228
146.205
146.202
146.203
151.412
1841.05
146.46
175.029
1884.1
1863.5
146.349
2165.93
146.719
156.807
146.209
146.202
147.035
301.076
152.965
146.202
147.036
1924.93
146.56
6143.41
192.663
146.659
431.952
146.219
146.377
583.982
146.356
146.563
146.204
146.724
146.206
146.205
423.668
146.202
146.205
163.837
146.207
618.056
154.87
146.207
156.155
305.095
315.353
195.612
306.22
146.55
316.415
146.208
146.203
316.714
244.123
304.838
307.012
148.764
146.782
146.236
360.146
2686.04
146.202
146.204
654.926
146.27
1820.95
146.216
146.373
146.202
635.693
146.203
190.271
146.202
146.329
146.695
666.021
668.636
146.366
146.202
146.666
1984.97
2229.79
146.203
2769.92
7245.72
151.662
2809.59
146.301
2604.7
146.507
146.214
146.321
146.202
146.205
146.205
146.205
2691.13
146.202
146.249
146.202
146.202
146.202
146.203
146.203
146.441
157.043
146.202
146.202
3833.74
146.204
1856.87
146.335
146.202
2969.15
146.273
146.202
146.204
1345.97
146.219
146.202
149.207
146.211
146.203
146.202
146.242
152.749
146.343
146.205
146.232
146.212
146.203
146.257
685.041
146.202
146.205
146.202
146.552
146.202
268.653
146.203
146.797
146.203
146.203
146.203
146.205
146.53
146.204
146.202
152.823
146.24
146.202
4094.08
146.202
146.202
147.05
146.203
156.138
170.482
154.408
154.674
146.205
146.314
146.278
146.229
146.208
153.395
147.755
146.446
146.209
147.616
146.204
146.232
146.355
146.348
147.288
146.321
6008.92
147.249
146.228
161.231
146.615
146.394
146.258
146.678
279.946
151.136
146.454
146.204
146.418
146.202
146.205
3611.72
146.562
146.421
3623.56
146.32
146.211
146.205
146.202
146.208
146.203
36526
146.213
146.621
146.233
3946.54
3990.46
4008.37
146.331
261.692
292.371
146.209
146.919
146.204
4007.51
146.206
146.21
146.209
146.203
4531.48
146.205
146.204
146.208
146.374
146.257
146.536
146.78
146.201
147.267
148.832
146.201
332.164
146.202
146.207
146.201
146.203
146.203
146.682
146.201
292.833
146.848
151.607
146.895
680.681
146.253
146.201
146.203
146.203
146.232
146.201
146.201
146.201
146.21
237.392
146.323
148.011
362.211
146.206
696.005
146.518
294.346
146.222
146.201
811.658
146.204
146.201
146.202
1600.54
712.205
702.373
146.256
707.032
146.204
146.266
146.205
146.388
146.254
3446.79
146.595
146.203
146.203
146.787
146.402
146.202
149.675
146.201
146.202
3591.36
146.202
146.448
146.201
146.548
146.203
146.278
146.202
146.202
146.264
146.203
2833.98
146.205
312.526
146.202
146.204
2466.45
146.202
146.202
146.205
850.084
146.209
147.191
281.067
867.745
146.203
4009.45
146.609
146.202
146.207
1822.97
149.906
146.202
143.5
245.834
146.209
146.204
146.352
170.897
146.232
146.263
146.205
146.208
231.838
146.208
4086.29
146.205
146.685
146.208
146.202
146.433
146.207
146.209
146.207
146.207
146.252
619.82
147.45
174.76
193.108
1201.9
153.222
146.206
146.202
146.202
2952.44
685.92
2362.02
288.189
146.266
157.82
186.738
6939.74
1516.25
146.202
24245.2
3677.94
149.819
146.202
367.502
209.202
215.513
1595.32
818.655
205.473
616.886
146.208
873.195
146.23
171.362
146.278
3354
705.311
146.205
146.206
147.859
211.987
146.224
149.691
146.663
146.205
743.803
241.218
146.208
146.204
146.204
146.337
146.205
34320.9
157.099
146.201
146.209
771.691
146.263
2560.99
916.471
586.104
146.249
146.202
146.202
3222.58
146.202
146.202
146.278
146.269
146.206
781.452
146.214
146.223
1048.34
621.065
146.493
146.203
851.787
146.205
146.203
675.008
146.202
146.203
243.653
1038.18
59217.1
1577.68
146.204
146.257
146.202
535.059
785.911
272.609
20339.4
146.202
228.245
146.202
156.916
146.202
256.743
2335.7
146.202
2056.45
146.202
146.202
146.518
146.204
146.295
218.231
2503.5
9116.45
146.202
146.206
146.457
201.166
146.206
146.257
8769.45
146.204
146.307
171.529
146.202
146.202
146.205
146.202
146.202
146.203
146.501
146.204
146.863
146.208
2067.92
17874.9
147.119
146.866
146.211
146.361
146.208
146.202
146.864
1480.72
2100.84
146.879
611.888
150.869
146.204
146.461
2533.9
148.564
146.91
146.677
146.205
146.967
146.202
146.202
146.201
245.257
146.567
146.203
1923.93
146.201
146.221
146.208
2047.56
1633.36
146.205
146.926
146.774
210.995
146.943
146.981
146.202
146.204
149.197
146.215
146.206
146.205
146.204
146.201
146.204
146.213
1567.78
3414.34
147.83
146.568
146.326
146.615
146.205
146.201
146.201
150.392
146.367
146.205
146.361
148.477
146.248
2007.92
146.847
146.489
157.825
840.032
146.212
146.854
146.206
146.204
146.424
352.786
146.95
146.205
146.205
146.204
268.82
146.208
147.128
264.872
146.811
146.847
146.207
146.206
149.115
229.513
146.207
146.868
146.474
146.453
146.202
146.875
146.245
149.02
146.307
146.202
280.398
146.281
146.912
146.202
146.632
1329.69
146.816
146.208
146.299
146.613
146.813
146.294
146.202
146.204
6877.37
148.266
498.944
146.78
146.334
2759.73
1111.17
146.204
146.335
146.213
146.206
146.209
146.216
769.787
146.204
146.216
146.204
1898.31
146.204
146.203
146.205
146.202
3588.89
1198.57
146.208
2533.44
146.219
146.313
146.204
146.343
146.205
2431.22
146.876
146.203
146.203
146.647
146.208
146.207
146.211
146.206
146.206
146.852
146.203
146.305
146.207
146.204
146.203
146.842
146.204
146.204
806.017
146.203
146.204
146.207
146.219
6110.7
146.207
311.753
146.207
146.483
146.203
146.207
146.204
146.205
146.204
146.221
146.203
146.838
939.983
146.205
146.205
146.204
146.205
146.208
146.207
146.202
146.208
146.209
146.208
146.208
146.205
146.253
3132.16
742.057
146.411
149.003
146.208
146.208
561.229
146.208
298.204
146.253
146.657
146.202
146.202
146.205
146.204
146.208
146.202
146.754
148.13
146.206
146.203
146.201
146.205
146.204
146.226
146.201
146.205
146.205
146.332
146.366
146.279
146.209
146.202
147.658
147.785
146.254
146.209
146.204
146.206
146.302
146.202
146.316
146.256
146.23
146.543
146.519
150.515
146.379
146.907
280.849
146.209
220.491
146.207
146.921
146.201
146.855
146.472
146.848
897.065
146.205
146.202
146.207
241.231
2556.61
146.204
146.789
146.212
2119.42
146.205
146.207
146.401
146.205
146.778
146.206
146.202
146.205
146.204
146.204
146.205
146.922
147.308
146.472
146.204
146.202
147.338
146.207
146.202
319.97
2014.1
358.222
146.204
146.207
149.983
320.059
146.202
146.204
811.984
146.884
3731.73
146.203
146.897
146.23
146.717
146.209
146.221
146.202
146.205
146.203
146.202
146.205
146.205
146.202
146.206
146.204
146.205
146.201
146.202
146.202
146.21
146.207
146.202
146.201
146.203
146.206
146.643
146.96
146.684
146.201
146.209
146.202
146.202
147.265
146.208
146.203
146.204
146.202
146.206
146.202
146.232
146.205
146.206
146.205
146.202
146.202
146.254
146.201
146.265
146.284
153.707
146.202
146.201
146.33
146.201
146.202
146.202
146.205
146.205
146.207
146.202
146.203
146.207
146.204
759.537
846.253
146.202
146.204
146.201
146.203
146.202
146.202
146.202
146.213
3252.7
172.31
146.204
172.295
146.209
146.205
178.95
175.612
146.211
146.5
772.98
146.215
146.206
146.203
146.205
146.204
179.069
146.202
175.441
146.202
146.202
146.201
146.777
146.773
146.725
146.204
146.201
146.206
146.205
146.203
146.207
146.202
146.204
146.202
146.214
146.607
146.202
146.204
146.204
146.202
146.201
146.253
146.204
146.733
149.621
146.575
146.209
146.204
146.207
146.202
146.203
146.211
146.202
146.217
149.12
146.206
146.207
146.205
146.365
146.203
146.652
146.205
146.205
146.547
146.206
146.568
5669.24
255.898
146.25
146.202
146.961
177.684
146.206
146.206
146.202
146.204
146.922
146.202
146.322
159.886
1290.75
154.408
1682.71
146.296
146.203
1596.89
146.203
146.203
146.203
146.208
146.204
146.204
146.884
5224.17
146.842