/*--------------------------------*- C++ -*----------------------------------*\
| =========                 |                                                 |
| \\      /  F ield         | OpenFOAM: The Open Source CFD Toolbox           |
|  \\    /   O peration     | Version:  v2012                                 |
|   \\  /    A nd           | Website:  www.openfoam.com                      |
|    \\/     M anipulation  |                                                 |
\*---------------------------------------------------------------------------*/
FoamFile
{
    version     2.0;
    format      ascii;
    class       volScalarField;
    location    "4";
    object      ILambda_5_0;
}
// * * * * * * * * * * * * * * * * * * * * * * * * * * * * * * * * * * * * * //

dimensions      [1 0 -3 0 0 0 0];


internalField   nonuniform List<scalar> 
108993
(
146.203
146.207
146.202
146.201
146.202
146.202
146.212
146.202
146.201
146.534
146.204
146.203
146.201
146.549
146.202
146.232
147.516
146.205
146.201
146.205
146.202
146.201
146.203
146.202
146.201
146.202
146.201
146.207
146.207
146.202
146.201
146.287
146.201
146.21
146.201
146.202
146.201
146.202
1577.84
2253.06
146.204
146.201
146.348
146.201
146.342
4596.63
146.201
146.205
146.202
146.206
146.201
146.281
146.204
146.201
146.206
146.202
146.201
146.202
146.201
146.202
146.202
146.202
146.202
146.201
146.201
146.202
146.201
146.202
146.309
292.297
146.202
146.202
146.202
146.202
146.202
146.201
146.201
146.564
146.201
146.201
146.202
146.25
146.201
146.202
146.204
146.367
146.202
146.204
146.202
146.201
146.202
146.201
146.202
146.202
146.202
146.989
146.201
146.202
146.201
146.201
146.202
146.201
146.202
146.222
146.202
146.202
146.202
146.201
146.201
3158.14
146.278
146.202
146.246
146.247
146.201
146.781
146.202
146.202
223.522
146.201
146.356
146.201
151.387
146.202
146.202
150.046
146.204
146.202
146.201
146.201
146.244
146.201
146.202
146.947
146.201
146.202
146.201
146.201
146.202
146.389
146.202
146.201
158.325
146.201
146.201
146.202
146.202
3063.37
146.202
147.557
147.764
146.202
146.205
148.415
146.201
146.206
146.203
146.201
146.201
148.174
148.109
146.201
146.201
146.202
146.227
146.24
146.202
146.201
146.201
146.202
146.201
146.202
146.279
146.202
146.205
146.202
146.21
146.201
146.202
146.201
147.611
146.201
146.201
146.202
146.302
146.202
146.201
146.207
146.206
146.202
146.202
146.201
146.202
146.209
146.201
146.202
146.204
146.202
146.202
146.202
146.202
146.209
146.202
146.201
146.205
153.823
146.202
835.086
146.202
149.2
146.507
146.202
146.21
379.677
21568.6
146.202
146.202
146.202
146.201
146.201
146.201
148.744
146.204
146.208
146.201
146.201
146.201
146.202
146.669
146.202
312.479
146.202
146.201
146.203
146.201
146.201
146.201
146.201
232.283
146.201
146.202
146.202
146.202
146.201
146.201
146.258
375.306
152.138
146.201
146.201
146.201
146.201
146.201
146.201
146.201
146.201
146.201
146.202
146.201
146.202
146.202
146.202
309.497
148.989
146.201
146.202
146.202
146.203
146.202
146.202
146.202
146.202
512.811
390.066
2851.7
146.202
146.201
156.482
146.202
146.202
146.202
4825.81
5191.04
146.202
146.201
155.837
146.201
146.202
146.204
2580.25
146.482
146.202
146.202
146.202
146.202
146.202
146.201
146.202
196.551
146.202
156.472
149.57
146.202
146.202
146.201
146.203
146.201
146.202
146.203
532.09
146.202
146.202
185.096
146.202
146.203
148.658
146.201
211.765
2283.41
146.201
146.206
146.201
146.203
146.203
146.202
147.07
249.403
169.614
146.201
146.202
146.201
171.112
149.764
146.202
958.567
146.202
146.201
146.202
146.202
146.201
146.201
146.54
146.205
146.202
146.203
146.203
146.202
146.202
146.201
146.202
146.202
146.202
2352.42
268.12
146.201
146.202
146.202
1376.14
146.202
146.202
146.355
146.205
146.202
146.202
146.202
146.208
146.202
146.201
146.204
412.515
146.203
152.093
146.202
155.794
146.207
218.602
146.22
146.202
172.918
146.202
194.54
175.338
146.207
147.78
146.203
146.207
148.703
1289.97
146.202
2036.31
198.519
146.209
206.033
146.938
233.363
146.203
167.742
146.201
150.371
146.201
146.203
160.279
191.017
146.201
146.201
146.211
146.206
146.202
146.202
217.658
146.29
146.203
695.036
146.202
146.206
146.201
175.729
288.35
147.146
146.202
225.996
146.208
153.574
146.202
146.202
155.991
146.202
151.825
165.482
146.202
161.603
3195.1
161.941
146.201
146.201
147.063
146.201
146.201
146.202
146.201
146.204
146.202
146.202
146.202
252.456
146.208
146.207
146.282
146.202
146.202
146.194
146.202
146.202
146.228
146.202
146.202
146.208
146.202
146.202
146.201
146.876
146.202
147.722
147.029
197.376
146.202
146.202
147.725
146.202
146.202
153.898
146.202
146.201
146.21
146.201
149.18
146.201
146.569
159.469
384.507
146.202
146.201
146.201
146.202
146.203
146.202
146.202
146.202
146.279
146.203
146.209
146.202
147.814
146.202
154.215
146.202
146.203
146.202
146.202
146.204
146.201
146.202
146.202
146.202
146.333
146.8
146.202
146.201
1113.7
146.202
157.114
146.207
146.201
154.111
146.202
146.201
146.202
146.202
146.205
146.203
146.203
146.202
146.207
146.203
146.202
288.614
146.209
146.202
273.243
146.203
146.21
146.202
277.254
146.692
146.202
146.201
146.218
146.214
147.117
292.11
146.202
2292.53
146.202
146.202
146.202
146.202
146.202
260.047
146.202
146.201
156.026
146.209
9949.45
146.202
146.206
146.202
146.201
146.208
147.649
146.204
146.214
146.202
146.202
146.206
398.671
345.771
146.202
146.202
146.206
146.204
146.202
146.202
6600.7
381.237
178.462
146.206
146.203
405.251
189.546
146.213
146.855
146.202
146.202
146.201
146.202
146.611
5201.6
384.24
146.439
146.202
146.206
146.202
146.207
146.202
380.37
146.201
146.201
146.202
146.204
170.766
146.202
146.205
2199.5
244.41
146.474
146.202
660.671
146.202
184.886
146.202
149.217
146.202
168.148
146.202
146.207
146.202
147.542
146.202
729.209
146.201
146.288
146.201
146.202
3268.13
146.212
146.202
146.201
146.499
6608.31
148.95
159.344
146.202
146.556
149.942
146.48
146.202
146.202
735.723
169.363
146.293
146.222
146.292
146.202
146.207
146.201
146.509
146.49
146.257
147.362
149.785
150.881
151.775
525.825
810.097
253.876
146.206
302.13
529.139
309.295
867.473
600.128
146.202
162.067
146.202
146.202
146.205
146.208
153.972
201.074
301.314
220.917
146.203
146.264
1030.23
884.323
146.202
146.206
171.806
146.202
2784.23
146.211
277.105
177.744
149.104
2429.68
173.572
168.248
154.119
171.947
371.847
146.201
146.202
146.294
146.257
146.203
774.925
146.835
880.752
151.026
963.566
146.209
146.202
146.201
146.201
253.428
146.202
146.314
146.203
146.201
146.201
146.208
1099.28
2650.2
146.202
1090.03
146.202
146.277
208.144
146.202
146.286
146.205
146.296
146.215
146.367
146.217
148.239
146.208
146.269
146.56
146.202
146.288
146.296
146.301
146.527
146.195
146.202
175.099
146.201
146.202
146.207
146.203
147.159
4604.63
954.981
147.901
146.207
148.561
159.508
149.298
147.807
146.203
146.201
146.201
146.505
146.201
146.208
146.201
146.203
220.248
146.202
146.215
146.201
146.507
146.205
146.393
146.204
146.206
254.096
146.201
146.202
146.203
146.211
146.201
147.523
150.782
146.685
146.204
199.932
231.877
146.684
146.202
147.872
146.201
146.209
146.206
146.204
146.208
146.202
146.201
146.41
146.201
3154.22
146.201
146.202
5749.47
166.821
456.257
146.204
162.401
146.202
146.208
151.059
146.202
146.201
156.01
146.202
146.202
146.374
146.202
146.202
146.202
146.204
146.201
146.861
146.202
151.807
146.203
146.215
637.838
146.203
152.53
149.779
146.509
164.979
678.607
146.207
146.203
146.337
146.216
146.212
146.211
825.403
146.372
146.202
146.352
146.203
146.203
148.078
5484.48
146.203
146.202
146.377
146.22
146.222
146.203
149.038
146.223
146.207
10467.6
146.203
10362.1
146.204
10549.4
146.203
146.207
146.214
248.863
146.217
146.247
146.225
146.228
163.898
146.205
2956.79
146.201
146.201
146.201
443.657
188.396
293.746
146.201
146.202
147.458
2572.31
146.202
211.754
146.328
163.192
146.203
146.218
962.97
2911.18
146.206
146.3
146.203
149.758
146.202
149.76
4442.84
577.085
146.201
146.201
150.161
241.221
146.207
146.201
146.202
148.012
150.004
146.202
150.197
146.208
146.203
149.782
146.201
146.202
149.743
594.008
146.202
146.211
146.202
146.235
351.089
146.232
149.854
146.202
149.737
146.568
345.052
146.209
146.318
215.036
146.211
146.208
146.201
157.062
146.202
146.244
146.202
146.202
146.7
146.202
146.31
146.558
221.796
313.761
146.202
179.806
146.202
457.829
146.203
146.202
146.201
146.208
146.248
146.202
146.395
149.727
146.26
146.552
146.202
294.878
146.613
151.51
146.266
146.43
802.114
320.723
146.286
301.358
146.207
146.247
4879.68
146.259
223.913
303.619
153.647
229.089
146.205
146.208
304.516
149.809
146.372
146.201
146.205
365.001
146.201
146.202
146.201
380.568
146.203
146.202
146.203
146.205
146.203
146.202
146.204
146.373
146.203
146.202
147.5
146.201
3763.2
146.202
146.202
146.207
146.202
146.205
1060.21
188.558
146.202
146.203
146.202
146.248
148.274
146.233
146.204
146.203
146.563
146.206
146.213
176.66
150.287
146.202
146.203
146.203
146.202
146.416
146.208
146.22
146.202
146.202
146.202
181.253
146.202
146.207
146.201
146.202
146.206
146.284
146.205
146.203
146.202
146.202
146.205
146.21
146.202
146.201
146.201
692.433
146.303
146.207
146.201
146.413
146.202
146.201
3136.06
146.257
172.116
146.205
1925.47
292.32
206.032
146.208
2286.62
146.202
146.202
146.202
146.264
147.167
6655.41
226.929
146.203
147.325
146.203
151.766
146.202
147.072
146.263
146.291
147.152
148.48
146.318
146.286
146.202
146.202
146.202
146.202
146.202
146.202
146.213
152.42
146.203
3122.43
146.292
146.202
146.202
146.288
146.63
146.202
146.28
146.202
203.969
146.202
208.205
148.327
147.65
146.202
146.518
146.202
146.202
146.202
146.201
146.201
146.203
3618.02
146.309
146.201
146.202
146.202
146.948
147.446
146.202
146.203
146.202
146.202
146.201
146.202
146.202
146.202
146.202
146.201
146.202
146.202
146.203
146.202
215.458
146.243
146.246
2647.46
146.202
146.202
146.223
146.202
146.206
146.202
146.203
146.202
146.203
146.326
146.841
146.204
146.203
146.204
146.202
146.551
199.418
250.049
146.202
146.202
146.202
146.204
146.209
146.202
147.33
146.201
146.201
146.201
146.201
146.202
146.212
146.326
146.21
147.506
146.205
146.203
146.204
158.449
146.207
146.239
146.202
146.202
147.262
146.202
146.264
146.207
146.21
146.209
503.888
146.209
146.201
178.327
146.202
215.927
148.568
146.207
146.202
146.201
146.199
146.201
146.498
146.201
146.847
1523.97
146.838
146.202
146.201
147.109
146.202
146.201
146.202
146.202
146.202
226.038
152.047
268.679
146.202
146.316
146.202
273.261
146.519
146.203
146.201
148.158
146.808
154.281
183.182
146.219
146.4
146.202
146.202
149.914
146.202
146.203
4351.84
146.202
146.203
146.202
289.215
146.202
146.202
146.208
146.202
146.516
602.569
146.202
146.205
146.204
146.233
146.202
146.221
146.202
146.207
146.201
146.76
182.85
146.202
940.488
146.202
146.201
146.201
146.204
154.664
146.2
146.303
146.269
173.591
246.978
146.203
146.202
147.466
146.202
151.999
155.912
151.853
146.537
152.627
146.201
156.557
155.742
146.207
146.21
146.202
146.275
146.202
146.201
146.202
146.208
146.201
146.201
146.201
146.413
146.202
146.202
146.202
146.203
146.203
146.202
146.202
146.211
151.805
146.202
146.268
146.207
146.203
146.203
146.205
178.531
146.203
146.202
146.219
146.203
146.203
146.203
146.201
146.203
203.987
146.203
146.315
146.204
244.466
146.313
146.261
146.202
146.209
146.202
146.256
146.202
146.201
146.325
146.209
211.59
146.206
149.348
146.229
146.582
922.353
146.202
147.495
146.201
146.209
146.21
146.284
146.294
1865.01
482.479
146.3
146.222
778.655
147.038
146.202
146.203
146.202
146.248
146.306
146.204
148.575
146.201
146.201
146.209
148.089
146.21
146.203
146.203
10493
5989.03
149.267
146.201
146.59
146.203
146.202
146.726
146.202
146.209
146.202
146.202
146.215
148.1
885.592
185.635
147.132
147.896
146.215
146.202
150.46
150.543
146.202
146.202
146.349
146.222
150
146.201
146.275
146.289
146.71
845.302
146.237
146.277
1277.08
146.211
146.202
985.58
146.215
146.201
146.211
146.201
4401.56
146.202
146.202
153.827
146.248
3955.99
146.21
3460.87
146.216
172.621
2563.19
146.268
169.668
6792.98
147.936
146.206
146.293
146.202
146.202
146.202
1876.06
146.301
146.202
147.374
146.202
154.063
1327.64
163.537
148.047
698.693
146.202
741.524
146.202
146.202
146.203
146.201
146.201
146.201
146.202
146.202
146.847
148.579
146.418
156.726
146.202
146.202
146.202
146.202
146.202
146.201
222.146
179.011
146.202
146.202
146.202
146.305
146.203
146.202
146.256
146.202
146.202
146.202
146.21
9833.18
146.225
847.708
149.542
146.202
146.211
148.578
146.202
146.202
146.202
150.615
4145.34
262.551
1158.09
146.202
146.202
10309.8
146.202
146.209
146.202
146.202
146.203
146.202
146.206
146.202
146.206
927.559
147.657
146.208
147.703
146.667
146.202
146.287
146.202
146.202
146.202
146.202
146.201
146.202
146.204
146.202
188.778
510.638
149.466
168.115
146.202
146.202
3748.12
148.277
146.202
149.898
146.202
146.202
179.238
496.483
2629.71
301.92
146.202
279.281
3520.21
171.901
146.202
563.005
173.99
160.189
776.509
146.21
3050.39
155.236
146.204
155.456
166.572
165.642
146.236
146.258
146.222
146.206
711.037
2880.21
3114.14
146.201
146.201
2376.84
146.202
146.203
147.098
146.201
583.441
146.245
146.202
146.202
146.202
146.202
146.243
185.46
2521.34
157.721
513.448
146.202
147.407
146.222
146.204
146.203
146.203
146.202
146.202
146.202
146.202
146.204
146.202
146.202
150.754
216.633
146.226
158.826
8054.96
152.277
146.203
147.483
146.202
146.202
146.212
146.202
146.202
146.204
646.407
146.756
146.213
152.131
1673.87
160.639
146.202
379.627
151.129
146.208
394.782
146.201
147.919
146.201
154.009
146.203
157.281
146.202
146.201
146.202
146.202
150.174
146.202
382.586
146.201
199.966
156.191
146.202
146.201
1679.31
169.695
550.806
179.407
146.202
147.48
1839.14
146.202
146.203
146.497
149.697
369.503
146.202
377.13
148.642
231.802
374.559
1625.47
186.878
376.853
146.202
17478.1
1143.03
233.048
789.812
147.38
146.313
325.417
146.244
811.942
151.759
170.388
146.205
146.207
147.614
146.207
146.203
146.203
146.209
146.201
146.203
146.207
146.202
6641.91
394.535
165.054
758.982
146.214
146.202
148.277
175.729
4417.06
148.181
157.025
728.138
149.326
1123.4
147.177
146.209
2259.64
146.202
146.202
146.206
147.884
146.208
146.591
146.718
146.37
149.773
1514.41
146.208
246.985
146.203
146.202
146.202
146.209
146.202
146.208
151.445
307.27
276.971
7490.37
155.847
873.46
146.205
1002.75
146.293
164.635
149.993
380.415
146.203
146.202
146.202
146.201
146.202
146.201
151.333
194.612
146.205
500.895
236.592
146.295
1336.65
1043.51
12245.3
313.78
146.202
217.843
146.528
146.201
146.203
147.792
395.99
146.201
147.191
146.208
146.204
146.202
578.372
522.288
535.064
147.979
146.201
490.595
146.223
146.201
146.295
146.202
146.739
559.613
150.162
146.379
152.605
146.204
146.202
146.739
146.202
146.201
146.202
148.901
146.203
146.207
147.219
147.269
796.857
146.205
146.204
146.206
146.202
146.203
146.202
146.806
1661.49
146.202
146.201
9223.18
146.203
146.201
146.203
146.203
146.229
2675.13
4563.74
147.965
146.919
146.201
1038
146.203
331.247
1393.07
146.202
611.231
146.202
146.202
2275.38
146.201
146.203
2609.25
695.933
2249.33
2723.48
146.202
169.141
160.356
236.994
146.203
146.932
1353.21
2058.59
594.739
370.175
146.204
146.222
146.723
319.983
617.966
171.077
147.225
2664.32
146.202
146.202
4141.93
1903.63
187.449
146.711
195.463
176.831
3961.66
146.201
146.63
146.202
2024.33
146.202
146.618
146.78
146.202
4626.97
146.202
1432.98
2457.74
146.202
146.202
1149.96
146.202
146.202
146.201
146.202
254.297
146.202
2220.31
6990.1
146.201
146.202
1201.62
146.203
146.208
150.184
146.208
146.209
146.202
146.202
286.589
265.841
3348.04
146.202
146.201
2434.16
146.202
153.691
640.427
146.201
146.202
146.207
146.205
566.898
146.202
146.202
146.202
146.201
146.201
628.462
634.513
146.206
146.202
610.226
146.206
146.3
146.202
189.096
146.201
390.781
336.162
146.705
146.202
146.202
146.295
1186.56
146.202
214.908
148.068
146.202
195.865
146.527
146.202
146.205
146.202
1548.84
146.202
146.202
146.202
146.202
146.202
1354.04
166.511
146.202
146.202
927.698
146.202
292.259
146.238
146.202
15877.2
5999.82
178.662
146.205
146.202
149.909
4280.35
146.202
3008.71
146.202
2827.74
156.226
146.202
441.911
2158.1
1877.28
4509.35
763.427
146.203
146.202
146.202
153.96
148.06
153.549
2104.11
146.202
168.538
146.202
380.021
1984.04
2588.75
146.202
146.31
248.29
146.202
825.89
146.202
146.202
146.202
2648.84
520.543
820.535
146.202
146.201
146.202
2640.76
146.206
4702.56
146.202
146.201
1570.97
149.998
146.202
146.202
9360.38
146.202
146.202
146.211
3510.71
146.323
148.17
146.202
5772.1
1338.68
154.031
147.819
146.203
682.741
146.205
150.966
1689.68
789.301
688.086
636.909
638.647
545.883
146.202
18567.6
2420.25
148.295
146.202
149.275
16290.9
146.202
1223.45
729.303
146.202
796.417
146.202
4991.95
146.841
146.847
230.475
1145.06
146.202
146.202
146.202
146.202
2620.2
146.202
842.795
364.603
146.202
146.202
146.202
146.202
146.202
146.202
146.207
146.202
3165.45
146.202
374.631
146.202
146.209
146.323
277.302
146.246
146.202
146.202
146.202
146.201
148.416
1548.88
1567.45
421.753
146.208
146.207
146.206
146.202
146.208
157.095
146.208
146.206
146.277
146.32
1543.97
146.206
146.207
146.207
146.232
149.166
146.201
146.204
159.562
146.516
1375.95
146.207
148.686
146.208
147.45
147.398
150.045
146.202
146.203
146.206
146.203
146.208
146.203
146.209
146.398
146.211
146.206
146.214
156.077
150.058
146.202
161.328
146.206
146.39
146.202
146.202
146.44
186.019
146.285
146.203
146.202
146.202
474.709
10001.4
146.202
233.403
9972.07
148.694
190.918
168.515
307.692
10391.1
146.207
146.204
146.214
146.21
10344.4
148.942
146.201
147.533
146.201
146.202
146.201
146.202
146.202
146.201
214.612
146.205
146.201
146.287
146.201
267.941
150.513
146.202
146.201
339.202
289.579
146.202
146.22
146.201
146.202
146.209
146.203
146.202
147.695
146.204
146.202
146.202
146.202
146.405
146.205
147.381
153.892
1625.03
146.525
926.085
148.037
159.374
146.213
146.207
1262.29
146.22
146.327
195.113
146.213
1097.27
146.396
146.215
146.206
156.59
150.044
146.224
152.241
146.207
146.234
159.915
146.218
453.188
146.205
160.54
146.224
149.026
156.08
146.234
232.811
181.172
221.762
146.239
146.217
146.202
155.253
154.686
146.405
146.201
146.738
146.225
146.205
287.263
166.299
146.202
146.202
146.206
174.287
295.218
146.202
171.152
146.211
146.202
146.207
146.202
146.206
146.24
146.215
146.205
146.202
146.216
146.202
146.202
146.202
159.597
146.205
146.202
146.836
146.204
229.538
819.41
146.202
146.203
152.091
146.202
146.202
146.205
146.201
146.202
146.569
310.108
199.513
146.202
146.807
146.201
160.961
146.306
146.201
146.202
146.289
146.201
146.202
146.869
146.202
279.234
190.594
146.202
146.201
152.713
1682.03
560.682
146.203
146.202
146.201
146.202
146.205
146.203
146.202
146.202
146.585
1086.75
146.202
146.202
146.202
2148.92
307.166
225.067
2180.77
146.366
146.28
146.207
217.226
146.207
146.203
154.332
146.205
146.202
233.048
2262.51
146.202
146.202
2484.9
146.225
2670.7
146.202
161.46
146.202
146.203
1685.87
146.202
1598.81
162.771
146.217
1773.88
146.406
146.284
146.212
1796.66
146.375
304.946
1773.93
150.299
152.914
1657.57
147.169
148.14
146.205
148.015
149.138
146.679
641.609
146.201
146.203
146.261
146.206
146.261
218.782
146.273
146.202
146.203
204.256
146.208
146.207
146.207
146.202
157.347
146.201
169.301
1731.2
146.202
161.435
195.278
1636.25
146.204
146.214
2240.79
146.201
227.159
146.875
146.246
146.203
178.299
146.202
146.202
146.506
146.202
159.859
164.055
153.616
1908.35
146.402
146.285
146.809
164.124
146.221
146.202
146.203
218.701
149.929
253.131
146.202
146.234
2259.79
151.385
146.204
676.63
376.499
146.206
153.853
147.101
146.301
347.141
146.314
186.911
147.218
146.215
697.65
363.181
168.592
148.31
347.892
183.989
146.228
146.206
354.876
159.052
146.206
146.663
3438.27
146.212
146.202
6390.47
146.207
146.205
146.469
146.202
6685.33
146.202
150.036
563.209
1097.4
146.202
146.203
146.202
6674.24
161.811
148.231
146.205
7553.14
7866.34
146.235
146.202
472.925
236.252
348.927
1116.74
163.739
146.202
385.091
146.311
239.193
146.201
146.463
146.202
146.21
150.899
146.202
146.205
16000.4
146.202
197.933
146.223
146.224
146.258
146.204
350.966
146.202
146.97
218.213
146.207
146.202
146.267
146.797
146.202
184.768
146.771
7062.42
146.202
146.208
146.262
4794.53
146.202
146.213
146.832
146.202
146.201
1176.46
146.202
147.657
146.202
146.223
146.203
191.586
146.202
146.204
146.202
146.202
146.299
396.722
146.202
147.396
146.202
146.269
146.266
146.202
146.201
3933.44
146.264
146.211
146.202
146.209
146.204
146.202
146.202
4225.18
5953.01
146.202
298.912
146.202
146.201
146.207
146.229
146.202
146.207
147.107
146.205
146.202
146.573
146.206
157.948
1569.25
146.208
146.206
146.207
2121.62
146.202
146.202
146.202
146.202
146.202
146.202
146.202
146.292
146.21
146.202
146.204
670.584
844.904
146.202
334.123
156.749
146.201
336.713
35150.3
146.201
146.298
146.686
146.212
146.205
146.203
146.25
345.547
146.204
146.204
146.207
146.21
146.208
146.211
165.939
146.214
146.513
146.202
146.207
679.649
146.207
146.207
146.202
847.742
763.488
146.202
146.203
146.201
146.204
186.294
2139.6
146.203
146.226
150.105
179.798
146.202
146.22
7910.1
146.202
146.202
146.202
146.202
146.216
146.616
146.202
152.036
147.936
146.203
146.203
146.202
2727.16
296.939
146.202
146.212
146.202
146.202
146.202
4239.18
185.078
4461.98
146.202
146.202
146.201
146.206
179.311
146.226
703.041
146.202
146.202
146.204
2404.91
7291.74
173.046
146.202
695.315
634.573
182.341
575.439
430.886
146.214
2494.68
152.587
146.202
146.203
146.202
146.235
146.202
146.22
767.596
4641.85
238.663
269.052
365.478
146.204
211.966
208.313
146.758
159.359
476.088
163.427
682.072
348.195
146.201
153.381
276.833
148.372
146.202
4762.37
148.217
146.201
532.02
1911.05
146.202
146.234
146.201
146.205
146.203
146.201
146.202
261.157
8510.37
146.202
146.806
148.44
353.937
200.37
146.202
146.201
146.202
324.374
146.202
146.206
146.21
146.201
146.212
146.202
146.202
4824.83
179.272
146.202
146.202
146.202
146.217
146.203
187.948
146.202
146.207
146.203
146.202
146.215
146.202
146.202
146.202
147.125
146.26
146.202
146.251
146.202
146.202
369.195
146.202
231.067
146.293
146.202
146.202
146.202
146.202
146.301
234.103
218.446
1033.61
255.849
146.206
153.754
179.042
190.809
256.5
158.167
235.586
146.202
146.296
146.202
146.202
146.201
146.202
146.206
147.874
146.202
2139.57
146.202
146.204
146.233
146.202
146.204
146.202
146.206
4617.06
265.712
146.203
146.202
146.206
175.136
146.202
151.182
1303.83
146.244
1350.18
146.202
146.202
146.206
1120.51
1305.42
1208.36
1465.75
514.278
149.784
2057.21
649.728
1064.23
146.22
146.206
146.202
146.202
149.754
1361.98
146.292
213.07
1342.48
1521.83
146.625
1537
147.512
146.202
146.202
146.202
147.042
247.578
146.452
146.202
147.403
2429.08
146.237
6055.87
168.367
146.993
775.076
146.202
192.613
1031.5
146.317
146.202
146.209
146.236
146.202
146.201
448.388
146.202
146.201
184.896
146.207
749.096
151.683
146.207
146.22
186.035
190.949
286.29
190.62
146.469
254.046
146.203
146.202
197.491
147.07
190.04
186.075
180.398
146.239
146.314
381.675
6776.87
146.202
146.204
257.219
146.202
2445.04
146.202
146.202
146.202
249.808
146.203
295.111
146.201
146.202
146.231
270.727
316.259
146.607
146.202
146.4
5184.39
2272.91
146.201
947.519
1464.91
171.728
5715.06
146.28
392.211
146.202
146.202
146.202
146.202
146.202
146.207
146.202
5238.08
146.202
146.204
146.202
146.202
146.202
146.202
146.202
146.277
152.829
146.201
146.202
3535.58
146.205
3634.39
307.593
146.201
1895.76
146.327
146.201
146.202
2411.04
146.207
146.202
272.399
146.203
146.203
146.202
146.205
146.202
146.201
146.202
146.201
146.201
146.203
146.39
170.499
146.202
146.205
146.202
146.534
146.202
146.226
146.207
146.478
146.203
146.203
146.203
146.202
146.231
146.203
146.202
146.201
146.201
146.202
3880.56
146.202
146.202
146.202
146.203
146.205
160.278
146.202
146.202
146.205
256.973
146.202
146.585
146.202
146.244
146.201
146.201
146.202
146.705
146.202
146.21
146.201
146.205
146.202
146.204
5658.62
267.729
146.509
146.205
146.203
146.214
146.202
146.213
327.355
190.056
146.213
146.202
146.202
146.202
146.209
2536.17
146.203
146.201
2677.08
146.206
146.201
146.202
146.202
146.202
146.203
541.365
146.394
146.201
146.202
2757.83
3602.46
3255.53
146.21
158.075
552.28
146.207
146.202
146.208
2844.07
146.202
146.206
146.202
146.208
373.421
146.202
146.202
146.202
146.211
146.211
146.216
146.574
146.201
146.762
404.11
146.201
229.307
146.201
146.202
146.201
146.206
146.203
146.213
146.201
327.609
146.374
182.744
149.056
491.953
146.208
146.201
146.202
146.202
146.214
146.201
146.201
146.201
146.206
303.622
146.213
178.166
347.661
146.202
510.054
146.503
184.945
146.208
146.201
310.871
146.201
146.201
146.202
1091.62
597.362
495.931
146.203
493.334
146.202
146.207
146.202
146.627
146.202
3674.89
146.523
146.202
146.202
178.135
146.214
146.202
149.852
146.201
146.202
2725.96
146.202
146.21
146.201
146.514
146.202
146.202
146.202
146.202
146.209
146.202
5276.89
146.202
146.281
146.202
146.203
935.289
146.202
146.202
146.202
1089.45
146.204
146.811
610.977
362.547
146.201
2997.11
146.61
146.202
146.202
2350.81
147.676
146.202
146.527
240.126
146.208
146.203
146.202
152.004
146.204
146.202
146.202
146.207
638.224
146.207
7323.72
146.203
146.242
146.207
146.202
146.267
146.207
146.204
146.202
146.202
146.206
630.518
146.319
217.624
146.974
844.217
148.89
146.202
146.202
146.202
1207.95
903.818
2331.55
252.058
146.206
211.104
148.985
6100.35
1402.23
146.202
10182
3893.17
146.84
146.201
323.903
278.025
489.382
1917.97
486.966
151.357
652.727
146.208
814.501
146.206
175.186
146.205
3449.91
788.202
146.201
146.206
149.393
413.037
146.208
181.238
146.202
146.201
856.756
146.24
146.202
146.204
146.201
146.208
146.202
11484.6
221.709
146.201
146.203
821.329
146.21
6383.65
1099.62
737.251
146.21
146.202
146.202
2066.51
146.202
146.202
148.613
146.207
146.204
807.55
146.211
146.203
1027.06
755.148
146.202
146.202
985.362
146.202
146.204
710.74
146.201
146.201
146.214
768.173
34341.3
810.07
146.202
146.208
146.202
230.874
1021.6
150.092
2225.85
146.202
146.241
146.202
146.213
146.201
343.726
670.673
146.202
2064.75
146.202
146.202
146.505
146.202
146.21
146.213
2408.37
665.566
146.202
146.202
146.314
471.351
146.202
146.204
24888.1
146.201
146.206
146.522
146.202
146.202
146.202
146.202
146.202
146.205
146.202
146.204
159.256
146.202
1146.84
4790.39
146.6
156.583
146.202
146.24
146.205
146.202
149.839
1347.46
2080.07
149.348
147.854
150.582
146.202
146.212
523.17
146.789
149.966
146.271
146.208
149.324
146.202
146.202
146.201
217.835
146.611
146.203
2162.17
146.201
146.203
146.202
1151.84
2030.81
146.202
149.431
149.773
193.056
149.919
149.156
146.201
146.201
147.431
146.206
146.201
146.201
146.201
146.201
146.203
146.201
379.987
429.323
148.286
146.217
146.229
146.241
146.203
146.201
146.201
148.894
146.202
146.202
146.202
149.184
146.207
2424.26
149.471
146.323
148.385
839.101
146.207
149.457
146.202
146.203
146.21
676.411
147.093
146.206
146.203
146.203
399.126
146.202
149.01
310.534
155.957
149.766
146.202
146.202
147.636
177.671
146.209
149.57
146.224
146.212
146.202
149.748
146.204
148.73
146.201
146.202
248.854
146.209
146.202
146.202
146.242
1294.64
146.678
146.208
146.2
146.269
147.446
146.197
146.202
146.202
6933.9
147.934
871.978
147.613
146.202
1338.38
940.664
146.203
146.202
146.207
146.203
146.203
146.203
711.849
146.202
146.208
146.203
1532.81
146.202
146.202
146.202
146.202
1066.21
840.236
146.202
1577.75
146.209
146.562
146.202
146.23
146.202
1678.87
148.367
146.203
146.203
146.295
146.208
146.206
146.211
146.201
146.206
147.022
146.206
146.211
146.202
146.202
146.203
146.989
146.202
146.203
761.998
146.202
146.203
146.201
146.202
4743.19
146.201
262.952
146.204
146.219
146.203
146.207
146.202
146.202
146.203
146.206
146.205
146.743
970.146
146.202
146.202
146.205
146.202
146.209
146.202
146.202
146.205
146.209
146.208
146.208
146.202
146.311
4043.94
785.255
146.208
149.785
146.203
146.207
587.127
146.208
686.939
146.208
146.572
146.201
146.201
146.201
146.201
146.208
146.202
192.517
147.933
146.202
146.201
146.201
146.205
146.204
146.207
146.201
146.201
146.202
146.839
159.854
147.841
146.207
146.201
194.101
192.131
146.67
146.209
146.205
146.201
146.208
146.202
146.212
146.203
146.207
157.081
146.496
149.835
152.404
149.069
231.104
146.203
743.372
146.201
149.853
146.201
149.928
146.214
149.933
731.551
146.202
146.201
146.202
197.208
2920.12
146.202
149.896
146.204
2034
146.202
146.204
146.202
146.202
148.776
146.201
146.202
146.202
146.202
146.206
146.202
148.24
148.963
146.213
146.202
146.202
149.283
146.201
146.202
397.155
1887.43
373.557
146.201
146.201
155.416
399.737
146.202
146.201
207.876
147.988
1439.12
146.201
149.121
146.21
146.202
146.209
146.202
146.202
146.203
146.203
146.202
146.202
146.202
146.202
146.205
146.202
146.201
146.201
146.201
146.202
146.202
146.201
146.202
146.201
146.202
146.202
146.55
148.755
146.732
146.201
146.201
146.202
146.202
146.593
146.202
146.202
146.204
146.202
146.202
146.202
146.204
146.201
146.202
146.202
146.202
146.201
146.771
146.201
150.792
157.578
152.504
146.201
146.201
147.445
146.201
146.201
146.202
146.202
146.202
146.201
146.202
146.203
146.206
146.202
786.586
521.704
146.201
146.203
146.201
146.202
146.202
146.202
146.202
146.202
281.122
619.324
146.202
614.37
146.203
146.202
725.388
708.424
146.203
146.218
353.283
146.203
146.202
146.202
146.206
146.202
614.335
146.201
611.68
146.202
146.202
146.201
146.333
146.739
146.262
146.202
146.201
146.202
146.202
146.202
146.202
146.202
146.202
146.202
146.201
147.004
146.201
146.202
146.202
146.202
146.201
146.202
146.202
146.226
533.157
146.223
146.203
146.206
146.201
146.201
146.205
146.203
146.201
146.203
489.587
146.208
146.202
146.205
146.269
146.201
146.495
146.202
146.208
219.161
146.201
219.512
5491.73
146.375
146.208
146.202
172.429
146.228
146.203
146.201
146.201
146.202
171.204
146.203
146.206
146.269
152.564
222.261
159.272
146.201
146.203
195.736
146.203