/*--------------------------------*- C++ -*----------------------------------*\
| =========                 |                                                 |
| \\      /  F ield         | OpenFOAM: The Open Source CFD Toolbox           |
|  \\    /   O peration     | Version:  v2012                                 |
|   \\  /    A nd           | Website:  www.openfoam.com                      |
|    \\/     M anipulation  |                                                 |
\*---------------------------------------------------------------------------*/
FoamFile
{
    version     2.0;
    format      ascii;
    class       volScalarField;
    location    "4";
    object      ILambda_10_0;
}
// * * * * * * * * * * * * * * * * * * * * * * * * * * * * * * * * * * * * * //

dimensions      [1 0 -3 0 0 0 0];


internalField   nonuniform List<scalar> 
108993
(
146.203
177.667
146.203
146.202
146.202
146.202
185.266
146.202
146.202
146.218
146.203
146.203
146.202
146.203
146.203
146.229
146.236
146.203
146.202
231.791
146.202
146.202
146.711
146.202
146.202
146.202
146.202
265.981
168.047
146.202
146.202
146.203
146.202
146.203
146.201
146.202
146.202
146.202
1110.37
6277.25
155.301
146.202
146.203
146.201
146.272
2490.24
146.202
158.777
146.217
149.141
146.202
146.253
149.759
146.202
146.203
146.202
146.202
146.202
146.202
146.202
146.202
146.202
146.202
146.202
146.202
146.204
146.202
146.202
146.203
146.373
146.202
146.202
146.202
146.202
146.208
146.202
146.202
146.212
146.202
146.202
146.202
146.203
146.202
146.202
146.203
146.203
146.202
146.203
146.202
146.202
146.202
146.202
146.202
146.202
146.202
146.203
146.202
146.202
146.202
146.202
146.202
146.202
146.202
146.203
146.202
146.202
146.202
146.202
146.201
4221.93
146.367
146.202
146.499
146.307
146.202
1741.96
146.202
146.202
146.217
146.202
146.203
146.202
146.77
146.203
146.202
146.26
152.281
146.202
146.202
146.202
146.203
146.202
146.202
147.32
146.202
146.202
146.202
146.202
146.202
146.203
146.203
146.202
146.235
146.202
146.202
146.202
146.202
3733.2
146.203
1698.87
1772.01
146.202
146.205
2392.12
146.202
146.377
146.203
146.202
146.202
146.338
2818.53
146.202
146.202
146.202
146.203
146.316
146.202
146.202
146.202
146.202
146.202
146.202
146.227
146.202
177.706
146.205
151.053
146.202
146.202
146.202
146.211
146.202
146.202
146.203
146.203
146.202
146.202
146.203
146.203
146.203
146.202
146.202
146.202
152.549
146.203
146.203
154.43
146.202
146.202
146.203
146.202
148.313
146.202
146.202
337.554
146.677
146.202
1823.06
146.202
593.298
177.035
146.202
151.576
880.045
16044.7
146.202
146.203
146.202
146.202
146.202
146.299
545.681
146.203
147.872
146.202
146.202
146.202
146.202
146.318
146.202
811.915
146.202
146.202
172.875
146.202
146.202
146.202
146.202
372.299
146.202
146.202
146.202
146.202
146.202
146.202
146.225
1247.41
146.798
146.202
146.202
146.202
146.202
146.202
146.202
146.202
146.202
146.202
146.203
146.202
146.202
146.202
146.206
146.269
146.263
146.201
146.202
146.202
146.449
146.202
146.202
146.202
146.203
639.305
151.885
2769.74
146.203
146.202
147.672
146.203
146.257
146.273
1027.38
1295.24
146.202
146.202
146.234
146.202
146.699
146.203
1509.58
146.203
146.202
147.327
146.202
146.202
146.202
146.202
146.202
146.232
146.202
146.686
145.999
146.202
146.202
146.202
146.236
146.413
146.202
146.24
599.702
146.202
146.202
146.217
146.202
146.365
149.007
146.202
146.221
1865.93
146.202
208.185
146.202
146.833
146.502
146.202
6318.2
153.071
148.127
146.202
146.203
146.233
149.71
148.942
146.202
372.937
146.202
146.202
146.202
146.203
146.202
146.202
154.183
153.917
146.202
146.203
146.203
146.202
146.202
146.202
146.203
146.202
146.202
1163.6
1855.19
146.29
146.202
146.202
3507.34
146.202
146.202
146.208
152.799
146.202
146.202
146.208
158.16
146.202
146.202
146.203
626.785
146.204
146.216
146.203
1542.82
151.966
147.245
146.203
146.202
146.884
146.202
146.892
146.918
164.134
146.229
146.203
146.239
146.207
1659.26
146.206
2782.93
146.902
146.229
146.898
146.203
154.042
149.197
188.222
146.202
146.268
146.202
149.228
147.636
147.052
146.202
146.342
146.226
146.254
146.202
146.203
152.349
146.203
147.927
227.045
146.202
146.203
146.202
329.013
146.245
1908.13
146.202
152.225
197.781
150.99
146.202
146.202
150.596
146.202
257.025
150.237
146.202
174.806
2501.6
151.616
146.202
146.202
146.219
146.56
146.214
146.202
146.202
146.203
146.202
146.202
146.206
193.417
151.739
153.501
146.227
146.202
146.204
146.203
146.202
146.202
146.204
146.202
146.202
146.203
146.207
146.202
146.202
146.578
146.203
146.618
1453.62
146.27
146.203
146.202
146.658
146.203
146.203
146.243
146.202
146.202
146.225
146.352
146.24
146.202
206.334
2564.3
146.24
146.202
146.202
146.202
146.202
146.204
146.203
146.203
146.203
146.226
146.203
146.203
146.202
146.257
146.203
146.296
146.202
146.204
146.202
146.203
153.781
146.202
146.202
146.202
146.203
146.329
166.583
146.202
146.202
1134.56
146.202
146.209
160.73
146.202
146.213
146.202
146.202
146.202
146.202
146.489
162.798
149.44
149.557
170.513
157.582
147.163
146.242
146.374
146.202
146.241
153.758
146.334
146.202
146.24
146.203
146.202
146.202
146.798
146.203
146.223
787.601
146.202
2472.29
146.202
146.202
146.202
146.202
146.202
146.238
146.203
146.202
146.693
146.346
962.015
146.202
146.203
146.202
146.202
149.479
6087.13
152.33
146.204
146.202
146.203
181.79
318.958
147.577
146.203
146.202
153.577
155.056
146.203
146.207
8545.61
291.555
182.31
146.893
146.202
373.617
150.347
240.662
146.203
146.203
146.203
146.202
146.202
146.265
2264.08
295.775
146.203
146.202
148.489
146.202
146.49
146.202
151.887
146.202
146.202
146.202
146.278
146.243
146.203
146.203
161.237
146.299
146.203
146.202
151.497
146.202
146.208
146.203
147.479
146.203
146.238
146.203
168.179
146.202
146.214
146.202
954.652
146.202
146.305
146.202
146.203
3950.82
176.302
146.202
146.202
147.536
2050.88
146.249
164.398
146.457
158.968
2731.58
146.227
146.202
146.202
785.856
146.278
146.244
146.204
146.246
146.202
146.532
146.202
146.237
146.207
146.275
146.239
146.243
146.244
146.298
1847.33
1678.01
146.27
146.492
146.241
1959.92
263.419
1942.11
1324.06
146.202
146.206
146.202
146.202
150.925
146.256
146.255
1396.23
1911.93
146.288
216.028
146.289
1637.25
1986.84
146.202
146.462
146.231
146.202
3627.97
193.765
329.296
146.282
146.248
1931.74
146.277
150.491
146.233
146.229
2650.02
146.202
146.203
146.247
146.211
148.045
45658.4
146.219
328.118
146.224
41921
146.369
146.202
146.202
146.202
146.262
146.202
146.294
149.768
146.202
146.202
147.218
2016.75
9067.9
146.202
6615.43
146.203
146.396
146.267
146.202
146.278
146.491
146.222
147.786
146.234
146.203
146.248
148.023
146.378
148.898
146.202
146.235
146.221
146.238
146.241
146.204
146.202
364.97
146.202
146.203
167.027
146.203
146.236
6641.38
494.191
146.205
147.361
146.204
146.213
146.205
146.235
146.203
146.202
146.202
146.203
146.202
150.108
146.202
146.211
146.277
146.202
146.205
146.202
146.203
146.203
146.222
172.865
155.811
259.597
146.201
146.202
146.203
188.485
146.202
162.128
147.034
146.203
146.203
157.351
147.374
146.211
146.203
146.273
146.203
146.203
147.535
150.805
152.628
146.202
146.202
146.22
146.202
2848.16
146.202
146.202
8350.04
146.276
169.407
146.712
147.739
146.202
150.639
146.255
146.202
146.203
146.262
146.202
146.203
146.203
146.202
146.202
146.203
155.022
146.202
146.236
146.202
146.319
146.283
146.203
34384.7
146.331
16612.3
146.214
146.203
146.225
794.399
147.558
146.266
146.208
169.798
173.077
147.92
1981.07
146.213
146.203
146.234
146.235
146.203
146.61
10125.9
146.203
146.202
146.203
312.74
146.203
146.298
146.224
146.203
146.203
41.1768
146.203
260.301
146.203
41.157
146.203
152.892
146.255
146.236
146.718
146.203
146.246
146.245
146.354
146.817
2587.44
146.26
146.257
146.203
146.243
146.271
146.233
146.202
146.202
146.27
2491.33
146.202
146.222
146.256
262.183
186.61
146.902
1611.81
2631.37
146.589
146.305
146.521
859.944
146.202
148.913
3144.77
153.691
146.202
146.202
146.209
146.234
146.362
146.533
146.202
146.267
146.62
146.202
146.295
151.003
146.305
556.675
146.222
146.202
1105
160.374
146.212
214.942
146.202
146.203
146.272
146.376
2518.43
146.203
1235
146.228
146.272
147.213
146.203
146.232
146.283
147.77
146.201
146.208
146.204
146.338
146.269
146.202
146.502
146.202
146.231
146.276
146.228
146.272
146.202
146.882
146.202
917.138
147.214
146.202
146.202
146.394
146.351
146.202
146.22
13526.8
146.312
214.421
146.202
146.271
148.188
147.065
146.203
146.219
283.89
146.284
146.219
146.265
146.216
146.471
4495.83
146.277
146.233
146.233
146.25
146.252
148.332
148.302
146.234
177.466
146.22
146.202
146.219
146.244
146.202
146.202
146.202
146.243
146.203
146.203
146.203
146.226
146.203
146.203
146.284
146.485
146.203
146.203
146.221
146.202
5320.43
146.202
146.202
146.226
146.202
146.235
9751.09
146.256
147.226
146.203
146.202
146.387
146.226
146.407
148.967
146.203
391.538
146.203
177.618
146.274
268.727
146.202
146.203
146.203
146.202
146.21
146.827
146.203
146.202
146.203
146.202
263.408
146.203
146.688
146.202
146.203
146.483
146.235
146.559
146.744
146.203
146.202
146.679
146.955
146.202
146.201
146.202
162.378
146.206
149.456
146.202
146.221
146.216
146.202
968.423
146.412
146.243
171.002
5455.22
146.318
146.287
147.828
1447.24
146.303
146.202
146.202
146.244
146.228
366.655
146.236
146.454
146.204
150.824
146.25
146.203
146.234
146.642
146.222
146.216
146.301
146.237
146.226
146.202
146.202
146.202
146.202
146.202
146.202
146.204
146.744
154.487
14582.1
146.209
146.203
146.202
146.225
146.606
146.202
146.208
146.203
146.23
146.202
146.223
27263.6
146.27
146.202
229.752
146.203
146.203
146.203
146.202
146.202
151.484
9712.54
146.259
146.202
146.203
146.202
146.204
146.204
146.202
146.203
146.203
146.203
146.202
146.203
146.203
146.202
146.203
146.364
146.202
146.202
146.203
146.203
155.166
146.312
146.371
4299.43
146.203
146.202
146.226
146.202
146.204
146.203
146.821
146.203
146.203
146.267
146.206
146.569
146.328
146.481
146.203
146.203
153.164
151.706
146.202
146.202
146.202
148.585
146.235
146.202
545.898
146.202
146.202
146.201
146.202
146.202
146.223
146.208
147.054
1434.14
147.241
146.341
146.426
146.896
168.96
146.21
146.202
146.215
1021.62
146.202
146.241
146.242
146.231
146.227
2421.23
150.404
146.202
146.255
146.202
146.261
146.253
146.252
146.202
146.202
146.203
146.203
146.204
146.202
241.569
6867.88
146.234
146.202
146.202
146.227
146.205
146.202
146.205
146.202
146.211
30850.1
146.251
930.371
146.202
146.245
146.202
146.252
187.31
146.741
146.285
146.251
146.212
273.881
146.25
146.339
146.782
146.203
146.202
146.239
146.202
146.203
2027.67
146.202
146.203
146.202
148.704
146.202
146.202
150.308
146.203
152.334
909.571
146.202
146.41
146.203
146.295
146.202
146.204
146.202
146.514
146.202
147.494
146.292
146.202
1429.22
146.202
146.42
146.202
146.504
150.459
146.203
146.226
146.37
151.439
146.587
146.728
146.202
146.268
146.202
1123.3
1176.2
1122.79
239.569
1165.86
146.202
1175.84
1124.28
146.247
146.234
146.202
146.353
146.203
146.202
146.202
146.299
146.202
146.212
146.213
146.26
146.202
146.203
149.393
146.203
149.356
149.546
146.202
146.347
147.072
149.403
160.695
147.374
148.093
147.489
146.44
146.267
146.203
146.56
152.253
149.35
146.203
146.203
146.572
146.203
158.042
146.203
146.266
146.203
146.23
146.287
146.207
146.202
146.275
146.202
146.207
146.202
146.202
146.208
146.312
146.259
148.092
161.54
146.204
366.471
2301.18
146.202
146.959
146.202
146.727
146.336
146.205
146.203
2111.34
170.104
146.234
146.207
1000.94
146.744
146.202
146.203
146.202
146.207
146.207
151.92
356.994
146.202
146.202
146.249
146.224
146.281
146.205
146.205
14214.3
9891.75
146.22
146.202
158.071
150.757
146.5
146.25
146.203
146.597
146.202
146.725
146.203
146.225
13139.9
146.259
146.222
146.678
167.51
146.51
146.261
17192.7
146.488
146.203
146.209
146.489
146.245
146.202
146.207
146.25
146.481
2303.47
146.206
146.207
1192.66
146.206
146.202
2447.58
146.206
146.202
146.208
146.203
3171.06
146.202
146.202
147.704
146.209
3838.15
146.208
3675.44
146.207
146.241
2818.13
146.205
146.234
1504.68
146.23
147.939
146.304
146.202
146.208
146.202
3384.39
146.245
146.202
146.651
146.202
146.422
1455.33
150.55
146.215
5549.95
146.202
27595.8
146.203
146.202
146.662
146.202
146.202
146.202
146.202
146.204
176.329
27371
146.56
315.263
146.204
146.202
146.202
146.203
146.21
146.202
159.694
146.387
146.203
146.202
146.202
146.255
146.202
146.202
146.631
146.202
146.202
146.202
146.257
7940.08
148.074
1291.56
27506.5
146.202
146.204
27824.2
146.202
146.202
146.203
1141.66
3778.75
342.956
35735.1
146.202
146.202
5069.26
146.202
146.209
146.203
146.202
146.223
146.202
146.205
146.202
146.205
10498
146.287
146.206
146.541
146.27
146.202
146.277
146.203
146.202
146.202
146.202
146.202
146.202
149.975
146.202
146.239
146.261
146.733
154.994
146.203
146.202
2132.82
22793.5
146.202
146.668
146.202
146.202
268.875
1862.97
1334.78
150.519
146.202
8118.84
2678.62
231.606
146.202
227.065
288.666
256.418
362.907
146.257
1924.89
197.713
149.168
183.881
146.951
199.016
146.251
244.619
146.264
146.358
1048.42
2450.46
1876.54
146.202
146.202
1997.49
146.202
146.268
4742.25
146.202
1212.54
146.253
146.202
146.203
146.203
146.203
146.251
147.275
3336.29
157.616
169.399
146.202
147.993
146.278
146.729
146.203
147.335
146.203
146.203
148.684
146.203
146.39
146.203
146.203
146.266
147.308
146.26
146.241
1431.53
146.268
146.209
184.57
146.202
146.203
147.849
146.202
146.202
146.203
447.337
156.179
146.38
147.397
6416.06
146.232
146.203
400.764
151.617
147.838
458.389
146.366
146.209
146.218
149.749
146.778
273.17
146.203
146.202
146.202
146.202
11038.3
146.202
386.942
146.208
1484.09
148.526
146.202
146.852
4602.26
146.862
1451.18
158.721
146.202
13769.6
13789.5
146.202
146.62
170.614
146.248
365.772
146.202
367.422
22413.4
2060.95
364.692
1768.39
147.329
374.066
146.203
3882.4
89048.1
146.277
203.527
146.208
146.211
212.423
146.203
2705.44
146.264
146.249
185.187
165.474
175.879
212.991
146.293
146.791
146.22
146.201
146.203
190.573
146.202
36896.8
148.384
146.242
9400.58
146.207
146.202
146.257
152.687
4420.44
146.238
146.254
208.157
20267.8
36700.6
147.629
146.203
2238.78
146.401
146.203
146.203
1141.47
146.322
146.778
146.255
146.601
768.545
1902.05
146.234
359.896
146.208
146.205
146.202
146.203
146.202
146.203
146.234
163.976
1240.46
2675.16
146.241
13656.9
146.662
2067.97
146.205
146.303
18449.5
53600.2
146.948
146.203
146.202
146.202
146.202
146.389
146.228
146.458
148.266
282.732
377.162
146.286
1274.35
1707.39
1574.95
147.624
146.202
16122.4
290.093
146.202
146.203
8954.29
1113.36
146.202
146.203
146.203
146.736
146.202
12917.4
18297.6
2703.09
13854.9
146.202
11300.7
146.401
146.202
146.316
146.202
146.222
148.1
146.221
146.221
11128.2
146.746
146.203
146.223
146.203
146.202
146.203
147.517
146.204
148.528
146.616
178.086
1961.31
146.665
153.363
148.457
146.203
146.203
146.203
829.93
928.465
146.203
146.202
4646.13
146.203
146.202
146.203
146.203
148.754
2353.23
5424.23
439.539
3957.25
146.202
1149.15
146.203
347.756
2567.09
146.202
164.723
146.202
146.202
4125.35
146.202
146.482
1887.61
188.539
2145.33
2696.44
146.202
155.514
146.681
1174.93
146.731
146.227
1602.34
2378.93
2013.43
186.152
146.204
146.204
163.073
156.754
608.355
152.966
146.814
2140.5
146.203
146.202
9463.52
2660.39
148.55
878.566
195.593
148.533
9320.51
146.202
378.65
146.203
2783.93
146.203
409.947
1996.58
146.202
4794.3
146.203
142.005
1733.16
146.202
146.203
1588.82
146.203
146.202
146.202
146.202
149.586
146.205
1890.46
1838
146.202
146.202
5014.5
146.738
146.203
146.66
146.203
146.203
146.203
146.202
306.128
308.216
3602.32
146.203
146.207
2021.33
146.202
148.831
868.253
146.202
146.202
147.456
148.398
664.699
146.202
146.202
146.202
146.202
146.202
197.354
278.634
146.812
146.313
2072.48
148.468
146.248
146.202
147.285
146.204
181.604
1355.41
146.203
146.202
146.203
146.28
4851.08
146.202
151.718
146.214
146.202
146.228
146.222
146.202
146.961
146.202
3043.45
146.202
146.202
146.205
146.204
146.202
2422.69
146.873
146.202
146.202
1414.39
146.202
316.205
146.205
146.202
11256.2
5331.38
336.48
160.906
146.203
146.218
4007.71
146.203
4106.43
146.203
2561.87
2876.6
146.202
16498.1
2298.96
5334.19
5545.3
1660.49
146.211
146.202
146.204
146.253
146.226
146.233
3689.03
146.202
146.263
146.202
146.244
2609.82
2356.59
146.202
146.287
390.099
146.202
1624.32
146.203
146.202
146.202
3585.56
1680.4
1590.08
146.202
146.206
146.203
5572.06
150.183
3680.26
146.202
146.202
1985.01
3363.88
146.202
146.203
5936.89
146.203
146.203
154.567
4409.79
146.28
146.618
146.202
2127.12
21491.9
186.711
16106.2
146.565
42292.2
201.064
205.698
6427.73
591.385
32945.8
52821.4
37993.7
54138
146.202
17292.6
3232.78
23920.9
146.202
28856.6
89306.1
146.202
1989.68
33378.1
146.202
18301.9
146.202
3587.82
562.379
236.773
1882.95
631.655
146.202
146.202
146.222
146.202
3750.14
146.202
373.911
346.658
146.207
146.205
146.206
146.203
146.202
146.202
146.845
146.204
4129.76
146.203
149.081
146.207
146.709
146.203
146.29
216.077
146.207
146.208
146.203
146.203
146.222
1115.25
1123.54
146.58
146.744
151.041
147.978
146.202
146.284
146.24
147.3
146.203
146.305
146.268
1149.77
146.985
149.916
148.426
146.355
146.227
146.598
175.321
146.215
146.249
1042.71
146.318
18553.6
249.98
146.22
146.436
33913.8
146.202
146.415
146.664
147.021
146.727
146.677
269.09
146.515
152.908
148.453
146.203
146.223
4672.38
146.202
187.577
148.813
146.514
146.202
146.202
146.514
146.265
146.356
147.467
146.202
146.202
2011.88
60.6253
146.217
158.178
249.042
146.204
146.292
146.237
146.251
44.4
149.496
146.718
148.023
146.203
272.977
146.246
146.723
146.203
146.203
146.203
146.757
146.202
146.202
147.019
269.215
148.726
146.774
146.374
147.092
146.312
164.058
146.202
146.898
147.561
147.456
146.203
146.251
146.427
146.25
224.345
146.792
146.203
146.307
146.687
146.203
146.203
146.203
146.207
146.203
146.23
146.299
1675.43
146.322
456.022
146.235
146.237
146.269
148.54
927.254
146.248
146.205
146.805
146.279
1032.68
146.203
146.263
146.256
187.187
148.329
149.112
149.502
148.785
150.262
158.943
146.203
146.247
146.203
146.235
148.616
146.253
153.426
146.648
162.489
146.296
159.72
146.911
146.204
146.202
146.304
146.26
146.215
146.203
146.203
147.589
148.008
146.321
146.238
146.202
146.202
151.085
146.23
326.98
146.202
146.219
146.204
146.202
146.888
146.202
146.362
146.203
146.204
146.203
146.202
146.244
146.202
146.202
146.202
146.239
146.203
146.202
196.204
146.203
146.236
18066.6
146.202
168.25
146.215
146.202
146.202
160.33
146.202
146.202
146.272
146.254
146.267
146.202
146.204
146.202
146.276
146.248
146.202
146.202
146.28
146.202
146.202
146.272
146.202
146.248
147.981
146.204
146.202
146.231
10249.5
1326.21
146.203
146.202
146.202
146.202
146.658
146.879
146.202
146.202
146.208
2244.97
146.202
146.202
146.202
2383.56
291.361
146.271
2319.46
146.425
146.204
147.194
146.258
150.132
146.709
209.766
146.689
146.202
382.859
2363.24
146.203
146.203
2526.64
146.693
2601.43
146.203
146.28
146.203
159.76
3236.85
146.203
3105.03
146.221
146.203
2574.78
146.214
146.203
223.983
2895.52
146.204
146.268
2400.87
146.207
146.236
3119.51
146.578
146.207
159.026
146.667
211.674
146.575
1644.15
146.202
146.203
146.397
150.388
146.414
223.754
146.203
146.202
146.922
269.62
158.617
150.736
147.241
146.202
146.217
146.904
303.394
5271.93
146.233
158.709
289.979
6441.24
146.203
146.551
36133.3
146.202
232.66
146.312
146.425
146.203
306.751
146.202
146.202
146.215
146.202
154.179
146.226
146.227
4650.18
170.016
146.203
146.22
146.23
146.203
146.202
146.944
146.265
146.204
146.298
146.203
146.385
4750.38
146.234
146.339
218.302
341.092
217.506
146.227
146.838
146.274
220.425
146.232
362.085
146.264
307.138
180.09
222.908
146.247
146.247
243.303
318.09
146.203
146.677
205.732
146.262
146.992
146.285
8801.23
146.363
146.204
1036.85
150.57
146.622
148.208
146.214
1098.71
146.202
32964.6
159.856
1088.77
146.202
146.203
146.202
887.78
146.262
25995
146.203
921.68
1032.33
146.36
146.202
45434.7
346.467
253.673
28288.3
150.119
146.203
146.244
146.203
146.275
146.269
146.203
146.202
166.838
146.207
146.202
146.203
14725
146.203
146.226
146.203
146.355
146.379
146.471
386.662
146.202
146.203
146.276
146.204
146.203
146.203
146.203
146.202
146.286
146.213
9000.19
146.202
146.692
146.443
3222.92
146.202
146.513
147.715
146.202
146.203
5416.38
146.203
146.217
146.202
146.203
146.203
146.252
146.202
146.203
146.203
146.202
146.274
1879.17
146.202
146.232
146.202
146.286
146.357
146.202
146.202
3737.12
146.203
146.226
146.202
146.713
146.232
146.202
146.202
3347.36
5257.47
146.202
315.912
146.202
146.247
146.225
146.537
146.202
194.677
146.235
284.993
146.202
309.629
146.219
151.315
4308.02
167.672
212.282
146.233
2144.79
146.202
146.202
146.202
146.202
146.202
146.202
146.202
147.006
146.215
146.203
148.688
309.334
297.317
146.202
331.215
156.304
147.821
342.198
43092.6
146.425
147.592
597.135
146.732
167.651
149.642
147.274
334.381
146.378
146.373
154.356
146.203
146.312
255.846
146.241
214.811
146.219
146.206
146.585
235.706
146.32
147.407
146.206
450.003
259.224
146.202
146.644
146.271
257.979
278.585
6030.96
146.779
146.655
146.214
156.251
146.202
146.203
3234.47
146.202
146.202
146.202
146.202
146.209
146.218
146.203
146.254
146.222
150.778
146.363
146.202
2783.9
498.342
146.202
169.88
146.202
146.202
146.202
3457.26
162.618
1921.83
146.203
146.202
146.201
146.36
146.249
146.206
13847.1
146.202
146.202
146.214
3696.19
8652.77
146.25
146.202
25475.7
26322.9
165.041
27955.7
172.265
176.255
3069.17
209.592
146.202
146.203
146.202
146.203
146.202
146.203
1003.14
5793.22
328.783
147.685
172.589
146.203
146.241
146.266
166.79
146.237
212.176
146.245
14414
146.535
146.202
155.983
398.55
146.204
146.202
3104.46
146.204
146.202
179.366
2174.09
146.202
146.203
146.828
146.233
146.204
146.202
146.202
253.898
4512.61
146.202
146.203
146.233
318.056
156.362
146.203
146.202
146.202
174.046
146.202
168.614
146.464
146.202
217.198
146.202
146.202
4846.19
146.244
146.202
146.202
146.202
146.203
147.677
146.248
146.202
208.949
153.042
146.202
146.957
146.202
146.202
146.202
146.203
146.203
146.202
146.215
146.202
146.202
629.018
146.202
48849.5
146.216
146.202
146.202
146.202
146.202
146.217
266.536
52333.9
2168.09
54318.5
146.292
162.693
146.888
47092.7
52601.9
146.43
758.952
146.203
146.218
146.202
146.203
146.202
146.202
146.645
1871.9
146.202
2180.37
146.559
148.366
146.218
146.202
146.982
146.202
148.668
3092.52
338.574
146.529
146.202
151.691
312.063
146.203
146.249
3934.2
146.219
2138.8
146.202
146.202
215.872
1296.75
2077.94
2264.62
1564.41
269.874
213.621
2164.07
1456.01
2752.8
146.203
238.691
146.202
146.202
183.168
1585.49
147.588
344.127
1423.1
1482
146.204
3026.68
146.459
146.202
146.202
146.202
151.783
152.758
146.475
146.202
161.71
2884.57
156.231
3081.77
146.934
146.309
1313.04
146.202
146.26
1581.34
146.496
146.202
231.685
146.702
146.202
146.205
999.061
146.202
146.203
33731.7
146.316
1457.26
24762.9
152.749
190.484
147.112
147.548
146.328
147.226
146.936
151.388
146.57
146.202
150.441
146.226
147.442
147.108
146.249
146.786
146.233
351.795
2022.52
146.202
154.472
147.584
146.202
1616.47
146.202
146.202
146.202
147.376
150.6
152.17
146.287
146.202
146.704
147.834
148.286
146.42
146.202
146.469
1694.6
2773.48
146.202
1885.8
1510.99
238.161
1689.67
146.204
2041.08
146.202
146.203
146.202
146.202
146.204
149.477
146.203
1681.34
146.203
249.02
146.202
146.202
146.202
146.202
146.202
146.835
274.578
146.202
146.202
4779.82
216.194
1639.74
146.226
146.202
2724.47
146.205
146.202
146.203
1228.24
147.229
146.202
146.246
156.483
146.421
146.202
175.787
146.202
146.202
146.202
146.202
146.202
146.388
146.213
150.956
146.202
231.097
146.202
386.074
146.202
146.207
149.947
146.307
146.382
146.361
146.31
147.836
146.477
146.682
146.202
146.202
146.202
146.202
3972.54
146.202
146.202
146.202
146.474
146.203
271.078
146.202
146.202
166.397
146.275
146.202
146.204
146.202
146.204
146.202
146.202
146.203
217.101
146.203
146.203
146.202
146.203
146.203
146.203
4977.46
146.218
146.214
146.203
146.202
229.237
146.202
160.898
359.109
146.279
146.337
146.203
146.203
146.202
149.554
2540.23
146.203
146.202
3494.39
146.203
146.201
146.202
146.202
146.256
147.37
169.043
146.203
146.202
146.203
3882.96
3552.85
3890.37
196.941
4242.01
224.554
151.121
146.203
188.231
3893.56
146.202
146.252
146.202
148.75
149.97
146.202
146.202
146.217
159.008
201.671
185.386
237.966
146.273
1356.52
146.37
146.31
155.157
146.849
146.202
146.271
150.807
146.777
146.241
146.304
152.549
149.829
164.622
1728.85
335.81
239.209
146.324
146.203
154.829
146.269
146.315
146.406
146.439
146.284
35024.3
179.551
146.275
272.659
146.202
300.504
195.522
447.629
197.542
146.432
153.925
146.205
146.412
146.202
2623.68
316.317
338.053
146.203
311.754
146.202
146.425
146.202
146.241
146.202
4369.31
202.359
146.202
146.202
146.258
180.063
146.202
22864.5
146.415
146.202
2755.82
146.202
170.263
146.414
193.861
147.948
146.202
147.984
146.202
211.348
147.375
3183.16
146.202
146.211
147.962
167.549
1633.41
146.203
147.332
146.202
1268.67
146.444
1678.57
15780.3
951.478
146.202
3839.27
431.028
147.378
146.618
2655.98
146.64
146.202
584.64
160.102
147.122
152.006
146.203
692.659
146.203
146.202
146.202
146.25
38587.3
146.241
69956.1
155.146
146.308
146.253
146.202
146.249
146.244
146.41
146.202
146.203
342.44
196.859
2838.61
153.062
2898
509.014
2878.36
146.216
146.202
146.202
2005.54
20667.4
2806.72
322.503
147.748
149.471
2955.5
5087.81
3930.07
146.202
29865.7
8157.22
2833.23
146.202
158.019
477.947
895.608
2198.96
747.301
225.639
464.748
147.384
729.142
146.412
325.78
146.664
3985.54
1010.88
146.215
149.72
152.29
861.411
255.802
146.264
146.202
146.201
986.934
146.21
146.22
161.073
146.201
147.443
146.202
71990.1
146.582
146.201
146.64
947.223
210.246
4187.19
7729.45
2034.06
216.523
146.202
146.202
2153.39
146.202
146.202
146.218
146.206
265.751
973.938
152.157
146.203
1951.96
1168.34
146.202
146.838
915.902
146.472
281.191
847.028
146.201
146.201
146.208
296.615
12843.4
1793.41
146.205
156.753
146.202
1663.5
18487.5
152.616
1531.04
146.202
146.208
146.202
146.831
146.202
6927.08
629.185
146.202
2526.03
146.202
146.202
487.754
146.202
254.884
146.206
2434.6
151.131
146.202
146.202
146.252
32742.3
146.202
146.692
699.618
146.202
146.73
146.212
146.202
146.202
146.202
146.202
146.202
149.032
146.202
270.845
146.379
146.202
2460.88
8091.59
185.304
147.439
146.202
151.425
159.152
146.202
147.293
1955.75
2325.82
146.933
1881.36
26339.1
146.228
146.354
155.907
555.189
5928.11
146.289
193.167
5009.63
146.202
146.202
146.202
146.249
147.476
203.061
3350.18
146.202
146.207
146.209
998.076
2037.11
146.202
4556.07
619.871
337.596
2736.96
9836.19
146.202
146.554
1471.3
154.715
146.202
146.202
146.273
146.202
147.42
146.201
337.021
2163.09
9270.42
146.498
365.095
146.535
147.07
146.202
146.202
17472.4
146.202
146.202
146.202
33795.3
147.214
5345.11
147.694
146.295
146.594
328.393
197.388
148.424
146.338
147.61
146.509
346.743
152.802
147.735
161.002
146.814
164.861
146.955
14167.3
182.176
146.334
623.303
146.218
146.211
3336.16
149.309
146.805
147.991
147.034
146.474
146.202
148.942
146.636
18032.8
146.214
146.202
290.309
146.326
146.202
146.202
146.359
5647.17
146.398
147.608
146.217
146.487
146.4
146.22
146.202
146.202
9051.06
5017.08
30674.4
148.427
146.209
5755.08
5550.35
149.397
146.211
177.973
146.207
146.238
146.208
526.202
146.203
196.752
146.485
4209.97
146.202
146.202
146.202
146.205
2956.33
1358.49
146.241
4843.72
261.229
146.241
146.202
146.215
146.202
5719.7
146.361
146.203
146.203
146.246
150.9
158.27
147.002
146.204
146.23
146.376
154.216
348.884
146.214
146.203
146.203
146.406
146.202
146.203
1695.98
146.203
156.829
146.269
146.202
3885.12
146.369
333.358
296.461
154.698
146.203
148.589
146.204
146.202
146.203
154.917
252.995
146.4
6020.64
146.21
146.209
153.837
146.202
146.483
146.203
146.203
147.487
146.424
160.871
146.513
146.202
146.246
7801.63
1310.64
146.936
5646.52
146.659
193.308
879.605
146.693
25488.1
153.808
285.448
150.066
146.202
146.306
146.202
146.375
146.315
146.247
21661.7
146.206
146.207
146.87
294.549
147.859
149.917
146.331
146.979
146.21
146.278
146.251
146.267
180.208
146.205
146.247
146.259
146.244
194.906
188.399
146.441
146.375
146.209
147.168
146.697
149.441
146.266
181.822
32457.2
146.262
1871.65
177.606
146.204
5005.48
146.217
2771.45
146.3
2715.38
146.438
3622.2
987.763
146.202
146.212
146.803
1884.54
7938.49
146.202
2069.39
157.224
2429.22
146.202
146.268
146.202
146.232
147.017
146.227
147.369
146.29
146.206
148.753
146.202
146.828
31398
146.617
146.23
146.202
480.16
146.204
146.202
277.092
2531.64
264.403
146.202
146.396
1839.7
288.762
146.202
146.202
2041.48
146.422
2050.78
146.447
147.473
146.246
146.202
155.914
146.202
146.202
157.39
164.087
146.202
146.202
146.203
155.501
160.662
146.202
146.204
146.538
146.202
146.204
146.203
146.281
146.202
146.202
146.202
146.202
258.658
319.669
204.507
146.202
146.201
146.202
146.202
210.36
146.202
146.213
173.707
146.202
146.206
146.202
301.706
146.203
146.202
146.263
146.202
146.225
146.252
146.4
146.265
146.265
913
146.202
146.226
146.249
146.487
146.202
146.21
146.202
146.202
146.227
146.202
150.28
148.469
148.578
1256.08
1021
146.374
148.882
146.925
146.202
146.202
146.202
146.33
146.202
1893.38
6372.15
146.202
10575
146.233
146.202
17558.8
20180.8
146.202
146.603
547.082
146.203
146.202
146.202
170.19
146.202
10916.4
146.88
9124.93
146.221
146.202
146.669
146.38
146.419
146.405
146.798
146.312
146.202
146.202
146.202
146.202
146.202
146.202
146.202
146.202
147.304
146.216
147.235
148.994
146.494
146.227
146.202
146.204
146.782
146.261
148.768
146.202
183.845
146.37
146.365
194.966
146.203
147.787
146.203
146.277
151.692
146.202
159.7
146.337
146.202
153.868
148.835
173.817
146.238
146.216
146.239
8093.63
146.225
149.086
146.202
146.226
146.22
147.21
146.202
146.293
146.212
146.223
148.8
146.736
146.218
149.501
211.518
148.514
146.202
146.889
169.211
157.944
288.083
147.252
146.202
146.216
156.327