/*--------------------------------*- C++ -*----------------------------------*\
| =========                 |                                                 |
| \\      /  F ield         | OpenFOAM: The Open Source CFD Toolbox           |
|  \\    /   O peration     | Version:  v2012                                 |
|   \\  /    A nd           | Website:  www.openfoam.com                      |
|    \\/     M anipulation  |                                                 |
\*---------------------------------------------------------------------------*/
FoamFile
{
    version     2.0;
    format      ascii;
    class       volScalarField;
    location    "4";
    object      ILambda_1_0;
}
// * * * * * * * * * * * * * * * * * * * * * * * * * * * * * * * * * * * * * //

dimensions      [1 0 -3 0 0 0 0];


internalField   nonuniform List<scalar> 
108993
(
146.202
146.203
146.202
146.201
146.202
146.202
146.242
146.202
146.201
146.203
146.202
146.202
146.201
146.203
146.202
146.203
146.204
146.203
146.201
146.202
146.202
146.201
146.193
146.202
146.201
146.202
146.201
146.203
146.202
146.202
146.201
146.203
146.201
146.202
146.201
146.202
146.201
146.202
748.183
1327.61
146.159
146.202
146.203
146.201
146.339
3306.64
146.201
147.039
146.202
146.204
146.201
1158.1
146.202
146.201
146.203
146.202
146.201
146.201
146.202
146.201
146.201
146.201
146.202
146.202
146.201
146.202
146.201
146.201
146.203
146.296
146.202
146.201
146.202
146.201
146.202
146.201
146.202
146.203
146.201
146.201
146.201
146.203
146.201
146.202
146.203
146.203
146.202
146.202
146.202
146.201
146.201
146.201
146.201
146.202
146.201
146.203
146.201
146.202
146.201
146.201
146.201
146.201
146.202
146.202
146.202
146.201
146.202
146.201
146.201
1091.1
146.66
146.201
1012.35
697.737
146.202
146.495
146.202
146.202
146.204
146.201
146.203
146.201
146.607
146.202
146.202
146.205
146.142
146.202
146.201
146.201
146.202
146.201
146.202
2249.46
146.202
146.202
146.201
146.202
146.201
146.203
146.202
146.202
146.216
146.201
146.201
146.202
146.202
2547.31
146.202
146.633
146.679
146.202
146.203
146.666
146.202
166.761
146.202
146.201
146.201
198.724
146.687
146.201
146.201
146.202
146.203
1599.07
146.202
146.202
146.202
146.202
146.201
146.202
210.06
146.202
146.202
146.202
146.223
146.202
146.202
146.202
146.203
146.201
146.201
146.202
146.203
146.202
146.201
146.203
146.202
146.202
146.202
146.201
146.202
146.213
146.202
146.202
146.157
146.202
146.202
146.202
146.202
157.031
146.202
146.201
211.588
146.649
146.201
684.69
146.202
147.499
602.035
146.202
146.218
321.14
15018.5
146.202
146.202
146.201
146.201
146.201
146.202
146.617
146.202
146.211
146.201
146.202
146.201
146.202
1746.4
146.202
498.126
146.202
146.202
146.192
146.202
146.201
146.201
146.201
203.116
146.201
146.201
146.202
146.202
146.201
146.201
146.203
301.812
146.582
146.201
146.201
146.202
146.201
146.201
146.202
146.201
146.201
146.201
146.202
146.201
146.202
146.202
146.202
146.209
146.209
146.201
146.202
146.202
146.202
146.202
146.202
146.202
146.202
190.08
153.124
1853.28
146.202
146.201
146.583
146.202
146.202
146.202
1704.03
1826.38
146.202
146.201
146.204
146.201
146.202
146.202
829.086
146.203
146.202
146.202
146.202
146.202
146.202
146.201
146.202
146.207
146.202
146.625
146.633
146.202
146.202
146.201
146.569
146.201
146.202
146.49
208.163
146.202
146.201
146.204
146.202
146.458
146.524
146.202
146.204
1596.28
146.202
146.203
146.202
146.204
146.205
146.202
144.244
150.015
146.674
146.201
146.202
146.202
146.592
869.018
146.201
352.923
146.202
146.202
146.201
146.202
146.201
146.202
146.522
146.202
146.202
146.202
146.203
146.202
146.201
146.201
146.202
146.202
146.202
1530.44
184.899
146.201
146.202
146.202
2664.55
146.202
146.202
146.202
146.202
146.202
146.202
146.202
146.204
146.202
146.201
146.203
152.035
146.203
146.203
146.202
147.049
146.204
146.955
146.202
146.202
146.779
146.202
146.803
146.776
146.203
146.205
146.202
150.179
146.203
1432.37
146.202
1148.73
146.875
153.103
146.88
146.203
169.719
146.202
150.119
146.201
146.211
146.201
146.202
146.566
146.689
146.202
146.201
153.017
149.947
146.202
146.202
154.5
146.203
146.204
153.101
146.202
146.202
146.201
147.099
146.211
259.191
146.202
153.677
146.203
149.019
146.202
146.202
149.636
146.202
146.588
149.478
146.202
150.446
1881.03
150.642
146.201
146.202
146.203
146.201
146.202
146.202
146.202
146.202
146.202
146.202
146.202
150.766
146.19
146.202
213.597
146.202
146.202
146.203
146.202
146.202
146.203
146.202
146.202
146.203
146.202
146.202
146.202
146.567
146.202
146.57
146.566
146.212
146.202
146.202
146.567
146.202
146.202
146.206
146.202
146.201
146.203
146.201
146.229
146.202
525.13
202.504
146.209
146.202
146.201
146.201
146.202
146.203
146.202
146.202
146.202
162.936
146.202
146.203
146.202
146.247
146.202
146.212
146.202
146.202
146.202
146.202
146.202
146.201
146.201
146.202
146.202
146.421
146.679
146.202
146.202
571.063
146.202
146.203
146.123
146.201
146.203
146.202
146.201
146.202
146.202
146.202
146.237
146.202
146.202
146.192
145.826
146.202
146.218
152.858
146.202
146.219
145.767
146.202
146.202
146.217
146.203
146.202
146.202
733.299
146.203
146.203
247.476
146.202
717.426
146.202
146.202
146.202
146.202
146.201
146.218
146.202
146.201
146.624
146.202
1005.85
146.202
146.203
146.202
146.201
146.209
146.618
146.202
146.202
146.202
146.202
145.954
193.711
147.383
146.202
146.202
146.2
146.179
146.202
146.202
5430.71
188.609
146.631
146.203
146.202
198.533
149.375
146.353
146.202
146.202
146.202
146.201
146.202
146.384
2324.99
182.766
146.203
146.202
146.152
146.202
146.202
146.202
152.385
146.201
146.201
146.202
146.202
146.207
146.202
146.202
133.747
146.206
146.203
146.202
159.296
146.202
146.203
146.202
5289.32
146.202
146.471
146.202
146.157
146.202
146.202
146.202
331.52
146.201
2314.36
146.201
146.202
1568.54
146.203
146.201
146.201
146.407
3223.16
146.203
146.707
146.202
146.424
162.903
146.203
146.202
146.202
192.128
146.217
544.912
146.203
847.131
146.202
146.203
146.202
146.203
146.203
390.836
146.219
146.203
146.203
146.212
476.979
2696.82
146.218
146.202
146.236
2428.12
159.037
2626.25
2617.98
146.202
146.203
146.202
146.202
146.205
222.394
146.207
368.165
412.036
146.207
149.83
1718.32
2874.64
2664.7
146.201
146.209
146.205
146.202
2915.82
146.203
177.197
146.212
146.203
2137.02
146.204
149.605
146.205
146.205
149.109
146.201
146.202
181.861
146.203
146.205
2407.94
146.204
224.327
146.204
328.758
149.969
146.202
146.201
146.201
146.214
146.202
146.362
146.033
146.202
146.201
146.667
593.179
2103.75
146.202
209.151
146.202
364.901
146.209
146.202
370.185
146.202
146.203
447.872
146.203
146.203
146.203
165.166
147.635
146.439
146.202
273.947
146.203
146.203
146.203
146.203
146.202
214.614
146.202
146.202
146.231
146.202
146.203
3090.92
350.845
146.202
151.724
146.202
146.203
146.202
146.205
146.202
146.202
146.202
146.202
146.202
145.15
146.202
146.203
146.212
146.202
146.202
146.202
146.202
146.202
146.223
146.201
146.223
170.255
146.201
146.202
146.202
421.457
146.202
146.441
146.533
146.203
146.202
151.452
146.939
146.203
146.202
146.892
146.202
146.202
146.309
146.204
145.892
146.202
146.202
146.22
146.201
3026.82
146.202
146.202
3680.16
146.204
147.671
196.476
147.572
146.202
146.027
146.208
146.201
146.203
146.206
146.201
146.202
146.203
146.202
146.202
146.202
146.178
146.202
146.225
146.202
148.338
146.344
146.202
4525.18
146.33
773.617
146.203
146.203
146.203
91.6257
146.206
146.38
146.222
686.762
146.209
194.996
666.248
146.215
146.202
146.233
146.361
146.202
146.334
4792.87
146.202
146.202
146.202
148.902
146.202
146.472
146.232
146.202
146.203
83.8162
146.202
168.892
146.202
55.5851
146.202
146.126
146.12
146.207
1026.46
146.203
146.106
146.128
146.264
146.223
7769.86
146.201
146.201
146.202
146.213
146.204
146.207
146.201
146.202
146.208
7396.71
146.202
146.207
146.387
156.85
146.202
665.417
2271.8
8611.29
146.489
152.095
146.201
3005.03
146.202
2163.88
3720.69
164.75
146.201
146.201
146.207
146.211
147.259
146.201
146.202
146.239
146.559
146.201
161.368
146.198
146.202
2797.97
146.201
146.202
5855.65
156.081
146.202
146.216
146.202
146.203
146.21
1393.57
5717.77
146.203
6086.86
146.212
146.211
146.202
146.203
146.204
146.132
146.203
146.201
146.203
146.202
1863.73
146.202
146.202
146.465
146.202
150.492
146.364
146.204
146.21
146.201
146.751
146.202
379.767
146.388
146.202
146.201
146.676
1465.44
146.202
146.203
3160.93
855.907
146.583
146.202
146.208
146.446
146.675
146.203
146.228
186.223
146.209
146.203
146.207
146.204
152.013
2869.66
1389.12
146.22
146.209
146.205
146.214
146.21
146.203
146.211
146.513
146.203
146.201
146.202
146.213
146.201
146.202
146.201
146.217
146.202
146.202
146.202
146.202
146.202
146.202
146.202
229.008
146.202
146.203
146.203
146.201
2240.58
146.202
146.202
146.202
146.202
146.202
452.854
146.269
146.204
146.202
146.202
149.226
146.249
1271.36
146.204
146.202
146.678
146.203
146.235
146.225
182.005
146.202
146.202
146.202
146.202
146.203
146.381
146.203
146.202
146.202
146.201
148.092
146.202
146.364
146.201
146.202
147.063
387.478
182.529
152.297
146.202
146.202
146.197
350.657
146.203
146.201
146.201
152.675
146.203
144.046
146.202
146.215
146.203
146.201
1602.09
147.046
146.215
149.783
754.919
146.211
146.209
145.614
1550.83
146.202
146.202
146.202
369.116
146.206
3531.59
146.216
146.173
146.202
146.103
146.21
146.202
146.216
635.95
146.215
146.203
146.396
247.71
151.94
146.202
146.202
146.202
146.202
146.202
146.201
146.202
1991.73
146.202
1851.61
146.203
146.202
146.202
146.253
651.966
146.202
146.203
146.202
146.204
146.202
146.203
146.798
146.228
146.202
146.51
146.202
146.202
146.202
146.201
146.201
146.071
6383.01
146.384
146.201
146.202
146.202
146.203
146.203
146.202
146.202
146.202
146.202
146.201
146.202
146.202
146.202
146.202
146.201
146.202
146.202
146.202
146.202
146.753
190.261
212.084
3196.11
146.202
146.202
146.203
146.202
146.203
146.202
146.205
146.202
146.202
1373.26
146.203
146.829
146.205
146.205
146.202
146.203
151.408
148.921
146.202
146.202
146.202
145.869
146.203
146.202
148.871
146.202
146.201
146.201
146.201
146.202
187.17
146.205
146.202
152.251
146.204
146.203
146.203
146.811
146.016
146.205
146.202
146.202
146.799
146.202
197.566
147.856
148.15
148.482
154.341
145.015
146.201
146.221
146.201
146.254
146.221
148.38
146.202
146.202
146.202
146.202
146.202
146.202
146.551
398.308
146.218
146.202
146.201
146.219
146.202
146.201
146.202
146.202
146.202
106.548
146.22
360.008
146.202
146.284
146.202
146.214
146.498
146.177
146.201
146.229
146.202
183.973
146.246
272.635
454.817
146.202
146.202
146.204
146.201
146.202
1857.62
146.202
146.202
146.202
148.208
146.202
146.202
146.199
146.202
146.487
393.253
146.202
149.477
146.202
241.87
146.202
146.202
146.202
148.239
146.201
146.528
146.21
146.202
619.51
146.202
146.201
146.201
176.189
148.697
146.203
146.167
149.296
150.654
146.257
146.202
146.202
146.23
146.202
267.574
165.969
167.742
146.498
159.781
146.201
288.371
296.504
154.865
158.512
146.202
147.972
146.202
146.201
146.202
167.428
146.201
146.202
146.202
146.218
146.201
146.202
146.203
146.203
146.203
146.202
146.202
275.467
176.263
146.202
1627.54
146.203
146.198
146.4
146.202
146.215
146.202
146.203
1207.19
146.202
146.202
146.202
146.201
146.203
147.246
146.202
146.366
146.202
146.213
146.66
146.203
146.202
146.202
146.202
146.203
146.202
146.201
146.202
146.202
146.205
146.206
146.518
146.203
146.53
705.984
146.201
146.551
146.201
146.202
146.202
146.203
146.203
883.969
147.496
259.529
146.205
211.912
146.436
146.202
146.202
146.202
146.203
146.203
145.779
146.622
146.201
146.201
146.203
146.203
146.202
146.203
146.202
11189.7
3160.99
146.203
146.201
146.538
146.202
146.204
146.204
146.202
472.809
146.202
146.204
146.202
146.203
277.766
146.214
146.203
146.491
343.811
146.203
146.221
148.101
146.203
146.202
146.202
723.188
146.22
146.202
146.202
434.622
146.471
777.812
146.202
146.202
699.231
146.203
146.202
779.078
146.203
146.201
146.203
146.202
2941.59
146.202
146.202
270.559
146.203
4158.06
146.203
1731.56
146.203
146.21
1552.02
146.206
146.214
1807.49
146.204
146.206
281.952
146.202
146.202
146.202
2670.06
223.522
146.202
146.547
146.201
146.888
932.753
146.769
146.209
524.524
146.202
6493.33
146.202
146.202
146.212
146.201
146.201
146.201
146.202
146.202
146.757
147.522
146.397
215.111
146.202
146.202
146.202
146.202
146.202
146.202
670.871
146.273
146.202
146.201
146.202
819.286
146.202
146.202
1003.04
146.202
146.202
146.202
146.207
9448.43
1222.73
470.571
147.597
146.202
146.204
147.21
146.202
146.201
146.202
158.675
1524.67
187.908
254.215
146.201
146.202
1694.94
146.201
146.207
146.202
146.201
146.203
146.201
146.204
146.202
146.205
179.6
146.209
146.206
146.496
146.25
146.202
1660.74
146.202
146.202
146.201
146.202
146.201
146.202
145.879
146.202
146.206
157.238
146.554
146.595
146.202
146.202
1686.55
147.514
146.201
146.612
146.201
146.202
241.021
703.778
1119.06
146.755
146.201
219.355
2135.78
146.939
146.202
152.246
240.897
240.798
188.431
146.303
1497.06
239.775
146.202
239.906
146.615
240.979
248.343
680.736
262.095
146.472
455.399
1700.94
1373.1
146.201
146.201
1297.92
146.202
146.202
146.931
146.201
163.044
249.368
146.202
146.202
146.202
146.202
251.755
146.835
898.76
147.071
147.774
146.202
2391.51
271.181
195.799
146.202
145.741
146.202
146.202
146.202
146.202
146.361
146.202
146.202
146.203
147.081
253.395
148.653
1758.32
146.224
146.202
151.63
146.202
146.202
146.203
146.202
146.201
146.202
250.755
596.952
151.061
1301.46
655.137
146.214
146.202
207.51
146.529
144.264
181.796
146.201
146.206
146.201
146.602
162.986
158.075
146.202
146.202
146.202
146.202
636.971
146.201
201.073
146.201
132.143
146.582
146.202
146.201
779.414
146.712
638.542
146.655
146.202
146.736
1580.85
146.201
147.939
146.493
146.226
208.406
146.202
201.876
146.743
296.938
211.846
352.915
146.658
195.108
146.202
3426.93
7053.48
146.212
3601.46
146.203
146.218
158.842
146.202
3650.88
146.222
146.205
146.203
146.202
161.101
146.204
146.202
147.268
146.203
146.201
146.202
146.187
146.202
16380.6
687.77
146.204
165.492
146.211
146.202
146.218
147.031
1952.07
146.211
146.206
150.226
146.971
1877.01
2165.98
146.203
554.494
146.202
146.202
146.202
118.085
146.203
1031.63
146.353
458.717
1339.2
1063.23
146.203
206.07
146.202
146.202
146.202
146.203
146.202
146.203
146.22
149.258
710.108
2189.37
146.218
7921.47
272.475
581.772
146.202
913.472
156.196
148.834
146.203
146.203
146.202
146.201
146.202
146.201
146.263
146.281
276.125
1427.43
211.198
146.665
306.5
757.234
2067.34
739.925
146.202
147.579
146.51
146.202
146.202
146.812
219.928
146.202
146.203
146.203
160.692
146.202
154.025
151.706
153.392
146.818
146.201
14700.8
165.442
146.202
146.411
146.202
146.203
3198.96
146.205
146.203
1236.7
166.17
146.202
146.203
146.202
146.201
146.202
146.512
146.203
146.21
146.573
281.465
903.626
299.883
145.784
146.202
146.202
146.202
146.202
146.52
877.049
146.202
146.201
4021.51
146.202
146.201
146.202
146.202
2374.56
970.152
17667.7
146.523
146.677
146.201
357.355
146.202
204.889
1578.5
146.201
150.798
146.201
146.202
3064.42
146.201
146.202
516.225
160.848
2387.25
1319.51
146.202
146.552
146.675
338.746
146.215
146.202
363.094
2380.84
547.873
703.009
146.203
146.202
146.431
157.147
229.211
146.92
146.449
1243.02
146.202
146.202
3010.7
2031.85
146.625
146.52
148.119
147.505
5004.29
146.201
147.003
146.202
2475.33
146.202
146.485
146.531
146.202
2024.9
146.202
160.636
1367.04
146.202
146.202
199.775
146.202
146.202
146.201
146.202
148.709
146.202
1782.71
1825.18
146.201
146.201
707.754
146.174
146.203
146.64
146.203
146.203
146.202
146.202
233.734
231.411
1646.06
146.202
146.202
1191.05
146.201
149.998
170.88
146.201
146.202
146.204
146.211
273.056
146.202
146.202
146.202
146.201
146.201
219.52
156.541
146.208
146.202
152.068
146.207
532.124
146.202
146.718
146.202
147.439
370.254
146.203
146.202
146.202
186.193
1569.34
146.202
146.812
146.205
146.201
146.211
146.22
146.202
156.446
146.202
1391.16
146.202
146.202
146.202
146.202
146.202
562.276
148.493
146.202
146.202
590.658
146.202
191.755
146.202
146.202
6125.03
3951.47
224.749
146.216
146.202
146.213
2879.21
146.202
4377.41
146.202
1350.58
188.994
146.202
176.285
1463.6
1848.71
19755.2
614.637
146.203
146.202
146.202
146.227
146.238
146.432
1742.94
146.202
146.216
146.202
146.248
1611.92
1098.99
146.202
207.107
206.61
146.202
836.944
146.202
146.202
146.202
2045.12
807.603
537.53
146.202
146.202
146.202
3436.27
146.203
3043.87
146.202
146.202
2168.25
148.202
146.202
146.202
4425.28
146.202
146.202
146.204
4411.16
541.779
146.547
146.202
2897.26
381.583
150.502
147.119
146.182
145.377
146.202
230.194
1144.31
198.384
224.747
127.411
153.045
4464.11
146.202
9994.48
1100.88
147.219
146.202
1263.55
22377.7
146.202
270.246
2898.63
146.202
214.612
146.202
3848.68
146.847
230.18
450.351
477.86
146.202
146.202
146.202
146.202
803.445
146.202
182.329
183.612
146.202
146.202
146.202
146.202
146.202
146.202
146.207
146.202
4016.44
146.202
1190.79
146.202
163.261
146.203
146.206
206.04
146.202
146.202
146.202
146.202
146.204
827.918
903.717
5338.53
168.117
146.205
146.203
146.202
156.353
146.214
146.202
146.202
162.075
147.347
924.034
146.2
146.204
146.209
917.144
146.215
146.201
154.013
146.205
146.227
910.675
269.626
146.165
146.202
146.204
815.053
147.584
146.202
146.209
169.846
146.188
193.307
146.141
146.206
146.414
146.203
146.208
146.202
146.206
956.62
146.202
150.073
146.205
146.406
146.202
146.202
146.446
147.071
1506.47
146.589
146.202
146.202
2469.29
57.9296
146.202
233.027
161.59
146.203
146.209
146.208
146.212
75.9714
146.203
184.025
235.358
146.203
161.13
146.204
146.201
146.203
146.202
146.202
146.201
146.202
146.202
146.201
173.877
146.208
146.201
146.411
146.201
146.209
146.491
146.202
146.201
147.354
147.118
146.202
146.188
146.201
146.202
537.336
146.198
146.202
146.207
159.408
146.202
146.202
146.202
146.203
146.203
146.216
146.215
459.912
942.548
403.528
146.217
148.09
146.188
146.208
605.737
146.144
146.203
146.798
146.122
434.758
146.203
146.117
146.204
221.755
146.565
232.208
146.569
146.209
233.873
146.528
146.203
146.237
146.202
146.204
248.795
146.236
146.545
237.31
146.714
146.205
146.656
233.925
146.202
146.201
152.914
146.206
146.203
146.202
146.203
239.259
146.205
146.21
146.215
146.201
146.201
146.209
146.203
188.708
146.201
146.204
146.202
146.202
218.869
146.201
148.963
146.202
146.202
146.202
146.201
208.146
146.201
146.201
146.202
146.216
146.203
146.202
287.935
146.203
146.207
182.552
146.202
146.841
146.203
146.201
146.202
146.202
146.201
146.201
146.43
146.209
146.208
146.202
146.202
146.201
146.208
902.861
146.201
146.202
343.644
146.201
146.202
146.411
146.201
146.211
146.971
146.202
146.201
146.757
794.225
2949.47
146.203
146.201
146.201
146.202
146.3
145.976
146.201
146.201
146.203
465.945
146.202
146.201
146.201
8021.06
158.47
146.211
7600.63
268.507
146.203
146.207
146.204
146.202
146.147
147.42
146.681
146.202
218.125
7437.97
146.202
146.202
7741.37
147.119
8424.79
146.202
146.206
146.202
145.884
2580.46
146.202
2418.75
146.203
146.203
2324.92
146.203
146.203
360.933
2307.33
146.202
146.21
2439.6
146.203
146.205
2252.47
146.575
146.204
146.202
146.573
2675.56
146.565
392.46
146.201
146.202
147.001
146.21
146.757
156.372
146.203
146.202
146.202
174.18
146.202
146.208
146.202
146.202
146.203
146.201
155.974
523.12
146.202
152.486
187.195
472.676
146.203
831.015
788.513
146.201
163.006
146.263
1228.26
146.202
188.958
146.202
146.202
146.203
146.202
2577.24
146.204
146.205
656.824
1615.35
146.203
146.203
146.204
146.202
146.202
146.204
146.224
146.203
146.224
146.202
381.865
706.6
146.205
149.975
183.58
181.772
146.203
146.205
1773.96
146.771
163.982
146.226
185.275
146.204
225.621
183.71
185.026
146.222
146.203
182.491
202.135
146.203
329.609
181.399
146.205
239.6
146.428
2286.37
471.66
146.202
1214.83
146.208
146.202
1801.67
146.202
1553.17
146.202
146.841
172.759
626.411
146.202
146.202
146.202
1023.26
146.206
146.719
146.202
1204.56
1422.92
1106.08
146.202
147.072
186.161
172.486
233.832
168.521
146.202
146.211
146.203
146.205
146.201
146.203
146.202
146.202
146.203
146.202
146.202
3837.19
146.202
146.204
146.203
548.087
148.658
146.157
215.599
146.202
146.203
146.207
146.203
146.202
146.203
146.202
146.202
146.209
146.203
6703.87
146.202
146.28
421.546
3486.26
146.202
710.566
146.615
146.202
146.203
534.812
146.202
146.202
146.202
146.203
146.202
146.206
146.202
146.203
146.202
146.202
151.213
288.668
146.202
148.523
146.202
1686.61
192.035
146.202
146.201
2363.48
146.203
169.54
146.202
561.604
157.856
146.201
146.202
3349.35
3953.43
146.202
165.497
146.202
146.201
159.857
1101.42
146.202
146.175
146.234
146.235
146.202
278.047
159.553
1085.51
2658.81
146.203
146.202
167.897
1748.92
146.202
146.202
146.202
146.202
146.202
146.202
146.202
2375.46
166.385
146.202
151.559
187.154
326.43
146.202
219.822
216.07
146.202
226.864
20522.2
146.201
2601.36
146.596
146.209
146.203
146.203
2195.86
223.615
146.19
146.194
146.206
146.202
146.194
177.061
150.06
662.248
146.203
146.202
146.212
184.593
146.199
146.204
146.202
239.073
222.591
146.201
146.522
146.201
146.244
209.264
886.505
145.696
1076.14
146.203
148.803
146.202
146.203
7821.5
146.201
146.202
146.202
146.201
146.214
146.203
146.202
146.205
146.203
146.035
146.249
146.202
968.053
183.453
146.202
689.836
146.202
146.202
146.202
2957.85
147.133
1912.2
146.202
146.202
146.201
146.203
146.289
146.208
151.771
146.202
146.202
148.588
2506.1
4261.68
146.316
146.202
156.985
164.366
155.9
150.589
150.016
146.214
1137.34
146.564
146.202
146.203
146.202
146.202
146.202
146.202
153.282
2909.07
147.991
146.746
148.447
146.202
146.216
146.216
604.618
146.373
153.407
146.465
221.139
798.389
146.201
155.539
148.179
146.203
146.202
2860.37
146.203
146.201
157.574
920.566
146.202
146.203
146.201
146.202
146.202
146.201
146.202
156.543
8550.25
146.202
146.202
146.205
147.653
149.263
146.202
146.201
146.202
150.633
146.202
146.205
264.318
146.201
146.207
146.202
146.202
3246.71
146.251
146.202
146.202
146.202
146.202
146.387
146.233
146.202
152.361
145.881
146.202
888.12
146.202
146.202
146.202
146.203
146.203
146.202
146.203
146.202
146.202
151.521
146.202
144.822
146.203
146.202
146.201
146.202
146.202
146.203
154.863
147.584
1013.74
145.478
272.086
157.522
147.567
147.632
144.772
163.286
214.336
146.202
146.203
146.202
146.202
146.201
146.202
300.795
147.602
146.201
2360.15
146.202
146.203
146.203
146.201
160.133
146.202
165.858
2913.3
202.264
146.202
146.201
146.202
192.744
146.202
146.204
287.657
146.203
268.792
146.202
146.202
180.574
227.288
268.093
246.265
273.2
277.861
181.413
6414.97
462.602
250.848
146.203
146.202
146.202
146.202
189.437
1112.96
977.826
234.818
945.026
1069.07
146.203
1642.56
1478.8
146.202
146.202
146.201
191.686
146.943
146.46
146.202
188.114
764.987
2097.46
3211.43
146.624
352.697
1822.79
146.202
146.229
2093.62
417.352
146.202
146.209
173.238
146.202
146.202
1899.92
146.202
146.202
149.969
146.203
2092.5
150.635
146.202
146.258
146.767
146.819
146.239
146.785
179.919
146.912
146.181
146.202
146.821
146.234
146.678
146.663
146.206
1003.72
146.232
188.964
2719.22
146.202
145.915
146.983
146.202
1529.59
146.202
146.202
146.202
146.992
146.195
151.564
146.201
146.202
1315.85
146.924
146.928
189.559
146.201
1418.93
1814.59
1484.38
146.201
605.09
890.193
146.831
2013.54
146.203
668.351
146.202
146.202
146.202
146.201
146.202
146.202
146.202
2000.6
146.202
162.972
146.201
146.201
146.202
146.202
146.202
897.34
268.821
146.202
146.201
3661.68
146.203
1497.54
146.208
146.201
1007.23
146.203
146.201
146.202
1396.57
146.203
146.201
146.208
146.731
146.231
146.201
198.845
146.202
146.201
146.202
146.201
146.202
146.237
146.203
146.64
146.201
146.404
146.201
146.564
146.201
146.206
146.208
2004.34
146.255
146.265
146.247
146.201
1054.94
146.195
146.202
146.202
146.201
146.202
4062.13
146.201
146.201
146.202
146.26
146.202
240.808
146.202
146.202
146.202
146.206
146.202
146.203
146.202
146.203
146.202
146.201
146.202
232.9
146.203
146.203
146.201
146.202
146.202
146.202
3703.9
146.205
146.203
146.202
146.202
428.461
146.202
146.296
214.308
146.212
340.317
146.203
146.202
146.202
146.203
1856.08
146.202
146.201
1855.04
146.202
146.201
146.202
146.201
146.202
146.29
157.791
146.203
146.201
146.202
2444.2
2563.19
2908.61
224.98
154.456
296.236
146.205
146.202
146.203
3007.85
146.202
146.202
146.202
146.21
148.726
146.202
146.202
146.202
464.665
149.695
893.072
146.456
146.201
146.755
421.635
146.201
146.997
146.201
146.202
146.201
146.206
146.203
146.207
146.201
111.348
1969.9
1343.31
2718.95
156.031
157.02
146.201
146.202
146.202
146.208
146.201
146.201
146.201
146.202
151.862
146.229
146.465
164.664
146.202
154.088
146.501
169.954
146.221
146.201
146.731
146.201
146.201
146.202
598.64
169.833
155.953
146.202
154.154
146.202
146.203
146.202
146.203
146.202
2456.2
146.509
146.202
146.202
146.611
255.458
146.202
149.269
146.201
146.202
926.335
146.201
146.204
146.201
146.499
146.201
146.202
146.202
146.201
155.312
146.201
9901.51
146.202
146.226
146.201
146.492
285.438
146.202
146.201
146.202
237.991
151.062
146.475
157.086
444.32
146.202
2940.57
146.749
146.201
146.202
723.358
146.498
146.201
149.075
147.967
146.204
146.788
146.202
155.081
146.203
146.202
146.202
146.202
152.91
146.202
22724.6
146.202
243.488
146.202
146.202
495.245
146.202
146.095
146.202
146.202
187.423
224.998
154.016
442.262
186.754
160.952
179.388
146.202
146.202
146.201
776.314
285.275
1672.55
246.66
146.207
650.223
202.793
3591.95
716.677
146.201
8368.88
4613.15
162.452
146.201
147.21
454.462
450.553
971.146
370.143
149.551
179.142
146.205
217.616
146.204
463.218
289.595
2865.43
204.472
146.202
146.207
146.489
406.039
146.856
197.418
146.202
146.201
213.599
146.203
146.202
146.202
146.201
405.126
146.201
44352.8
146.891
146.201
146.202
203.58
157.433
16621.9
553.821
178.567
155.583
146.201
146.202
1063.74
146.201
146.201
146.202
146.204
146.218
207.362
146.203
146.202
544.226
1260.85
146.202
146.202
216.565
146.205
146.253
1251.19
146.201
146.201
146.206
153.681
13720.3
653.219
146.202
146.207
146.202
294.581
196.063
146.636
1116.07
146.202
146.203
146.201
146.216
146.201
150.953
192.037
146.201
2277.89
146.202
146.202
146.681
146.202
215.079
146.205
862.504
156.263
146.202
146.202
168.626
149.021
146.202
146.223
1809.31
146.202
146.207
146.205
146.202
146.202
146.202
146.202
146.202
146.202
146.202
146.228
2911.28
146.202
747.724
6181.41
146.526
2928.62
146.201
561.069
146.202
146.202
2747.26
508.069
2378.9
3390.89
144.784
146.999
146.202
169.554
149.16
146.943
2194.9
248.687
146.203
7564.46
146.202
146.202
146.201
146.217
513.099
146.223
3262.94
146.201
146.203
146.202
465.104
1114.18
146.202
5198.97
1226.91
177.69
2943.4
3505.06
146.201
146.201
148.191
146.203
146.201
146.202
146.202
146.201
147.284
146.201
149.353
800.472
148.67
174.418
175.486
1673.02
146.202
146.201
146.201
146.825
146.202
146.202
146.202
147.235
146.407
988.162
931.572
147.406
146.529
169.078
146.103
938.53
146.202
146.202
267.72
638.804
267.697
146.205
146.202
145.515
210.448
146.202
772.579
515.749
1247.85
2183.79
146.202
146.202
147.882
150.669
146.203
2523.16
600.136
184.331
146.202
1578.91
209.76
148.547
146.203
146.202
215.694
146.282
146.202
146.202
1671.22
2344.92
2329.37
146.204
146.203
1185.91
878.134
146.203
146.202
146.202
5361.71
149.112
9542.22
2819.92
146.203
3421.81
2254.45
145.634
146.203
146.126
146.202
146.202
146.203
212.475
146.202
146.184
146.094
2877.31
146.202
146.202
146.202
146.202
786.29
653.665
146.202
3498.24
146.574
146.203
146.202
146.203
146.202
3462.64
402.065
146.203
146.203
678.264
146.202
146.202
146.202
146.202
146.203
3779.27
146.205
233.714
146.202
146.202
146.203
3809.4
146.202
146.203
571.106
146.202
146.55
146.202
146.202
2917.89
146.202
183.68
146.542
521.536
146.203
146.202
146.202
146.202
146.203
146.204
146.263
3504.94
558.384
146.202
146.202
146.203
146.202
146.202
146.202
146.202
146.202
146.203
146.202
146.203
146.202
146.246
6494.08
601.452
146.236
149.369
146.176
146.202
311.647
146.203
192.298
145.98
146.488
146.201
146.201
146.202
146.201
146.203
146.202
146.206
146.861
146.202
146.202
146.201
146.319
146.205
146.203
146.201
146.201
146.202
146.202
146.206
146.221
146.202
146.202
146.207
146.208
146.223
146.202
146.15
146.202
398.074
146.202
372.307
146.225
146.204
146.208
146.497
146.878
146.207
5479.44
117.281
146.203
8945.71
146.202
5965.85
146.201
2188.28
184.594
1587.09
363.07
146.202
146.201
146.202
235.973
2282.21
146.202
1405.12
153.558
2411.73
146.202
146.202
146.202
146.202
2520.01
146.202
146.204
146.202
146.202
146.202
146.202
5811.16
1033.73
160.632
146.202
146.202
205.222
146.201
146.202
188.852
2425.45
185.796
146.201
146.201
147.037
191.442
146.202
146.201
287.112
4848.24
999.099
146.201
7858.29
148.19
146.202
146.202
146.202
146.201
146.202
146.222
146.201
146.202
146.202
146.202
146.202
146.202
146.202
146.201
146.201
146.202
146.202
146.202
146.202
146.201
146.202
146.202
146.573
351.299
234.609
146.201
146.201
146.202
146.202
146.707
146.202
146.202
146.203
146.202
146.202
146.202
165.718
146.202
146.202
146.202
146.202
146.202
146.23
146.201
146.225
146.226
172.483
146.201
146.201
146.298
146.201
146.201
146.202
146.202
146.202
146.201
146.202
146.186
146.202
146.202
594.284
447.56
146.201
146.202
146.201
146.202
146.202
146.201
146.202
146.202
249.137
2992.6
146.202
3004.69
146.202
146.202
851.153
1576.61
146.202
993.76
260.712
146.202
146.202
146.201
146.203
146.202
1068.77
146.201
1399.88
146.202
146.202
146.201
2712.07
2729.22
2324.27
146.202
146.201
146.202
146.202
146.202
146.202
146.202
146.202
146.202
146.201
1754.12
146.201
146.202
146.202
146.202
146.201
146.202
146.202
866.531
146.254
1088.4
146.202
146.203
146.202
146.201
146.198
146.203
146.202
146.202
146.401
146.202
146.202
146.202
150.492
146.201
146.432
146.202
146.202
146.206
146.202
146.208
5183.01
146.226
144.672
146.202
146.211
146.222
146.202
146.201
146.201
146.202
146.209
146.203
146.207
146.218
146.674
601.822