/*--------------------------------*- C++ -*----------------------------------*\
| =========                 |                                                 |
| \\      /  F ield         | OpenFOAM: The Open Source CFD Toolbox           |
|  \\    /   O peration     | Version:  v2012                                 |
|   \\  /    A nd           | Website:  www.openfoam.com                      |
|    \\/     M anipulation  |                                                 |
\*---------------------------------------------------------------------------*/
FoamFile
{
    version     2.0;
    format      ascii;
    class       volScalarField;
    location    "4";
    object      ILambda_0_0;
}
// * * * * * * * * * * * * * * * * * * * * * * * * * * * * * * * * * * * * * //

dimensions      [1 0 -3 0 0 0 0];


internalField   nonuniform List<scalar> 
108993
(
146.202
146.202
146.202
146.201
146.201
146.202
146.198
146.202
146.201
146.203
146.202
146.202
146.201
146.203
146.202
146.203
146.205
146.203
146.201
146.202
146.202
146.201
146.203
146.202
146.201
146.202
146.201
146.203
146.202
146.201
146.201
146.203
146.201
146.202
146.201
146.202
146.201
146.202
284.298
874.75
146.205
146.202
146.203
146.201
146.476
2796.56
146.201
146.188
146.202
146.204
146.201
147.87
146.202
146.201
146.202
146.202
146.201
146.201
146.201
146.201
146.201
146.201
146.201
146.202
146.201
146.202
146.201
146.201
146.202
146.305
146.202
146.201
146.202
146.201
146.202
146.201
146.202
146.202
146.201
146.201
146.201
146.202
146.201
146.202
146.203
146.203
146.202
146.202
146.201
146.201
146.201
146.201
146.201
146.202
146.201
146.203
146.201
146.202
146.201
146.202
146.201
146.201
146.202
146.202
146.202
146.201
146.201
146.201
146.201
670.541
146.631
146.201
146.543
146.987
146.202
146.6
146.201
146.202
146.206
146.201
146.203
146.201
146.55
146.202
146.202
146.209
146.205
146.202
146.201
146.201
146.203
146.201
146.201
147.724
146.202
146.202
146.201
146.202
146.201
146.203
146.202
146.202
146.232
146.201
146.201
146.202
146.202
2420.92
146.202
147.317
147.374
146.202
146.203
147.328
146.202
146.216
146.202
146.201
146.201
227.589
147.365
146.201
146.201
146.202
146.203
146.626
146.202
146.202
146.202
146.202
146.201
146.202
148.236
146.202
146.202
146.202
146.227
146.202
146.202
146.202
146.203
146.201
146.201
146.202
146.202
146.202
146.201
146.202
146.202
146.202
146.202
146.201
146.202
146.208
146.202
146.202
146.205
146.202
146.202
146.202
146.202
146.214
146.202
146.201
145.916
146.631
146.202
644.839
146.202
147.478
195.283
146.202
146.218
289.023
9143.69
146.202
146.202
146.202
146.201
146.201
146.201
147.141
146.202
146.209
146.201
146.202
146.201
146.202
179.335
146.202
272.685
146.202
146.202
146.204
146.202
146.201
146.201
146.201
274.207
146.201
146.201
146.202
146.202
146.201
146.201
146.203
261.011
146.493
146.201
146.201
146.202
146.201
146.201
146.202
146.201
146.201
146.201
146.202
146.201
146.202
146.202
146.202
146.21
146.218
146.201
146.202
146.202
146.202
146.202
146.202
146.202
146.202
195.216
162.649
1310.87
146.202
146.201
146.566
146.202
146.202
146.202
1529.51
1744.14
146.202
146.201
146.205
146.201
146.202
146.202
1443.24
146.203
146.202
146.202
146.202
146.202
146.202
146.201
146.202
146.209
146.202
146.529
146.625
146.201
146.202
146.202
146.199
146.201
146.202
146.199
242.26
146.201
146.201
146.207
146.201
146.2
146.587
146.202
146.206
986.142
146.202
146.205
146.202
146.203
146.202
146.202
150.241
149.084
146.572
146.201
146.202
146.202
146.484
148.078
146.202
272.122
146.202
146.202
146.201
146.202
146.201
146.202
146.589
146.203
146.201
146.202
146.202
146.202
146.201
146.201
146.202
146.202
146.202
1621.76
548.839
146.201
146.201
146.202
1684.6
146.202
146.202
146.203
146.202
146.202
146.202
146.202
146.204
146.202
146.201
146.202
154.205
146.203
146.203
146.202
147.497
146.204
146.885
146.202
146.202
146.752
146.202
146.74
146.752
146.203
146.204
146.202
146.204
146.203
467.163
146.202
975.073
146.797
146.204
146.798
146.203
179.114
146.202
153.762
146.201
146.254
146.201
146.202
146.596
146.616
146.202
146.201
146.205
146.204
146.202
146.202
158.937
146.203
146.202
151.732
146.202
146.203
146.201
146.826
146.182
248.357
146.201
156.947
146.203
147.894
146.202
146.202
149.335
146.202
146.513
149.338
146.202
152.982
1028.33
153.095
146.201
146.202
146.203
146.201
146.202
146.202
146.202
146.202
146.202
146.202
146.201
278.464
146.205
146.208
147.513
146.202
146.201
146.203
146.202
146.202
146.202
146.202
146.202
146.202
146.201
146.202
146.202
146.56
146.202
146.561
146.954
146.206
146.202
146.202
146.551
146.202
146.202
146.205
146.201
146.201
146.204
146.201
146.249
146.202
167.06
214.03
146.21
146.201
146.201
146.201
146.202
146.203
146.202
146.202
146.202
147.215
146.202
146.202
146.202
146.284
146.202
146.252
146.201
146.203
146.202
146.202
146.202
146.201
146.201
146.202
146.202
146.418
146.864
146.202
146.202
240.956
146.202
146.203
146.208
146.201
146.203
146.202
146.201
146.202
146.202
146.202
146.204
146.203
146.202
146.208
146.206
146.202
146.241
146.198
146.202
146.227
146.204
146.202
146.201
146.227
146.203
146.202
146.202
146.325
146.203
146.203
314.765
146.201
1158.37
146.202
146.201
146.202
146.202
146.201
146.223
146.202
146.201
146.553
146.202
1076.14
146.201
146.202
146.201
146.201
146.208
152.489
146.202
146.202
146.202
146.202
146.209
239.324
147.08
146.202
146.202
146.206
146.205
146.202
146.202
4871.27
239.384
146.493
146.207
146.202
248.076
149.287
146.223
146.202
146.202
146.202
146.201
146.202
146.516
2395.3
264.75
146.203
146.202
146.206
146.202
146.202
146.202
159.538
146.201
146.201
146.202
146.202
146.213
146.202
146.202
99.482
146.211
146.203
146.202
170.261
146.202
146.204
146.202
159.749
146.202
147.086
146.202
146.21
146.202
146.203
146.202
195.357
146.201
146.975
146.201
146.202
1287.15
146.203
146.201
146.201
146.427
8081.4
146.203
146.572
146.202
146.504
150.011
146.203
146.202
146.202
164.297
146.25
147.293
146.203
147.224
146.202
146.204
146.202
146.203
146.203
147.496
146.435
146.203
146.203
146.26
324.004
1037.04
146.184
146.202
146.267
1002.95
162.632
1026.9
1011.42
146.202
146.203
146.202
146.202
146.204
146.163
146.211
203.551
334.817
146.214
146.192
146.664
1175.05
1046.47
146.201
146.206
146.207
146.202
1572.79
146.202
346.209
146.213
146.204
2453.01
146.205
211.845
146.206
146.207
147.352
146.201
146.202
147.055
146.203
146.203
3597.19
146.206
181.695
146.206
315.552
146.39
146.202
146.201
146.201
146.214
146.201
146.407
146.204
146.202
146.201
146.206
643.134
1229.18
146.201
174.56
146.202
147.115
146.213
146.202
147.134
146.202
146.203
146.216
146.203
146.202
146.203
146.203
146.663
146.485
146.202
147.301
146.203
146.203
146.203
146.203
146.202
194.372
146.202
146.202
146.199
146.202
146.203
1452.76
231.725
146.203
146.207
146.202
146.203
146.203
146.206
146.202
146.202
146.202
146.202
146.202
146.204
146.202
146.203
146.216
146.202
146.203
146.202
146.202
146.202
146.23
146.204
146.203
175.507
146.201
146.202
146.202
153.401
146.202
146.46
146.465
146.202
146.202
157.02
146.774
146.202
146.202
146.908
146.202
146.202
146.208
146.203
146.205
146.202
146.202
146.227
146.201
1348.16
146.202
146.202
2708.23
146.206
146.846
146.207
147.418
146.201
146.205
146.219
146.201
146.203
146.209
146.202
146.202
146.203
146.202
146.202
146.203
146.205
146.202
146.231
146.202
305.516
146.201
146.202
5717.43
146.201
1107.09
146.203
146.203
146.203
130.415
146.205
146.2
146.226
146.736
146.203
146.009
631.217
146.22
146.202
146.818
146.199
146.202
146.324
3375.13
146.202
146.202
146.202
146.278
146.202
146.199
146.266
146.202
146.203
33.5771
146.202
296.126
146.202
28.9041
146.202
146.207
146.21
146.207
146.168
146.202
146.211
146.214
149.685
146.207
5430.98
146.201
146.201
146.203
146.215
146.206
146.208
146.201
146.202
146.225
5327.02
146.202
146.209
146.592
156.039
146.204
146.186
1023.2
4420.53
146.206
147.28
146.204
147.405
146.201
145.371
2203.18
161.235
146.201
146.201
146.207
146.215
146.398
146.201
146.202
146.374
146.541
146.201
159.796
146.207
146.202
147.833
146.201
146.202
315.513
153.312
146.202
146.201
146.202
146.203
146.211
146.688
174.605
146.202
175.518
146.213
146.212
146.202
146.203
146.204
146.208
146.202
146.201
146.203
146.202
146.711
146.201
146.202
146.442
146.202
146.939
146.485
146.205
146.213
146.201
146.688
146.202
250.589
146.201
146.202
146.201
146.447
146.723
146.202
146.204
173.886
146.952
146.618
146.202
146.209
146.482
146.602
146.203
146.23
160.829
146.211
146.204
146.208
146.204
146.726
1682.39
146.816
146.229
146.211
146.205
146.215
146.212
146.209
146.222
146.686
146.203
146.201
146.201
146.224
146.201
146.202
146.201
146.224
146.202
146.202
146.202
146.201
146.202
146.202
146.202
147.264
146.202
146.203
146.203
146.201
779.921
146.202
146.202
146.202
146.202
146.202
461.249
150.681
146.202
146.202
146.201
146.806
146.846
146.305
146.203
146.202
146.509
146.203
146.201
146.387
210.226
146.202
146.202
146.202
146.202
146.204
146.208
146.203
146.202
146.202
146.202
146.943
146.202
146.208
146.201
146.202
146.205
152.846
146.202
146.206
146.202
146.202
146.205
146.217
146.202
146.201
146.201
151.121
146.203
146.2
146.202
146.217
146.203
146.201
1516.37
146.632
146.216
146.201
596.26
146.212
146.213
146.205
1651.38
146.202
146.202
146.202
147.586
146.207
2259.15
146.209
146.204
146.202
146.204
146.213
146.202
146.219
146.857
146.217
146.203
147.672
147.766
148.931
146.202
146.202
146.202
146.202
146.202
146.201
146.202
184.361
146.202
1305.41
146.203
146.202
146.202
147.347
147.134
146.202
146.203
146.202
146.205
146.202
146.204
147.446
146.263
146.202
146.503
146.202
146.202
146.202
146.201
146.201
146.204
4407.66
146.368
146.201
146.202
146.202
146.203
146.203
146.202
146.202
146.202
146.202
146.201
146.202
146.202
146.202
146.202
146.201
146.202
146.202
146.202
146.202
200.017
147.079
146.881
2188.3
146.202
146.202
146.203
146.201
146.203
146.202
146.203
146.202
146.202
147.442
146.203
146.205
146.202
146.202
146.202
146.202
150.893
148.483
146.202
146.201
146.202
146.206
146.204
146.202
149.522
146.202
146.201
146.201
146.201
146.202
146.174
146.209
146.202
154.084
146.209
146.205
146.204
146.813
146.203
146.207
146.202
146.202
147.431
146.202
147.931
146.205
146.206
146.205
149.195
146.197
146.201
146.227
146.201
146.475
146.227
146.204
146.202
146.202
146.203
146.202
146.202
146.201
146.792
343.53
146.223
146.202
146.201
146.223
146.201
146.201
146.201
146.201
146.201
293.364
146.23
262.575
146.202
146.43
146.202
146.14
146.526
146.203
146.201
146.242
146.203
215.329
146.266
145.932
149.124
146.202
146.202
146.204
146.201
146.202
1941.04
146.202
146.202
146.202
147.468
146.202
146.202
146.207
146.202
146.536
271.929
146.202
146.206
146.202
145.933
146.202
146.202
146.201
146.207
146.201
146.571
146.211
146.202
439.55
146.202
146.201
146.201
146.208
148.421
146.203
146.782
146.753
150.387
146.261
146.203
146.201
146.256
146.202
170.624
152.615
150.169
146.52
152.108
146.201
171.535
180.541
146.204
146.204
146.202
146.738
146.202
146.201
146.202
146.204
146.201
146.202
146.202
146.59
146.201
146.202
146.202
146.202
146.203
146.202
146.202
146.249
152.094
146.202
179.011
146.204
146.203
146.198
146.202
146.281
146.202
146.205
146.214
146.202
146.202
146.202
146.201
146.202
146.865
146.202
146.305
146.202
146.216
146.705
146.202
146.202
146.202
146.202
146.202
146.202
146.201
146.203
146.202
146.211
146.207
146.62
146.202
146.558
640.485
146.201
146.507
146.201
146.202
146.202
146.203
146.203
1088.09
147.296
165.201
146.207
187.525
146.42
146.201
146.202
146.201
146.202
146.202
146.206
146.988
146.201
146.201
146.205
146.203
146.202
146.203
146.203
6743.95
2139.51
146.203
146.201
146.635
146.201
146.206
146.205
146.203
146.225
146.202
146.206
146.202
146.203
211.316
146.217
146.203
146.468
146.888
146.205
146.389
149.498
146.205
146.202
146.202
146.274
146.277
146.201
146.202
147.296
146.455
633.067
146.202
146.202
368.657
146.203
146.202
725.335
146.203
146.201
146.203
146.203
726.05
146.202
146.202
154.032
146.203
3367.56
146.203
1273.97
146.203
146.22
1248.67
146.212
146.222
1716.81
146.204
146.205
147.564
146.202
146.202
146.202
885.687
147.199
146.202
146.513
146.201
155.532
408.342
146.627
146.214
516.966
146.201
4482.25
146.202
146.201
146.203
146.202
146.201
146.201
146.202
146.201
146.616
148.123
146.392
163.714
146.201
146.202
146.202
146.201
146.201
146.202
180.171
150.963
146.202
146.202
146.202
147.468
146.202
146.202
146.735
146.202
146.201
146.201
146.205
7170.01
146.057
484.285
149.749
146.202
146.205
147.744
146.201
146.201
146.202
196.664
1095.39
210.045
185.267
146.201
146.201
2448.71
146.201
146.205
146.202
146.201
146.203
146.201
146.203
146.201
146.205
159.798
146.275
146.205
146.475
146.526
146.201
148.321
146.202
146.202
146.201
146.202
146.201
146.202
146.206
146.201
146.211
596.83
146.545
146.436
146.202
146.202
1208.78
148.119
146.201
146.577
146.201
146.201
214.785
635.716
1029.79
146.618
146.201
158.868
1189.4
146.675
146.202
153.834
214.609
186.96
178.97
146.206
1203.97
183.43
146.203
181.312
146.58
207.23
145.892
166.452
145.909
146.203
280.159
847.09
1123.61
146.201
146.201
713.743
146.202
146.202
147.088
146.201
152.916
145.875
146.202
146.202
146.202
146.202
145.949
146.614
740.206
146.887
147.073
146.201
149.214
145.894
146.207
146.202
146.203
146.202
146.202
146.202
146.202
146.25
146.202
146.202
146.205
147.02
145.945
191.088
1600.32
146.368
146.201
156.148
146.202
146.202
146.202
146.202
146.201
146.202
272.877
148.032
146.505
166.412
514.27
146.175
146.202
347.425
146.505
146.203
149.612
146.201
146.207
146.201
146.574
146.204
190.09
146.202
146.201
146.201
146.201
151.09
146.201
346.79
146.201
150.54
146.544
146.202
146.201
709.258
146.607
463.124
146.532
146.202
146.995
509.236
146.201
146.204
146.502
146.285
363.45
146.202
363.957
147.405
335.308
349.666
280.566
146.607
362.734
146.202
6437.57
5877.56
146.219
797.344
146.203
146.224
160.606
146.203
926.801
146.373
146.209
146.203
146.202
179.314
146.205
146.202
146.203
146.203
146.201
146.202
146.21
146.202
4380.72
180.577
146.206
152.046
146.214
146.202
146.238
146.798
1441.52
146.22
146.207
148.793
148.638
2260.33
148.024
146.203
238.699
146.202
146.202
146.202
68.0562
146.203
260.834
146.462
146.921
149.742
678.504
146.203
275.154
146.202
146.201
146.202
146.203
146.202
146.203
146.239
147.75
323.399
3543.41
146.233
6543.87
146.209
455.038
146.203
223.56
150.499
206.294
146.206
146.203
146.202
146.201
146.202
146.201
146.924
146.76
146.207
203.986
254.027
146.688
185.688
592.64
5925.5
563.533
146.202
147.763
146.504
146.202
146.202
146.892
160.904
146.201
146.203
146.203
146.207
146.202
147.906
147.376
147.932
146.942
146.201
3095.53
146.788
146.201
146.423
146.202
146.204
274.496
146.208
146.204
1141.42
146.206
146.202
146.204
146.202
146.201
146.202
146.418
146.203
146.21
146.738
147.621
861.701
146.209
146.206
146.202
146.202
146.202
146.202
146.547
600.438
146.202
146.201
3990.99
146.202
146.201
146.202
146.202
150.192
1720.94
17972.8
146.607
146.807
146.201
342.183
146.202
215.064
856.009
146.201
148.648
146.201
146.202
1817.1
146.201
146.202
1519.29
154.465
2093.14
1788.24
146.202
146.429
146.64
192.133
146.203
147.59
501.498
2118.85
611.021
177.508
146.203
146.202
146.444
150.828
257.907
146.735
146.418
1506.56
146.202
146.201
1650.72
1265.28
146.481
146.671
147.546
147.207
2978.69
146.201
146.561
146.202
1653.3
146.202
146.52
146.65
146.202
1487.7
146.202
536.305
2107.47
146.202
146.202
184.531
146.202
146.202
146.201
146.202
147.871
146.202
2135.68
1787.06
146.201
146.201
609.879
146.203
146.203
146.61
146.203
146.203
146.202
146.202
272.848
270.6
529.812
146.202
146.201
1311.77
146.201
167.601
155.099
146.201
146.202
146.204
146.21
226.315
146.202
146.202
146.202
146.201
146.201
175.653
149.844
146.208
146.203
149.884
146.205
147.364
146.202
146.554
146.202
146.777
210.698
146.203
146.202
146.202
147.324
1480.98
146.202
146.73
146.209
146.201
146.215
146.223
146.202
146.207
146.202
497.868
146.202
146.202
146.202
146.202
146.202
468.344
296.214
146.202
146.202
390.179
146.202
180.98
146.202
146.202
15344.3
2248.18
173.283
146.203
146.202
146.221
1898.36
146.202
3129.67
146.202
334.684
188.224
146.202
157.155
1224.69
710.919
15350.6
450.027
146.203
146.202
146.202
146.295
146.243
148.385
1358.52
146.202
146.278
146.202
146.275
1347.19
1127.91
146.202
147.341
215.734
146.202
635.894
146.202
146.201
146.202
2559.78
552.399
546.945
146.202
146.202
146.202
1267.98
146.203
1199.3
146.202
146.202
945.484
149.691
146.202
146.202
4420.49
146.202
146.202
146.203
4149.65
147.595
146.53
146.202
5123.14
201.066
155.432
147.539
146.206
136.242
146.202
227.808
546.704
155.765
141.726
140.072
147.047
628.814
146.202
12923.3
867.281
147.784
146.202
224.578
20853.8
146.202
343.228
285.237
146.201
157.226
146.202
1784.95
146.544
149.123
334.748
311.009
146.201
146.202
146.202
146.202
749.148
146.202
180.657
343.892
146.202
146.202
146.202
146.202
146.202
146.201
146.205
146.202
3781.17
146.202
640.879
146.202
146.238
146.203
146.207
161.249
146.202
146.202
146.202
146.202
146.205
317.521
436.044
700.974
146.212
146.208
146.204
146.202
146.204
146.228
146.207
146.202
147.388
146.854
572.548
146.204
146.209
146.206
146.52
146.266
146.201
146.11
146.207
146.509
560.466
146.138
149.347
146.203
146.205
148.916
148.773
146.202
146.215
146.222
146.203
146.275
146.205
146.204
146.4
146.203
146.205
146.202
146.21
150.948
146.202
157.7
146.205
146.399
146.202
146.201
146.414
179.334
149.387
146.202
146.202
146.202
984.795
28.9113
146.202
239.418
28.9377
146.203
146.209
146.49
146.143
28.9586
146.205
146.204
145.889
146.203
29.0946
146.204
146.201
146.203
146.203
146.202
146.201
146.202
146.202
146.201
156.78
146.204
146.201
146.462
146.201
146.213
146.45
146.202
146.201
147.065
146.792
146.202
146.218
146.201
146.202
146.017
146.202
146.202
146.541
146.198
146.202
146.202
146.202
146.203
146.202
146.418
146.281
203.253
147.712
296.188
146.404
158.781
146.216
146.206
337.706
146.214
146.202
146.745
146.211
220.281
146.203
146.21
146.203
191.711
146.474
150.789
146.477
146.207
151.416
146.429
146.203
146.264
146.202
146.206
148.593
146.387
146.423
147.725
146.686
146.21
146.559
150.746
146.202
146.201
161.626
146.207
146.203
146.202
146.203
147.795
146.204
146.212
146.239
146.201
146.201
146.207
146.203
190.273
146.202
146.209
146.202
146.202
146.047
146.202
146.283
146.202
146.203
146.202
146.202
146.202
146.202
146.202
146.202
146.223
146.203
146.202
149.006
146.203
146.21
164.985
146.202
146.199
146.204
146.201
146.202
146.202
146.201
146.201
146.529
146.211
146.217
146.202
146.202
146.201
146.229
159.661
146.201
146.201
197.837
146.201
146.201
146.536
146.201
146.18
216.324
146.202
146.201
153.638
431.929
1132.8
146.202
146.201
146.201
146.202
146.283
146.203
146.201
146.202
146.202
341.109
146.202
146.202
146.202
3610.33
256.035
146.215
3454.29
175.765
146.202
146.205
146.206
146.202
146.203
147.265
146.243
146.202
191.917
3751.24
146.202
146.202
4644.46
146.673
4399.88
146.202
146.206
146.202
146.206
1470.88
146.202
1460.57
146.206
146.202
1499.41
146.203
146.203
146.221
1486.88
146.203
146.211
1485.76
146.203
146.206
1452.89
146.568
146.204
146.202
146.558
149.001
146.56
272.469
146.201
146.202
146.61
146.209
146.556
175.707
146.203
146.202
146.202
192.966
146.202
146.208
146.206
146.201
146.206
146.201
165.341
416.33
146.202
153.635
186.504
353.843
146.203
146.291
258.6
146.201
168.33
146.396
146.811
146.202
185.064
146.202
146.202
146.202
146.202
302.098
146.206
146.207
520.858
168.184
146.203
146.203
146.206
146.202
146.202
146.203
147.015
146.203
146.239
146.202
146.99
545.215
146.205
146.204
161.773
342.164
146.203
146.209
149.018
146.739
162.521
146.549
194.33
146.206
148.231
181.993
197.979
146.442
146.203
195.088
284.989
146.202
146.219
193.425
146.205
146.209
146.573
1201.25
146.254
146.202
1280.2
146.209
146.202
280.146
146.202
1420.55
146.201
147.839
167.72
229.066
146.202
146.202
146.202
1138.28
146.207
147.5
146.202
1192.23
1403.31
146.499
146.202
147.108
207.941
224.229
193.036
451.403
146.203
146.211
146.202
146.205
146.201
146.203
146.202
146.202
146.203
146.202
146.202
4099.82
146.202
146.206
146.202
146.429
146.8
146.203
278.008
146.202
146.203
146.216
146.203
146.202
146.203
146.202
146.202
146.209
146.203
2798.08
146.202
146.244
156.727
2190.1
146.202
146.089
146.532
146.202
146.203
318.746
146.202
146.203
146.202
146.202
146.202
146.215
146.202
146.203
146.202
146.201
147.047
168.47
146.202
157.481
146.202
146.709
146.83
146.201
146.201
965.973
146.202
146.173
146.201
146.098
146.192
146.201
146.202
2819.96
2027.16
146.202
251.314
146.201
146.201
146.183
146.011
146.201
146.21
146.244
146.205
146.201
151.986
146.184
349.601
2088.02
146.203
146.202
146.174
1074.4
146.201
146.202
146.202
146.202
146.202
146.201
146.201
170.333
146.174
146.202
146.156
162.985
204.607
146.202
289.463
381.653
146.201
328.279
24433.3
146.201
175.501
146.705
146.21
146.203
146.203
148.644
326.324
146.206
146.206
146.205
146.202
146.209
146.514
229.836
146.958
146.203
146.202
146.209
160.697
146.207
146.209
146.202
180.546
174.467
146.201
146.195
146.201
146.201
227.405
670.832
146.203
145.978
146.207
287.052
146.202
146.203
9982.22
146.201
146.201
146.202
146.201
146.219
146.203
146.202
146.206
146.203
146.204
146.202
146.202
553.528
173.821
146.202
145.972
146.202
146.202
146.201
1012.29
147.036
2079.15
146.202
146.202
146.201
146.202
152.729
146.212
152.445
146.202
146.202
146.191
1233.95
1954.55
157.302
146.202
168.131
169.008
358.903
157.491
147.769
146.199
837.69
146.495
146.202
146.202
146.202
146.202
146.202
146.202
150.803
1760.42
147.362
146.609
146.955
146.202
146.172
146.206
147.975
151.267
150.303
155.681
176.31
203.213
146.201
189.281
147.653
146.203
146.202
1961.39
146.203
146.201
150.306
764.379
146.202
146.203
146.201
146.202
146.202
146.201
146.202
165.711
9404.84
146.202
146.202
146.207
147.625
313.205
146.202
146.201
146.202
148.03
146.202
146.203
146.243
146.201
146.203
146.202
146.202
2480.06
149.954
146.202
146.202
146.202
146.202
146.2
149.516
146.202
146.186
146.204
146.202
146.216
146.202
146.202
146.202
146.203
146.203
146.202
146.203
146.202
146.202
153.435
146.202
160.813
146.203
146.201
146.201
146.202
146.202
146.203
366.442
148.816
858.12
175.74
146.149
180.514
231.026
148.886
160.855
320.9
187.832
146.202
146.203
146.201
146.202
146.201
146.202
146.21
148.981
146.201
1197.97
146.202
146.203
146.203
146.201
146.202
146.202
146.111
2423.71
189.758
146.202
146.201
146.202
171.353
146.202
146.204
248.869
146.203
232.677
146.202
146.202
146.175
203.919
209.523
206.206
231.83
183.958
219.755
2199.15
494.24
226.196
146.203
146.202
146.202
146.202
287.555
445.491
197.492
211.197
433.567
594.23
146.202
775.806
154.507
146.202
146.201
146.201
150.047
146.577
146.45
146.201
150.13
566.227
147.844
2350.62
146.51
151.945
842.384
146.202
151.724
976.645
160.641
146.202
146.203
146.713
146.202
146.202
838.023
146.202
146.202
148.438
146.202
947.469
147.393
146.202
146.212
146.559
146.562
148.523
146.565
146.705
146.561
146.203
146.202
146.551
146.237
146.535
146.527
146.209
146.554
146.596
356.906
2613.2
146.201
146.206
146.819
146.202
1819.27
146.202
146.202
146.201
146.815
146.203
153.234
146.201
146.202
146.441
146.667
146.662
205.404
146.201
149.503
2036.62
1196.29
146.201
736.042
323.906
146.687
2454.73
146.202
742.471
146.202
146.202
146.202
146.201
146.202
146.203
146.202
2515.43
146.202
146.175
146.201
146.201
146.202
146.202
146.202
184.545
207.678
146.202
146.201
3028.14
146.203
1858.34
146.211
146.201
939.23
146.202
146.201
146.202
1692.31
146.204
146.201
146.195
146.199
146.203
146.201
145.995
146.202
146.201
146.201
146.201
146.202
146.203
146.203
146.657
146.201
146.195
146.201
146.509
146.201
146.208
146.207
147.874
146.203
146.203
146.202
146.201
146.385
146.203
146.201
146.202
146.201
146.201
4041.44
146.201
146.201
146.202
146.203
146.202
229.801
146.202
146.202
146.202
146.207
146.202
146.203
146.202
146.202
146.202
146.201
146.202
166.941
146.202
146.203
146.201
146.202
146.202
146.202
2147.78
146.205
146.203
146.202
146.202
148.477
146.202
146.256
286.211
146.206
146.303
146.202
146.202
146.201
146.202
2524.95
146.202
146.201
2556.77
146.202
146.201
146.202
146.201
146.202
146.203
154.876
146.202
146.201
146.202
2816.38
2425.51
3061.1
146.173
147.097
179.776
146.207
146.202
146.202
3024.95
146.202
146.202
146.202
146.208
147.97
146.202
146.202
146.202
146.188
146.193
152.164
146.509
146.201
146.795
713.919
146.201
147.742
146.201
146.202
146.201
146.206
146.203
146.205
146.201
151.114
205.61
184.894
178.276
151.58
146.168
146.201
146.202
146.201
146.219
146.201
146.201
146.201
146.202
148.472
146.198
167.243
250.59
146.202
150.984
146.501
154.849
146.205
146.201
146.693
146.201
146.201
146.202
593.838
160.896
151.439
146.202
150.535
146.202
146.203
146.202
146.203
146.202
1802.39
146.547
146.202
146.202
267.079
146.67
146.202
149.756
146.201
146.202
264.285
146.201
146.203
146.201
146.514
146.202
146.202
146.202
146.201
146.189
146.201
16253.6
146.202
146.228
146.202
146.2
388.682
146.202
146.201
146.202
185.476
146.203
146.63
152.486
349.254
146.201
2931.88
146.513
146.201
146.202
510.055
146.484
146.201
149.918
147.186
146.206
146.194
146.202
154.911
146.203
146.202
146.202
146.202
146.647
146.202
18558
146.202
146.932
146.202
146.202
150.753
146.202
146.203
146.202
146.202
145.926
173.302
148.075
255.324
188.608
163.823
164.605
146.203
146.202
146.202
1052.32
255.276
1324.59
242.924
146.205
539.333
194.201
1786.85
561.705
146.201
4479.63
2160.19
148.371
146.201
146.72
241.452
242.009
609.977
314.858
146.938
167.17
146.209
179.203
146.203
234.786
146.145
2293.55
181.438
146.202
146.209
146.479
240.312
146.198
440.485
146.202
146.201
183.488
146.203
146.202
146.204
146.201
145.987
146.201
48060.2
204.979
146.201
146.202
183.915
146.189
14934.7
516.779
162.782
146.181
146.202
146.202
1146.54
146.201
146.201
146.203
146.204
146.207
188.128
146.202
146.202
402.421
681.899
146.202
146.202
167.502
146.207
146.206
705.351
146.201
146.201
146.206
152.461
8949.43
575.677
146.202
146.205
146.201
330.969
156.867
146.506
850.964
146.202
146.204
146.201
146.215
146.201
147.421
206.622
146.201
1613.65
146.202
146.202
146.505
146.202
146.249
146.205
1106.14
163.785
146.202
146.202
147.199
147.424
146.202
146.226
6624.79
146.202
146.205
146.205
146.201
146.202
146.202
146.202
146.202
146.203
146.202
146.207
770.584
146.202
719.219
9270.22
146.652
839.88
146.202
148.979
146.202
146.202
613.405
454.455
1634.46
846.584
145.119
147.403
146.202
146.332
148.651
147.14
154.37
147.317
146.204
525.41
146.202
146.202
146.201
146.673
146.726
146.205
2124.29
146.201
146.203
146.202
302.129
842.233
146.202
282.34
149.17
329.662
151.492
380.186
146.201
146.201
148.669
146.204
146.201
146.202
146.201
146.201
146.188
146.201
147.684
717.436
150.231
146.863
146.473
146.533
146.202
146.201
146.201
148.076
146.202
146.202
146.202
149.099
146.206
676.411
148.397
146.896
146.509
167.773
146.205
148.256
146.201
146.202
146.292
157.872
149.854
146.21
146.202
146.203
155.994
146.202
338.551
180.423
387.524
148.074
146.202
146.202
148.695
325.551
146.203
148.403
146.962
146.388
146.202
148.039
146.206
149.384
146.203
146.202
226.704
146.286
146.202
146.202
146.621
1587.81
147.48
146.209
146.203
146.755
149.849
146.203
146.201
146.202
3985.16
149.775
8975.15
150.024
146.203
2079.32
1387.02
146.204
146.203
146.208
146.202
146.202
146.203
187.166
146.202
146.206
146.203
1596.04
146.202
146.202
146.202
146.202
791.402
502.992
146.202
2150.1
146.197
146.203
146.202
146.203
146.202
2129.12
158.64
146.203
146.203
147.369
146.202
146.202
146.202
146.202
146.204
148.481
146.205
146.559
146.202
146.202
146.203
148.347
146.202
146.203
443.371
146.202
146.195
146.202
146.202
894.19
146.202
206.506
146.201
147.885
146.203
146.202
146.202
146.202
146.203
146.204
146.204
147.846
603.732
146.202
146.202
146.205
146.202
146.202
146.202
146.202
146.202
146.202
146.203
146.202
146.202
146.51
4191.58
415.92
146.222
149.815
146.203
146.202
264.554
146.202
166.257
146.205
146.548
146.201
146.201
146.203
146.201
146.202
146.201
146.205
147.305
146.202
146.202
146.201
146.204
146.209
146.206
146.201
146.201
146.202
146.578
146.203
146.458
146.203
146.202
146.195
146.194
146.486
146.203
146.207
146.201
146.183
146.202
145.868
146.22
146.203
146.19
146.497
147.627
146.199
281.81
151.944
146.203
5035.8
146.202
190.216
146.201
150.788
146.387
151.453
271.929
146.202
146.201
146.202
259.438
1003.75
146.202
150.28
146.145
1668.07
146.202
146.202
146.202
146.203
148.463
146.202
146.202
146.204
146.202
146.202
146.202
474.875
593.67
146.416
146.202
146.202
150.007
146.201
146.202
225.793
1609.57
233.401
146.201
146.201
146.781
236.244
146.201
146.201
265.447
154.703
1072.17
146.201
186.478
146.215
146.202
146.202
146.201
146.201
146.201
146.203
146.201
146.202
146.202
146.201
146.202
146.202
146.202
146.201
146.201
146.202
146.202
146.201
146.201
146.201
146.202
146.202
146.594
150.459
148.364
146.201
146.201
146.202
146.202
146.603
146.202
146.201
146.203
146.202
146.202
146.202
146.116
146.202
146.201
146.202
146.202
146.201
146.497
146.201
146.378
146.401
147.395
146.201
146.201
147.588
146.201
146.201
146.201
146.202
146.202
146.201
146.202
146.204
146.202
146.203
429.619
323.703
146.201
146.203
146.201
146.202
146.202
146.201
146.201
146.201
427.245
270.432
146.202
270.949
146.202
146.202
114.773
116.983
146.202
146.239
204.257
146.202
146.202
146.201
146.203
146.202
137.619
146.201
162.19
146.201
146.202
146.201
148.387
148.814
147.803
146.202
146.201
146.202
146.202
146.202
146.202
146.202
146.202
146.202
146.201
148.543
146.201
146.202
146.203
146.201
146.201
146.202
146.202
146.475
155.603
145.99
146.202
146.203
146.202
146.201
146.204
146.202
146.201
146.202
169.362
146.202
146.202
146.202
146.685
146.201
146.45
146.203
146.202
146.208
146.202
146.209
3325.08
146.23
146.203
146.202
146.212
146.226
146.203
146.201
146.201
146.202
146.212
146.202
146.205
146.222
147.102
412.38
148.124