/*--------------------------------*- C++ -*----------------------------------*\
| =========                 |                                                 |
| \\      /  F ield         | OpenFOAM: The Open Source CFD Toolbox           |
|  \\    /   O peration     | Version:  v2012                                 |
|   \\  /    A nd           | Website:  www.openfoam.com                      |
|    \\/     M anipulation  |                                                 |
\*---------------------------------------------------------------------------*/
FoamFile
{
    version     2.0;
    format      ascii;
    class       volScalarField;
    location    "4";
    object      ILambda_6_0;
}
// * * * * * * * * * * * * * * * * * * * * * * * * * * * * * * * * * * * * * //

dimensions      [1 0 -3 0 0 0 0];


internalField   nonuniform List<scalar> 
108993
(
146.202
146.204
146.202
146.201
146.201
146.202
146.207
146.202
146.201
153.556
146.202
146.202
146.201
146.202
146.202
146.239
169.821
146.194
146.201
146.206
146.202
146.201
146.203
146.202
146.201
146.202
146.201
146.208
146.204
146.202
146.201
146.199
146.201
146.204
146.201
146.201
146.201
146.201
358.354
1944.12
146.203
146.202
146.201
146.201
146.891
3485.41
146.201
146.204
146.202
146.203
146.201
146.3
146.204
146.201
146.194
146.202
146.201
146.202
146.201
146.202
146.202
146.201
146.202
146.201
146.201
146.201
146.201
146.201
146.192
176.249
146.202
146.201
146.201
146.201
146.202
146.201
146.201
148.228
146.201
146.201
146.202
146.168
146.201
146.202
146.196
146.202
146.202
146.202
146.202
146.201
146.201
146.201
146.202
146.202
146.202
146.204
146.201
146.202
146.201
146.201
146.201
146.201
146.202
146.201
146.201
146.202
146.202
146.201
146.201
1519.56
146.633
146.201
146.25
146.248
146.202
146.763
146.201
146.202
146.662
146.201
146.155
146.201
146.629
146.202
146.201
146.337
146.203
146.202
146.201
146.201
146.203
146.201
146.201
146.773
146.202
146.202
146.201
146.201
146.202
146.2
146.202
146.202
146.401
146.201
146.201
146.201
146.202
2206.49
146.202
147.027
147.052
146.202
146.205
147.102
146.201
146.204
146.202
146.201
146.201
146.329
147.099
146.201
146.201
146.202
146.202
146.24
146.202
146.202
146.201
146.202
146.201
146.202
146.299
146.202
146.205
146.201
146.21
146.202
146.202
146.201
148.943
146.201
146.201
146.202
146.199
146.202
146.201
146.2
146.2
146.202
146.202
146.201
146.202
146.21
146.201
146.202
146.203
146.202
146.201
146.202
146.202
146.208
146.202
146.201
146.207
146.501
146.202
587.649
146.202
132.161
146.254
146.201
146.21
324.659
24910.4
146.201
146.202
146.202
146.201
146.201
146.201
147.016
146.203
146.208
146.201
146.202
146.201
146.202
146.66
146.202
315.873
146.202
146.202
146.203
146.201
146.201
146.201
146.201
160.987
146.201
146.202
146.202
146.202
146.201
146.201
146.216
383.551
146.496
146.201
146.201
146.202
146.201
146.201
146.202
146.201
146.201
146.201
146.202
146.201
146.202
146.202
146.202
147.163
146.371
146.201
146.201
146.202
146.202
146.202
146.201
146.202
146.202
515.361
813.12
1831.89
146.202
146.201
148.12
146.202
146.201
146.201
7385.5
7697.95
146.202
146.201
146.229
146.201
146.202
146.202
1806.58
146.17
146.202
146.202
146.202
146.202
146.202
146.201
146.202
192.236
146.202
146.451
146.847
146.202
146.202
146.201
146.203
146.201
146.202
146.203
486.671
146.202
146.202
146.967
146.202
146.203
146.741
146.201
146.86
744.244
146.202
146.208
146.201
146.203
146.203
146.202
150.805
147.293
146.575
146.201
146.202
146.201
146.562
148.847
146.202
494.2
146.202
146.202
146.201
146.202
146.201
146.201
146.563
146.207
146.202
146.202
146.201
146.202
146.202
146.201
146.202
146.202
146.202
6707.89
333.33
146.201
146.202
146.202
1977.5
146.202
146.202
146.207
146.207
146.202
146.202
146.202
146.208
146.202
146.201
146.202
925.515
146.208
146.216
146.202
147.717
146.207
147.09
146.201
146.202
146.584
146.202
146.6
146.61
146.208
146.326
146.201
146.207
146.496
548.664
146.201
889.952
146.62
146.21
146.677
146.238
242.536
146.204
217.31
146.201
146.588
146.201
146.205
149.215
150.126
146.202
146.201
146.21
146.207
146.202
146.202
189.407
146.191
146.202
146.265
146.202
146.202
146.201
147.049
179.222
147.431
146.202
205.97
146.206
145.104
146.202
146.202
147.113
146.201
146.664
147.233
146.202
217.764
814.668
237.743
146.201
146.202
153.304
146.201
146.201
146.202
146.202
146.2
146.202
146.202
146.202
170.736
146.209
146.209
146.3
146.202
146.202
146.203
146.202
146.202
146.208
146.202
146.202
146.2
146.202
146.202
146.201
146.577
146.202
146.608
146.842
183.84
146.202
146.202
146.606
146.202
146.202
179.423
146.201
146.201
146.208
146.201
146.346
146.202
146.238
162.065
147.666
146.201
146.201
146.201
146.202
146.203
146.202
146.202
146.202
146.293
146.203
146.2
146.202
146.367
146.202
147.129
146.202
146.203
146.202
146.202
146.203
146.201
146.202
146.202
146.202
146.476
146.818
146.202
146.202
700.864
146.202
146.339
146.208
146.202
146.233
146.202
146.201
146.202
146.202
146.203
146.203
146.202
146.202
146.209
146.203
146.201
147.468
146.209
146.202
147.666
146.203
146.21
146.202
147.289
146.214
146.201
146.202
146.218
146.202
153.666
478.755
146.202
1469.69
146.202
146.202
146.202
146.202
146.202
147.253
146.202
146.201
146.443
146.208
7168.55
146.202
146.2
146.202
146.201
146.205
149.359
146.202
146.206
146.202
146.202
146.206
216.982
153.106
146.202
146.202
146.205
146.203
146.202
146.202
5561.26
209.511
146.683
146.203
146.202
231.376
147.295
146.21
146.207
146.202
146.202
146.201
146.202
146.58
3164.99
208.577
146.202
146.202
146.204
146.202
146.204
146.202
810.392
146.201
146.201
146.202
146.203
155.793
146.202
146.202
1971.82
146.722
146.2
146.202
900.768
146.202
146.657
146.202
148.84
146.202
148.13
146.202
146.206
146.202
146.234
146.202
449.118
146.201
146.274
146.201
146.202
2935.34
146.206
146.201
146.202
146.448
13453.9
146.382
146.709
146.201
146.516
149.426
146.275
146.202
146.202
203.27
146.86
146.285
146.43
146.287
146.202
146.209
146.202
146.304
146.205
146.265
146.612
146.378
146.362
147.138
515.563
808.522
188.199
146.204
146.957
829.394
209.457
1141.7
589.812
146.202
146.551
146.202
146.202
146.203
146.208
146.263
172.337
284.798
146.865
146.204
146.259
831.808
1011.16
146.201
146.207
176.734
146.202
1111.31
146.206
171.169
236.281
146.342
1879.11
146.627
184.149
176.431
176.819
147.665
146.201
146.202
146.277
150.349
146.203
154.763
173.967
551.024
179.334
437.47
146.297
146.202
146.201
146.201
146.931
146.202
146.723
146.203
146.202
146.201
146.203
1214.33
996.37
146.202
485.928
146.202
146.272
182.972
146.202
146.273
146.203
146.229
146.214
146.278
146.181
146.538
146.206
146.598
146.507
146.201
146.293
146.224
146.283
146.397
146.203
146.202
152.759
146.202
146.202
146.205
146.202
146.345
1778.88
614.657
146.214
146.204
146.219
146.346
146.252
166.406
146.202
146.201
146.201
146.206
146.202
146.208
146.201
146.203
146.913
146.202
146.206
146.201
146.206
146.202
147.096
146.204
146.205
362.292
146.201
146.202
146.203
146.209
146.201
146.519
146.514
146.186
146.203
1132.55
148.71
147.092
146.202
147.744
146.203
146.203
146.204
146.203
146.209
146.202
146.201
146.309
146.201
1020.6
146.202
146.202
3641.36
146.561
149.909
146.203
146.88
146.202
146.208
146.401
146.201
146.203
146.285
146.202
146.202
146.192
146.202
146.202
146.202
146.203
146.201
147.457
146.202
148.32
146.203
146.202
602.73
146.203
166.462
148.996
146.199
146.323
163.344
146.207
146.203
146.252
146.22
146.206
146.204
679.459
147.01
146.202
146.359
146.203
146.203
148.558
4173.15
146.203
146.202
146.204
146.213
146.203
146.203
145.918
146.203
146.202
1992.14
146.202
5215.88
146.203
1396.54
146.203
146.208
146.216
147.736
146.218
146.202
146.226
146.226
190.305
146.203
2808.56
146.201
146.201
146.203
148.088
146.441
147.309
146.201
146.202
146.613
2505.6
146.202
146.529
146.818
157.547
146.204
146.229
1075.05
2756.32
146.203
147.012
146.203
148.926
146.202
148.829
1861.58
156.718
146.201
146.201
146.226
147.198
146.289
146.201
146.201
146.736
146.465
146.202
146.983
146.208
146.202
148.676
146.201
146.202
144.292
156.692
146.202
146.207
146.202
146.198
147.309
146.227
150.005
146.202
149.403
150.274
147.23
146.205
146.202
146.787
146.21
146.207
146.201
146.327
146.201
146.245
146.202
146.202
146.403
146.202
146.31
146.54
146.661
147.178
146.202
146.598
146.202
443.147
146.203
146.201
146.201
146.344
146.252
146.202
163.206
150.28
146.266
146.57
146.202
147.019
146.522
146.631
146.195
146.963
301.053
147.094
163.178
147.109
146.208
146.506
3120.98
146.27
146.535
146.935
184.319
146.808
146.205
146.204
146.97
146.713
160.886
146.201
146.205
147.577
146.201
146.202
146.201
147.706
146.202
146.202
146.202
146.205
146.202
146.202
146.203
146.84
146.202
146.203
153.594
146.201
1819.39
146.202
146.202
146.207
146.202
146.205
1088.12
151.721
146.202
146.202
146.202
146.682
146.31
146.235
146.203
146.202
146.553
146.202
146.21
146.962
149.809
146.202
146.202
146.202
146.202
146.204
146.203
146.203
146.202
146.202
146.202
148.961
146.202
146.203
146.201
146.202
146.203
146.306
146.205
146.203
146.202
146.202
146.203
146.208
146.202
146.201
146.202
157.658
146.203
146.207
146.202
148.233
146.204
146.201
7197.49
146.64
146.51
146.205
1491.64
146.997
147.365
146.206
6162.86
146.202
146.202
146.202
146.286
147.505
3729.15
149.485
146.203
146.208
146.203
159.487
146.202
147.547
146.259
146.311
149.919
147.632
146.318
146.304
146.202
146.202
146.202
146.202
146.202
146.201
146.211
146.696
146.202
1896.42
146.553
146.202
146.202
146.299
146.613
146.202
146.515
146.202
146.521
146.202
146.572
148.287
146.51
146.202
146.522
146.202
146.202
146.202
146.201
146.201
146.203
8688.95
146.625
146.201
146.202
146.202
146.204
146.203
146.202
146.203
146.202
146.202
146.201
146.202
146.202
146.202
146.202
146.201
146.202
146.202
146.203
146.202
165.858
146.416
146.307
1511.08
146.202
146.201
146.211
146.202
146.529
146.202
146.203
146.202
146.202
146.307
146.205
146.203
146.203
146.203
146.202
146.204
234.13
147.275
146.202
146.202
146.202
146.203
146.206
146.202
145.575
146.202
146.201
146.201
146.201
146.202
146.212
146.472
146.205
151.899
146.205
146.205
146.206
146.591
146.208
146.474
146.202
146.202
147.096
146.202
146.283
146.208
146.212
146.209
149.056
146.209
146.201
176.534
146.201
190.289
166.752
146.207
146.202
146.202
146.203
146.202
146.198
146.201
146.741
960.49
152.757
146.202
146.201
151.701
146.202
146.201
146.202
146.202
146.202
150.555
198.901
226.818
146.202
146.58
146.202
163.914
146.517
146.202
146.201
179.766
146.248
152.251
169.044
146.206
146.385
146.202
146.202
160.96
146.202
146.203
3367.46
146.202
146.202
146.202
146.902
146.202
146.202
146.207
146.202
146.53
364.641
146.202
146.203
146.202
146.207
146.202
146.203
146.202
146.203
146.201
146.591
227.896
146.202
791.091
146.202
146.201
146.201
146.203
147.577
146.203
146.305
146.613
243.716
170.954
146.203
146.201
146.482
146.202
148.611
153.087
148.902
146.534
152.627
146.201
153.18
149.986
146.207
146.21
146.202
146.595
146.202
146.201
146.202
146.206
146.201
146.202
146.202
146.676
146.201
146.202
146.202
146.203
146.202
146.202
146.202
146.208
147.515
146.202
146.245
146.207
146.202
146.203
146.204
146.71
146.202
146.202
146.219
146.202
146.203
146.203
146.201
146.203
146.98
146.203
146.686
146.203
147.895
146.843
146.343
146.202
146.209
146.202
146.352
146.202
146.201
146.207
146.208
146.357
146.203
146.704
146.227
146.57
859.99
146.202
146.632
146.201
146.208
146.21
146.203
146.202
1093.71
217.202
146.321
146.241
285.089
146.449
146.202
146.202
146.201
146.262
146.398
146.203
147.034
146.201
146.201
146.209
156.848
146.21
146.203
146.203
8775.86
3719.53
155.769
146.201
146.618
146.202
146.204
146.421
146.203
146.209
146.202
146.204
146.202
156.49
804.332
146.585
153.978
146.466
146.214
146.203
146.897
150.208
146.202
146.202
148.57
146.221
146.523
146.201
147.114
146.303
146.423
842.446
146.678
147.596
886.398
147.947
146.202
842.684
147.877
146.201
148.573
146.203
1670.75
146.202
146.202
147.355
148.523
1908.61
148.554
1999.95
147.916
146.223
1658.45
146.32
146.224
5995.25
173.321
146.203
146.565
146.202
146.201
146.202
809.06
146.301
146.201
146.516
146.202
156.369
744.172
146.864
149.108
692.474
146.202
149.946
146.202
146.202
146.203
146.202
146.201
146.201
146.202
146.202
146.684
148.49
146.393
153.437
146.202
146.202
146.202
146.202
146.202
146.202
224.67
199.415
146.201
146.202
146.201
146.286
146.202
146.202
146.255
146.202
146.202
146.202
146.204
8224.72
146.229
727.854
150.266
146.202
146.212
148.486
146.202
146.202
146.202
149.411
2123.71
169.052
658.105
146.202
146.202
12838.4
146.202
146.204
146.202
146.202
146.206
146.202
146.203
146.202
146.203
323.841
147.612
146.204
146.407
146.976
146.202
146.294
146.202
146.202
146.202
146.202
146.201
146.202
146.203
146.202
158.503
148.938
146.568
146.592
146.202
146.202
1406.31
148.348
146.202
146.667
146.202
146.202
159.288
488.504
882.96
158.046
146.202
227.956
1147.33
146.867
146.202
258.178
159.254
153.752
397.703
146.212
1152.85
147.154
146.203
146.782
147.43
147.294
146.206
146.246
146.206
146.206
575.29
716.276
1150.3
146.201
146.201
869.203
146.202
146.202
147.095
146.201
155.071
146.206
146.202
146.202
146.202
146.202
146.206
146.675
1769.04
148.575
151.149
146.202
147.115
146.206
146.204
146.202
146.203
146.202
146.202
146.202
146.202
146.215
146.202
146.202
146.413
147.113
146.205
147.785
6314.51
146.736
146.203
149.223
146.202
146.202
146.207
146.202
146.201
146.199
442.781
146.731
146.384
146.731
1249.93
146.873
146.202
221.717
146.632
146.206
172.672
146.201
146.227
146.201
146.726
146.203
148.425
146.202
146.201
146.202
146.201
149.985
146.201
214.757
146.201
149.947
146.658
146.202
146.201
1614.56
146.735
429.825
146.661
146.202
147.486
681.124
146.202
146.203
146.501
146.499
216.12
146.202
210.68
148.114
222.349
221.195
734.29
150.475
208.721
146.202
15994.4
815.459
147.125
232.208
147.337
146.206
188.14
146.203
220.679
146.755
161.647
146.205
146.204
155.619
146.208
146.202
146.203
146.207
146.201
146.202
146.208
146.202
3728.11
219.474
162.057
169.566
146.219
146.202
146.366
147.055
2827.38
146.649
147.795
235.632
150.614
474.921
146.881
146.206
684.166
146.202
146.202
146.203
115.86
146.207
146.368
146.994
146.45
148.972
1323.53
146.208
162.348
146.202
146.202
146.202
146.205
146.202
146.206
146.324
148.429
149.717
6307.29
146.368
203.337
146.204
1088.1
146.207
147.037
149.928
149.29
146.203
146.203
146.202
146.201
146.202
146.201
146.345
156.846
146.204
537.575
160.004
146.818
428.619
888.545
16605.6
405.578
146.202
148.184
146.541
146.202
146.202
147.455
296.151
146.201
146.202
146.203
146.204
146.201
148.976
148.011
148.38
147.888
146.201
150.609
146.361
146.201
146.55
146.202
164.814
176.429
178.872
164.981
181.617
146.204
146.202
166.488
146.202
146.201
146.201
146.476
146.203
146.204
146.863
147.051
768.619
146.204
146.203
146.203
146.202
146.203
146.202
146.727
942.906
146.202
146.201
7296.56
146.203
146.201
146.203
146.203
146.228
1791.47
10586.5
146.66
146.944
146.201
859.572
146.203
250.965
1327.48
146.202
265.659
146.202
146.202
1515.77
146.201
146.203
1776.85
394.186
1784.64
1753.59
146.201
146.617
146.894
233.101
146.203
146.322
1195.26
1842.03
723.79
422.919
146.203
146.49
146.515
147.87
580.318
146.812
146.445
1849.06
146.202
146.202
2836.73
1534.92
146.77
146.657
152.168
147.099
2756.7
146.201
146.6
146.202
1415.99
146.202
146.605
146.761
146.202
3007.72
146.202
1247.95
1720.9
146.202
146.202
770.903
146.202
146.202
146.201
146.202
275.409
146.202
1607.46
6119.29
146.201
146.201
826.424
146.203
146.203
146.79
146.203
146.203
146.202
146.202
183.904
181.338
1281.93
146.202
146.201
1723.4
146.202
173.013
167.51
146.201
146.202
146.204
146.203
279.603
146.202
146.201
146.202
146.201
146.201
190.114
155.936
146.204
146.202
149.338
146.203
146.297
146.202
146.715
146.201
150.262
322.167
146.202
146.202
146.202
146.563
1107.64
146.202
154.188
148.947
146.202
147.78
148.851
146.202
146.203
146.202
771.851
146.202
146.202
146.201
146.202
146.202
1081.65
192.642
146.202
146.202
924.092
146.202
247.229
146.273
146.202
17771.8
4035.72
157.11
146.204
146.202
148.347
2752.69
146.202
1464.8
146.202
631.084
172.15
146.202
159.872
1435.83
1224.89
11003.4
732.316
146.206
146.202
146.202
214.877
147.733
146.804
2184.7
146.201
194.65
146.202
146.974
1446.26
1483.44
146.202
146.675
175.393
146.202
769.748
146.202
146.202
146.202
1783.98
478.365
732.42
146.201
146.201
146.202
2327.7
146.205
1934.49
146.202
146.202
1434.71
149.94
146.202
146.202
7825.37
146.202
146.202
146.205
2229.48
146.402
146.471
146.202
8996.79
747.481
150.458
147.821
146.203
149.266
146.205
146.332
1113.6
500.069
151.067
149.415
149.048
150.329
146.202
16185.5
1630.6
148.332
146.202
149.885
13351.8
146.202
1137.13
150.327
146.202
287.053
146.202
3438.38
146.74
146.866
222.803
824.262
146.202
146.202
146.202
146.202
3831.05
146.202
466.553
196.274
146.202
146.202
146.202
146.202
146.202
146.202
146.207
146.201
2159.78
146.202
384.176
146.202
146.206
146.183
146.844
146.24
146.202
146.202
146.202
146.203
175.815
354.571
375.413
221.954
146.205
146.206
146.203
146.202
146.206
146.455
146.203
146.202
146.872
146.846
380.487
146.203
146.204
146.203
146.231
146.348
146.201
146.204
146.21
146.636
336.247
146.207
150.804
146.208
175.113
146.904
149.781
146.202
146.209
146.206
146.202
146.207
146.203
146.207
146.386
146.206
146.203
146.201
146.213
149.607
146.202
156.343
146.203
146.386
146.202
146.201
146.392
193.277
146.292
146.203
146.202
146.202
642.588
1623.87
146.201
243.932
4326.71
146.219
219.111
147.658
169.957
1425.34
146.203
146.204
146.205
146.201
5068.71
164.114
146.201
146.207
146.203
146.202
146.201
146.202
146.202
146.201
167.717
146.203
146.201
146.602
146.201
146.935
146.539
146.202
146.201
151.849
147.925
146.202
146.223
146.201
146.202
146.212
146.202
146.202
147.144
146.204
146.202
146.202
146.202
146.205
146.202
146.444
147.078
504.982
146.502
525.161
146.6
146.897
146.212
146.203
609.36
146.22
146.878
146.577
146.212
607.533
146.196
146.216
146.209
147.699
146.591
146.208
146.735
146.203
146.208
146.628
146.2
147.912
146.202
173.502
146.208
146.687
146.578
146.207
152.254
147.235
151.578
146.208
146.25
146.202
147.22
195.4
146.214
146.203
146.202
146.207
146.203
146.971
146.499
146.202
146.202
146.205
146.448
181.82
146.202
147.692
146.209
146.202
146.205
146.202
146.212
146.2
146.204
146.202
146.202
146.217
146.202
146.202
146.202
146.227
146.283
146.202
146.854
146.265
148.782
208.177
146.202
146.203
146.349
146.202
146.202
146.203
146.201
146.202
146.641
147.82
146.589
146.202
146.201
146.201
146.83
146.323
146.201
146.202
146.284
146.201
146.202
146.63
146.202
172.849
150.136
146.201
146.201
146.442
1037.12
485.542
146.202
146.202
146.201
146.202
146.246
146.203
146.202
146.202
146.985
1095.04
146.202
146.202
146.202
2016.99
174.533
193.277
2012.67
146.255
146.271
146.206
146.424
146.206
146.203
147.872
146.206
146.202
160.829
2028.28
146.202
146.202
2169.57
146.462
2230.15
146.202
193.899
146.202
146.203
1868.76
146.202
1938.74
146.217
146.201
1750.34
150.597
146.197
146.213
2066.32
146.203
147.419
1737.56
146.205
146.858
2096.74
146.593
146.22
146.204
146.632
148.151
146.566
564.449
146.201
146.201
146.643
146.207
146.603
159.435
146.186
146.202
146.202
192.403
146.204
146.205
146.203
146.202
160.503
146.201
157.238
1010.95
146.202
158.583
193.405
963.868
146.191
146.214
757.445
146.201
158.413
146.491
146.245
146.202
198.346
146.202
146.202
148.335
146.202
153.091
176.093
175.936
1119.21
146.33
146.196
154.643
176.232
146.201
146.202
146.202
172.658
146.298
174.754
146.202
146.28
1250.89
176.119
146.204
173.772
206.47
146.206
176.357
147.042
146.829
189.998
146.344
156.83
146.64
146.21
188.245
214.111
155.545
146.673
217.519
155.2
146.2
146.205
205.966
172.807
146.205
147.123
1951.63
146.208
146.201
8005.53
146.204
146.203
146.462
146.201
8261.61
146.202
148.414
159.212
676.617
146.202
146.202
146.201
9904.31
199.991
148.231
146.212
10645.5
8845.76
146.233
146.202
150.553
164.413
191.543
832.519
186.347
146.202
147.579
146.179
146.844
146.201
146.261
146.202
146.205
146.205
146.202
146.201
18780.5
146.202
146.878
146.2
146.217
146.66
146.203
188.47
146.202
146.243
146.49
146.604
146.202
146.197
146.207
146.202
209.214
149.004
6065.74
146.202
146.207
146.249
3228.39
146.202
146.214
146.571
146.202
146.203
389.403
146.202
146.23
146.202
146.2
146.202
146.253
146.202
146.203
146.203
146.202
146.825
150.623
146.202
146.293
146.202
146.263
146.303
146.202
146.201
1744.35
146.166
146.207
146.202
146.21
146.205
146.202
146.202
3087.94
4303.14
146.202
170.815
146.202
146.201
146.208
146.234
146.202
146.208
157.724
146.207
146.202
146.307
146.207
148.559
1256.74
146.206
146.206
146.206
2204.08
146.202
146.202
146.202
146.202
146.202
146.202
146.202
146.284
146.208
146.202
146.203
249.844
347.754
146.201
194.889
151.697
146.201
206.414
34818
146.201
146.293
146.692
146.212
146.208
146.202
146.249
201.538
146.204
146.204
146.206
146.202
146.207
146.21
151.76
146.218
146.223
146.201
146.207
241.354
146.207
146.203
146.201
521.209
215.013
146.202
146.203
146.201
146.205
158.361
1555.87
146.203
146.228
154.882
153.891
146.202
146.202
6555.61
146.202
146.202
146.202
146.202
146.221
147.09
146.202
185.719
153.32
146.203
146.203
146.202
1022.73
219.817
146.202
146.214
146.202
146.202
146.202
1856.29
182.257
3604.79
146.202
146.202
146.201
146.206
154.695
146.227
149.345
146.202
146.202
146.204
2287.14
4684.75
148.805
146.202
150.488
158.511
152.503
148.466
149.75
146.207
1903.37
146.62
146.202
146.197
146.202
146.183
146.202
146.183
161.875
2685.71
147.822
150.814
148.131
146.205
192.549
192.972
146.701
147.054
156.864
149.941
316.803
150.912
146.201
158.544
148.288
146.313
146.202
2050.79
146.21
146.201
160.376
1708.1
146.202
146.2
146.201
146.205
146.203
146.201
146.202
188.56
8414.19
146.202
146.207
183.586
148.445
168.991
146.202
146.201
146.201
149.351
146.202
146.205
146.206
146.201
146.207
146.202
146.202
3883.71
153.169
146.202
146.202
146.202
146.2
146.203
149.333
146.202
146.207
146.203
146.202
146.214
146.202
146.202
146.202
146.206
146.173
146.202
155.123
146.202
146.202
703.856
146.202
149.938
154.727
146.202
146.202
146.202
146.202
155.253
170.717
149.194
852.032
149.296
146.207
160.055
154.454
149.003
149.328
148.732
192.605
146.202
156.294
146.202
146.202
146.201
146.202
146.205
148.986
146.202
2115.71
146.202
146.205
159.451
146.202
146.203
146.202
146.203
2131.84
171.272
146.202
146.202
146.205
201.656
146.202
181.89
822.282
159.538
721.952
146.202
146.201
146.207
478.369
601.626
601.733
589.626
583.372
148.706
1920.15
596.06
757.278
146.201
146.207
146.202
146.202
146.64
808.075
146.251
170.327
788.468
930.839
146.177
1064.68
147.153
146.201
146.201
146.202
147.019
146.889
146.43
146.202
147.354
1310
146.232
3725.55
146.543
146.78
854.324
146.202
146.92
1165.75
146.255
146.202
146.207
146.288
146.202
146.201
480.945
146.202
146.202
150.724
146.207
749.723
151.595
146.207
146.209
146.62
146.683
159.716
146.729
146.446
146.786
146.202
146.202
146.631
149.62
146.687
146.631
207.453
146.24
146.333
194.099
7813.26
146.202
146.203
150.686
146.202
6376.8
146.202
146.202
146.202
149.518
146.203
210.557
146.201
146.202
146.233
150.713
154.288
146.258
146.202
146.582
6704.51
2383.2
146.201
894.964
482.102
146.89
5613.36
146.279
416.157
146.202
146.202
146.202
146.202
146.202
146.204
146.201
6574.83
146.202
146.205
146.202
146.202
146.202
146.202
146.202
146.264
149.524
146.201
146.201
1995.4
146.206
6391.44
147.34
146.201
1169.71
146.917
146.201
146.202
5845.28
146.207
146.202
175.76
146.203
146.203
146.202
146.205
146.202
146.201
146.202
146.201
146.202
146.203
148.604
151.41
146.202
146.205
146.202
146.534
146.202
146.242
146.203
146.443
146.203
146.203
146.203
146.202
146.228
146.202
146.202
146.202
146.201
146.202
2634.32
146.202
146.202
146.202
146.203
146.202
155.606
146.202
146.202
146.203
146.811
146.202
146.204
146.202
146.21
146.202
146.201
146.202
146.661
146.202
146.202
146.201
146.202
146.202
146.202
3748.96
147.275
150.756
146.202
146.202
146.215
146.202
146.211
187.14
214.673
146.21
146.202
146.202
146.202
146.207
1829.51
146.202
146.201
1843.59
146.202
146.201
146.202
146.202
146.202
146.203
147.526
146.18
146.201
146.202
1895.94
2112.09
2102.19
146.21
147.88
576.875
146.206
146.202
146.205
1973.94
146.202
146.205
146.202
146.203
148.192
146.202
146.202
146.201
146.21
146.21
146.216
146.551
146.201
146.776
175.583
146.201
163.194
146.201
146.202
146.201
146.204
146.202
146.205
146.201
158.205
146.247
180.691
148.903
176.947
146.208
146.201
146.202
146.202
146.214
146.201
146.201
146.201
146.205
151.621
146.211
148.555
187.445
146.201
176.312
146.502
162.653
146.209
146.201
169.285
146.201
146.201
146.202
985.778
256.022
174.653
146.201
179.778
146.202
146.208
146.202
146.341
146.201
3114.89
146.536
146.202
146.202
149.228
146.213
146.202
149.877
146.201
146.202
889.561
146.202
146.206
146.201
146.51
146.202
146.202
146.202
146.202
146.209
146.202
7266.02
146.202
146.222
146.202
146.203
1106.36
146.202
146.202
146.202
343.857
146.203
146.767
155.677
296.484
146.201
1923.04
146.606
146.202
146.202
1058.28
146.459
146.202
144.906
147.788
146.21
146.203
146.202
145.682
146.201
146.202
146.202
146.206
148.721
146.207
8066.09
146.203
146.3
146.206
146.202
146.286
146.207
146.204
146.201
146.201
146.207
203.646
146.319
213.854
148.017
497.133
146.68
146.202
146.202
146.202
990.226
1034.85
2324.55
219.099
146.207
183.587
147.495
4053.75
1010.16
146.202
5749.48
3152.36
147.945
146.201
147.551
254.308
392.928
1686.11
376.918
147.131
207.743
146.21
338.135
146.209
177.91
146.206
2658.83
268.522
146.203
146.208
146.56
329.867
146.208
165.208
146.201
146.201
274.625
146.232
146.202
146.206
146.201
146.209
146.202
13300.5
233.484
146.201
146.202
294.84
146.209
5843.96
688.367
174.331
146.21
146.202
146.202
1266.71
146.202
146.202
146.272
146.209
146.206
301.042
146.205
146.202
1019.27
680.04
146.202
146.202
244.309
146.205
146.206
671.584
146.201
146.201
146.22
450.227
36975
575.459
146.202
146.21
146.202
263.77
438.036
146.804
803.885
146.202
146.23
146.202
146.205
146.201
148.612
623.263
146.201
1952
146.202
146.202
146.504
146.202
146.21
146.207
1534.2
1339.78
146.202
146.202
146.394
148.632
146.201
146.205
27711
146.202
146.206
146.217
146.202
146.202
146.202
146.202
146.202
146.203
146.201
146.206
148.738
146.201
1101.86
7917.69
146.572
148.791
146.202
146.232
146.206
146.202
148.792
627.247
1945.87
148.687
147.562
150.152
146.201
146.216
152.169
146.913
149.543
146.485
146.208
149.482
146.202
146.202
146.201
172.858
146.586
146.204
1196.85
146.201
146.203
146.201
494.169
1978.54
146.202
149.476
148.799
153.556
150.159
149.776
146.201
146.201
148.309
146.207
146.201
146.202
146.201
146.201
146.203
146.201
147.965
448.076
149.193
146.243
146.225
146.239
146.202
146.201
146.201
147.885
146.201
146.202
146.201
148.596
146.204
1493.63
147.989
147.051
146.45
441.238
146.208
148.274
146.202
146.202
146.207
305.26
147.098
146.205
146.202
146.203
341.422
146.202
150.065
351.143
147.551
148.677
146.201
146.201
148.211
163.266
146.208
148.098
146.222
146.211
146.202
148.865
146.203
148.78
146.203
146.202
252.052
146.216
146.202
146.202
146.239
906.22
146.534
146.204
146.204
146.293
146.909
146.205
146.202
146.201
4374.81
149.146
201.046
147.106
146.203
1906.7
1608.21
146.203
146.203
146.208
146.202
146.202
146.202
647.282
146.201
146.209
146.203
1359.17
146.202
146.202
146.202
146.202
644.537
531.338
146.202
1638.59
146.209
146.334
146.201
146.206
146.201
2038.45
147.76
146.195
146.195
146.279
146.207
146.206
146.206
146.201
146.208
146.718
146.205
146.208
146.201
146.202
146.199
146.708
146.201
146.199
746.049
146.202
146.203
146.201
146.202
2337.54
146.201
166.439
146.206
146.217
146.199
146.205
146.202
146.202
146.196
146.208
146.205
146.631
993.938
146.201
146.201
146.207
146.201
146.209
146.201
146.202
146.203
146.209
146.208
146.208
146.202
146.559
3282.03
833.91
146.207
149.388
146.202
146.207
621.27
146.208
193.761
146.209
146.558
146.202
146.201
146.202
146.201
146.208
146.202
180.443
147.98
146.202
146.201
146.201
146.206
146.205
146.207
146.201
146.201
146.201
146.908
180.569
146.719
146.208
146.201
180.905
182.757
146.485
146.209
146.204
146.201
146.209
146.202
146.211
146.205
146.206
183.309
146.494
149.807
183.073
149.089
153.472
146.206
161.776
146.201
149.384
146.201
150.001
146.228
150.125
376.393
146.201
146.201
146.202
202.145
2026.28
146.202
149.291
146.203
1778.55
146.202
146.203
146.201
146.202
147.752
146.202
146.202
146.202
146.201
146.203
146.202
148.531
149.843
146.24
146.201
146.202
148.966
146.201
146.202
217.84
1761.45
202.179
146.201
146.201
147.224
222.226
146.202
146.201
210.275
147.619
929.484
146.201
148.541
146.213
146.201
146.209
146.201
146.202
146.203
146.203
146.201
146.202
146.201
146.202
146.204
146.202
146.201
146.201
146.201
146.202
146.202
146.201
146.202
146.201
146.202
146.201
146.563
148.516
146.74
146.201
146.201
146.202
146.202
146.548
146.201
146.202
146.204
146.202
146.201
146.202
146.205
146.201
146.201
146.201
146.202
146.201
146.704
146.201
146.756
146.682
152.335
146.201
146.201
146.511
146.201
146.201
146.202
146.202
146.202
146.201
146.202
146.203
146.203
146.203
785.975
405.493
146.201
146.204
146.201
146.202
146.202
146.202
146.201
146.201
329.586
149.419
146.202
149.635
146.202
146.202
152.696
150.074
146.202
146.216
236.975
146.202
146.202
146.201
146.205
146.202
149.609
146.201
149.091
146.202
146.202
146.201
146.369
146.666
146.273
146.202
146.201
146.202
146.202
146.202
146.201
146.202
146.202
146.202
146.201
146.915
146.201
146.202
146.203
146.201
146.201
146.201
146.202
146.226
151.252
146.227
146.202
146.205
146.201
146.201
146.204
146.202
146.201
146.202
154.414
146.208
146.201
146.203
146.488
146.201
146.481
146.203
146.204
147.55
146.201
147.593
3472
147.294
146.207
146.202
146.956
146.265
146.202
146.201
146.201
146.202
146.776
146.203
146.205
146.293
207.907
149.295
147.187
146.201
146.202
274.834
146.203
146.206
146.203
146.201
146.201
146.203