/*--------------------------------*- C++ -*----------------------------------*\
| =========                 |                                                 |
| \\      /  F ield         | OpenFOAM: The Open Source CFD Toolbox           |
|  \\    /   O peration     | Version:  v2012                                 |
|   \\  /    A nd           | Website:  www.openfoam.com                      |
|    \\/     M anipulation  |                                                 |
\*---------------------------------------------------------------------------*/
FoamFile
{
    version     2.0;
    format      ascii;
    class       volScalarField;
    location    "4";
    object      ILambda_7_0;
}
// * * * * * * * * * * * * * * * * * * * * * * * * * * * * * * * * * * * * * //

dimensions      [1 0 -3 0 0 0 0];


internalField   nonuniform List<scalar> 
108993
(
146.202
146.203
146.202
146.201
146.201
146.202
146.206
146.202
146.201
146.193
146.202
146.202
146.201
146.203
146.202
146.203
146.19
146.202
146.201
146.205
146.201
146.201
146.203
146.202
146.201
146.202
146.201
146.207
146.202
146.202
146.201
146.203
146.201
146.202
146.201
146.201
146.201
146.201
210.641
1179.63
146.203
146.202
146.203
146.201
146.472
1844.75
146.201
146.206
146.201
146.203
146.201
146.359
146.203
146.201
146.201
146.202
146.201
146.201
146.201
146.201
146.201
146.201
146.201
146.201
146.201
146.201
146.201
146.201
146.202
160.143
146.202
146.201
146.201
146.201
146.201
146.201
146.202
146.198
146.201
146.201
146.202
146.202
146.201
146.202
146.202
146.203
146.202
146.202
146.201
146.201
146.201
146.201
146.201
146.201
146.201
146.203
146.201
146.202
146.201
146.202
146.201
146.201
146.202
146.202
146.201
146.201
146.201
146.201
146.201
774.857
146.684
146.201
146.296
146.465
146.202
146.71
146.201
146.202
146.248
146.201
146.201
146.201
146.475
146.202
146.201
146.217
146.203
146.202
146.201
146.201
146.203
146.201
146.201
146.791
146.202
146.202
146.201
146.201
146.202
146.203
146.202
146.202
146.971
146.201
146.201
146.201
146.202
1613.53
146.202
147.465
147.59
146.202
146.203
147.486
146.201
146.207
146.202
146.201
146.201
146.49
147.485
146.201
146.201
146.201
146.203
146.255
146.202
146.202
146.202
146.202
146.201
146.202
146.442
146.202
146.204
146.201
146.212
146.202
146.202
146.201
146.198
146.201
146.201
146.202
146.202
146.202
146.201
146.202
146.202
146.202
146.202
146.201
146.202
146.212
146.202
146.202
146.203
146.202
146.201
146.202
146.202
146.212
146.201
146.201
146.208
146.577
146.202
559.321
146.202
102.889
146.307
146.202
146.212
264.226
5677.38
146.201
146.202
146.202
146.201
146.201
146.201
147.39
146.203
146.21
146.201
146.202
146.201
146.202
146.917
146.202
360.533
146.202
146.202
146.204
146.201
146.201
146.201
146.201
155.871
146.201
146.201
146.202
146.202
146.201
146.201
146.203
373.637
146.416
146.201
146.201
146.202
146.201
146.201
146.202
146.201
146.201
146.201
146.202
146.201
146.202
146.202
146.201
146.238
146.237
146.201
146.202
146.202
146.201
146.202
146.202
146.202
146.202
264.678
160.551
1156.64
146.202
146.201
146.618
146.202
146.201
146.201
5000.01
5913.01
146.202
146.201
146.207
146.201
146.202
146.202
1666.13
146.202
146.202
146.202
146.202
146.202
146.202
146.201
146.202
146.855
146.202
146.429
146.742
146.201
146.202
146.202
146.203
146.201
146.202
146.203
255.474
146.202
146.201
146.215
146.201
146.203
146.77
146.202
146.213
493.811
146.202
146.204
146.201
146.204
146.204
146.202
149.69
147.447
146.512
146.201
146.202
146.202
146.474
149.048
146.202
185.362
146.201
146.202
146.201
146.202
146.201
146.202
146.592
146.203
146.201
146.202
146.202
146.202
146.201
146.201
146.202
146.202
146.202
4531.6
533.502
146.201
146.201
146.202
2300.96
146.202
146.202
146.203
146.202
146.202
146.202
146.201
146.204
146.202
146.201
146.202
1436.68
146.206
146.204
146.202
148.192
146.203
146.694
146.202
146.202
146.602
146.202
146.545
146.592
146.204
146.208
146.202
146.206
146.202
170.577
146.202
913.675
146.569
146.208
146.556
146.202
190.884
146.202
316.413
146.201
146.313
146.201
146.202
146.735
146.617
146.202
146.201
146.209
146.205
146.202
146.202
161.529
146.202
146.202
148.283
146.201
146.203
146.201
147.468
150.18
151.83
146.202
156.981
146.203
146.687
146.202
146.202
147.971
146.201
146.575
148.131
146.202
402.131
515.061
199.033
146.201
146.202
146.192
146.201
146.201
146.202
146.202
146.202
146.202
146.202
146.202
173.851
146.21
146.208
146.49
146.202
146.202
146.203
146.201
146.202
146.201
146.202
146.202
146.202
146.202
146.202
146.202
146.562
146.202
146.557
146.915
147.493
146.202
146.202
146.556
146.202
146.202
148.729
146.201
146.201
146.205
146.201
146.263
146.202
146.267
175.926
146.586
146.201
146.201
146.201
146.202
146.203
146.202
146.202
146.202
146.573
146.202
146.202
146.202
146.288
146.202
146.503
146.202
146.203
146.202
146.202
146.202
146.201
146.202
146.202
146.202
146.376
146.939
146.202
146.202
268.7
146.202
146.209
146.207
146.202
146.203
146.202
146.201
146.202
146.202
146.202
146.205
146.202
146.202
146.207
146.203
146.201
148.408
146.207
146.202
148.277
146.203
146.207
146.201
147.953
146.202
146.202
146.202
146.227
146.202
146.197
436.315
146.201
1449.35
146.202
146.201
146.202
146.202
146.201
147.883
146.202
146.201
146.426
146.206
2830.57
146.201
146.202
146.201
146.201
146.204
152.758
146.202
146.201
146.202
146.202
146.204
195.72
146.518
146.202
146.202
146.203
146.203
146.202
146.203
4633.5
191.274
146.593
146.204
146.202
204.656
148.025
146.211
146.203
146.202
146.202
146.201
146.202
146.532
1724.51
189.247
146.203
146.202
146.203
146.201
146.202
146.202
160.515
146.201
146.201
146.201
146.202
146.893
146.202
146.202
85.2193
146.215
146.202
146.201
157.367
146.201
146.21
146.202
148.583
146.202
147.315
146.202
146.204
146.202
146.203
146.201
206.776
146.201
146.377
146.201
146.202
1610.88
146.204
146.201
146.202
146.439
10556.5
146.204
146.749
146.201
146.531
149.509
146.203
146.202
146.201
166.586
147.208
146.56
146.201
146.464
146.202
146.208
146.202
146.203
146.203
146.336
146.506
146.204
146.203
146.534
388.686
1292.7
157.265
146.202
146.338
1277.07
188.108
1427.07
769.792
146.202
146.207
146.202
146.202
146.204
146.206
146.212
167.54
284.362
146.27
146.203
146.28
1445.45
1630.3
146.201
146.208
149.102
146.202
965.873
146.203
171.876
147.568
146.204
2009.09
146.208
201.562
148.882
147.832
147.987
146.201
146.202
146.814
146.195
146.204
268.393
146.38
182.508
146.288
161.191
146.364
146.202
146.201
146.201
146.52
146.202
146.355
146.202
146.202
146.201
146.205
986.856
606.335
146.202
189.644
146.202
146.462
147.012
146.202
146.638
146.202
146.203
146.22
146.203
146.201
146.205
146.208
146.668
146.504
146.201
146.472
146.203
146.203
146.203
146.203
146.202
152.2
146.202
146.202
146.206
146.202
146.206
961.104
239.111
146.203
146.205
146.204
146.204
146.204
146.222
146.202
146.202
146.201
146.203
146.202
146.208
146.201
146.203
146.718
146.202
146.203
146.202
146.203
146.202
146.379
146.204
146.206
224.716
146.201
146.202
146.202
146.214
146.202
146.515
146.469
146.202
146.202
395.002
146.498
146.197
146.202
147.319
146.202
146.202
146.204
146.203
146.208
146.202
146.202
146.319
146.201
736.441
146.202
146.202
2925.27
146.208
146.659
146.204
147.13
146.202
146.208
146.245
146.201
146.203
146.213
146.202
146.202
146.202
146.202
146.202
146.203
146.203
146.202
146.47
146.202
148.71
146.203
146.202
1259.96
146.203
259.1
146.201
146.202
146.204
554.045
146.211
146.203
146.249
146.237
146.205
146.206
650.555
146.382
146.202
147.318
146.203
146.202
146.694
3395.31
146.202
146.202
146.203
146.212
146.203
146.203
148.515
146.203
146.203
39.9192
146.202
1059.13
146.202
30.8875
146.202
146.207
146.21
146.449
146.22
146.202
146.219
146.222
161.06
146.203
2848.11
146.201
146.201
146.203
147.517
146.207
146.344
146.201
146.202
146.274
2665.85
146.202
146.223
146.762
157.159
146.205
146.245
1088.71
2729.42
146.204
147.383
146.204
149.126
146.201
148.527
1286.53
150.771
146.201
146.201
146.21
146.477
146.373
146.201
146.201
146.482
146.496
146.201
147.284
146.209
146.201
148.69
146.201
146.202
121.629
151.313
146.201
146.206
146.202
146.202
146.314
146.25
150.607
146.202
149.925
146.228
146.33
146.202
146.203
146.215
146.208
146.206
146.201
146.205
146.202
146.263
146.201
146.202
146.425
146.202
147.116
146.491
146.21
146.248
146.201
146.548
146.202
471.502
146.206
146.202
146.201
146.434
146.268
146.202
146.196
151.182
146.314
146.603
146.202
146.214
146.51
146.593
146.202
146.544
150.79
146.233
146.199
146.228
146.206
146.731
1751.13
146.305
146.278
146.349
146.201
147
146.209
146.206
146.347
146.887
146.194
146.201
146.204
146.96
146.201
146.202
146.201
147.028
146.202
146.202
146.202
146.203
146.202
146.202
146.201
147.226
146.202
146.203
146.196
146.201
874.844
146.202
146.202
146.205
146.202
146.203
903.84
147.757
146.202
146.202
146.201
146.805
147.015
146.246
146.202
146.202
146.534
146.203
146.212
147.602
151.152
146.202
146.202
146.202
146.202
146.204
146.205
146.203
146.202
146.202
146.202
146.991
146.202
146.205
146.201
146.202
146.204
146.443
146.204
146.204
146.202
146.202
146.203
146.209
146.202
146.201
146.202
148.85
146.203
146.207
146.202
146.236
146.203
146.201
5291.11
146.624
146.623
146.204
1013.76
146.244
146.987
146.207
3634.38
146.201
146.202
146.202
146.379
146.214
1929.5
147.823
146.203
146.203
146.202
146.241
146.202
146.23
146.413
146.217
146.207
148.25
146.615
146.633
146.202
146.202
146.202
146.202
146.202
146.201
146.203
147.391
146.201
1379.4
146.209
146.202
146.202
146.955
146.912
146.202
146.211
146.202
146.207
146.202
146.206
147.922
146.269
146.202
146.515
146.202
146.202
146.202
146.201
146.201
146.202
5637.28
146.38
146.201
146.202
146.202
146.203
146.203
146.202
146.203
146.202
146.202
146.201
146.202
146.202
146.202
146.202
146.201
146.202
146.202
146.203
146.202
161.311
146.897
146.665
1161.24
146.202
146.201
146.203
146.202
146.199
146.202
146.205
146.202
146.202
146.553
146.203
146.203
146.203
146.204
146.202
146.202
182.61
147.168
146.202
146.201
146.202
146.203
146.204
146.202
149.32
146.202
146.201
146.201
146.201
146.202
146.21
146.213
146.202
153.441
146.21
146.209
146.21
146.741
146.207
146.211
146.202
146.202
147.539
146.201
146.416
146.207
146.211
146.209
148.87
146.211
146.201
146.344
146.201
148.619
146.42
146.206
146.202
146.202
146.203
146.202
146.203
146.201
146.854
459.267
146.268
146.202
146.201
146.388
146.202
146.201
146.202
146.202
146.202
149.772
149.426
230.965
146.202
146.678
146.201
148.44
146.529
146.202
146.201
148.623
146.204
153.239
146.604
146.21
146.611
146.202
146.202
146.199
146.201
146.202
2019.88
146.202
146.202
146.201
146.529
146.202
146.202
146.207
146.202
146.546
254.085
146.202
146.204
146.202
146.213
146.202
146.201
146.201
146.204
146.201
146.572
146.544
146.202
514.415
146.202
146.201
146.201
146.205
147.886
146.203
147.11
146.731
173.805
162.692
146.203
146.201
146.276
146.202
148.081
151.785
147.965
146.526
151.436
146.201
151.184
148.357
146.205
146.207
146.202
146.742
146.202
146.201
146.202
146.204
146.201
146.203
146.202
147.072
146.201
146.202
146.202
146.202
146.202
146.202
146.202
146.216
147.617
146.202
146.18
146.205
146.202
146.205
146.202
146.797
146.202
146.204
146.225
146.202
146.202
146.202
146.201
146.202
147.002
146.202
146.304
146.203
147.097
146.705
146.203
146.202
146.207
146.202
146.204
146.202
146.201
146.203
146.206
146.212
146.204
146.86
146.202
146.56
769.709
146.201
146.508
146.201
146.206
146.208
146.203
146.203
1169.46
150.287
146.626
146.209
185.726
146.437
146.201
146.202
146.201
146.205
146.204
146.203
147.398
146.201
146.201
146.207
146.232
146.208
146.203
146.203
6685.99
2394.12
146.23
146.201
146.654
146.201
146.207
146.208
146.203
146.21
146.202
146.207
146.203
146.218
277.538
146.617
146.193
146.45
146.216
146.206
146.537
149.897
146.205
146.202
146.205
146.231
146.333
146.201
146.201
146.888
146.446
770.091
146.206
146.206
447.656
146.196
146.202
840.202
146.196
146.201
146.195
146.203
781.705
146.202
146.202
147.718
146.196
1629.04
146.195
1199.85
146.196
146.222
1258.68
146.247
146.222
3840.46
146.198
146.204
147.49
146.202
146.202
146.202
624.847
146.947
146.202
146.478
146.202
152.081
336.046
146.972
146.568
758.384
146.202
148.866
146.202
146.202
146.203
146.202
146.201
146.201
146.202
146.202
146.609
148.329
146.392
156.012
146.202
146.202
146.202
146.202
146.202
146.202
278.195
164.826
146.202
146.202
146.202
146.678
146.202
146.202
146.345
146.202
146.202
146.202
146.203
6695.4
146.239
608.832
149.283
146.202
146.208
148.223
146.202
146.202
146.201
181.225
1173.53
162.646
197.086
146.202
146.202
2876.45
146.202
146.203
146.202
146.202
146.207
146.202
146.202
146.201
146.202
169.673
147.603
146.203
146.433
146.602
146.202
146.375
146.202
146.201
146.202
146.202
146.201
146.202
146.202
146.201
146.503
150.049
146.552
146.476
146.201
146.202
981.886
148.337
146.201
146.511
146.202
146.201
164.923
528.137
500.123
146.638
146.202
183.132
793.666
146.883
146.202
162.472
165.403
155.924
190.281
146.208
686.765
151.975
146.203
150.159
146.589
154.974
146.212
146.254
146.211
146.205
287.118
395.197
777.691
146.201
146.201
533.461
146.202
146.202
147.093
146.201
152.695
146.211
146.202
146.202
146.202
146.202
146.209
146.439
1013.29
147.084
146.636
146.202
147.662
146.21
146.204
146.202
146.203
146.202
146.202
146.201
146.202
146.233
146.202
146.202
146.206
146.697
146.208
147.243
2313.3
147.09
146.202
173.168
146.202
146.202
146.203
146.202
146.201
146.202
315.953
146.829
146.524
147.232
898.307
147.198
146.202
196.74
146.591
146.207
150.385
146.201
146.208
146.201
146.78
146.203
149.567
146.202
146.201
146.201
146.201
150.785
146.201
191.034
146.201
150.019
146.619
146.202
146.201
1254.84
146.6
418.989
146.563
146.202
147.238
379.476
146.201
146.203
146.5
146.336
199.147
146.202
195.227
147.441
247.905
200.724
315.986
146.614
181.416
146.202
13246.8
1212.05
147.01
150.627
146.199
146.26
196.448
146.203
150.396
146.805
146.431
146.206
146.202
198.639
146.204
146.201
146.203
146.204
146.201
146.202
146.206
146.202
2776.24
149.805
146.238
152.791
146.215
146.202
146.279
146.883
1514.75
146.233
146.689
149.06
148.925
1350.05
147.094
146.203
331.7
146.201
146.202
146.202
51.9734
146.204
146.755
146.847
146.859
149.173
944.816
146.204
160.085
146.202
146.202
146.202
146.203
146.202
146.203
146.254
147.868
149.849
4290.54
146.251
174.8
146.205
987.543
146.203
147.359
150.322
150.281
146.204
146.203
146.202
146.201
146.202
146.201
146.927
160.632
146.205
189.139
160.655
146.686
206.322
755.915
17268.2
152.421
146.201
148.98
146.522
146.202
146.202
146.91
209.747
146.201
146.203
146.203
146.204
146.201
147.936
148.108
148.373
147.133
146.201
156.348
146.629
146.201
146.421
146.202
146.211
150.043
146.581
146.211
270.619
146.204
146.202
146.205
146.202
146.201
146.202
146.412
146.204
146.206
146.88
147.097
769.797
146.205
146.203
146.202
146.202
146.203
146.202
146.605
371.748
146.202
146.201
5075.18
146.202
146.201
146.202
146.202
146.24
1894.67
11859.4
146.659
146.908
146.201
529.909
146.203
240.038
549.375
146.201
150.543
146.202
146.202
1399.42
146.201
146.203
1595.71
153.905
1586.59
1864.14
146.202
146.47
146.493
194.627
146.203
147.027
1011.88
1427.38
761.686
238.081
146.202
146.199
146.481
146.93
451.425
146.737
146.431
1581.14
146.202
146.201
2086.4
1597.45
146.445
146.66
147.709
146.884
2273.16
146.201
146.569
146.201
1637
146.202
146.561
146.692
146.202
1786.21
146.202
820.885
1602.75
146.202
146.202
245.444
146.202
146.202
146.201
146.202
163.577
146.201
1788.28
2932.67
146.201
146.201
912.372
146.203
146.203
146.556
146.203
146.203
146.202
146.202
182.43
176.59
615.324
146.202
146.201
1301.5
146.202
160.549
155.646
146.201
146.202
146.204
146.206
218.724
146.202
146.202
146.202
146.201
146.201
151.159
150.394
146.205
146.202
154.144
146.204
146.887
146.202
146.436
146.201
146.869
240.479
146.203
146.201
146.202
147.348
1284.19
146.202
147.22
146.326
146.201
146.948
146.304
146.202
146.204
146.202
696.455
146.202
146.202
146.201
146.202
146.202
672.696
162.45
146.202
146.202
820.203
146.202
215.646
146.204
146.202
17248.9
2469.41
162.064
146.206
146.202
146.847
1751.5
146.202
1265.46
146.202
285.694
162.932
146.202
154.55
1662.63
756.62
11624.1
723.347
146.206
146.202
146.202
153.61
146.781
146.995
2074.56
146.202
148.649
146.202
146.348
1241.59
1056.62
146.202
147.408
167.27
146.202
774.806
146.202
146.201
146.202
2056.86
493.325
648.235
146.202
146.201
146.202
1569.27
146.204
957.277
146.202
146.202
1404.96
149.845
146.201
146.202
5170.84
146.202
146.202
146.203
2293.82
147.34
146.498
146.201
8031.17
209.273
155.371
147.617
146.204
146.042
146.205
146.354
609.03
183.352
148.682
149.938
148.147
151.917
146.201
19026.6
937.637
148.147
146.201
150.706
17817.6
146.202
505.404
149.177
146.202
163.61
146.201
1466.85
146.625
147.038
364
402.574
146.202
146.201
146.202
146.202
3095.74
146.202
198.97
187.95
146.202
146.202
146.202
146.202
146.202
146.201
146.208
146.201
2530.24
146.202
152.676
146.202
146.209
146.202
146.213
146.277
146.202
146.202
146.202
146.203
146.299
215.388
240.269
149.286
146.208
146.207
146.204
146.202
146.205
146.251
146.205
146.202
147.308
147.039
262.684
146.204
146.207
146.203
146.277
147.085
146.201
146.205
146.209
146.957
239.983
146.208
149.259
146.208
146.299
147.391
149.264
146.202
146.214
146.209
146.202
146.218
146.203
146.204
146.389
146.203
146.203
146.202
146.212
150.14
146.202
156.789
146.203
146.388
146.202
146.201
146.403
148.496
146.386
146.203
146.202
146.202
1158.18
28.8884
146.201
247.3
48.6045
146.203
146.286
147.041
149.476
29.9963
146.203
146.203
146.209
146.202
351.23
146.186
146.201
146.203
146.203
146.202
146.201
146.202
146.202
146.201
157.129
146.203
146.201
146.532
146.201
146.241
146.53
146.202
146.201
146.492
146.467
146.202
146.221
146.201
146.202
146.216
146.202
146.202
147.782
146.203
146.202
146.202
146.202
146.203
146.202
146.738
146.914
227.663
147.008
194.057
146.577
147.193
146.211
146.203
243.328
146.218
146.198
146.525
146.209
301.163
146.202
146.21
146.206
146.803
146.46
146.226
146.462
146.204
146.243
146.485
146.202
148.198
146.202
149.039
146.22
146.482
146.453
146.218
147.018
146.307
146.588
146.232
146.208
146.201
147.57
146.221
146.203
146.203
146.203
146.218
146.203
146.234
146.973
146.201
146.201
146.206
146.205
175.218
146.202
146.246
146.205
146.202
146.206
146.202
146.235
146.202
146.203
146.202
146.202
146.213
146.202
146.202
146.202
146.222
146.201
146.202
147.055
146.201
146.261
163.689
146.202
146.204
146.208
146.202
146.202
146.202
146.201
146.202
146.521
146.947
146.238
146.202
146.203
146.201
146.325
146.509
146.201
146.202
146.422
146.201
146.202
146.536
146.202
148.242
148.746
146.202
146.201
146.785
503.012
863.372
146.202
146.202
146.201
146.202
146.281
146.202
146.202
146.202
146.198
421.606
146.202
146.202
146.202
1640.58
167.488
147.642
1629.86
146.331
146.2
146.211
146.21
146.205
146.203
147.857
146.215
146.202
164.037
1648.43
146.202
146.202
2483.77
146.613
2623.59
146.202
146.258
146.202
146.203
2015.01
146.202
2042.63
146.207
146.202
1984.96
146.195
146.202
146.217
2148.34
146.203
146.839
1793.74
146.204
146.287
2114.33
146.56
146.206
146.202
146.55
148.213
146.562
585.142
146.201
146.202
146.616
146.208
146.552
176.564
146.202
146.202
146.201
194.398
146.202
146.207
146.204
146.201
146.801
146.201
163.612
515.912
146.201
156.674
179.879
468.382
146.202
146.22
239.23
146.201
161.653
146.427
146.287
146.202
182.772
146.202
146.202
146.201
146.202
174.905
147.599
147.635
661.188
146.384
146.202
146.192
147.84
146.202
146.202
146.203
151.8
146.203
157.824
146.202
146.649
629.063
148.128
146.203
154.636
193.427
146.207
147.694
147.108
146.74
194.92
147.084
153.953
146.22
146.213
151.22
203.04
147.63
146.23
202.336
152.082
146.202
146.207
197.983
146.241
146.205
146.918
1043.79
146.211
146.202
8276.61
146.207
146.202
146.698
146.201
8898.38
146.202
147.739
150.118
240.665
146.202
146.202
146.201
7520.79
146.219
147.562
146.204
8306.78
8554.44
146.245
146.202
148.585
157.55
187.893
227.827
201.481
146.203
146.605
146.202
146.211
146.201
146.202
146.202
146.202
146.204
146.202
146.202
14481.2
146.202
146.214
146.202
146.241
146.798
146.203
181.256
146.202
146.203
146.22
146.2
146.202
146.202
146.203
146.202
146.875
146.204
5026.95
146.202
146.209
146.288
1597.72
146.202
146.217
146.532
146.202
146.203
301.32
146.202
146.203
146.202
146.202
146.202
146.217
146.202
146.203
146.203
146.202
147.106
150.388
146.202
146.621
146.202
146.288
146.726
146.202
146.201
1122.07
146.202
146.206
146.201
146.214
146.204
146.202
146.202
1710.72
2425.62
146.201
164.825
146.202
146.201
146.207
146.247
146.202
146.205
148.27
146.206
146.202
146.298
146.206
149.313
1292.15
146.205
146.206
146.205
1999.6
146.202
146.202
146.202
146.202
146.202
146.202
146.202
146.538
146.206
146.202
146.205
168.121
174.307
146.202
178.517
151.546
146.201
193.216
29025.4
146.201
146.338
146.692
146.211
146.203
146.203
146.285
188.573
146.205
146.205
146.203
146.202
146.207
146.211
148.219
146.23
146.203
146.201
146.207
166.79
146.207
146.205
146.201
213.065
163.61
146.202
146.205
146.201
146.204
156.461
872.49
146.203
146.237
146.961
151.931
146.202
146.203
8074.5
146.202
146.202
146.202
146.202
146.227
146.203
146.202
146.21
146.196
146.203
146.203
146.202
580.41
180.229
146.202
146.221
146.202
146.202
146.202
1025.76
149.95
1823.23
146.202
146.202
146.201
146.206
148.755
146.215
150.616
146.201
146.202
146.203
1667.8
2350.71
147.125
146.202
153.618
161.811
151.914
152.204
148.272
146.205
1157.18
146.548
146.202
146.202
146.202
146.2
146.201
146.201
151.026
1820.99
147.521
146.532
147.146
146.203
153.514
157.426
146.843
146.981
150.222
147.409
213.125
149.137
146.201
184.532
147.848
146.202
146.202
1174.96
146.203
146.201
150.259
1383.22
146.201
146.202
146.201
146.203
146.203
146.201
146.201
170.375
7817.94
146.201
146.203
146.242
147.675
179.996
146.202
146.201
146.201
148.257
146.202
146.206
146.209
146.201
146.205
146.202
146.202
3369.45
147.753
146.202
146.202
146.202
146.202
146.206
147.214
146.202
146.207
146.202
146.202
146.217
146.202
146.202
146.202
146.203
146.202
146.202
146.193
146.202
146.202
288.556
146.202
149.187
146.194
146.202
146.202
146.202
146.202
146.194
175.632
149.053
820.149
149.491
146.206
170.041
150.634
149.122
149.115
148.803
178.691
146.202
146.198
146.201
146.202
146.201
146.202
146.205
148.984
146.201
1945.45
146.202
146.205
146.196
146.201
146.203
146.202
146.204
1339.57
167.082
146.201
146.201
146.203
178.336
146.202
146.204
277.417
146.2
263.276
146.201
146.201
146.207
219.012
227.538
216.207
261.483
438.953
151.687
1332.42
540.766
230.264
146.202
146.206
146.202
146.202
147.155
472.114
146.334
165.01
431.806
564.867
146.202
746.498
147.353
146.202
146.201
146.201
147.485
146.504
146.446
146.201
148
612.396
146.25
2461.18
146.473
147.153
915.593
146.201
147.289
1261.89
146.315
146.201
146.205
146.607
146.202
146.202
703.617
146.202
146.202
148.912
146.207
1029.76
149.816
146.206
146.229
146.444
146.464
149.498
146.451
146.646
146.494
146.203
146.201
146.483
147.606
146.457
146.44
146.353
146.301
147.116
183.632
5059.73
146.201
146.202
146.522
146.201
4256.87
146.201
146.202
146.201
146.503
146.203
175.583
146.201
146.202
146.254
146.532
146.543
146.37
146.202
146.903
4004.72
2052.98
146.201
976.474
238.635
147
3398.49
146.2
496.298
146.202
146.202
146.202
146.202
146.201
146.203
146.202
3734.04
146.202
146.204
146.202
146.202
146.202
146.201
146.202
146.331
149.063
146.201
146.201
2926.95
146.208
3608.73
146.282
146.201
973.418
146.197
146.201
146.202
3207.25
146.21
146.201
149.241
146.203
146.203
146.202
146.206
146.202
146.201
146.201
146.201
146.202
146.203
146.195
147.033
146.201
146.206
146.202
146.523
146.202
146.21
146.205
146.824
146.203
146.203
146.203
146.201
146.239
146.203
146.201
146.202
146.201
146.202
2353.06
146.202
146.201
146.202
146.203
146.202
156.456
146.202
146.202
146.202
146.213
146.202
146.203
146.202
146.201
146.202
146.201
146.202
146.838
146.202
146.203
146.201
146.202
146.202
146.202
2392.89
146.239
146.195
146.202
146.202
146.22
146.202
146.211
171.986
147.447
146.221
146.202
146.202
146.201
146.205
2079.15
146.202
146.201
2118.88
146.203
146.201
146.202
146.202
146.201
146.205
161.435
146.202
146.201
146.202
2207.13
2327.09
2422.64
146.212
147.288
399.03
146.207
146.202
146.203
2301.2
146.202
146.202
146.202
146.204
146.999
146.202
146.202
146.201
146.215
146.21
146.222
146.524
146.201
146.789
148.991
146.201
161.966
146.201
146.202
146.201
146.206
146.203
146.203
146.201
149.269
146.354
188.911
149.471
153.05
146.208
146.201
146.201
146.201
146.21
146.201
146.201
146.201
146.202
148.877
146.212
147.383
201.421
146.202
151.876
146.498
156.072
146.207
146.201
147.386
146.201
146.201
146.202
832.018
163.804
151.965
146.202
152.363
146.202
146.204
146.202
146.206
146.201
2190.02
146.548
146.202
146.202
150.013
146.215
146.202
149.833
146.201
146.202
390.105
146.201
146.204
146.201
146.513
146.202
146.202
146.202
146.202
146.209
146.201
13511.3
146.202
146.258
146.202
146.205
729.571
146.202
146.201
146.202
199.709
146.203
146.646
152.35
306.301
146.201
2159.27
146.578
146.201
146.201
531.723
146.477
146.202
149.697
147.247
146.21
146.205
146.202
152.323
146.202
146.202
146.202
146.204
148.309
146.205
7834.32
146.202
146.646
146.204
146.202
146.37
146.206
146.203
146.202
146.202
146.209
162.791
147.121
227.655
148.342
219.634
147.174
146.204
146.202
146.202
1099.46
387.043
2112.23
232.899
146.211
160.909
148.599
2071.33
956.192
146.202
4638.1
2059.78
148.173
146.201
146.548
332.499
439.758
1217.47
314.828
146.951
167.93
146.21
195.622
146.209
221.478
146.207
2740.91
184.324
146.203
146.209
146.56
435.77
146.207
148.231
146.201
146.201
191.848
146.206
146.202
146.203
146.201
146.216
146.202
33667.9
149.032
146.201
146.202
193.625
146.209
11533.3
938.996
163.167
146.209
146.202
146.202
1181.96
146.202
146.202
146.203
146.205
146.204
193.578
146.203
146.202
892.295
746.921
146.201
146.202
172.661
146.208
146.206
749.143
146.201
146.201
146.207
173.564
28221.9
527.166
146.202
146.212
146.201
312.549
166.531
146.541
470.33
146.202
146.206
146.202
146.205
146.201
147.676
359.093
146.201
2092.31
146.202
146.202
146.506
146.202
146.211
146.206
1570.75
428.527
146.202
146.202
147.201
148.676
146.202
146.213
26893.3
146.202
146.208
146.207
146.202
146.202
146.202
146.202
146.202
146.203
146.201
146.205
149.117
146.202
913.082
10815.4
146.637
149.128
146.202
146.259
146.205
146.202
149.104
477.729
2039.45
149.071
146.255
149.294
146.201
146.246
148.149
147.097
150.07
147.044
146.206
149.798
146.202
146.202
146.201
150.236
146.545
146.205
1925.89
146.201
146.204
146.202
203.051
1602.66
146.202
150.088
148.598
152.652
150.829
150.527
146.201
146.201
148.649
146.208
146.202
146.202
146.201
146.201
146.205
146.201
147.588
571.686
150.099
146.451
146.232
146.277
146.201
146.201
146.201
147.943
146.201
146.202
146.201
148.855
146.205
749.216
148.221
146.982
146.484
202.893
146.206
148.759
146.201
146.202
146.21
160.678
147.363
146.208
146.201
146.203
178.223
146.201
150.418
346.771
147.921
148.5
146.201
146.202
148.639
167.543
146.205
148.098
146.227
146.284
146.202
149.048
146.204
149.07
146.203
146.202
226.121
146.264
146.201
146.202
146.259
1084.57
146.825
146.208
146.203
146.429
147.199
146.203
146.202
146.202
3901.53
149.729
712.637
147.698
146.203
1810.01
1463.14
146.203
146.203
146.206
146.202
146.202
146.203
322.598
146.202
146.207
146.203
1339.89
146.202
146.202
146.202
146.202
667.041
461.558
146.201
1869.42
146.207
146.204
146.202
146.203
146.202
2052.41
147.666
146.202
146.202
146.701
146.204
146.205
146.202
146.202
146.207
146.841
146.203
146.211
146.201
146.202
146.202
146.823
146.202
146.202
737.278
146.201
146.204
146.201
146.202
1168.67
146.202
161.54
146.205
146.219
146.202
146.202
146.201
146.202
146.202
146.21
146.206
146.715
1039.78
146.201
146.202
146.204
146.202
146.206
146.201
146.202
146.202
146.208
146.206
146.208
146.202
146.911
2868.49
641.609
146.211
149.529
146.203
146.206
579.308
146.207
155.267
146.21
146.543
146.201
146.201
146.203
146.201
146.208
146.202
150.616
147.818
146.201
146.201
146.201
146.205
146.205
146.208
146.201
146.201
146.201
147.114
150.386
147.077
146.207
146.201
151.067
152.243
147.148
146.208
146.203
146.201
146.208
146.202
146.223
146.213
146.206
152.214
146.493
149.158
151.072
149.789
149.808
146.204
151.821
146.202
149.492
146.201
150.514
146.336
150.748
261.896
146.202
146.201
146.202
220.914
1042.87
146.202
149.643
146.205
2085.96
146.202
146.201
146.201
146.204
147.617
146.202
146.202
146.203
146.202
146.202
146.202
148.943
149.237
146.32
146.201
146.202
148.992
146.201
146.202
197.475
2054.13
187.833
146.201
146.201
146.827
196.952
146.201
146.201
237.184
147.706
988.533
146.201
148.293
146.209
146.201
146.207
146.201
146.201
146.202
146.204
146.201
146.202
146.202
146.201
146.203
146.202
146.201
146.201
146.201
146.202
146.203
146.201
146.201
146.201
146.202
146.202
146.583
148.83
146.946
146.201
146.201
146.202
146.202
146.575
146.202
146.202
146.206
146.202
146.201
146.202
146.205
146.202
146.201
146.201
146.202
146.201
146.677
146.201
146.813
147.503
149.453
146.201
146.201
147.313
146.201
146.201
146.201
146.202
146.202
146.201
146.201
146.202
146.202
146.202
474.518
292.322
146.201
146.202
146.201
146.202
146.202
146.201
146.201
146.201
334.289
149.063
146.202
148.972
146.202
146.202
148.784
149.351
146.202
146.222
201.894
146.202
146.202
146.201
146.203
146.202
149.102
146.201
148.883
146.201
146.202
146.201
146.672
146.825
146.517
146.202
146.201
146.202
146.202
146.202
146.202
146.202
146.202
146.202
146.201
146.985
146.201
146.202
146.202
146.201
146.201
146.201
146.201
146.253
149.713
146.235
146.202
146.203
146.201
146.201
146.204
146.202
146.201
146.202
149.502
146.205
146.202
146.202
146.675
146.201
146.469
146.202
146.202
146.454
146.202
146.575
2429.9
146.38
146.208
146.201
146.287
146.304
146.202
146.201
146.201
146.201
146.278
146.202
146.205
146.272
186.642
149.765
147.718
146.201
146.203
219.496