/*--------------------------------*- C++ -*----------------------------------*\
| =========                 |                                                 |
| \\      /  F ield         | OpenFOAM: The Open Source CFD Toolbox           |
|  \\    /   O peration     | Version:  v2012                                 |
|   \\  /    A nd           | Website:  www.openfoam.com                      |
|    \\/     M anipulation  |                                                 |
\*---------------------------------------------------------------------------*/
FoamFile
{
    version     2.0;
    format      ascii;
    class       volScalarField;
    location    "4";
    object      ILambda_15_0;
}
// * * * * * * * * * * * * * * * * * * * * * * * * * * * * * * * * * * * * * //

dimensions      [1 0 -3 0 0 0 0];


internalField   nonuniform List<scalar> 
108993
(
146.256
146.297
146.202
146.202
146.202
146.204
146.415
146.202
146.202
146.248
146.203
146.203
146.202
146.203
146.21
146.214
146.259
146.203
146.202
146.204
146.203
146.202
146.205
146.221
146.202
146.204
146.202
146.203
146.204
146.202
146.202
146.205
146.202
146.253
146.202
146.203
146.201
146.202
22014.2
848.977
146.206
146.202
146.203
146.202
146.294
22675.7
146.201
146.338
146.205
146.203
146.202
146.47
146.257
146.201
146.206
146.233
146.202
146.202
146.202
146.202
146.202
146.202
146.204
146.202
146.202
146.204
146.202
146.202
146.211
146.94
146.215
146.202
146.202
146.202
146.209
146.202
146.202
146.258
146.202
146.202
146.202
146.21
146.202
146.202
146.204
146.204
146.202
146.203
146.202
146.202
146.202
146.202
146.202
146.202
146.202
146.212
146.202
146.203
146.202
146.202
146.202
146.202
146.214
146.223
146.203
146.202
146.205
146.202
146.202
755.555
146.441
146.202
146.594
146.818
146.202
146.926
146.202
146.203
146.323
146.202
146.203
146.202
146.617
146.203
146.202
146.243
146.208
146.214
146.202
146.202
146.209
146.202
146.202
147.304
146.202
146.202
146.202
146.202
146.202
146.204
146.202
146.202
146.228
146.202
146.202
146.202
146.203
1626.03
146.203
148.688
148.972
146.203
146.205
149.462
146.202
146.434
146.224
146.202
146.202
146.244
149.373
146.202
146.202
146.21
146.204
146.692
146.202
146.202
146.202
146.202
146.202
146.221
146.299
146.202
146.207
146.204
146.693
146.202
146.202
146.202
146.218
146.202
146.202
146.203
146.212
146.203
146.202
146.207
146.215
146.203
146.203
146.202
146.203
146.638
146.202
146.206
146.206
146.203
146.202
146.203
146.202
146.642
146.204
146.202
146.6
146.762
146.202
425.761
146.202
199.033
146.388
146.202
146.698
282.394
37975.6
146.202
146.226
146.202
146.202
146.202
146.203
148.834
146.282
146.647
146.201
146.202
146.202
146.202
146.87
146.202
237.754
146.214
146.202
146.203
146.202
146.201
146.202
146.202
173.53
146.202
146.202
146.202
146.202
146.202
146.202
146.273
353.372
146.522
146.202
146.202
146.202
146.202
146.202
146.202
146.202
146.202
146.202
146.203
146.202
146.203
146.202
146.21
146.264
146.275
146.202
146.202
146.202
146.204
146.203
146.202
146.202
146.202
539.107
89.5206
1049.67
146.202
146.202
146.805
146.203
146.204
146.204
1128.22
4418.84
146.202
146.202
146.218
146.202
146.204
146.21
2761.83
146.203
146.202
146.204
146.202
146.202
146.202
146.202
146.202
146.241
146.202
146.654
146.959
146.203
146.202
146.202
146.208
146.201
146.235
146.212
475.405
146.202
146.202
146.296
146.203
146.21
147.348
146.202
146.306
12510.5
146.202
146.221
146.201
146.203
146.203
146.203
147.192
4123.91
147.209
146.202
146.209
146.202
147.38
148.752
146.202
1870.2
146.211
146.202
146.202
146.202
146.202
146.202
146.61
146.203
146.203
146.212
146.205
146.202
146.202
146.201
146.202
146.202
146.203
1004.09
1153.03
146.201
146.203
146.203
2074.54
146.202
146.202
146.209
146.203
146.202
146.202
146.207
146.203
146.202
146.202
146.209
2844.13
146.23
146.218
146.202
295.381
146.203
200.216
146.243
146.202
147.384
146.202
148.492
148.94
146.203
146.465
146.208
146.218
146.23
224.124
146.205
468.32
153.252
146.216
156.35
146.204
468.005
146.203
4185.92
146.202
146.349
146.202
146.203
147.165
148.186
146.202
146.202
146.215
146.221
146.203
146.205
168.27
146.203
146.202
21451.5
146.213
146.203
146.202
228.254
146.246
366.464
146.202
321.876
146.246
318.08
146.202
146.202
167.251
146.203
147.556
173.319
146.202
4203.42
6283.46
2170.98
146.202
146.202
146.233
146.201
146.203
146.202
146.202
146.213
146.202
146.202
146.202
154.152
146.366
146.248
146.299
146.202
146.202
146.203
146.202
146.202
146.272
146.202
146.217
146.215
146.202
146.202
146.202
146.548
146.203
146.547
147.856
146.238
146.202
146.206
146.547
146.202
146.202
146.244
146.202
146.202
146.205
146.201
146.252
146.202
146.41
1245.87
146.36
146.203
146.202
146.202
146.202
146.203
146.202
146.202
146.202
146.249
146.258
146.208
146.218
146.3
146.202
146.472
146.202
146.203
146.202
146.202
146.212
146.201
146.202
146.202
146.202
146.33
147.268
146.202
146.202
525
146.202
146.397
146.351
146.202
146.239
146.202
146.202
146.203
146.202
146.219
146.206
146.202
146.202
146.29
146.255
146.204
146.283
146.216
146.202
146.27
146.237
146.208
146.203
146.281
146.203
146.202
146.202
146.652
146.205
146.245
1113.83
146.208
1102.46
146.202
146.203
146.202
146.202
146.202
146.263
146.202
146.202
146.628
146.207
13366.1
146.205
146.209
146.207
146.201
146.203
342.266
146.209
146.271
146.202
146.202
146.32
338.765
154.647
146.228
146.202
146.204
146.204
146.202
146.283
4981
359.304
148.126
146.21
146.21
343.602
1311.06
146.676
146.245
146.225
146.202
146.202
146.233
146.507
23673.1
341.991
146.208
146.202
146.206
146.208
146.222
146.202
98.0403
146.202
146.202
146.208
146.42
146.231
146.202
146.204
88.8594
146.267
146.203
146.21
89.1383
146.211
146.284
146.202
147.6
146.203
146.233
146.202
146.237
146.202
146.254
146.209
242.397
146.202
146.778
146.202
146.227
1757.6
146.238
146.202
146.202
146.469
12073.3
146.231
148.64
146.204
146.676
147.054
146.21
146.204
146.208
826.133
146.347
146.41
146.205
146.416
146.202
146.216
146.202
146.215
146.208
146.364
146.266
146.231
146.225
146.47
669.374
699.734
148.657
146.225
146.44
707.125
164.541
809.754
587.988
146.203
146.288
146.202
146.202
146.204
146.254
146.221
286.899
776.235
146.247
146.325
146.613
870.726
858.792
146.202
146.439
146.245
146.203
1202.74
146.387
168.88
146.234
146.218
2749.43
146.237
152.835
146.243
146.245
610.771
146.202
146.203
146.312
146.221
146.203
377.435
146.223
677.54
146.258
167.449
146.443
146.202
146.201
146.201
146.241
146.202
146.267
146.208
146.202
146.201
146.286
1387.18
12273.5
146.208
304.703
146.204
146.45
146.24
146.202
146.408
146.222
146.224
146.703
146.275
146.206
146.269
146.566
146.46
146.558
146.202
146.319
146.229
146.214
146.237
146.204
146.202
150.808
146.202
146.202
146.286
146.203
146.373
1902.53
776.95
146.239
146.451
146.294
146.283
146.255
146.258
146.224
146.202
146.202
146.24
146.202
146.473
146.202
146.203
146.303
146.207
146.263
146.202
146.243
146.206
148.654
146.203
146.233
662.868
146.202
146.202
146.21
146.685
146.202
146.906
146.681
146.219
146.211
2630.32
148.097
146.241
146.202
146.931
146.21
146.211
146.347
146.203
146.454
146.202
146.202
148.843
146.202
5812.67
146.202
146.203
3843.67
146.238
547.355
146.33
154.322
146.202
146.4
146.269
146.202
146.203
146.227
146.202
146.217
146.203
146.203
146.202
146.203
146.204
146.202
148.672
146.202
146.86
146.205
146.208
2359.22
146.206
461.052
146.212
146.204
146.245
8650.83
146.432
146.204
146.597
146.58
146.258
146.468
538.3
146.278
146.203
146.309
146.203
146.203
151.688
4068.26
146.203
146.25
146.223
146.66
146.234
146.209
147.165
146.214
146.203
47.9929
146.208
47.4125
146.228
37.6149
146.21
146.37
146.234
146.41
146.551
146.21
146.234
146.232
147.071
146.256
2782.76
146.201
146.201
146.203
146.334
146.225
146.389
146.202
146.202
146.37
2362.02
146.202
146.375
146.442
159.602
146.203
146.454
1047.81
2637.85
146.279
146.962
146.205
148.606
146.202
149.22
3987.1
8032.98
146.202
146.202
146.431
146.257
146.41
146.201
146.202
146.486
146.56
146.202
146.69
146.283
146.21
148.148
146.201
146.216
140.581
10286.8
146.219
146.331
146.202
146.203
146.292
146.722
148.26
146.21
148.609
146.281
146.27
146.234
146.203
146.302
146.227
146.205
146.202
146.272
146.205
146.718
146.205
146.202
146.439
146.202
146.342
146.407
146.275
146.265
146.202
147.848
146.219
311.422
146.221
146.232
146.202
146.447
146.672
146.202
146.246
148.441
146.6
146.642
146.203
146.266
146.544
146.688
146.205
146.489
1047.18
146.275
146.238
146.26
146.209
146.602
2075.65
146.631
146.387
146.35
146.278
146.244
146.206
146.208
146.372
147.99
146.25
146.202
146.206
146.349
146.201
146.206
146.202
146.359
146.213
146.202
146.21
146.206
146.204
146.209
146.206
147.544
146.213
146.203
146.224
146.202
973.771
146.202
146.208
146.207
146.207
146.206
712.422
146.248
146.202
146.211
146.202
146.761
146.226
146.765
146.202
146.21
146.584
146.203
146.654
146.339
154.77
146.204
146.215
146.213
146.206
146.204
146.275
146.203
146.204
146.204
146.202
147.971
146.204
146.29
146.202
146.204
146.298
146.296
146.254
146.292
146.204
146.202
146.213
146.618
146.203
146.201
146.202
18617.9
146.205
146.524
146.202
146.289
146.212
146.201
923.424
146.587
146.232
146.447
741.366
146.281
146.387
146.404
1049.75
146.205
146.205
146.207
146.358
146.288
205.306
146.247
146.206
146.247
146.208
146.28
146.203
146.311
146.686
146.337
146.244
146.936
146.4
146.257
146.202
146.202
146.202
146.202
146.202
146.202
146.254
146.874
146.204
1393.13
146.25
146.203
146.202
146.25
147.66
146.202
146.25
146.225
146.297
146.202
146.248
149.519
146.276
146.202
146.569
146.203
146.206
146.21
146.202
146.201
146.208
7655.18
146.307
146.202
146.209
146.202
146.216
146.208
146.202
146.24
146.219
146.215
146.202
146.209
146.209
146.206
146.203
146.201
146.202
146.203
146.234
146.207
146.533
146.946
146.663
4579.91
146.206
146.202
146.205
146.207
146.206
146.206
146.203
146.202
146.203
146.666
146.21
146.303
146.203
146.203
146.205
146.216
2011
3763.61
146.204
146.203
146.202
146.266
146.204
146.202
236.706
146.202
146.202
146.201
146.202
146.202
146.223
146.246
146.223
504.731
146.206
146.208
146.224
147.21
146.511
146.26
146.204
146.231
148.47
146.202
146.284
146.222
146.219
146.214
452.858
146.608
146.201
146.314
146.202
146.387
146.302
146.22
146.204
146.202
146.205
146.203
146.261
146.202
147.438
239.323
146.299
146.202
146.201
146.291
146.203
146.202
146.203
146.202
146.203
148.279
146.35
223.929
146.202
146.258
146.205
146.249
146.567
146.206
146.201
146.478
146.292
155.57
146.395
146.414
146.874
146.202
146.235
146.243
146.202
146.225
2257.74
146.202
146.23
146.203
169.019
146.203
146.202
146.294
146.202
146.554
220.324
146.202
146.411
146.265
146.327
146.208
146.26
146.202
146.307
146.201
146.594
146.241
146.21
809.16
146.209
146.201
146.202
146.438
164.1
146.203
146.235
146.486
1399.91
146.699
146.203
146.203
146.288
146.218
163.15
158.646
154.554
146.573
153.889
146.202
173.157
173.211
146.216
146.214
146.203
146.438
146.217
146.202
146.202
146.217
146.201
146.204
146.203
146.404
146.202
146.207
146.202
146.273
146.202
146.202
146.202
146.565
147.284
146.202
146.652
146.207
146.203
146.216
146.205
146.309
146.203
146.205
146.674
146.202
146.262
146.267
146.201
146.268
425.823
146.266
146.253
146.27
146.243
146.666
146.266
146.202
146.208
146.202
146.265
146.202
146.202
146.214
146.207
146.247
146.203
147.694
146.265
146.631
647.459
146.202
146.53
146.201
146.207
146.209
146.204
146.204
721.342
156.397
146.368
146.263
193.341
146.477
146.204
146.257
146.202
146.259
146.265
146.268
149.227
146.202
146.202
146.209
146.242
146.209
146.203
146.203
12989.2
3051.56
146.244
146.202
146.727
146.206
146.207
146.215
146.203
146.585
146.202
146.207
146.248
146.243
310.304
146.23
146.245
146.496
146.68
146.207
146.347
148.915
146.207
146.203
146.27
146.701
146.314
146.202
146.263
146.507
146.454
752.35
146.268
146.271
807.633
146.213
146.203
610.11
146.214
146.202
146.22
146.203
1361.77
146.204
146.214
147.2
146.222
4195.08
146.211
1198.44
146.222
146.227
1279.56
146.261
146.228
7915.81
146.282
146.203
147.029
146.203
146.202
146.217
2946.11
146.477
146.209
146.47
146.202
148.094
1871.71
158.026
146.244
682.249
146.209
173.345
146.202
146.209
146.203
146.202
146.201
146.202
146.202
146.202
146.67
149.279
146.399
158.186
146.202
146.202
146.203
146.202
146.202
146.202
194.283
146.709
146.203
146.202
146.202
146.572
146.437
146.206
146.729
146.202
146.203
146.202
146.828
11040.3
146.655
587.876
147.585
146.203
146.249
149.087
146.213
146.202
146.204
1087.12
995.266
171.041
153.197
146.202
146.202
72728.2
146.202
146.957
146.202
146.202
146.215
146.202
146.689
146.203
146.756
865.58
146.532
146.987
146.481
146.386
146.202
146.573
146.202
146.216
146.202
146.202
146.202
146.202
146.26
146.202
146.241
146.711
146.614
147.174
146.203
146.202
17521.7
149.151
146.202
146.562
146.202
146.211
152.424
835.666
30978.5
149.205
146.202
213.301
6570.56
149.704
146.202
171.68
156.171
147.762
263.626
146.225
34451.1
146.945
146.203
146.623
147.01
154.795
146.325
146.64
146.354
146.212
287.05
7174.28
25784.6
146.202
146.202
40879.9
146.202
146.331
147.373
146.202
392.179
146.287
146.215
146.259
146.212
146.208
146.324
147.176
1077.91
146.919
511.006
146.203
147.398
146.376
146.345
146.205
146.218
146.241
146.22
146.203
146.218
146.249
146.209
146.206
146.221
204.046
146.353
146.229
28579.1
146.31
146.205
161.245
146.207
146.247
146.206
146.212
146.202
146.244
338.698
146.719
146.558
146.858
643.245
146.229
146.248
365.293
147.261
146.442
152.867
146.202
146.406
146.201
148.201
146.288
159.941
146.204
146.201
146.203
146.202
148.56
146.202
377.263
146.201
147.311
147.317
146.209
146.201
1043.86
149.506
396.551
149.207
146.202
147.842
15492.9
146.202
146.256
146.506
146.383
326.037
146.202
355.941
149.667
885.579
306.651
300.939
149.035
357.485
146.217
63352.4
1881.85
146.348
148.269
146.209
146.369
159.929
146.214
148.012
146.298
146.229
146.205
146.392
162.019
146.225
146.206
146.242
146.204
146.201
146.205
146.283
146.245
12746.2
147.317
146.228
5051.97
146.313
146.202
146.287
169.129
1560.97
146.562
146.479
585.403
147.347
24191.9
147.329
146.203
518.716
146.212
146.203
146.21
199.357
146.204
146.451
146.847
147.437
147.723
1425.11
146.204
180.46
146.473
146.203
146.202
146.203
146.203
146.203
146.252
841.147
147.376
61939.2
146.252
341.738
146.427
1037.34
146.225
146.818
149.806
230.301
146.204
146.207
146.203
146.202
146.202
146.201
146.226
147.825
146.481
160.961
161.09
146.571
447.005
1236.3
29235.2
147.51
146.203
433.938
146.579
146.202
146.204
149.491
188.69
146.201
146.204
146.203
146.321
146.202
204.234
490.788
604.153
149.449
146.202
178.411
146.987
146.201
146.407
146.202
146.247
147.297
146.223
146.239
285.939
146.32
146.203
146.25
146.203
146.202
146.204
146.593
146.385
146.203
147.164
146.541
675.233
146.43
146.259
146.205
146.203
146.252
146.241
147.154
2085.19
146.256
146.202
21963.5
146.264
146.202
146.269
146.269
146.682
2672.77
11331.8
147.747
147.026
146.202
388.834
146.268
293.633
1602.33
146.202
255.666
146.202
146.202
1379.73
146.202
146.265
2214.55
359.488
2195.03
2537.98
146.204
147.059
146.753
250.278
146.237
146.229
1504.63
2182.85
717.708
203.199
146.567
146.243
146.684
692.595
821.654
153.362
146.489
2547.05
146.203
146.202
29103.7
1444.5
147.173
147.186
148.158
222.856
2899.44
146.202
146.792
146.205
1618.39
146.204
146.676
146.976
146.202
1476.04
146.204
2011.16
2144.62
146.204
146.205
516.245
146.204
146.202
146.202
146.203
418.321
146.204
2042.63
16903.6
146.202
146.202
799.207
146.229
146.203
146.686
146.203
146.203
146.203
146.203
215.776
222.301
871.619
146.203
146.202
1163.2
146.202
150.913
249.585
146.202
146.202
146.205
146.206
187.393
146.202
146.205
146.202
146.202
146.202
3433.79
7446.2
146.216
146.204
28711.9
146.203
146.509
146.202
147.113
146.203
225.348
343.371
146.205
146.208
146.321
146.863
2613.76
146.202
147.819
146.24
146.202
146.238
146.291
146.202
146.455
146.202
373.614
146.202
146.202
146.203
146.278
146.205
612.72
147.275
146.202
146.202
877.903
146.202
184.146
146.246
146.202
29220.7
3227.33
170.81
146.214
146.261
146.665
2335.02
146.202
5623.12
146.202
2543.41
1393.08
146.216
148.452
1374.46
2079.51
22574.4
847.997
146.232
146.202
146.203
146.472
148.925
146.226
1772.53
146.212
146.229
146.202
146.455
866.796
868.373
146.202
146.93
164.334
146.202
755.247
146.202
146.203
146.203
2238.18
500.821
625.445
146.203
146.203
146.203
1212.42
146.484
2193.71
146.202
146.202
1259.23
149.215
146.203
146.202
22999.9
146.202
146.202
146.583
6092.93
146.902
146.523
146.203
10593
239.764
161.293
148.667
146.224
665.043
146.207
146.591
1167.82
236.521
147.817
600.851
168.261
195.284
146.203
22439.7
955.714
148.505
146.203
149.05
22235.7
146.202
728.447
167.315
146.202
149.521
146.203
2650.62
146.877
146.775
612.868
699.814
146.204
146.203
146.217
146.42
51970.3
146.203
268.867
211.505
146.202
146.202
146.202
146.204
146.453
146.208
146.4
146.206
4759.87
146.203
148.207
146.202
146.634
146.203
146.253
147.382
146.202
146.202
146.203
146.203
146.241
23376.3
26415.2
146.776
146.606
146.204
146.204
146.203
146.215
146.238
146.218
146.204
147.111
146.688
31995.2
146.209
146.204
146.203
146.692
146.226
146.203
146.458
146.218
146.297
28063.8
146.334
147.275
146.205
146.231
147.479
148.949
146.202
146.217
146.393
146.203
146.497
146.233
146.24
146.399
146.217
146.203
146.22
146.219
147.429
146.21
160.978
146.203
146.394
146.212
146.202
146.409
146.237
146.534
146.217
146.203
146.202
791.856
37.327
146.204
161.423
36.783
146.207
146.295
146.233
146.259
40.958
146.203
146.26
146.489
146.207
42.1062
146.255
146.201
146.222
146.205
146.224
146.201
146.202
146.215
146.201
161.786
146.203
146.201
146.413
146.201
146.273
147.081
146.213
146.201
153.493
150.016
146.224
146.23
146.201
146.249
146.629
146.203
146.203
146.598
146.228
146.227
146.234
146.245
146.206
146.203
146.254
146.43
1506.1
147.059
2989.06
146.273
146.268
146.228
146.203
2689.9
146.224
146.216
148.397
146.23
918.273
146.203
146.226
146.255
150.921
146.679
146.28
146.771
146.203
146.266
147.147
146.206
146.445
146.222
146.263
146.328
146.419
146.97
146.274
147.668
146.426
147.507
146.253
146.246
146.202
146.733
146.244
146.232
146.206
146.205
146.322
146.203
146.283
146.233
146.202
146.202
146.205
146.344
183.088
146.202
146.227
146.249
146.202
146.433
146.202
146.362
146.238
146.21
146.203
146.202
146.236
146.202
146.202
146.202
146.223
146.203
146.202
146.736
146.204
146.325
153.675
146.203
146.243
146.33
146.202
146.207
146.211
146.201
146.202
146.485
146.39
146.238
146.203
146.28
146.201
146.324
146.505
146.201
146.203
146.273
146.201
146.203
146.533
146.202
146.247
146.532
146.232
146.201
146.225
525.939
1185.55
146.249
146.202
146.201
146.205
146.298
146.23
146.202
146.202
146.22
1413.77
146.203
146.202
146.202
2308.54
214.601
146.25
2115.62
146.267
146.211
146.443
146.268
146.204
146.21
990.412
146.367
146.203
165.926
2110.5
146.203
146.203
2244.29
146.669
2451.27
146.203
146.236
146.204
146.218
2065.32
146.203
2069.76
146.225
146.212
1983.99
146.231
146.205
146.723
2110.03
146.209
146.348
1906.58
146.209
146.495
1965.72
146.563
146.416
146.205
146.572
147.381
146.489
343.274
146.202
146.229
146.473
146.207
146.454
187.848
146.204
146.386
146.205
188.17
146.284
146.204
146.209
146.203
146.249
146.202
193.392
302.729
146.205
158.906
184.826
273.233
146.204
146.524
387.363
146.202
191.895
146.338
146.523
146.228
193.081
146.202
146.202
146.257
146.202
148.821
146.243
146.241
503.683
146.692
146.203
146.255
146.245
146.246
146.208
146.203
146.245
146.27
146.509
146.228
147.19
586.772
146.244
146.227
6822.6
215.738
146.204
146.241
147.203
146.706
173.536
146.253
156.15
146.287
146.693
6938.47
324.001
146.228
146.456
289.407
150.446
146.211
146.365
312.349
146.234
146.471
146.458
1549.91
146.626
146.21
2501.77
146.204
146.241
146.51
146.204
8315.5
146.205
149.332
7365.79
451.803
146.203
146.232
146.202
1563.01
146.293
149.676
146.248
3388.71
7242.5
146.699
146.202
148.527
167.069
243.097
157.18
151.75
146.203
146.335
146.224
146.276
146.202
146.203
146.202
146.228
146.207
146.202
146.267
92645.1
146.203
146.291
146.209
146.801
146.61
146.21
199.153
146.202
146.227
146.267
146.205
146.204
146.205
146.247
146.202
146.24
146.246
55076.7
146.202
146.738
146.327
5780.38
146.202
146.484
146.548
146.202
146.203
46927.9
146.202
146.217
146.202
146.211
146.203
146.238
146.202
146.203
146.203
146.217
146.709
147.82
146.202
146.224
146.202
146.625
146.438
146.226
146.202
1196.74
146.205
146.229
146.202
146.522
146.22
146.202
146.202
19570.7
3383.04
146.205
226.861
146.225
146.201
146.219
146.576
146.225
146.256
146.591
146.224
146.216
146.59
146.219
147.154
2383.52
146.204
146.207
146.233
1705.67
146.217
146.313
146.206
146.202
146.203
146.203
146.203
146.535
146.22
146.373
146.359
1059.16
2536.52
146.204
235.822
148.632
146.205
290.376
97515.4
146.201
146.523
147.059
146.211
146.204
146.202
146.602
299.818
146.209
146.208
146.203
146.214
146.216
146.702
146.222
146.606
146.264
146.204
146.641
1212.33
146.208
146.206
146.204
856.23
4408.61
146.202
146.223
146.201
146.286
159.206
694.578
146.206
146.649
146.256
146.352
146.202
146.204
18702.2
146.202
146.202
146.202
146.202
146.392
146.261
146.463
146.245
146.223
146.204
146.204
146.202
499.325
204.08
146.204
146.628
146.202
146.202
146.203
1234.47
176.676
20187.1
146.257
146.205
146.202
146.204
146.237
146.257
6930.46
146.225
146.202
146.207
1445.76
4035.92
146.239
146.202
7448.91
7247.78
146.694
2152.48
477.487
146.424
1145.49
147.337
146.204
146.206
146.204
146.211
146.204
146.249
27931.2
1728.89
153.387
148.057
840.834
146.251
146.916
147.032
146.695
146.228
309.317
146.226
205.65
147.182
146.201
158.129
152.806
146.206
146.207
14809.5
146.214
146.201
1639.78
1360.98
146.203
146.204
146.203
146.206
146.245
146.201
146.205
169.21
21182
146.204
146.249
146.244
156.455
149.011
146.202
146.201
146.202
1146.93
146.217
146.208
146.665
146.201
146.272
146.202
146.202
3009
146.233
146.202
146.202
146.202
146.238
146.224
146.245
146.202
146.568
146.219
146.202
146.566
146.202
146.211
146.202
146.214
146.203
146.202
146.234
146.202
146.202
1407.13
146.202
148.281
146.24
146.202
146.202
146.212
146.224
146.252
155.392
148.435
629.102
148.888
146.3
161.109
146.235
148.587
149.721
146.223
197.14
146.202
146.25
146.203
146.202
146.202
146.217
146.449
155.69
146.202
1740.88
146.204
146.261
146.226
146.202
146.253
146.204
146.418
20078.4
176.598
146.204
146.202
146.412
176.558
146.425
146.244
274.975
146.24
257.153
146.203
146.203
146.567
218.264
245.5
225.664
243.734
308.435
156.046
2087.56
618.644
234.126
146.206
146.204
146.21
146.207
146.452
967.773
146.337
168.72
1002.46
1006.53
146.238
1014.77
147.113
146.203
146.202
146.202
146.949
153.297
146.451
146.204
146.948
746.22
146.709
17039.4
146.961
146.862
722.975
146.204
146.356
751.41
146.314
146.203
146.259
146.724
146.202
146.202
501.169
146.204
146.202
148.127
146.205
537.346
150.831
146.206
147.737
146.924
147.642
146.783
147.146
146.932
152.806
146.22
146.203
147.889
146.769
147.292
146.859
146.256
146.825
146.274
238.447
12836.7
146.203
146.232
148.725
146.206
1667.62
146.21
146.203
146.204
148.642
146.203
260.427
146.201
146.223
146.736
148.828
149.332
146.243
146.202
147.052
4137.84
1890.77
146.202
1346.76
29102.8
149.689
10325.4
146.214
968.049
146.202
146.392
146.214
146.202
146.203
146.202
146.203
5531.87
146.202
146.391
146.202
146.202
146.205
146.204
146.219
146.339
148.778
146.202
146.202
2341.73
146.205
3374.64
146.264
146.202
849.574
146.219
146.202
146.202
3232
146.21
146.202
146.251
146.238
146.203
146.202
146.525
146.202
146.202
146.205
146.202
146.202
146.203
146.244
147.21
146.202
146.331
146.202
146.568
146.202
146.261
146.203
146.926
146.203
146.203
146.203
146.203
146.73
146.205
146.203
146.202
146.202
146.202
6875.3
146.202
146.202
146.215
146.204
146.239
151.897
146.202
146.202
146.204
146.317
146.203
146.204
146.202
146.272
146.202
146.202
146.203
147.754
146.207
146.203
146.202
146.203
146.208
146.203
3083.01
146.317
146.219
146.265
146.209
146.72
146.232
146.696
215.319
146.238
146.634
146.207
146.203
146.203
146.205
2767.43
146.204
146.202
2592.89
146.203
146.202
146.203
146.202
146.223
146.212
8056.17
146.205
146.202
146.205
2825.78
3733.06
3626.37
146.644
148.517
304.68
146.204
146.226
146.231
3411.11
146.204
146.206
146.206
146.203
5029.62
146.202
146.203
146.206
146.689
146.587
146.691
146.889
146.201
147.088
146.531
146.201
151.375
146.202
146.204
146.201
146.205
146.203
146.718
146.201
148.458
146.466
151.62
147.468
162.174
146.579
146.201
146.205
146.206
146.242
146.201
146.201
146.201
146.206
147.58
146.656
146.257
177.648
146.204
162.957
146.523
155.775
146.444
146.201
150.057
146.202
146.201
146.204
514.797
187.612
155.088
146.21
156.686
146.202
146.208
146.202
146.402
146.203
2076.03
146.572
146.202
146.202
146.751
146.684
146.202
149.824
146.201
146.202
483.229
146.202
146.581
146.201
146.547
146.202
146.21
146.202
146.202
146.57
146.202
9328.04
146.207
146.414
146.202
146.223
1153.34
146.202
146.202
146.202
297.858
146.225
147.506
152.336
289.132
146.201
2424.37
146.663
146.202
146.204
573.92
146.483
146.202
224.02
1561.92
146.207
146.243
146.205
643.024
146.206
146.211
146.21
146.207
187.251
146.207
6807.99
146.204
146.774
146.206
146.204
146.352
146.207
146.22
146.238
146.204
146.62
2570.92
187.397
159.947
519.992
257.647
397.261
146.207
146.202
146.202
999.856
179.982
2159.87
174.47
146.518
149.167
519.659
3026.7
940.04
146.202
11649
2725.67
213.981
146.202
257.29
171.959
187.23
1100.93
269.154
147.191
487.203
146.208
543.286
146.227
175.676
146.375
2115.58
191.435
146.205
146.207
146.991
224.737
146.517
146.337
146.202
146.201
265.904
146.273
146.339
146.212
146.201
146.552
146.202
82396.1
146.46
146.201
146.264
201.454
146.617
12752.3
563.509
169.815
146.608
146.202
146.212
828.814
146.202
146.202
146.251
146.267
146.274
198.429
146.509
146.429
1016.91
536.658
146.203
146.203
2422.9
146.207
146.226
638.602
146.201
146.201
146.289
249.596
30834.9
406.475
146.275
146.518
146.205
510.889
808.793
146.753
42942.7
146.202
146.295
146.202
147.427
146.202
151.364
751.848
146.202
2063.05
146.202
146.202
146.569
146.429
146.695
146.312
1247.69
1924.63
146.202
146.205
146.568
178.079
146.205
146.267
12650.3
146.203
146.602
146.338
146.202
146.207
146.202
146.207
146.204
146.202
146.202
146.233
147.242
146.222
1002.18
13318.9
146.778
147.364
146.202
146.387
146.207
146.204
147.438
291.612
2049.27
147.374
146.971
150.449
146.204
146.596
7913.62
147.479
147.656
146.847
146.203
147.884
146.205
146.203
146.201
146.237
146.941
146.213
1952.05
146.201
146.385
146.238
3449.82
1184.09
146.203
147.668
147.875
154.819
148.785
147.694
146.202
146.202
148.907
146.364
146.202
146.202
146.202
146.201
146.259
146.202
6504.43
1023.78
150.865
146.939
146.644
146.677
146.206
146.201
146.201
150.036
146.203
146.202
146.203
150.055
146.235
740.797
148.324
146.799
146.517
280.385
146.382
148.492
146.206
146.207
146.628
162.976
146.932
146.204
146.204
146.21
208.95
146.203
147.601
239.229
147.007
147.989
146.203
146.252
149.548
147.836
146.204
148.229
146.737
146.64
146.204
148.56
146.418
150.271
146.203
146.204
165.014
146.302
146.203
146.205
146.784
2751.36
147.41
146.209
146.203
147.058
147.279
146.203
146.202
146.204
5159.85
149.887
494.901
147.413
146.203
3097.24
2799.74
146.207
146.203
146.349
146.285
146.386
146.377
445.071
146.205
146.406
146.21
2250.47
146.205
146.203
146.202
146.202
1724.47
322.001
146.204
2583.14
146.484
146.287
146.205
146.232
146.205
3004.45
147.308
146.203
146.203
146.485
146.204
146.207
146.207
146.202
146.208
147.252
146.203
146.632
146.204
146.202
146.203
147.346
146.205
146.203
947.979
146.205
146.228
146.204
146.427
1672.79
146.204
171.869
146.293
146.688
146.203
146.203
146.205
146.231
146.203
146.385
146.236
147.338
928.693
146.204
146.206
146.204
146.206
146.206
146.204
146.203
146.219
146.207
146.205
146.207
146.203
146.282
2683.84
868.657
146.725
147.979
146.209
146.206
519.494
146.206
151.021
146.502
146.66
146.204
146.201
146.203
146.201
146.208
146.202
146.252
148.255
146.204
146.202
146.201
146.267
146.204
146.208
146.201
146.203
146.204
146.395
146.253
146.309
146.206
146.202
146.26
146.312
146.281
146.208
146.224
146.203
146.309
146.202
146.505
146.283
146.496
146.309
146.517
150.194
146.269
147.592
147.335
146.208
199.588
146.205
148.002
146.201
149.08
146.696
148.729
229.821
146.207
146.201
146.203
342.784
858.735
146.202
147.797
146.398
2072.43
146.202
146.218
146.203
146.205
147.325
146.202
146.202
146.206
146.205
146.203
146.202
147.469
149.719
146.616
146.204
146.202
146.787
146.202
146.202
333.859
2039.68
348.921
146.201
146.203
149.09
317.84
146.201
146.202
758.273
147.627
708.156
146.201
147.745
146.235
146.203
146.208
146.202
146.201
146.206
146.217
146.202
146.202
146.205
146.203
146.206
146.203
146.203
146.201
146.201
146.202
146.226
146.203
146.203
146.201
146.202
146.205
146.61
146.801
146.65
146.201
146.202
146.203
146.203
146.659
146.222
146.203
146.204
146.203
146.203
146.203
146.443
146.202
146.202
146.204
146.203
146.202
146.309
146.201
146.31
146.303
150.747
146.202
146.202
146.361
146.201
146.202
146.202
146.202
146.203
146.203
146.202
146.203
146.206
146.204
610.265
202.117
146.201
146.205
146.201
146.202
146.203
146.202
146.203
146.202
1015.39
147.584
146.203
148.681
146.38
146.202
150.502
152.037
146.512
146.531
204.354
146.514
146.207
146.202
146.245
146.203
148.872
146.202
148.742
146.202
146.202
146.201
147.09
147.125
147.046
146.204
146.201
146.202
146.203
146.203
146.206
146.204
146.202
146.226
146.202
147.146
146.201
146.205
146.205
146.203
146.202
146.203
146.204
146.751
146.446
146.653
146.543
146.214
146.203
146.201
146.203
146.546
146.205
146.525
146.437
146.204
146.211
146.23
146.372
146.201
146.521
146.204
146.26
146.442
146.203
146.444
3363.7
149.096
146.441
146.202
146.451
149.106
146.204
146.202
146.201
146.205
146.461
146.202
146.609
148.754
1334.73
147.355
151.214
146.202
146.203
1359.06
146.203
146.231
146.203
146.223
146.202
146.215
147.31
2267.03