/*--------------------------------*- C++ -*----------------------------------*\
| =========                 |                                                 |
| \\      /  F ield         | OpenFOAM: The Open Source CFD Toolbox           |
|  \\    /   O peration     | Version:  v2012                                 |
|   \\  /    A nd           | Website:  www.openfoam.com                      |
|    \\/     M anipulation  |                                                 |
\*---------------------------------------------------------------------------*/
FoamFile
{
    version     2.0;
    format      ascii;
    class       volScalarField;
    location    "4";
    object      ILambda_11_0;
}
// * * * * * * * * * * * * * * * * * * * * * * * * * * * * * * * * * * * * * //

dimensions      [1 0 -3 0 0 0 0];


internalField   nonuniform List<scalar> 
108993
(
146.203
149.921
146.211
146.202
146.202
146.202
146.246
146.202
146.202
146.221
146.203
146.203
146.202
146.203
146.203
146.256
146.232
146.203
146.202
146.251
146.202
146.202
146.559
146.202
146.202
146.202
146.202
146.236
146.214
146.202
146.202
146.203
146.202
146.203
146.202
146.202
146.202
146.202
1672.02
3105.61
146.814
146.202
146.203
146.202
146.257
3146.64
146.202
146.205
146.203
165.938
146.202
156.093
160.239
146.202
146.203
146.202
146.202
146.202
146.202
146.202
146.202
146.202
146.202
146.203
146.202
146.207
146.202
146.202
146.203
150.76
146.202
146.202
146.202
146.202
146.202
146.202
146.202
146.21
146.202
146.202
146.202
146.204
146.202
146.202
146.203
146.203
146.202
146.203
146.202
146.202
146.202
146.202
146.202
146.202
146.202
146.203
146.202
146.202
146.202
146.202
146.202
146.202
146.202
146.203
146.202
146.202
146.202
146.202
146.202
5796.78
146.351
146.202
146.551
147.441
146.202
3277.88
146.202
146.203
146.258
146.202
146.204
146.202
194.722
146.203
146.202
146.277
147.855
146.202
146.202
146.202
146.203
146.202
146.202
154.233
146.202
146.204
146.202
146.202
146.202
146.203
146.203
146.202
146.232
146.202
146.202
146.202
146.202
3549.98
146.203
20327
21820.6
146.202
149.381
21714.5
146.202
148.734
146.203
146.202
146.202
164.862
22049
146.202
146.202
146.202
146.203
158.916
146.202
146.202
146.202
146.203
146.202
146.202
146.747
146.202
146.21
146.212
286.249
146.202
146.202
146.202
146.235
146.202
146.202
146.203
146.203
146.202
146.202
146.203
146.203
146.203
146.202
146.202
146.202
291.278
146.202
146.205
147.181
146.202
146.202
146.203
146.202
292.228
146.202
146.202
181.404
155.823
146.203
2978.18
146.202
10109.5
257.949
146.202
293.654
1781.49
12383.4
146.202
146.203
146.203
146.202
146.202
146.275
20282.3
146.215
243.129
146.422
146.202
146.202
146.203
155.205
146.203
715.121
146.202
146.202
146.204
146.202
146.202
146.202
146.202
395.999
146.202
146.203
146.202
146.202
146.202
146.202
146.265
1944.74
208.354
146.202
146.202
146.203
146.202
146.202
146.203
146.202
146.202
146.202
146.203
146.202
146.202
146.203
146.202
146.245
146.273
146.202
146.212
146.203
146.204
146.202
146.202
146.202
146.211
1752.11
520.262
2376.93
146.202
146.202
676.732
146.203
146.931
147.249
1017.45
1255.73
146.203
146.202
146.27
146.202
149.673
146.204
2504.4
146.204
146.203
150.342
146.203
146.21
146.203
146.202
146.203
146.229
146.202
156.853
3212.29
146.202
146.202
146.202
146.203
146.246
146.202
146.203
1849.27
146.202
146.202
146.218
146.202
146.203
3482.7
146.202
146.219
2386.3
146.202
153.839
146.203
146.203
146.203
146.202
222.787
807.739
515.959
146.202
146.205
161.186
436.589
325.143
146.202
813.063
146.202
146.202
146.202
146.202
146.202
146.202
2483.24
149.587
146.202
146.203
146.203
146.205
146.202
146.202
146.206
146.202
146.202
1287.91
2196.59
146.214
146.202
146.202
2645.92
146.203
146.202
146.214
149.67
146.205
146.204
146.202
152.169
146.204
146.202
146.203
2473.52
158.179
146.231
146.207
30621.6
168.029
254.166
146.204
146.202
176.524
146.202
202.751
184.38
148.626
146.287
146.203
146.224
146.227
3003.9
146.382
2459.83
170.992
146.219
189.882
146.203
574.512
156.628
3981.41
146.202
146.266
146.202
158.754
974.213
295.461
146.202
146.382
146.22
146.229
146.202
146.208
1217.1
146.203
150.567
2361.91
146.202
146.203
146.202
21434.7
146.264
3395.29
146.202
2139.78
155.958
2418.31
146.202
146.202
459.92
146.202
2735.78
621.509
146.202
3848.03
3461.14
2866.16
146.202
146.202
146.231
146.344
146.218
146.203
146.202
146.203
146.203
146.203
146.202
303.646
324.812
316.544
146.644
146.203
146.202
146.204
146.202
146.203
146.205
146.203
146.202
146.203
146.202
146.203
146.202
156.922
146.209
169.261
10342.8
146.254
146.208
146.202
168.449
146.209
146.209
146.246
146.202
146.202
158.693
146.355
146.245
146.202
229.097
1667.53
146.276
146.202
146.202
146.202
146.205
146.217
146.205
146.209
146.207
146.297
146.203
146.203
146.202
146.265
146.208
146.262
146.202
146.217
146.203
146.204
147.077
146.202
146.202
146.202
146.205
146.302
7824.1
146.205
146.202
1151.63
146.205
146.266
298.193
146.202
146.213
146.204
146.202
146.202
146.203
146.207
146.203
149.166
149.148
289.168
146.545
146.21
146.337
146.237
146.203
146.346
146.389
146.211
146.202
146.304
146.203
146.202
146.202
146.768
146.203
146.219
1294.1
146.202
2519.17
146.202
146.202
146.202
146.202
146.202
146.324
146.202
146.202
160.75
146.211
1017.91
146.202
146.203
146.202
146.202
208.077
43289.9
146.282
146.204
146.202
146.204
199.099
374.904
249.755
146.203
146.202
152.801
146.875
146.203
165.262
20333
355.844
2225.84
183.944
146.203
392.897
509.292
330.727
146.214
146.203
146.203
146.202
146.202
146.261
2112.5
366.252
146.203
146.202
157.068
146.202
146.208
146.204
431.311
146.202
146.202
146.202
146.229
146.243
146.204
146.203
677.339
146.314
146.203
146.202
579.884
146.202
146.232
146.203
147.868
146.204
146.406
146.203
176.852
146.203
146.241
146.202
1904.83
146.202
151.043
146.202
146.203
4064.6
146.221
146.202
146.202
1188.74
2178.93
146.256
3956.26
146.415
2326.98
166.412
146.242
146.202
146.202
3129.92
146.26
146.487
146.204
146.661
146.203
178.476
146.202
146.25
146.216
146.42
146.237
146.25
146.248
146.264
3321.91
1153.78
146.458
146.206
146.65
1296.71
303.829
1719.7
866.309
146.202
146.246
146.203
146.202
180.239
146.244
146.295
2680.79
2962.66
146.284
148.314
147.915
1165.44
1407.97
146.202
186.57
146.247
146.202
3508.76
147.415
380.83
146.245
146.264
3251.35
146.291
273.38
146.248
146.241
30071.7
146.202
146.203
146.26
146.209
146.203
20614.5
146.217
959.695
146.219
25647
147.531
146.203
146.205
146.205
146.244
146.202
146.265
146.381
146.202
146.205
186.556
2244.94
8137.84
146.202
9104.54
146.203
146.432
146.263
146.202
146.332
146.206
146.241
219.501
146.257
146.203
146.254
265.552
146.35
1514.24
146.202
146.469
146.244
146.259
146.254
146.205
146.202
390.177
146.203
146.205
146.212
146.203
146.261
9216.71
1951.46
146.23
208.787
146.245
146.24
146.238
146.22
146.203
146.203
146.203
146.231
146.202
302.879
146.204
146.236
146.247
146.202
146.242
146.203
146.231
146.208
146.358
146.3
146.207
711.434
146.202
146.203
146.209
350.025
146.202
1909.96
512.168
146.206
146.211
958.749
203.48
146.228
146.207
146.386
146.21
146.21
181.125
174.725
320.596
146.202
146.202
146.221
146.202
2894.29
146.202
146.203
9108.86
146.29
338.148
146.628
270.748
146.202
311.361
146.274
146.202
146.206
146.291
146.203
146.203
146.203
146.202
146.203
146.208
146.718
146.202
146.498
146.203
146.7
146.203
146.203
34888.1
146.203
33263.5
146.216
146.203
146.223
2692.63
282.335
146.203
146.215
152.839
146.219
146.232
2301.17
146.216
146.211
146.335
146.203
146.221
152.597
9442.61
146.222
146.202
146.216
213.228
146.221
146.204
149.125
146.205
146.203
252.864
146.211
520.617
146.211
72.5413
146.212
305.469
146.243
146.291
146.559
146.203
146.24
146.241
161.698
168.768
2609.22
146.354
146.677
146.204
146.308
146.291
146.291
146.202
146.203
146.268
2539.37
146.202
146.273
146.249
338.719
146.204
146.464
1669.72
2705.28
154.692
146.417
147.402
581.673
146.202
255.184
3083.08
666.032
146.202
146.202
146.257
146.235
146.86
147.022
146.202
146.257
171.75
146.202
146.666
323.243
146.204
218.187
146.291
146.202
4369.12
1417.93
146.202
146.249
146.202
146.203
146.249
184.234
1857.05
146.203
806.116
146.241
146.245
146.209
146.203
146.247
146.244
146.207
146.202
146.241
146.279
170.045
146.203
146.202
156.125
146.202
146.265
146.262
146.242
146.248
146.202
266.496
146.202
947.53
146.203
146.21
146.202
146.787
174.089
146.203
146.22
2345.11
146.953
4169.38
146.202
146.262
1312.14
716.687
146.203
146.328
538.123
146.258
146.22
146.251
165.017
146.533
5014.31
153.178
146.396
146.293
146.234
146.238
267.195
221.532
146.306
6847.09
146.22
146.202
146.206
146.367
146.202
146.202
146.202
146.374
146.204
146.209
146.204
146.206
146.204
146.203
146.205
147.403
146.203
146.204
146.225
146.202
6581.16
146.202
146.202
146.207
146.202
146.207
1652.42
152.328
146.85
146.204
146.202
146.372
146.257
147.448
153.404
146.205
1841.47
146.203
319.098
146.34
352.701
146.202
146.205
146.205
146.202
146.231
196.421
146.203
146.202
146.204
146.202
2249.13
146.203
196.606
146.202
146.203
161.199
150.286
146.35
146.592
146.203
146.203
162.692
168.657
146.202
146.202
146.202
975.834
146.214
279.048
146.202
146.236
146.252
146.202
1011.69
146.388
146.239
187.508
2471.83
146.297
146.264
279.51
1779.34
146.203
146.202
146.202
146.799
146.22
1900.12
146.283
146.289
146.234
146.551
146.283
146.209
146.305
146.684
146.251
146.209
146.418
147.532
146.304
146.202
146.202
146.202
146.203
146.202
146.202
146.203
208.197
146.212
5983.5
146.205
146.203
146.203
146.258
147.244
146.202
146.204
146.203
146.226
146.202
146.23
4237.37
146.27
146.202
2103.75
146.202
146.203
146.203
146.202
146.202
146.512
21704.8
146.256
146.202
146.203
146.202
146.204
146.204
146.202
146.203
146.203
146.203
146.202
146.203
146.203
146.202
146.204
147.06
146.205
146.202
146.203
146.204
225.499
146.557
146.526
4168.26
146.204
146.202
146.249
146.202
146.204
146.204
146.203
146.211
146.203
148.901
146.209
155.579
146.203
146.203
146.203
146.204
743.1
753.186
146.202
146.202
146.202
146.956
155.23
146.202
153.875
146.202
146.507
146.202
146.202
146.202
146.219
146.206
146.211
167.592
300.64
244.508
246.701
171.149
286.258
146.205
146.203
146.499
20419.7
146.202
146.474
146.226
146.222
146.22
25182.2
317.657
146.202
146.513
146.202
147.264
146.532
146.229
146.202
146.388
146.211
146.535
146.229
146.202
8724.58
5652.75
146.296
146.203
146.202
146.292
146.203
146.202
146.203
146.202
146.202
1367.51
147.04
2031.72
146.202
146.239
146.202
146.289
2822.79
146.904
146.236
146.864
146.247
361.798
146.642
146.246
223.345
146.203
146.202
146.237
146.202
146.203
5708.47
146.202
146.203
146.202
177.215
146.203
146.204
299.058
146.217
2154.28
3118.49
146.202
156.086
146.203
146.241
146.202
146.204
146.202
177.19
146.202
1866.32
146.259
146.202
2410.81
146.202
146.294
146.202
148.286
685.072
146.203
146.235
146.338
533.151
159.884
146.508
146.202
146.271
146.202
2199.05
2535.18
2306.85
2681.74
2529.5
146.202
2498.38
2211.86
146.23
146.223
146.202
146.316
146.203
146.202
146.202
146.247
146.202
154.231
151.974
146.286
146.202
146.203
150.181
146.203
151.211
149.998
146.203
147.829
211.886
149.134
305.131
161.675
146.632
146.203
146.208
146.243
146.203
206.892
150.047
149.153
146.203
146.203
146.786
146.203
5609.26
146.203
146.256
146.208
146.245
146.274
146.207
146.203
146.21
146.203
146.206
146.203
146.202
146.221
146.21
146.285
185.989
6480.05
146.206
3115.31
2207.68
146.202
534.838
146.202
146.211
146.211
146.211
146.203
1931.62
1080.49
150.383
146.205
4196.3
415.717
146.202
146.203
146.202
146.205
146.208
147.305
19789.7
146.202
146.202
175.47
146.211
146.21
146.218
146.218
9732.45
11472.1
146.211
146.202
3587.93
146.211
221.077
146.263
146.213
148.331
146.203
231.81
146.221
146.211
2069.49
146.242
146.218
280.107
335.057
219.434
146.243
309.549
199.945
146.214
146.207
164.296
146.248
146.202
146.206
146.37
148.447
1996.99
146.204
146.205
2891.37
146.206
146.202
2227.35
146.206
146.202
146.208
146.205
3871.03
146.202
146.202
199.009
146.209
3662.55
146.208
3990.79
146.207
146.248
3461.21
146.205
146.238
1511.09
146.228
180.917
146.718
146.202
146.203
146.202
3542.11
146.322
146.204
192.576
146.202
161.614
2815.34
8971.86
146.222
1704.19
146.202
13849.3
146.203
146.202
146.203
146.202
146.202
146.202
146.203
146.202
1690.4
2570.58
297.285
326.229
146.202
146.204
146.202
146.202
146.202
146.202
288.668
171.342
146.206
146.203
146.226
147.132
146.436
146.202
146.752
146.203
146.202
146.202
146.211
9618.06
146.828
2111.67
597.128
146.202
146.203
2563.93
146.202
146.202
146.202
247.07
4800.44
352.297
19901
146.202
146.202
24411.5
146.202
146.21
146.203
146.202
176.529
146.202
146.206
146.202
146.206
15488.1
146.312
146.207
151.235
146.263
146.202
161.412
146.203
146.202
146.202
146.203
146.202
146.202
147.194
146.202
146.272
147.306
751.937
1058.02
146.202
146.203
2676.25
2813.82
146.202
157.492
146.202
146.202
271.524
3241.6
1704.12
645.855
146.202
1435.74
3865.28
4726.95
146.208
1752.28
278.563
232.928
1890.63
146.232
1957.95
163.989
153.411
165.024
364.509
181.576
146.244
362.398
146.247
146.263
2100.73
3429.71
2201.36
146.202
146.202
6158.27
146.202
146.23
6691.23
146.202
14024.2
146.247
146.202
146.203
146.202
146.202
146.248
257.096
2985.35
1521.79
367.764
146.202
150.847
146.248
146.727
146.203
146.375
146.203
146.202
146.61
146.203
147.335
146.203
146.202
146.289
271.851
146.249
151.23
1461.81
146.268
146.204
341.246
146.202
146.203
146.214
146.202
146.202
146.203
1918.03
149.763
147.281
224.515
2439.44
146.24
146.203
402.949
1557.14
280.389
501.964
146.266
146.24
147.13
3232.75
146.87
326.72
146.203
146.212
146.202
146.202
1028.23
146.202
400.914
147.041
332.866
1617
146.202
146.222
1958.16
999.019
2506.99
903.647
146.202
4702.54
15783.9
146.202
146.406
2312.24
146.254
371.224
146.206
370.157
10289.6
2550.76
380.248
5212.84
408.193
385.013
146.203
6066.05
55030.7
146.255
202.9
146.211
146.221
297.65
146.204
1298.03
146.249
146.272
146.204
149.721
339.928
156.866
146.205
146.489
150.262
146.202
146.203
208.552
146.202
30224.8
213.043
146.249
22134.6
146.21
146.202
146.265
2077.01
4070.61
146.324
146.319
490.3
1729.06
50470.5
150.84
148.775
5027.86
146.224
146.21
146.209
11938.1
152.784
173.401
146.361
148.406
227.46
1907.49
151.174
379.124
146.209
146.202
146.208
147.217
146.202
149.454
146.239
740.295
154.246
4478.92
146.244
5608.81
146.908
1998.28
146.231
153.046
675.424
26313.6
229.424
147.157
146.202
146.202
146.202
146.368
146.253
180.783
149.104
346.676
399.108
146.282
3625.01
1703.04
1813.43
177.506
146.202
42997
2102.91
146.202
146.203
6142.61
1817.74
146.203
146.204
146.203
146.58
146.202
30029.5
36133.7
30291.9
4593.89
146.202
815.326
147.715
146.203
146.32
146.206
146.22
182.936
146.221
146.219
34918.1
146.605
146.216
146.22
146.208
146.202
146.203
694.055
154.589
271.189
6899.17
152.255
3003.03
146.985
147.361
146.209
146.217
146.203
146.203
2838
1656.9
146.203
146.202
5656.42
146.203
146.202
146.203
146.203
280.675
3353.98
3164.62
4172.99
4485.47
146.202
2568.52
146.203
1775.65
2415.05
146.202
693.776
146.202
146.203
3794.39
146.202
160.977
2771.74
944.285
2445.65
3007.69
146.39
1325.21
156.673
2218.43
146.581
146.297
2041.75
2441.52
1839.83
280.664
146.204
146.204
1783.16
251.255
1691.73
1732.5
450.193
2755.79
146.203
146.202
27896.9
2851.53
709.764
4372.78
1624.89
2662.94
7632
146.202
1969.43
146.202
3011.81
146.202
2500.88
3490.79
146.202
4844.97
146.202
696.935
2792.39
146.202
146.202
2235.52
146.202
146.204
146.202
146.202
333.491
146.202
3151.82
1705.47
146.202
146.202
1974.77
146.535
146.203
174.327
146.203
146.203
146.202
146.203
323.767
326.757
6271.4
146.203
146.217
1915.72
146.202
209.016
6198.65
146.202
146.202
159.881
282.742
2912.26
146.202
146.202
146.202
146.202
146.77
482.385
6258.81
152.916
164.838
14659.6
183.268
146.389
146.202
305.827
146.227
1224.58
2694.78
146.203
146.202
146.202
146.416
5312.91
146.202
1293.8
146.209
146.202
146.241
146.282
146.203
162.355
146.204
2901.95
146.203
146.202
146.202
146.68
146.202
3178.98
202.118
146.202
146.202
2066.5
146.202
342.37
146.204
146.202
12525
5961.49
336.853
146.205
146.203
146.242
4305.47
146.205
4071.63
146.205
2940.1
1491.96
146.202
3031.62
2620.95
4255.48
3198.88
2192.67
165.75
146.204
146.203
147.382
146.921
146.476
2437.4
146.273
146.579
146.205
146.66
2185.38
2753.48
146.204
146.422
378.141
146.203
1379.44
146.207
146.202
146.202
3579.24
2760.16
2061.29
146.208
146.206
146.203
2504.97
211.519
6366.45
146.203
146.203
1678.97
192.694
146.202
146.207
8177.02
146.209
146.207
146.75
4282.05
146.642
173.791
146.202
2365.47
12677.7
333.791
8207.76
146.842
40297.4
146.21
252.791
3955.26
930.972
9563.75
34511.1
31881.5
3199.21
146.202
43920.3
3694.91
2801.29
146.202
3315.46
60108.6
146.202
2332.95
9696.53
146.202
10485.7
146.202
4100.19
2190.71
159.966
2916.16
2736.08
146.202
146.202
147.968
146.257
6494.3
146.202
1881.23
398.524
146.202
146.202
146.202
146.203
146.203
146.202
185.538
146.203
4051.74
146.203
170.619
146.202
188.148
146.203
146.273
340.619
146.202
146.202
146.203
146.212
146.218
1564.85
1565.23
163.52
184.194
202.273
164.42
146.202
146.244
146.241
198.236
146.203
146.472
146.285
1324.2
166.166
225.405
179.923
147.075
146.231
146.209
146.211
146.218
146.262
1308.82
146.275
1091.42
146.227
146.218
146.625
1212.46
146.204
147.332
146.553
147.045
146.696
146.482
146.629
192.349
146.214
165.309
146.203
146.237
252.41
146.202
295.433
166.743
193.082
146.202
146.202
165.341
150.822
170.125
146.261
146.202
146.202
1584.47
247.266
146.202
322.274
439.838
146.204
146.276
146.378
146.268
137.664
180.393
146.429
146.24
146.203
386.621
146.247
147.141
146.204
146.206
146.203
147.147
146.203
146.202
147.393
339.88
169.563
147.261
146.381
147.18
146.312
1933.85
146.202
147.245
229.295
203.481
146.203
146.242
146.253
146.307
159.925
146.678
146.203
146.363
146.28
146.203
146.203
146.203
146.217
146.203
146.23
146.272
2598.58
147.041
984.643
146.232
147.23
146.247
180.199
2247.8
146.241
146.209
164.092
146.247
2600.31
146.203
146.243
162.434
178.284
1139.18
146.34
1202.38
212.027
146.341
1599.65
146.203
146.532
146.203
146.254
146.315
146.247
1261.14
146.24
1481.96
146.262
1320.7
146.244
146.203
146.202
146.563
146.235
146.243
146.207
146.204
146.239
167.967
146.317
146.234
146.202
146.202
221.995
146.253
303.634
146.202
146.221
146.203
146.203
146.243
146.202
147.292
146.213
146.206
146.203
146.202
146.239
146.202
146.203
146.203
146.252
146.203
146.202
154.951
146.203
146.279
17018.9
146.202
146.222
146.239
146.202
146.202
146.288
146.202
146.202
146.264
146.296
146.268
146.203
146.231
146.202
146.263
159.738
146.202
146.202
162.964
146.202
146.202
146.268
146.202
146.251
197.882
146.212
146.202
146.388
7448.89
769.97
146.203
146.202
146.202
146.202
146.573
146.559
146.202
146.202
146.217
1982.24
146.202
146.203
146.203
2351
312.382
146.288
2332.5
152.076
146.206
281.668
146.274
147.314
146.511
15099.3
146.562
146.203
380.625
2355.27
146.203
146.203
2513.38
146.719
2550.11
146.203
146.288
146.203
146.321
2206.64
146.203
2215.42
146.228
146.203
2127.55
146.214
146.203
346.552
2345.21
146.205
146.258
2020.4
146.209
146.307
2417.47
155.876
146.259
146.213
167.058
150.859
154.805
1400.15
146.202
146.203
146.376
221.189
146.4
225.39
146.203
146.204
146.206
290.169
146.331
211.903
178.755
146.202
146.223
146.242
332.805
7000.65
146.202
193.233
333.122
6795.33
146.203
146.525
19709.6
146.202
243.891
146.32
146.538
146.203
356.486
146.203
146.203
146.215
146.203
266.539
146.23
146.23
4620.61
337.886
146.203
146.22
146.238
146.205
146.202
149.666
154.269
146.207
149.864
146.206
148.098
6505.45
146.241
146.287
1386.08
378.741
146.21
146.229
165.544
146.279
308.406
146.243
370.289
146.267
358.372
270.516
292.762
146.491
146.28
296.879
371.284
146.203
146.619
281.192
146.288
148.962
146.302
8773.42
152.939
146.312
1036.65
235.305
146.206
232.89
146.215
1090.26
146.202
10035.8
450.948
799.047
146.202
146.203
146.202
902.826
146.256
9566.41
146.203
914.648
1104.71
171.19
146.207
10263.8
357.694
340.828
10189
274.575
146.204
146.263
146.205
146.262
146.208
146.204
146.207
146.219
146.207
146.206
146.203
13411.6
146.206
146.22
146.203
149.905
146.355
146.279
411.586
146.207
146.203
146.279
146.204
146.209
146.203
146.229
146.206
146.268
146.208
2683.49
146.206
193.352
148.099
3148.4
146.202
146.45
1070.89
146.202
146.203
8683.32
146.203
146.223
146.202
146.203
146.206
146.266
146.202
146.203
146.212
146.202
146.307
510.508
146.202
146.454
146.202
148.04
146.39
146.202
146.202
5016.19
146.204
146.217
146.202
146.355
146.212
146.202
146.202
3511.88
6003.56
146.202
343.035
146.202
146.203
146.213
146.536
146.202
174.594
146.791
146.344
146.202
266.916
146.211
283.728
2188.96
146.209
146.215
146.217
1786.68
146.202
146.202
146.202
146.202
146.202
146.202
146.202
207.909
146.211
146.203
146.206
1598.4
1269.7
146.204
363.545
296.326
146.229
365.19
84549.2
146.655
234.714
5063.41
222.32
151.509
155.094
213.372
366.435
146.258
146.257
152.127
146.203
146.246
339.774
162.252
171.876
146.253
146.207
191.235
1147.78
146.246
211.185
146.202
1908.18
1350.26
146.202
146.203
146.206
147.942
241.895
4723.28
146.295
146.525
146.221
251.2
146.202
146.203
3138.96
146.202
146.202
146.202
146.202
146.213
146.218
146.208
146.23
146.225
146.228
146.203
146.202
4925.63
1660.05
146.202
148.707
146.202
146.202
146.202
4243.12
910.379
2100.93
146.203
146.202
146.202
146.206
155.911
146.204
45471.2
146.202
146.202
146.204
2651.76
11099.7
148.976
146.202
51494
55412.8
301.194
48187.8
2733.38
146.22
3072.59
2492.62
146.202
146.203
146.202
146.204
146.202
146.204
6448.13
6559.6
6641.55
465.091
1341.13
146.203
146.249
146.307
150.185
147.08
1835.57
148.769
1894.77
182.962
146.204
294.346
5713.19
146.206
146.202
3336.13
146.204
146.204
1295.05
1893.48
146.202
146.203
146.429
146.207
146.204
146.204
146.202
341.019
4496.33
146.202
146.23
146.225
4429.02
280.107
146.21
146.204
146.202
2233.74
146.202
146.208
187.215
146.204
146.249
146.203
146.203
5241.81
150.642
146.203
146.202
146.203
146.203
146.203
149.291
146.202
284.371
146.356
146.202
146.692
146.202
146.202
146.203
146.203
146.204
146.203
146.215
146.203
146.203
762.7
146.202
5974.86
146.216
146.202
146.202
146.202
146.202
146.216
352.138
12439.8
2871.83
15414.9
146.264
329.356
201.722
14934.9
12501.5
189.623
1825.64
146.203
146.218
146.202
146.203
146.202
146.202
147.048
33927.5
146.202
2117.7
184.806
241.734
146.218
146.202
146.389
146.202
146.219
3245.09
319.439
146.205
146.202
183.366
360.286
146.223
146.223
6040.34
146.219
5483.59
146.202
146.202
233.411
4610.36
5995.13
5669.53
4605.31
470.227
344.813
2119.07
1861.86
5316.53
146.203
146.214
146.202
146.202
292.868
3106.27
200.976
356.906
2877.53
3307.6
146.214
3497.85
168.804
146.202
146.202
146.202
160.423
356.348
148.332
146.202
184.602
3752.97
262.163
3935.15
300.901
146.734
1301.86
146.202
146.577
1560.36
153.717
146.202
146.297
146.72
146.202
146.244
1169.27
146.202
159.305
5246.59
146.207
1545.51
2514.36
146.208
258.546
196
266.523
169.596
204.37
149.309
338.368
148.054
146.202
337.903
146.587
267.132
217.698
146.227
146.833
146.258
398.059
2398.87
146.202
147.061
230.145
146.202
1847.22
146.202
146.203
146.202
203.743
146.371
153.936
146.814
146.202
146.698
353.883
417.489
159.155
146.202
179.501
1716.9
2247.36
146.202
2153.84
3810.17
6816.82
1922.92
146.206
3131.21
146.203
146.204
146.202
146.202
146.202
156.638
146.207
1797.95
146.202
149.774
146.202
146.202
146.202
146.202
146.202
198.064
378.996
146.204
146.202
4677.57
146.206
1663.99
146.257
146.202
3949.83
146.208
146.202
146.204
1081.93
216.398
146.202
146.251
146.231
146.203
146.202
146.237
146.202
146.202
146.202
146.202
146.202
146.203
146.213
1291.71
146.202
146.283
146.202
1828.26
146.202
146.204
202.071
148.761
146.203
146.203
146.203
146.926
168.6
148.208
146.202
146.202
146.202
146.202
3910.98
146.202
146.202
146.202
146.203
146.203
386.926
146.202
146.202
146.214
146.269
146.203
146.207
146.203
146.207
146.202
146.202
146.209
343.902
146.203
146.203
146.202
146.203
146.203
146.203
5654.93
146.274
146.219
146.203
146.203
358.455
146.202
276.851
381.317
146.249
147.908
146.203
146.203
146.202
146.209
3849.36
146.208
146.202
3858.89
146.203
146.202
146.205
146.202
146.206
146.203
918.179
146.203
146.202
146.203
3904.02
3972.04
3984.15
331.958
2203.69
353.799
198.922
146.203
146.26
3939.73
146.202
146.208
146.203
212.684
688.263
146.203
146.202
146.206
241.414
334.979
354.912
2618.6
146.203
6693.63
151.85
146.204
238.418
146.383
146.202
146.204
232.369
148.143
146.218
146.204
224.546
299.454
270.073
159.06
2328.86
310.793
146.205
146.202
146.216
146.242
146.205
146.228
146.231
146.208
5879.81
323.982
150.744
343.825
146.205
2157.54
1954.39
2036.79
310.099
146.222
1169.26
147.451
146.228
146.202
2497.84
2184.16
2629.99
146.203
2479.72
146.203
153.734
146.208
146.278
146.202
3500.52
3160.93
146.203
146.203
146.68
344.081
146.203
607.966
146.222
146.203
6453.12
146.202
187.701
146.222
2563.63
148.408
146.203
148.446
146.202
328.655
148.323
2231.92
146.202
146.221
148.432
146.207
2064.77
146.207
148.212
146.202
4955.26
146.3
3734.88
13906.6
2134.27
146.204
3562.19
2008.69
148.224
146.205
5108.4
257.856
146.202
153.839
5190.13
194.128
146.204
146.209
159.804
146.203
146.203
146.202
146.208
33148.9
146.208
29402.2
146.879
146.564
146.208
146.202
149.892
146.208
146.267
146.217
146.203
277.168
960.609
2373.82
285.596
3377.4
2210.76
2383.77
188.692
146.204
146.202
2222.7
2868.65
2257.35
334.457
277.036
223.209
3396.47
6003.49
2209.52
146.202
20900
7145.23
3096.17
146.202
296.013
371.753
593.097
1900.37
2199.8
1739.36
2344.6
191.64
2490.74
189.634
295.751
146.29
4155.4
4358.62
155.847
199.462
1557.87
712.847
266.297
161.29
146.202
146.204
4070.69
146.207
146.217
177.038
146.206
146.274
146.202
49154.7
150.451
146.201
146.224
3542.38
338.667
2391.49
2082.24
6330.76
337.33
146.202
146.202
1816.09
146.202
146.202
146.235
164.11
147.851
4235.35
146.274
148.153
1937.07
874.196
146.202
146.668
3055.52
228.706
146.31
800.932
146.201
146.204
146.207
1714.13
11382
2777.15
146.203
329.236
146.202
3055.8
19991.9
1475.02
1837.89
146.202
146.21
146.202
153.787
146.202
23759.7
1430.72
146.202
2154.45
146.202
146.202
1725.66
146.202
349.026
146.209
2617.67
1918.36
146.202
146.203
146.33
30354.3
146.205
146.586
740.218
158.014
202.573
146.224
146.202
146.202
146.202
146.202
146.202
153.256
146.202
146.577
148.654
146.212
2589.34
19492.5
4325.12
147.901
146.202
147.509
146.297
146.202
147.927
3640.36
2131.79
147.429
31775.3
1954.91
146.397
147.544
730.278
13646.9
333.548
146.563
146.391
220.24
146.202
146.202
146.202
148.362
150.802
146.219
2776.73
146.202
154.13
146.219
1961.26
1897.01
146.205
185.845
227.983
361.672
2701.44
550.445
146.202
147.165
31762.5
289.607
149.111
146.27
146.356
146.202
146.204
146.202
11482.9
2258.27
23768.4
149.626
295.659
151.184
146.231
146.202
146.202
16130.4
146.202
146.202
146.202
11342.5
167.633
5225.98
148.127
146.288
173.944
1817.36
250.438
151.76
146.204
146.996
177.563
677.763
170.527
298.241
146.221
146.337
258.32
149.314
596.544
269.213
147.11
227.89
146.203
146.426
30426.8
277.396
146.21
157.102
249.319
149.128
146.202
247.405
147.208
8075.67
146.234
146.202
325.842
146.296
146.202
146.202
167.658
3945.19
147.843
264.839
146.236
158.678
146.71
146.241
146.202
146.268
8059.69
24967.3
14957.3
150.83
146.234
5340.35
4121.4
146.264
146.236
272.884
147.517
146.408
152.384
834.151
146.406
302.192
146.297
2853.68
146.202
146.202
146.203
146.204
2920.16
3138.98
146.202
3598.7
227.481
146.258
146.214
146.245
146.22
4767.96
146.601
146.203
146.203
146.483
147.149
146.289
146.213
146.274
179.645
148.741
151.043
293.716
146.203
146.221
146.203
148.723
146.226
146.203
2184.92
146.202
146.209
148.568
146.424
4853.54
150.323
350.079
146.507
317.494
146.203
151.99
146.202
146.202
146.203
308.666
146.299
148.569
1828.75
146.215
154.291
190.001
146.246
146.21
146.203
146.202
146.213
146.21
146.644
146.207
146.202
146.256
7646.08
2127.14
241.99
168.119
146.848
146.246
1143.1
146.208
3925.38
329.618
2972.45
146.23
146.203
168.982
146.202
146.209
146.204
146.26
4036.89
146.202
146.226
146.299
146.605
250.576
197.851
146.218
146.436
146.235
146.298
146.261
146.278
146.311
146.211
146.261
146.27
146.297
146.248
148.159
146.274
146.352
146.202
146.247
146.684
254.007
146.27
2151.92
1686.6
146.266
162.344
224.615
148.622
3087.84
160.355
300.606
146.318
2745.1
149.101
1331.9
3096.6
146.436
146.603
163.523
3352.79
6655.53
146.208
290.471
146.213
2142.23
146.202
146.203
146.202
196.711
147.29
148.652
148.954
185.343
146.482
155.898
146.204
147.104
13090.9
150.309
146.829
146.202
166.677
146.97
146.202
317.358
2144.37
334.733
146.209
147.998
4446.18
317.578
146.202
146.202
3244.53
147.673
1966.04
151.128
147.799
146.243
146.202
146.343
146.202
146.202
146.211
146.21
146.202
146.206
146.228
146.211
146.212
146.202
146.25
146.237
146.202
146.205
147.486
146.905
146.202
146.202
146.202
146.202
3731.51
156.131
151.874
146.202
146.202
146.202
146.202
1725.42
146.203
146.202
146.204
146.202
146.202
146.202
148.217
146.232
146.202
146.795
146.202
146.21
146.25
146.247
146.252
146.295
1979.1
146.202
146.221
146.445
146.367
146.202
146.202
146.208
146.202
151.351
146.202
146.433
146.209
165.893
2247
2550.62
147.638
166.013
146.299
146.202
146.202
146.202
146.203
146.202
1357.79
1321.63
146.202
2076.26
146.217
146.203
4526.7
4237.45
146.203
146.571
1910.41
146.207
146.202
146.202
155.591
146.202
2060.71
148.522
1924.86
146.202
146.202
146.273
160.092
160.732
166.919
146.797
146.234
146.203
146.22
146.202
146.203
146.202
146.206
146.202
146.202
171.988
147.002
155.801
163.367
146.204
146.204
146.202
146.202
146.757
146.812
147.191
146.203
148.412
147.391
147.066
146.237
146.211
146.212
146.219
147.768
147.161
146.204
147.273
146.34
146.475
1745.1
161.438
146.527
146.299
148.001
146.314
7430.1
146.431
299.573
146.202
146.331
146.221
180.528
146.202
146.285
146.202
146.319
149.742
190.561
146.219
159.414
149.524
173.27
146.202
149.887
272.156
146.39
146.512
146.476
146.313
146.43
149.68
147.681
4896.82
152.773