/*--------------------------------*- C++ -*----------------------------------*\
| =========                 |                                                 |
| \\      /  F ield         | OpenFOAM: The Open Source CFD Toolbox           |
|  \\    /   O peration     | Version:  v2012                                 |
|   \\  /    A nd           | Website:  www.openfoam.com                      |
|    \\/     M anipulation  |                                                 |
\*---------------------------------------------------------------------------*/
FoamFile
{
    version     2.0;
    format      ascii;
    class       volScalarField;
    location    "4";
    object      k;
}
// * * * * * * * * * * * * * * * * * * * * * * * * * * * * * * * * * * * * * //

dimensions      [0 2 -2 0 0 0 0];


internalField   nonuniform List<scalar> 
108993
(
7.73696e-05
7.17699e-05
8.78572e-05
6.85437e-05
7.10708e-05
5.84074e-05
0.000117986
6.69537e-05
7.31374e-05
6.97679e-05
7.207e-05
7.15933e-05
7.03556e-05
6.76881e-05
6.91817e-05
6.96982e-05
8.27693e-05
6.95936e-05
6.88383e-05
7.02816e-05
0.000101728
7.7222e-05
6.65635e-05
7.37247e-05
7.57253e-05
6.9205e-05
9.86974e-05
7.11341e-05
7.37254e-05
6.19827e-05
7.83512e-05
7.17309e-05
0.000149654
7.31409e-05
0.00059988
7.12255e-05
7.43886e-05
8.17329e-05
0.397765
0.184444
7.41044e-05
7.30573e-05
6.9478e-05
0.000182482
7.19e-05
0.34118
0.000142549
0.000384309
7.94388e-05
7.13586e-05
7.43198e-05
0.000103457
7.18152e-05
7.3372e-05
7.19224e-05
7.24002e-05
8.63225e-05
7.02539e-05
6.65567e-05
7.37326e-05
7.15769e-05
7.22869e-05
7.01697e-05
6.91019e-05
7.70257e-05
7.31638e-05
0.000106456
7.22592e-05
7.38282e-05
0.0136192
6.97737e-05
7.10659e-05
7.07054e-05
7.13764e-05
7.27828e-05
7.33753e-05
7.86048e-05
7.36028e-05
9.23108e-05
7.76653e-05
6.87431e-05
6.85624e-05
6.82359e-05
9.48781e-05
7.24851e-05
6.91283e-05
7.28715e-05
6.92358e-05
6.98643e-05
7.74471e-05
7.17889e-05
6.89542e-05
7.45126e-05
8.59538e-05
7.38051e-05
7.10394e-05
6.80282e-05
6.40023e-05
6.82357e-05
7.2031e-05
7.23779e-05
7.65834e-05
7.33213e-05
7.24113e-05
6.59271e-05
8.15965e-05
7.23511e-05
0.000318025
7.56069e-05
0.082046
8.0759e-05
7.40274e-05
0.000312482
7.40108e-05
7.1219e-05
0.0221074
6.84573e-05
6.71296e-05
8.01457e-05
7.09921e-05
6.97641e-05
7.17001e-05
0.039882
6.29752e-05
8.68607e-05
7.0905e-05
7.21718e-05
6.83863e-05
7.37758e-05
8.03127e-05
6.8836e-05
7.48009e-05
7.27712e-05
0.00374554
7.14116e-05
6.67665e-05
7.08107e-05
6.71576e-05
6.96722e-05
6.92715e-05
6.55995e-05
7.2362e-05
0.000118398
7.12709e-05
7.27953e-05
7.32865e-05
6.6578e-05
1.59882
6.89832e-05
0.00221626
0.00177138
6.62847e-05
6.83944e-05
0.00147523
6.97196e-05
7.06303e-05
7.3263e-05
7.90931e-05
0.000373504
0.00609883
0.0016587
0.00046025
7.31984e-05
7.19422e-05
6.97275e-05
7.9031e-05
7.01868e-05
7.31265e-05
7.48862e-05
7.27566e-05
7.19114e-05
7.14697e-05
0.00010337
7.14413e-05
8.04713e-05
6.93777e-05
0.00383257
6.77411e-05
7.12049e-05
7.59635e-05
6.82839e-05
6.70635e-05
8.9553e-05
4.36966e-05
7.33297e-05
7.06305e-05
9.38422e-05
7.10276e-05
7.04188e-05
4.74579e-05
7.06325e-05
9.8081e-05
6.84004e-05
0.000265713
7.11277e-05
7.04266e-05
7.32757e-05
7.06842e-05
7.10533e-05
4.91656e-05
7.18352e-05
0.000258806
0.000124231
8.59187e-05
0.000163652
0.100317
7.14911e-05
0.0861426
7.0669e-05
0.0529672
0.00354484
8.88814e-05
0.00366685
0.376767
3.05966
6.3268e-05
6.85565e-05
7.05763e-05
8.03767e-05
7.62895e-05
7.26181e-05
0.00195686
0.000220873
0.000768535
7.06871e-05
6.55262e-05
8.95478e-05
7.22838e-05
0.000501528
6.65334e-05
0.441311
7.08326e-05
6.87089e-05
7.60413e-05
6.9715e-05
7.32821e-05
7.18312e-05
7.05203e-05
0.0699208
8.82549e-05
7.24159e-05
7.10082e-05
6.17145e-05
9.04028e-05
8.41082e-05
7.61312e-05
0.382523
0.0109396
9.22037e-05
7.24319e-05
8.4611e-05
7.77406e-05
6.99726e-05
7.18492e-05
7.93429e-05
9.3567e-05
7.86027e-05
6.99785e-05
7.77541e-05
6.16014e-05
7.06386e-05
9.45729e-05
7.33927e-05
7.15881e-05
0.000309357
7.08493e-05
7.17556e-05
7.44281e-05
6.124e-05
6.92018e-05
6.37378e-05
7.75646e-05
0.699052
0.0455771
0.404794
6.94643e-05
7.25153e-05
0.0635253
7.22688e-05
7.048e-05
7.0208e-05
0.0860949
0.0973813
6.88071e-05
7.20969e-05
7.09698e-05
6.81631e-05
7.28865e-05
7.29573e-05
0.76729
6.94026e-05
6.71107e-05
7.35349e-05
7.10976e-05
7.34425e-05
6.73722e-05
7.5279e-05
6.98465e-05
0.000291653
5.94388e-05
0.0234935
0.01223
7.21678e-05
6.49641e-05
7.14641e-05
6.90075e-05
7.7177e-05
7.04505e-05
6.54932e-05
0.650376
7.21553e-05
7.28546e-05
6.7748e-05
6.98873e-05
7.27814e-05
0.00176774
8.09049e-05
6.85395e-05
0.377073
7.39203e-05
6.80851e-05
6.67916e-05
6.6263e-05
9.8259e-05
6.55093e-05
0.00222424
0.0475076
0.00934672
7.07458e-05
7.33482e-05
7.44772e-05
0.00617983
0.0134282
7.18584e-05
0.445198
8.63007e-05
7.02672e-05
7.31065e-05
7.06515e-05
6.96097e-05
7.08319e-05
0.0075626
7.04754e-05
7.10116e-05
6.91941e-05
7.03724e-05
6.87315e-05
6.90839e-05
6.90729e-05
7.10702e-05
7.07577e-05
6.26192e-05
0.0669417
0.134953
7.55335e-05
7.01665e-05
6.82821e-05
0.220969
7.85432e-05
5.96036e-05
7.45025e-05
6.98444e-05
7.649e-05
6.91986e-05
7.60309e-05
7.29615e-05
7.16841e-05
6.83601e-05
7.82341e-05
0.0462278
7.16804e-05
7.2285e-05
7.0013e-05
0.00101819
7.5213e-05
0.0478516
7.28688e-05
7.59652e-05
0.0851466
7.24338e-05
0.0540584
0.00941693
7.26194e-05
9.3427e-05
6.98372e-05
6.25653e-05
6.93075e-05
0.045544
6.83852e-05
0.159604
0.18617
6.46504e-05
0.0475902
6.8735e-05
0.318925
7.68746e-05
0.00823501
7.20706e-05
6.9653e-05
7.18534e-05
7.596e-05
0.271287
0.184139
7.04636e-05
7.2936e-05
7.54861e-05
6.76094e-05
6.09629e-05
7.09192e-05
0.0727184
6.90313e-05
7.07026e-05
0.0808537
6.99073e-05
7.08201e-05
7.23157e-05
0.00851152
0.000227149
0.142717
7.2279e-05
0.038802
7.00025e-05
0.00750971
6.6002e-05
7.21017e-05
0.0315012
7.11713e-05
0.00626351
0.0471051
6.19516e-05
0.0083721
0.58625
0.00746525
7.77935e-05
6.96441e-05
7.0593e-05
7.97201e-05
7.10401e-05
7.50071e-05
6.83726e-05
6.93836e-05
6.92263e-05
7.29053e-05
6.317e-05
0.0659725
7.69062e-05
6.90074e-05
8.40116e-05
6.92538e-05
6.53312e-05
6.99891e-05
7.04974e-05
7.15282e-05
7.6039e-05
7.43438e-05
6.99479e-05
6.99491e-05
6.89031e-05
7.33754e-05
6.78181e-05
0.0238078
7.12108e-05
0.058136
0.00094998
7.77735e-05
6.4412e-05
8.42086e-05
0.0474104
6.43058e-05
6.84733e-05
0.00318362
7.12696e-05
7.53718e-05
7.12365e-05
8.08505e-05
0.000118995
6.65808e-05
0.00101765
0.101119
7.89046e-05
6.88827e-05
7.32114e-05
7.22867e-05
7.14084e-05
0.000458794
7.10285e-05
6.76045e-05
8.00463e-05
0.000109457
7.81198e-05
7.04201e-05
7.1707e-05
0.000138358
8.17158e-05
7.39979e-05
6.21302e-05
0.000283218
7.16729e-05
6.4631e-05
7.17159e-05
8.0114e-05
7.02907e-05
6.63223e-05
6.99503e-05
7.64683e-05
0.00540966
6.76199e-05
6.64886e-05
0.0799639
6.95299e-05
7.43804e-05
7.31383e-05
7.10734e-05
7.2732e-05
6.95852e-05
9.20077e-05
6.72221e-05
7.05092e-05
7.56739e-05
7.37128e-05
0.000575222
0.00109822
7.37583e-05
7.19679e-05
7.42079e-05
0.000153421
7.69543e-05
7.07487e-05
0.000150612
7.23788e-05
8.54418e-05
6.94208e-05
0.000100137
6.91069e-05
9.35129e-05
7.31167e-05
6.88512e-05
7.10963e-05
7.23332e-05
0.234685
9.17185e-05
0.763542
7.09713e-05
7.27132e-05
7.24968e-05
7.0492e-05
6.56967e-05
0.000132042
7.2514e-05
6.54267e-05
0.0275803
6.90725e-05
0.473512
7.3609e-05
7.20345e-05
9.34792e-05
7.46687e-05
7.33696e-05
0.0417748
7.02601e-05
7.33028e-05
7.05049e-05
9.47547e-05
7.09656e-05
0.220588
0.165211
7.09954e-05
6.65862e-05
7.54832e-05
7.31016e-05
7.08051e-05
6.59593e-05
0.121993
0.059281
0.0033409
7.08109e-05
7.29073e-05
0.348822
0.0736456
0.000194448
7.33939e-05
6.82029e-05
7.33012e-05
7.56791e-05
7.09234e-05
8.21176e-05
0.40239
0.109768
7.25417e-05
6.60822e-05
7.35522e-05
6.47382e-05
7.77286e-05
6.87204e-05
0.0560872
7.11702e-05
7.36597e-05
7.58488e-05
8.09928e-05
9.5965e-05
7.02141e-05
7.24174e-05
0.101906
6.78055e-05
6.75921e-05
7.75166e-05
0.0448597
0.000107462
7.01949e-05
7.16487e-05
0.00092103
7.15632e-05
0.000186883
6.99247e-05
7.41872e-05
7.38653e-05
7.39582e-05
0.000117542
0.397759
6.73824e-05
8.97189e-05
6.9496e-05
7.1521e-05
0.151825
7.447e-05
7.26167e-05
7.37161e-05
0.000327891
0.547396
7.18205e-05
0.00822278
6.99474e-05
0.000635901
0.00204413
7.19527e-05
6.69904e-05
6.49599e-05
0.0923034
7.93602e-05
7.52006e-05
6.88501e-05
7.64763e-05
7.6123e-05
7.06633e-05
6.74746e-05
7.06678e-05
7.04609e-05
0.000267686
7.22586e-05
7.13562e-05
7.15216e-05
7.45533e-05
0.607681
0.114943
0.0102804
0.000128892
0.000780576
0.142067
0.0753903
0.2183
0.0990995
7.07975e-05
6.67661e-05
6.97737e-05
7.00656e-05
0.000211538
7.56174e-05
7.51734e-05
0.623595
0.183952
7.40548e-05
7.51955e-05
7.71988e-05
0.203572
0.164638
7.49996e-05
0.000250377
0.000202276
7.02705e-05
0.264393
7.29769e-05
0.0600118
7.76712e-05
7.18329e-05
0.615857
7.70985e-05
0.0336257
0.00172507
0.000108437
0.0117275
7.71327e-05
7.10331e-05
9.09052e-05
6.70037e-05
9.40572e-05
0.152906
0.00046082
0.227822
6.74259e-05
0.0157508
0.0001722
9.79757e-05
6.03526e-05
6.86592e-05
7.60198e-05
6.82743e-05
7.31634e-05
6.77123e-05
7.08764e-05
6.79535e-05
7.1917e-05
0.330121
0.437153
7.22062e-05
0.0438766
6.76928e-05
0.000215862
8.57663e-05
6.42649e-05
7.27704e-05
8.36312e-05
7.25399e-05
8.82359e-05
7.05435e-05
6.90182e-05
7.21648e-05
8.41684e-05
7.17147e-05
4.62449e-05
7.16163e-05
7.64665e-05
7.2182e-05
7.36054e-05
6.8749e-05
7.20505e-05
6.51304e-05
0.0913639
6.68595e-05
7.07319e-05
7.93532e-05
7.11759e-05
6.75678e-05
0.50848
0.139766
7.33713e-05
7.54759e-05
7.86631e-05
7.71562e-05
7.32635e-05
8.51659e-05
7.18017e-05
6.49611e-05
6.80863e-05
7.75088e-05
6.57625e-05
7.61901e-05
6.64351e-05
0.000429001
7.75545e-05
7.32171e-05
8.69435e-05
7.02117e-05
8.05511e-05
6.97119e-05
0.001401
7.45995e-05
8.90869e-05
0.246918
7.9612e-05
7.15313e-05
6.9138e-05
0.00234278
7.07138e-05
0.00683754
0.00227868
7.411e-05
7.04916e-05
0.0192273
0.143037
6.933e-05
9.6392e-05
0.00579175
7.30349e-05
7.05673e-05
7.24436e-05
0.000250334
7.63111e-05
6.61117e-05
7.19276e-05
0.00974432
6.98734e-05
0.415328
7.28124e-05
6.94405e-05
0.67187
7.52214e-05
0.0715964
7.32667e-05
0.0640564
7.15354e-05
7.24926e-05
7.00672e-05
7.4478e-05
7.50461e-05
7.19151e-05
7.20232e-05
7.13685e-05
6.93422e-05
6.66367e-05
6.83576e-05
0.00011737
7.18506e-05
7.08046e-05
0.00157338
6.65098e-05
0.00284452
7.19875e-05
7.00155e-05
0.137701
6.619e-05
0.0116332
8.6842e-05
6.99934e-05
7.2389e-05
0.0302708
8.36681e-05
8.94998e-05
0.000940455
9.91652e-05
7.58344e-05
0.000182211
0.0636001
8.86281e-05
7.51914e-05
7.8273e-05
9.38457e-05
9.66915e-05
0.016507
0.597232
0.000172268
6.68778e-05
7.33949e-05
0.00379897
8.15388e-05
7.1416e-05
0.000115581
7.0528e-05
7.18841e-05
0.0625584
7.15002e-05
0.0344919
7.38258e-05
0.0774653
7.29901e-05
7.49787e-05
5.94375e-05
9.04373e-05
7.33232e-05
7.49543e-05
5.97519e-05
6.35429e-05
0.00725691
7.21804e-05
0.434972
6.96809e-05
7.31487e-05
7.09278e-05
8.40617e-05
7.28547e-05
0.0001169
6.84895e-05
6.94755e-05
7.09488e-05
0.302459
6.92917e-05
9.96486e-05
7.5579e-05
0.0655637
6.95797e-05
0.00166927
0.140209
0.629962
6.79592e-05
8.59881e-05
9.71113e-05
0.00728442
7.02952e-05
0.0124314
0.403174
0.150398
7.10954e-05
7.48531e-05
0.000315129
7.0858e-05
0.000138398
7.91215e-05
7.24909e-05
7.31485e-05
0.00108974
7.5717e-05
0.000203119
7.1995e-05
6.95392e-05
0.00730079
7.69777e-05
7.05473e-05
0.0129691
0.0259417
7.43832e-05
7.49657e-05
7.04233e-05
7.19849e-05
7.70232e-05
0.000112195
0.00503504
6.67545e-05
0.00840273
0.000130705
7.4518e-05
0.000123607
6.55346e-05
7.38578e-05
6.83367e-05
7.18203e-05
0.000134925
7.42649e-05
6.58599e-05
0.000102841
7.09944e-05
8.93401e-05
0.000430508
6.89321e-05
7.11476e-05
7.43082e-05
7.53497e-05
6.77419e-05
6.91769e-05
0.0141602
7.17129e-05
0.522847
9.60697e-05
7.59499e-05
9.55514e-05
0.000129441
9.301e-05
6.73543e-05
6.90223e-05
0.00343721
7.63782e-05
0.00315303
7.03837e-05
7.1786e-05
0.000404833
0.0233025
6.91582e-05
0.00114805
0.463632
6.91246e-05
0.000115179
7.22889e-05
7.24231e-05
7.12001e-05
1.05218
8.06362e-05
0.000459002
0.000213694
7.27982e-05
7.3267e-05
7.46247e-05
6.91562e-05
0.00025821
0.0020756
6.43998e-05
7.08447e-05
7.43656e-05
0.000536747
6.97442e-05
7.06628e-05
7.75645e-05
0.000422895
6.87428e-05
6.81018e-05
6.816e-05
6.50027e-05
6.84209e-05
7.03396e-05
7.12885e-05
0.0013067
7.25662e-05
8.14622e-05
8.26062e-05
7.31876e-05
0.471284
7.15546e-05
6.81463e-05
0.000108458
7.6387e-05
6.53254e-05
0.121752
0.00329262
0.000123536
6.70258e-05
6.90234e-05
0.000124245
0.000180953
7.88281e-05
7.18353e-05
6.85734e-05
0.0413722
6.86854e-05
0.000434531
0.000124321
0.107597
5.74851e-05
7.06449e-05
7.04996e-05
6.83377e-05
9.61762e-05
7.21044e-05
6.44826e-05
6.35793e-05
6.83889e-05
6.99638e-05
0.0150987
7.18149e-05
7.32693e-05
0.00030181
6.89677e-05
7.46332e-05
0.00014344
7.29302e-05
7.23727e-05
7.13089e-05
7.22501e-05
7.3397e-05
7.98305e-05
7.10462e-05
0.000119169
7.24409e-05
0.0896125
6.66911e-05
8.05673e-05
7.21904e-05
0.000236947
0.000111282
9.91739e-05
0.0755029
0.000111948
0.000146563
6.94382e-05
0.123035
6.91745e-05
7.97278e-05
7.50331e-05
0.0722077
7.10891e-05
7.26617e-05
6.79123e-05
7.45595e-05
8.75361e-05
0.112814
9.87184e-05
7.01484e-05
7.5632e-05
7.47308e-05
0.000181054
7.12027e-05
0.000126062
0.000179258
0.00139939
7.60348e-05
0.00732602
9.97696e-05
0.000103594
7.35773e-05
6.46719e-05
6.16508e-05
6.98015e-05
6.55828e-05
6.77575e-05
8.58901e-05
0.00798324
6.77096e-05
0.352172
7.76221e-05
7.22172e-05
7.31411e-05
8.25465e-05
0.000744935
6.58696e-05
7.54067e-05
7.2629e-05
7.14389e-05
6.46847e-05
7.54563e-05
0.0269903
0.000243991
8.7445e-05
0.00380005
7.04386e-05
7.69681e-05
7.49757e-05
0.000264361
7.2115e-05
7.21604e-05
0.0846886
7.03777e-05
6.86434e-05
7.20597e-05
6.61229e-05
7.31332e-05
6.9085e-05
6.07096e-05
0.000852411
7.28539e-05
7.5922e-05
6.52629e-05
7.11739e-05
7.29731e-05
6.90944e-05
6.84519e-05
7.1416e-05
6.2791e-05
6.85303e-05
0.00226999
7.19521e-05
0.00172867
7.03623e-05
7.16641e-05
0.665246
6.99059e-05
7.90113e-05
7.07204e-05
7.1359e-05
7.35657e-05
7.27968e-05
6.62653e-05
7.12427e-05
7.2769e-05
0.000105188
7.14661e-05
7.43258e-05
0.00015965
0.00010058
7.15212e-05
7.4428e-05
0.0423747
0.0288366
7.13693e-05
7.0885e-05
7.19998e-05
7.41578e-05
8.41051e-05
7.01121e-05
0.0209631
7.12851e-05
7.1593e-05
7.44305e-05
7.33107e-05
6.39613e-05
6.82941e-05
8.1054e-05
0.000133908
0.0656906
7.13871e-05
6.96214e-05
7.13282e-05
0.103713
8.13888e-05
7.58989e-05
6.24231e-05
6.71034e-05
0.000276369
7.19735e-05
0.000217744
6.42698e-05
6.4204e-05
7.65643e-05
0.0336602
0.000126352
7.03279e-05
0.000423668
7.37064e-05
0.00267796
0.000275379
6.76886e-05
7.0972e-05
0.000112081
6.87805e-05
6.72049e-05
7.39692e-05
6.9844e-05
0.000822185
0.0275942
0.000138821
6.88965e-05
7.07571e-05
0.000316777
6.67384e-05
7.1829e-05
6.28837e-05
6.81076e-05
6.97308e-05
0.00183374
0.000210154
0.197565
7.21447e-05
6.88921e-05
7.03138e-05
0.00210518
0.000119591
7.04173e-05
7.09221e-05
0.000181938
7.40583e-05
0.114529
0.0026511
8.09765e-05
0.00897269
7.09883e-05
6.98854e-05
7.13588e-05
7.33442e-05
0.000230914
0.148222
7.28933e-05
9.18912e-05
7.12123e-05
0.23046
7.47626e-05
9.62213e-05
7.08567e-05
0.00031333
0.00461695
0.0959245
7.49498e-05
7.42184e-05
7.16543e-05
0.00039653
6.96206e-05
7.58853e-05
7.29589e-05
7.46888e-05
7.40802e-05
0.0344086
7.45293e-05
6.929e-05
0.248861
6.7662e-05
7.43331e-05
7.15741e-05
7.18518e-05
0.0532706
7.18485e-05
8.83169e-05
6.43708e-05
0.0212437
0.0038595
9.28853e-05
7.00778e-05
0.000131976
7.28276e-05
0.430982
1.00333
0.769369
0.00132233
1.05148
7.63835e-05
0.526633
0.486348
6.33508e-05
6.63224e-05
7.00788e-05
6.92501e-05
7.30734e-05
7.24437e-05
7.18348e-05
6.63547e-05
7.59571e-05
7.13907e-05
7.22305e-05
8.59856e-05
7.33028e-05
7.46809e-05
0.00149613
9.2559e-05
0.00112881
0.00188154
7.10903e-05
7.15628e-05
0.0279693
0.000679555
0.0101822
7.96108e-05
7.17514e-05
7.42081e-05
7.04421e-05
7.50791e-05
7.0146e-05
6.55848e-05
7.52066e-05
0.000837651
7.41303e-05
8.8932e-05
0.000281137
8.35625e-05
0.0189625
7.78388e-05
7.91221e-05
8.20557e-05
7.16618e-05
0.000113538
7.64483e-05
7.03359e-05
8.59931e-05
6.98184e-05
7.59193e-05
6.96226e-05
7.30193e-05
7.81037e-05
6.61482e-05
7.00213e-05
6.99036e-05
0.00264853
7.83717e-05
0.00925552
0.103136
7.09547e-05
0.0670085
7.13218e-05
7.79701e-05
0.000147837
6.77875e-05
7.15255e-05
0.259933
0.0360151
5.06826e-05
8.32532e-05
0.103239
0.000274594
7.02723e-05
7.30268e-05
7.25216e-05
7.81948e-05
7.97962e-05
7.42797e-05
0.00198196
7.42488e-05
7.03272e-05
6.9778e-05
7.48187e-05
0.000148126
0.000613828
0.000387987
1.41825
0.49127
7.80228e-05
7.13445e-05
0.0021547
7.04834e-05
6.95586e-05
0.000148623
8.7959e-05
7.13007e-05
8.46853e-05
7.21368e-05
7.72855e-05
7.44495e-05
0.0741628
7.09173e-05
7.07465e-05
0.00182352
0.00020737
6.81663e-05
7.64295e-05
0.00810179
7.53183e-05
7.16192e-05
8.62877e-05
7.61689e-05
6.91376e-05
6.75749e-05
7.4838e-05
7.19333e-05
0.000594462
0.102591
0.000121704
0.000106136
0.182307
6.93866e-05
7.08826e-05
0.103052
6.51778e-05
7.15235e-05
0.000100801
7.57199e-05
0.32128
7.26596e-05
7.12106e-05
0.0098529
6.79488e-05
0.408783
9.95479e-05
0.373637
6.78455e-05
6.16688e-05
0.308911
0.000219263
8.7492e-05
0.0980257
7.18401e-05
7.16125e-05
8.74185e-05
6.1342e-05
9.96014e-05
7.29235e-05
0.240366
7.35101e-05
6.89836e-05
0.0289083
7.29398e-05
0.00843465
0.156601
0.00503834
9.27551e-05
0.147319
6.79208e-05
0.040709
7.30728e-05
6.82191e-05
8.11844e-05
8.24403e-05
8.43085e-05
7.99926e-05
7.07477e-05
6.71562e-05
0.0649029
0.0489007
0.000656034
0.10577
7.1239e-05
6.86061e-05
7.03298e-05
6.94333e-05
6.80103e-05
7.29286e-05
0.537905
0.00366637
7.2729e-05
8.58906e-05
7.41993e-05
8.03496e-05
0.00015975
6.84637e-05
7.35692e-05
6.91409e-05
6.99154e-05
9.02271e-05
0.00102494
1.87455
8.47755e-05
0.0830561
0.00076233
7.11726e-05
5.10778e-05
0.075718
6.80297e-05
6.84026e-05
6.78012e-05
0.108639
0.312746
0.193687
0.0230908
6.92299e-05
7.2361e-05
0.602968
7.3048e-05
0.00237701
7.3371e-05
6.70872e-05
7.04835e-05
6.98182e-05
0.00179865
7.05852e-05
0.00375225
0.0290446
0.000232996
0.00296129
0.00142994
7.33517e-05
7.22812e-05
0.000122031
7.27676e-05
7.13939e-05
7.28028e-05
7.21238e-05
7.11301e-05
7.11141e-05
7.47281e-05
7.35521e-05
7.58567e-05
0.0126277
0.00589304
0.0022321
7.2543e-05
7.29261e-05
0.208287
0.0290643
7.13647e-05
0.0539933
6.88993e-05
7.2831e-05
0.199956
0.106212
0.397174
0.0179665
6.77951e-05
0.143841
0.668669
0.0123658
7.02031e-05
0.0456672
0.303005
0.15811
0.114496
6.61678e-05
0.321061
0.0860243
0.000174744
0.243015
0.0568993
0.296465
0.000739273
0.0061985
0.000149397
7.7768e-05
0.185757
0.372641
0.247113
7.46489e-05
7.15222e-05
0.520467
6.51684e-05
7.05323e-05
0.0513381
7.90325e-05
0.0630219
0.00116173
7.90366e-05
7.10598e-05
7.12811e-05
6.26178e-05
0.00141181
0.0202939
0.0890047
0.0644274
0.0784426
6.94444e-05
0.000556837
8.40903e-05
7.08432e-05
6.39551e-05
7.0228e-05
0.000115173
8.36186e-05
7.51636e-05
7.11478e-05
8.82888e-05
0.000100877
6.87107e-05
7.3557e-05
0.0757503
0.00011309
0.000140158
0.209767
7.00345e-05
6.60983e-05
0.0210409
6.32048e-05
6.91369e-05
6.91805e-05
9.11005e-05
7.37165e-05
7.10043e-05
0.0863839
0.0102851
0.000234782
0.0118128
0.124543
0.000499926
7.01459e-05
0.183403
0.00392247
7.48875e-05
0.0178998
7.57568e-05
0.000216805
9.51729e-05
0.0017365
7.21766e-05
0.124084
6.3536e-05
7.63229e-05
7.05991e-05
6.9706e-05
0.00995715
7.26837e-05
0.130647
6.9638e-05
0.0110828
0.0039372
6.88317e-05
0.000357048
0.212676
0.00832329
0.0914242
0.00772547
5.85758e-05
0.0389413
0.199514
7.13999e-05
7.43046e-05
0.000286843
7.16744e-05
0.243564
9.63228e-05
0.196083
0.00222871
0.145463
0.151656
0.075933
0.213684
0.0584386
8.61657e-05
2.33452
0.454104
7.81376e-05
0.0398779
6.83486e-05
0.000527091
0.0361236
7.0633e-05
0.0526858
7.31704e-05
7.5935e-05
7.82142e-05
7.25004e-05
0.023716
6.73294e-05
7.28031e-05
7.07199e-05
6.34299e-05
8.86072e-05
6.62857e-05
6.89624e-05
7.49088e-05
2.9738
0.0156466
9.22577e-05
0.0140593
0.00106944
7.11968e-05
8.81487e-05
0.0239027
0.464745
0.000445933
0.000148375
0.122702
0.00210728
0.245495
0.000478255
0.0001145
0.0400464
7.25084e-05
7.0849e-05
6.74764e-05
0.0605714
7.31292e-05
0.0093517
0.0042471
0.00151555
0.00747257
0.202262
6.51617e-05
0.0813239
8.18643e-05
6.49132e-05
8.3513e-05
0.000299964
9.11358e-05
0.000195524
9.085e-05
0.0354349
0.00540623
1.36588
6.62268e-05
0.68514
6.90194e-05
0.0988604
8.24795e-05
0.000773586
0.0057902
0.00263373
6.8289e-05
0.000342068
7.09254e-05
7.85217e-05
7.47165e-05
7.53379e-05
0.00058118
0.00920669
7.07526e-05
0.181131
0.0962162
7.68028e-05
0.0344229
0.278546
1.95165
0.0290187
7.21901e-05
0.00114951
0.0106104
9.54616e-05
6.60519e-05
0.00476374
0.378042
6.81585e-05
6.93886e-05
6.59068e-05
7.36807e-05
6.90245e-05
0.0107921
0.0102628
0.020864
0.00873371
9.53554e-05
0.0572319
0.000142686
7.43963e-05
9.76263e-05
6.18023e-05
6.82738e-05
0.011812
0.000975748
0.000152616
0.0110817
7.28337e-05
7.38953e-05
6.27435e-05
7.44126e-05
0.000311853
7.25335e-05
0.0103362
7.05872e-05
7.19436e-05
0.0132803
0.00193151
0.108865
6.92986e-05
7.46456e-05
7.05486e-05
8.06745e-05
0.000105788
7.23473e-05
0.0187014
0.498167
7.20414e-05
6.903e-05
1.42766
8.07064e-05
7.4118e-05
7.42241e-05
8.61764e-05
0.00198735
0.835416
1.56504
0.00319508
0.0854444
7.58348e-05
0.126251
0.000111694
0.921332
0.74828
7.10877e-05
0.533795
7.01349e-05
7.21718e-05
0.297974
0.000113658
7.04024e-05
0.899504
0.862022
0.810758
1.44515
7.03476e-05
0.00488584
0.0770071
1.14876
7.2797e-05
0.000102499
0.405137
1.02002
0.185701
0.256172
0.000568485
7.21034e-05
0.00403469
0.238061
0.221725
0.0175629
0.000452364
1.08983
7.08283e-05
7.37914e-05
0.475124
0.206422
0.00420131
0.0010872
0.049903
0.00159149
0.651638
7.42448e-05
0.11535
7.01996e-05
0.199182
9.78218e-05
0.0102523
0.0320282
6.97726e-05
0.559523
7.08367e-05
0.183476
0.782873
6.89354e-05
7.11199e-05
0.386332
7.03488e-05
7.05403e-05
7.135e-05
5.77309e-05
0.240233
7.06604e-05
0.837243
0.109478
7.40823e-05
6.72732e-05
0.230015
7.40147e-05
6.14219e-05
0.144281
6.07658e-05
6.65474e-05
7.21563e-05
7.24336e-05
0.295599
0.206247
0.261253
7.41134e-05
7.23085e-05
0.628186
7.27781e-05
0.0220042
0.0569963
7.52563e-05
6.16298e-05
0.000120213
0.000259224
0.0608317
6.50571e-05
6.83636e-05
6.32229e-05
0.000380343
7.27971e-05
0.449132
0.0117852
0.000109824
6.85947e-05
0.0101428
7.19057e-05
7.2824e-05
6.40455e-05
0.0166726
6.83701e-05
0.018789
1.492
6.98552e-05
8.36207e-05
0.000152472
7.16425e-05
0.253807
6.51744e-05
0.0245708
8.51232e-05
7.36832e-05
7.47638e-05
0.000604182
6.90728e-05
7.49014e-05
6.93886e-05
0.131145
6.90561e-05
6.39854e-05
6.88308e-05
7.1949e-05
7.58846e-05
0.175
0.0314797
6.68121e-05
6.81342e-05
0.685482
6.41574e-05
0.133535
7.82432e-05
6.39155e-05
2.10884
0.841139
0.41011
7.26835e-05
7.1432e-05
0.000564134
1.60222
6.87504e-05
0.853723
6.73672e-05
0.107018
0.100589
8.83164e-05
0.0179346
0.396639
1.0885
1.78325
0.454666
7.09485e-05
7.09587e-05
6.5134e-05
0.000205483
0.00328967
9.05157e-05
0.191491
0.000108351
0.00014154
6.78761e-05
0.000343686
1.37094
0.37087
7.12711e-05
8.23732e-05
0.130639
6.96963e-05
0.238358
7.29374e-05
7.93087e-05
6.97875e-05
0.841739
0.0717441
0.0761164
7.05337e-05
7.27509e-05
7.39654e-05
0.553826
7.69087e-05
0.648012
6.85781e-05
6.89353e-05
0.169097
0.0742215
7.33968e-05
7.05887e-05
2.23751
6.95832e-05
7.18132e-05
0.000409106
1.61677
8.35059e-05
0.00673501
9.64639e-05
0.317205
0.122317
0.0202528
0.0032452
6.82986e-05
0.0016357
0.000622395
0.0680477
0.835433
0.200453
0.00695042
0.00257863
0.00601005
0.0279893
7.08678e-05
0.32712
0.107986
0.121752
0.000100848
0.00115978
0.558615
6.5331e-05
0.191359
0.00492317
7.02991e-05
0.0139901
6.44244e-05
0.611853
0.0816432
0.013291
0.101958
0.162127
8.90375e-05
6.55539e-05
7.29075e-05
0.000138174
0.603877
6.89621e-05
0.10044
0.119344
6.77631e-05
7.26673e-05
7.40162e-05
6.94195e-05
6.78619e-05
7.32457e-05
0.000214595
7.04665e-05
0.760376
6.95991e-05
0.0611042
6.72205e-05
0.000627764
6.87152e-05
7.01981e-05
0.00858724
6.61268e-05
6.63664e-05
7.39053e-05
6.85319e-05
7.28475e-05
0.430519
0.452548
0.00500974
0.000162759
7.03738e-05
7.00265e-05
6.96929e-05
6.70027e-05
9.26771e-05
6.99402e-05
7.27378e-05
7.69489e-05
7.39335e-05
0.384335
6.78034e-05
7.04636e-05
7.01178e-05
7.28038e-05
0.000150508
9.38724e-05
0.00011339
7.06122e-05
7.79231e-05
0.40993
6.92072e-05
0.00252003
8.59503e-05
0.000188087
0.000791362
0.000527663
7.42619e-05
0.000100439
7.30914e-05
7.24122e-05
7.21315e-05
6.93681e-05
7.23544e-05
0.000505508
7.43846e-05
7.27181e-05
7.04456e-05
6.84139e-05
0.0018339
7.3377e-05
0.0452854
7.21141e-05
0.000371093
7.15069e-05
7.24343e-05
0.000557579
0.000147971
9.45886e-05
7.45779e-05
6.86206e-05
6.71416e-05
0.0884541
0.0477044
7.11726e-05
0.16677
0.0546554
6.7092e-05
8.61575e-05
0.000762655
0.0018429
0.0414297
7.02499e-05
7.34455e-05
0.00014818
7.18099e-05
0.0466831
6.92928e-05
0.000124811
7.1865e-05
6.73938e-05
7.57765e-05
8.32439e-05
7.41987e-05
7.24629e-05
5.61416e-05
0.07151
6.47809e-05
7.66476e-05
0.000108716
6.77307e-05
7.69638e-05
0.0046741
7.43994e-05
0.000329265
0.223098
0.111745
7.16379e-05
6.11467e-05
7.21585e-05
6.96461e-05
8.9821e-05
7.16766e-05
7.28728e-05
0.000270728
7.6054e-05
7.06275e-05
7.20294e-05
7.21253e-05
6.89641e-05
6.98524e-05
7.43598e-05
7.45097e-05
0.0351879
0.000132473
0.352345
7.25898e-05
0.000281523
6.2726e-05
7.07824e-05
0.102541
6.38687e-05
6.89864e-05
0.18899
6.25488e-05
0.0412694
6.81118e-05
6.2476e-05
0.00010821
0.114427
0.00299954
0.00243291
0.0106335
7.08738e-05
0.0188338
0.00420118
7.07373e-05
0.000785778
7.1719e-05
0.000547278
0.000694963
7.37636e-05
0.00446121
0.0213744
0.0182643
7.37278e-05
0.0101298
0.0199832
8.34898e-05
7.13045e-05
0.0014122
7.16158e-05
7.14108e-05
7e-05
7.23576e-05
0.00114732
8.04814e-05
8.08616e-05
7.29245e-05
7.291e-05
7.42504e-05
9.30833e-05
7.30854e-05
0.217947
7.21956e-05
0.000170308
0.000110335
7.13143e-05
7.19526e-05
7.05228e-05
7.07543e-05
7.26189e-05
7.11527e-05
7.20025e-05
7.1143e-05
0.000105429
7.16708e-05
0.000107035
7.56425e-05
7.74045e-05
6.78391e-05
7.22349e-05
0.0069621
6.84206e-05
0.000143138
0.0673478
6.29718e-05
7.01689e-05
8.06495e-05
6.77052e-05
7.04323e-05
7.25007e-05
6.34056e-05
6.82883e-05
8.52379e-05
8.97711e-05
7.79349e-05
7.39622e-05
7.90843e-05
7.40812e-05
7.5384e-05
0.000198317
7.25229e-05
6.79601e-05
0.000394702
9.46546e-05
6.95634e-05
0.000170062
7.21519e-05
0.00136502
0.0479929
6.99671e-05
0.000105002
0.00040304
0.295644
0.0827276
7.33563e-05
7.11339e-05
6.65253e-05
7.08269e-05
8.05967e-05
7.4751e-05
6.9917e-05
7.02063e-05
7.09437e-05
0.573375
6.31261e-05
7.07073e-05
7.00487e-05
0.337076
0.0631654
0.000123063
0.290816
0.000839423
6.89116e-05
8.74373e-05
7.04239e-05
0.000261408
6.97527e-05
0.00282708
6.7977e-05
7.20275e-05
0.465665
0.451573
7.33588e-05
7.03169e-05
0.479303
7.60332e-05
0.501531
7.37859e-05
6.90216e-05
7.36207e-05
7.12349e-05
0.223832
7.2803e-05
0.2085
7.16703e-05
6.88035e-05
0.217677
7.10959e-05
7.06782e-05
0.000146198
0.252748
7.18408e-05
8.02424e-05
0.241204
6.73421e-05
9.45634e-05
0.23142
0.0303344
8.32517e-05
7.43292e-05
0.0366809
0.00132942
0.0259677
0.27202
7.66382e-05
7.28158e-05
6.55562e-05
0.000110113
9.86631e-05
0.110688
7.27872e-05
7.69741e-05
7.17492e-05
0.127978
7.04915e-05
7.13707e-05
7.03623e-05
7.34954e-05
7.73415e-05
0.000179901
0.174946
0.0363016
7.43709e-05
0.0527448
0.113297
0.032723
6.86857e-05
0.000100427
0.228757
7.84403e-05
0.169485
0.000109552
0.000258913
6.94643e-05
0.162717
5.91634e-05
7.23542e-05
7.12552e-05
0.000104663
0.125238
0.000126231
0.000891256
0.1006
0.0193903
7.05206e-05
7.0745e-05
0.000207722
7.24959e-05
7.07747e-05
7.20848e-05
0.000584209
6.86798e-05
0.00915457
7.5435e-05
0.000242924
0.0564162
0.00269022
7.31981e-05
0.0795596
0.129144
7.22661e-05
0.000520233
0.00609921
0.000107954
0.108548
7.24512e-05
0.111369
7.50332e-05
0.000122632
0.510153
0.17168
0.000129193
7.51226e-05
0.326719
0.0851548
6.8406e-05
7.08342e-05
0.140579
6.81398e-05
7.13121e-05
7.97597e-05
0.507771
7.25922e-05
6.91929e-05
0.176276
7.18994e-05
9.23631e-05
0.0144981
7.36983e-05
0.127411
6.87962e-05
0.00179124
0.263505
0.0828436
7.02145e-05
6.87022e-05
6.84682e-05
0.246032
7.9828e-05
0.00129708
8.66591e-05
0.162546
0.130283
8.78309e-05
9.78754e-05
0.00413018
0.128585
0.0846706
0.0131762
0.0286478
7.04091e-05
7.77186e-05
7.0978e-05
7.52535e-05
7.76361e-05
6.7299e-05
0.000150986
7.24512e-05
6.95585e-05
9.75044e-05
7.17112e-05
0.891102
7.45258e-05
6.70804e-05
7.03929e-05
7.699e-05
6.89464e-05
6.95465e-05
0.247613
0.000178968
7.19528e-05
0.000121033
6.50696e-05
7.36371e-05
7.12591e-05
7.74468e-05
6.26514e-05
7.60012e-05
7.79813e-05
1.28879
6.17021e-05
0.00643082
0.00358161
0.492229
6.14241e-05
0.000231703
0.158361
6.35296e-05
7.17374e-05
0.266563
6.71732e-05
7.53614e-05
6.2243e-05
6.85361e-05
7.15017e-05
7.23156e-05
6.39585e-05
7.13122e-05
7.5649e-05
6.95979e-05
6.73916e-05
0.0154794
6.04559e-05
0.000166753
6.08324e-05
8.07981e-05
8.74286e-05
7.32928e-05
7.20042e-05
0.332009
7.21806e-05
6.60947e-05
6.58625e-05
6.98442e-05
6.6171e-05
7.16368e-05
6.60455e-05
0.385696
1.67986
7.54563e-05
0.15341
8.36817e-05
7.21586e-05
6.71792e-05
0.00163296
8.84134e-05
7.16697e-05
0.00095989
7.05667e-05
6.7311e-05
0.0220118
6.34226e-05
0.0264779
0.229106
7.49007e-05
0.00168987
6.44853e-05
0.279514
6.851e-05
0.000121937
6.93253e-05
6.9382e-05
7.14143e-05
6.79324e-05
6.95017e-05
0.00123444
7.02021e-05
7.27566e-05
0.000207002
0.111876
0.172339
7.05339e-05
0.0959474
0.0567002
7.92957e-05
0.336508
1.0261
0.000109272
0.00557561
0.000438943
7.48865e-05
7.55045e-05
0.000301571
0.00019267
0.28559
6.29488e-05
6.21437e-05
7.32437e-05
6.92701e-05
6.68924e-05
0.000110038
0.00268643
0.000135941
7.25828e-05
7.31298e-05
0.0012605
0.238781
6.76229e-05
6.77344e-05
7.09065e-05
0.0759764
0.153536
7.09573e-05
9.78708e-05
0.000114574
7.32241e-05
0.185487
0.0675048
7.18633e-05
8.23921e-05
8.49486e-05
0.0145427
7.91947e-05
7.3581e-05
1.26575
7.2088e-05
7.07061e-05
6.09656e-05
7.05281e-05
0.00217892
7.17163e-05
0.000125941
7.17693e-05
8.14216e-05
7.25157e-05
8.62122e-05
6.02825e-05
0.0524351
0.314629
6.50715e-05
8.05483e-05
6.503e-05
5.94819e-05
7.43479e-05
0.206726
0.47302
0.276052
7.42939e-05
8.55369e-05
7.5592e-05
0.000167939
0.000317795
0.000109976