/*--------------------------------*- C++ -*----------------------------------*\
| =========                 |                                                 |
| \\      /  F ield         | OpenFOAM: The Open Source CFD Toolbox           |
|  \\    /   O peration     | Version:  v2012                                 |
|   \\  /    A nd           | Website:  www.openfoam.com                      |
|    \\/     M anipulation  |                                                 |
\*---------------------------------------------------------------------------*/
FoamFile
{
    version     2.0;
    format      ascii;
    class       volScalarField;
    location    "4";
    object      N2;
}
// * * * * * * * * * * * * * * * * * * * * * * * * * * * * * * * * * * * * * //

dimensions      [0 0 0 0 0 0 0];


internalField   nonuniform List<scalar> 
108993
(
0.76699
0.76699
0.76699
0.76699
0.76699
0.76699
0.76699
0.76699
0.76699
0.76699
0.76699
0.76699
0.76699
0.76699
0.76699
0.76699
0.76699
0.76699
0.76699
0.76699
0.76699
0.76699
0.76699
0.76699
0.76699
0.76699
0.76699
0.76699
0.76699
0.76699
0.76699
0.76699
0.76699
0.76699
0.76699
0.76699
0.76699
0.76699
0.763167
0.761399
0.76699
0.76699
0.76699
0.76699
0.76699
0.75835
0.76699
0.76699
0.76699
0.76699
0.76699
0.76699
0.76699
0.76699
0.76699
0.76699
0.76699
0.76699
0.76699
0.76699
0.76699
0.76699
0.76699
0.76699
0.76699
0.76699
0.76699
0.76699
0.76699
0.76693
0.76699
0.76699
0.76699
0.76699
0.76699
0.76699
0.76699
0.76699
0.76699
0.76699
0.76699
0.76699
0.76699
0.76699
0.76699
0.76699
0.76699
0.76699
0.76699
0.76699
0.76699
0.76699
0.76699
0.76699
0.76699
0.76699
0.76699
0.76699
0.76699
0.76699
0.76699
0.76699
0.76699
0.76699
0.76699
0.76699
0.76699
0.76699
0.76699
0.762168
0.76699
0.76699
0.76699
0.76699
0.76699
0.76699
0.76699
0.76699
0.76699
0.76699
0.76699
0.76699
0.76699
0.76699
0.76699
0.76699
0.76699
0.76699
0.76699
0.76699
0.76699
0.76699
0.76699
0.76699
0.76699
0.76699
0.76699
0.76699
0.76699
0.76699
0.76699
0.76699
0.76699
0.76699
0.76699
0.76699
0.76699
0.75797
0.76699
0.76699
0.76699
0.76699
0.76699
0.76699
0.76699
0.76699
0.76699
0.76699
0.76699
0.766933
0.76699
0.76699
0.76699
0.76699
0.76699
0.76699
0.76699
0.76699
0.76699
0.76699
0.76699
0.76699
0.76699
0.76699
0.76699
0.76699
0.76699
0.76699
0.76699
0.76699
0.76699
0.76699
0.76699
0.76699
0.76699
0.76699
0.76699
0.76699
0.76699
0.76699
0.76699
0.76699
0.76699
0.76699
0.76699
0.76699
0.76699
0.76699
0.76699
0.76699
0.76699
0.76699
0.76699
0.76699
0.76699
0.76699
0.76699
0.763651
0.76699
0.766397
0.766936
0.76699
0.76699
0.764008
0.752784
0.76699
0.76699
0.76699
0.76699
0.76699
0.76699
0.76699
0.76699
0.76699
0.76699
0.76699
0.76699
0.76699
0.76699
0.76699
0.765584
0.76699
0.76699
0.76699
0.76699
0.76699
0.76699
0.76699
0.765437
0.76699
0.76699
0.76699
0.76699
0.76699
0.76699
0.76699
0.763864
0.76699
0.76699
0.76699
0.76699
0.76699
0.76699
0.76699
0.76699
0.76699
0.76699
0.76699
0.76699
0.76699
0.76699
0.76699
0.76699
0.76699
0.76699
0.76699
0.76699
0.76699
0.76699
0.76699
0.76699
0.76699
0.764491
0.766796
0.760063
0.76699
0.76699
0.76699
0.76699
0.76699
0.76699
0.762422
0.76103
0.76699
0.76699
0.76699
0.76699
0.76699
0.76699
0.760784
0.76699
0.76699
0.76699
0.76699
0.76699
0.76699
0.76699
0.76699
0.76699
0.76699
0.76699
0.76699
0.76699
0.76699
0.76699
0.76699
0.76699
0.76699
0.76699
0.764632
0.76699
0.76699
0.76699
0.76699
0.76699
0.76699
0.76699
0.76699
0.760473
0.76699
0.76699
0.76699
0.76699
0.76699
0.76699
0.766974
0.766988
0.766961
0.76699
0.76699
0.76699
0.766972
0.767009
0.76699
0.765007
0.76699
0.76699
0.76699
0.76699
0.76699
0.76699
0.76699
0.76699
0.76699
0.76699
0.76699
0.76699
0.76699
0.76699
0.76699
0.76699
0.76699
0.762322
0.764688
0.76699
0.76699
0.76699
0.7588
0.76699
0.76699
0.76699
0.76699
0.76699
0.76699
0.76699
0.76699
0.76699
0.76699
0.76699
0.764819
0.76699
0.76699
0.76699
0.766989
0.76699
0.766899
0.76699
0.76699
0.76699
0.76699
0.766963
0.766982
0.76699
0.76699
0.76699
0.76699
0.76699
0.76613
0.76699
0.763069
0.766985
0.76699
0.766962
0.76699
0.766016
0.76699
0.766579
0.76699
0.76699
0.76699
0.76699
0.766972
0.76698
0.76699
0.76699
0.76699
0.76699
0.76699
0.76699
0.766246
0.76699
0.76699
0.766269
0.76699
0.76699
0.76699
0.766905
0.76699
0.766714
0.76699
0.762824
0.76699
0.766966
0.76699
0.76699
0.766992
0.76699
0.766977
0.76699
0.76699
0.76631
0.760094
0.766959
0.76699
0.76699
0.76699
0.76699
0.76699
0.76699
0.76699
0.76699
0.76699
0.76699
0.76699
0.766388
0.76699
0.76699
0.76699
0.76699
0.76699
0.76699
0.76699
0.76699
0.76699
0.76699
0.76699
0.76699
0.76699
0.76699
0.76699
0.76699
0.76699
0.76699
0.76699
0.76699
0.76699
0.76699
0.76699
0.76699
0.76699
0.76699
0.76699
0.76699
0.76699
0.76699
0.76699
0.76699
0.766983
0.766528
0.76699
0.76699
0.76699
0.76699
0.76699
0.76699
0.76699
0.76699
0.76699
0.76699
0.76699
0.76699
0.76699
0.76699
0.76699
0.76699
0.76699
0.76699
0.76699
0.76699
0.76699
0.76699
0.76699
0.76699
0.76699
0.76699
0.76699
0.76699
0.76699
0.764621
0.76699
0.76699
0.76699
0.76699
0.76699
0.76699
0.76699
0.76699
0.76699
0.76699
0.76699
0.76699
0.76699
0.76699
0.76699
0.76699
0.76699
0.76699
0.76699
0.76699
0.76699
0.76699
0.76699
0.76699
0.76699
0.76699
0.76699
0.76699
0.76699
0.76699
0.765104
0.76699
0.759742
0.76699
0.76699
0.76699
0.76699
0.76699
0.76699
0.76699
0.76699
0.76699
0.76699
0.762596
0.76699
0.76699
0.76699
0.76699
0.76699
0.763081
0.76699
0.76699
0.76699
0.76699
0.76699
0.764873
0.766989
0.76699
0.76699
0.76699
0.76699
0.76699
0.76699
0.661078
0.765052
0.76696
0.76699
0.76699
0.764804
0.76699
0.766989
0.76699
0.76699
0.76699
0.76699
0.76699
0.76699
0.75985
0.765033
0.76699
0.76699
0.76699
0.76699
0.76699
0.76699
0.766769
0.76699
0.76699
0.76699
0.76699
0.76699
0.76699
0.76699
0.76247
0.76699
0.76699
0.76699
0.764097
0.76699
0.76699
0.76699
0.76699
0.76699
0.76699
0.76699
0.76699
0.76699
0.76699
0.76699
0.76399
0.76699
0.76699
0.76699
0.76699
0.759465
0.76699
0.76699
0.76699
0.76699
0.757432
0.76699
0.766914
0.76699
0.76699
0.76699
0.76699
0.76699
0.76699
0.765767
0.76699
0.76699
0.76699
0.76699
0.76699
0.76699
0.76699
0.76699
0.76699
0.76699
0.76699
0.76699
0.76699
0.76699
0.763681
0.763546
0.766962
0.76699
0.76699
0.762682
0.76563
0.760768
0.764197
0.76699
0.76699
0.76699
0.76699
0.76699
0.76699
0.76699
0.765335
0.764793
0.76699
0.76699
0.76699
0.762082
0.762592
0.76699
0.76699
0.76699
0.76699
0.760396
0.76699
0.765696
0.76699
0.76699
0.759052
0.76699
0.766535
0.76699
0.76699
0.766915
0.76699
0.76699
0.76699
0.76699
0.76699
0.764663
0.76699
0.764904
0.76699
0.7668
0.76699
0.76699
0.76699
0.76699
0.76699
0.76699
0.76699
0.76699
0.76699
0.76699
0.76699
0.759373
0.75997
0.76699
0.765886
0.76699
0.76699
0.76699
0.76699
0.76699
0.76699
0.76699
0.76699
0.76699
0.76699
0.76699
0.76699
0.76699
0.76699
0.76699
0.76699
0.76699
0.76699
0.76699
0.76699
0.76699
0.766296
0.76699
0.76699
0.76699
0.76699
0.76699
0.756694
0.765157
0.76699
0.76699
0.76699
0.76699
0.76699
0.76699
0.76699
0.76699
0.76699
0.76699
0.76699
0.76699
0.76699
0.76699
0.76699
0.76699
0.76699
0.76699
0.76699
0.76699
0.76699
0.76699
0.76699
0.766044
0.76699
0.76699
0.76699
0.766885
0.76699
0.76699
0.76699
0.76699
0.76699
0.765981
0.76699
0.76699
0.76699
0.76699
0.76699
0.76699
0.76699
0.76699
0.76699
0.76699
0.76699
0.76699
0.76699
0.759798
0.76699
0.76699
0.753177
0.76699
0.766965
0.76699
0.76699
0.76699
0.76699
0.76699
0.76699
0.76699
0.76699
0.76699
0.76699
0.76699
0.76699
0.76699
0.76699
0.76699
0.76699
0.76699
0.76699
0.76699
0.76699
0.76699
0.743215
0.76699
0.763806
0.76699
0.76699
0.76699
0.76151
0.76699
0.76699
0.76699
0.76699
0.76699
0.76699
0.762872
0.76699
0.76699
0.76699
0.76699
0.76699
0.766986
0.751236
0.76699
0.76699
0.76699
0.766979
0.76699
0.76699
0.76699
0.76699
0.76699
0.757388
0.76699
0.75899
0.76699
0.757118
0.76699
0.76699
0.76699
0.76699
0.76699
0.76699
0.76699
0.76699
0.766915
0.76699
0.756742
0.76699
0.76699
0.76699
0.76699
0.76699
0.76699
0.76699
0.76699
0.76699
0.759471
0.76699
0.76699
0.76699
0.766711
0.76699
0.76699
0.761934
0.755756
0.76699
0.76699
0.76699
0.767005
0.76699
0.76699
0.7586
0.766856
0.76699
0.76699
0.76699
0.76699
0.76699
0.76699
0.76699
0.76699
0.76699
0.76699
0.76699
0.76699
0.76699
0.766996
0.76699
0.76699
0.766757
0.766793
0.76699
0.76699
0.76699
0.76699
0.76699
0.76699
0.766983
0.76699
0.766993
0.76699
0.76699
0.76699
0.76699
0.76699
0.76699
0.76699
0.76699
0.76699
0.76699
0.76699
0.76699
0.76699
0.76699
0.76699
0.76699
0.76699
0.76699
0.76699
0.76699
0.766959
0.76699
0.764635
0.76699
0.76699
0.76699
0.76699
0.76699
0.76699
0.76699
0.766935
0.76699
0.76699
0.76699
0.76699
0.76699
0.76699
0.76699
0.76699
0.766222
0.76699
0.76699
0.76699
0.76699
0.76699
0.75628
0.76699
0.76699
0.76699
0.76699
0.76699
0.76699
0.76699
0.76699
0.766989
0.76699
0.76699
0.76699
0.766989
0.76699
0.76699
0.76699
0.76699
0.76699
0.76699
0.76699
0.76699
0.76699
0.76699
0.76699
0.76699
0.76699
0.76699
0.76699
0.76699
0.756278
0.76699
0.76699
0.76699
0.76699
0.76699
0.763024
0.76699
0.76699
0.76699
0.76699
0.76699
0.76699
0.76699
0.76699
0.76699
0.76699
0.76699
0.76699
0.76699
0.766071
0.76699
0.76699
0.76699
0.76699
0.76699
0.76699
0.76699
0.76699
0.76699
0.76699
0.766717
0.76699
0.76699
0.76699
0.76699
0.76699
0.76699
0.76699
0.76699
0.76699
0.76699
0.76699
0.76699
0.76699
0.76699
0.76699
0.766901
0.76699
0.76699
0.76699
0.76699
0.76699
0.76699
0.763171
0.76699
0.76699
0.76699
0.762752
0.76699
0.76699
0.76699
0.761099
0.76699
0.76699
0.76699
0.76699
0.76699
0.764411
0.76699
0.76699
0.76699
0.76699
0.76699
0.76699
0.76699
0.76699
0.76699
0.76699
0.76699
0.76699
0.76699
0.76699
0.76699
0.76699
0.76699
0.76699
0.76699
0.76699
0.766951
0.76699
0.759923
0.76699
0.76699
0.76699
0.76699
0.76699
0.76699
0.76699
0.76699
0.76699
0.76699
0.76699
0.76699
0.76699
0.76699
0.76699
0.76699
0.76699
0.76699
0.76699
0.76699
0.76699
0.754441
0.76699
0.76699
0.76699
0.76699
0.76699
0.76699
0.76699
0.76699
0.76699
0.76699
0.76699
0.76699
0.76699
0.76699
0.76699
0.76699
0.76699
0.76699
0.76699
0.76699
0.766912
0.76699
0.76699
0.758009
0.76699
0.76699
0.76699
0.76699
0.76699
0.76699
0.76699
0.76699
0.76699
0.76699
0.76699
0.76699
0.76699
0.76699
0.76699
0.76699
0.76698
0.766987
0.76699
0.76699
0.76699
0.76699
0.76699
0.76699
0.766958
0.76699
0.76699
0.76699
0.76699
0.76699
0.76699
0.76699
0.76699
0.766721
0.76699
0.76699
0.76699
0.76699
0.76699
0.76699
0.76699
0.76699
0.76699
0.76699
0.76699
0.76699
0.76699
0.76699
0.766505
0.76699
0.76699
0.76699
0.76699
0.766974
0.76699
0.76699
0.76699
0.76699
0.76699
0.76699
0.76699
0.76699
0.76699
0.764709
0.76699
0.76699
0.76699
0.76699
0.76699
0.76699
0.76699
0.76699
0.76699
0.766987
0.76699
0.763406
0.76699
0.76699
0.76699
0.76699
0.76699
0.76699
0.76699
0.76699
0.76699
0.766016
0.766989
0.76699
0.766989
0.76699
0.76699
0.76699
0.76699
0.76699
0.626878
0.76699
0.76699
0.76699
0.76688
0.76699
0.76699
0.76699
0.76699
0.76699
0.764095
0.76699
0.76699
0.76699
0.76699
0.76699
0.76699
0.76699
0.76699
0.76699
0.76699
0.76699
0.76699
0.763576
0.76699
0.76699
0.76699
0.76699
0.76699
0.76699
0.76699
0.76699
0.766989
0.766965
0.76699
0.76699
0.76699
0.76699
0.766586
0.766772
0.766876
0.76699
0.766815
0.76699
0.766605
0.766552
0.76699
0.76699
0.76699
0.76699
0.76699
0.76699
0.76699
0.76699
0.76699
0.76699
0.76699
0.76699
0.76699
0.76699
0.76699
0.76699
0.76699
0.76699
0.76699
0.76699
0.766985
0.76699
0.766843
0.76699
0.76699
0.76699
0.76699
0.76699
0.76699
0.76699
0.76699
0.76699
0.76699
0.76699
0.76699
0.76699
0.766803
0.76699
0.76699
0.76699
0.76699
0.76699
0.76699
0.76699
0.76699
0.76699
0.76699
0.76699
0.76699
0.76699
0.76699
0.76699
0.76699
0.766988
0.76699
0.76699
0.76168
0.76699
0.76699
0.76699
0.76699
0.76699
0.76699
0.76699
0.761452
0.766395
0.766989
0.76699
0.764906
0.76699
0.76699
0.76699
0.76699
0.76699
0.76699
0.76699
0.766989
0.76699
0.76699
0.76699
0.76699
0.76699
0.76699
0.76699
0.746104
0.754894
0.76699
0.76699
0.76699
0.76699
0.76699
0.76699
0.76699
0.76699
0.76699
0.76699
0.76699
0.76699
0.765145
0.76699
0.76699
0.76699
0.766989
0.76699
0.76699
0.76699
0.76699
0.76699
0.76699
0.76699
0.76699
0.76699
0.76699
0.76699
0.76699
0.761789
0.76699
0.76699
0.761916
0.76699
0.76699
0.761825
0.76699
0.76699
0.76699
0.76699
0.760455
0.76699
0.76699
0.766986
0.76699
0.758517
0.76699
0.758657
0.76699
0.76699
0.758698
0.76699
0.76699
0.760912
0.76699
0.76699
0.76699
0.76699
0.76699
0.76699
0.761768
0.76699
0.76699
0.76699
0.76699
0.76679
0.763856
0.766951
0.76699
0.763668
0.76699
0.766376
0.76699
0.76699
0.76699
0.76699
0.76699
0.76699
0.76699
0.76699
0.766989
0.76699
0.76699
0.765206
0.76699
0.76699
0.76699
0.76699
0.76699
0.76699
0.766071
0.766974
0.76699
0.76699
0.76699
0.76699
0.76699
0.76699
0.76699
0.76699
0.76699
0.76699
0.76699
0.749627
0.76699
0.76213
0.766989
0.76699
0.76699
0.76699
0.76699
0.76699
0.76699
0.765351
0.760698
0.765372
0.766613
0.76699
0.76699
0.753219
0.76699
0.76699
0.76699
0.76699
0.76699
0.76699
0.76699
0.76699
0.76699
0.766515
0.76699
0.76699
0.76699
0.76699
0.76699
0.76699
0.76699
0.76699
0.76699
0.76699
0.76699
0.76699
0.76699
0.76699
0.76699
0.766987
0.76699
0.766969
0.76699
0.76699
0.761216
0.76699
0.76699
0.76699
0.76699
0.76699
0.765523
0.761068
0.761833
0.766933
0.76699
0.765956
0.757386
0.766837
0.76699
0.765351
0.765498
0.765713
0.765071
0.76699
0.761104
0.766439
0.76699
0.766735
0.766989
0.766263
0.76699
0.766958
0.76699
0.76699
0.763222
0.760767
0.761144
0.76699
0.76699
0.759918
0.76699
0.76699
0.76699
0.76699
0.766168
0.76699
0.76699
0.76699
0.76699
0.76699
0.76699
0.766989
0.761202
0.766904
0.766951
0.76699
0.76699
0.76699
0.76699
0.76699
0.76699
0.76699
0.76699
0.76699
0.76699
0.76699
0.76699
0.76699
0.76699
0.766956
0.76699
0.766989
0.760527
0.76699
0.76699
0.766934
0.76699
0.76699
0.76699
0.76699
0.76699
0.76699
0.762319
0.76699
0.76699
0.766965
0.76303
0.76699
0.76699
0.76473
0.766979
0.76699
0.766714
0.76699
0.76699
0.76699
0.766987
0.76699
0.766309
0.76699
0.76699
0.76699
0.76699
0.76699
0.76699
0.76493
0.76699
0.766901
0.766973
0.76699
0.76699
0.762211
0.76691
0.763581
0.766902
0.76699
0.76699
0.762249
0.76699
0.76699
0.76699
0.76699
0.764957
0.76699
0.764816
0.766985
0.765415
0.764886
0.76418
0.766983
0.765061
0.76699
0.749246
0.754194
0.76699
0.766363
0.76699
0.76699
0.765749
0.76699
0.766492
0.76699
0.76699
0.76699
0.76699
0.766941
0.76699
0.76699
0.76699
0.76699
0.76699
0.76699
0.76699
0.76699
0.751288
0.766712
0.76699
0.766846
0.76699
0.76699
0.76699
0.766691
0.758792
0.76699
0.76699
0.766523
0.76697
0.757139
0.76699
0.76699
0.764909
0.76699
0.76699
0.76699
0.759763
0.76699
0.766841
0.76699
0.76699
0.76699
0.761038
0.76699
0.765344
0.76699
0.76699
0.76699
0.76699
0.76699
0.76699
0.76699
0.766426
0.766952
0.756104
0.76699
0.764844
0.76699
0.762145
0.76699
0.766987
0.76699
0.766946
0.76699
0.76699
0.76699
0.76699
0.76699
0.76699
0.76699
0.766885
0.76699
0.765069
0.765263
0.76699
0.766098
0.761702
0.751811
0.766659
0.76699
0.766988
0.76699
0.76699
0.76699
0.766959
0.76534
0.76699
0.76699
0.76699
0.76699
0.76699
0.766931
0.766945
0.766757
0.766943
0.76699
0.766192
0.76699
0.76699
0.76699
0.76699
0.76699
0.76685
0.76699
0.76699
0.761827
0.76699
0.76699
0.76699
0.76699
0.76699
0.76699
0.76699
0.76699
0.76699
0.76699
0.76699
0.761762
0.76699
0.76699
0.76699
0.76699
0.76699
0.76699
0.766984
0.762994
0.76699
0.76699
0.752018
0.76699
0.76699
0.76699
0.76699
0.76698
0.758203
0.754148
0.766986
0.76699
0.76699
0.762956
0.76699
0.765513
0.758955
0.76699
0.766875
0.76699
0.76699
0.758239
0.76699
0.76699
0.75886
0.76672
0.759454
0.7585
0.76699
0.766983
0.76699
0.765659
0.76699
0.76699
0.760729
0.759581
0.762967
0.76555
0.76699
0.76699
0.76699
0.766754
0.762401
0.766773
0.76699
0.758969
0.76699
0.76699
0.750427
0.759495
0.766988
0.76699
0.766785
0.766983
0.751369
0.76699
0.766929
0.76699
0.759377
0.76699
0.76699
0.76699
0.76699
0.758375
0.76699
0.765893
0.759007
0.76699
0.76699
0.762738
0.76699
0.76699
0.76699
0.76699
0.766822
0.76699
0.758951
0.760222
0.76699
0.76699
0.761877
0.76699
0.76699
0.76699
0.76699
0.76699
0.76699
0.76699
0.764897
0.764673
0.759685
0.76699
0.76699
0.7604
0.76699
0.766295
0.765978
0.76699
0.76699
0.76699
0.76699
0.764605
0.76699
0.76699
0.76699
0.76699
0.76699
0.765873
0.766906
0.76699
0.76699
0.764585
0.76699
0.76699
0.76699
0.76699
0.76699
0.766841
0.764979
0.76699
0.76699
0.76699
0.76699
0.75569
0.76699
0.766787
0.76699
0.76699
0.76699
0.76699
0.76699
0.76699
0.76699
0.763986
0.76699
0.76699
0.76699
0.76699
0.76699
0.760228
0.766709
0.76699
0.76699
0.762868
0.76699
0.765345
0.76699
0.76699
0.749875
0.754997
0.765277
0.76699
0.76699
0.76699
0.757049
0.76699
0.757315
0.76699
0.765401
0.766233
0.76699
0.76665
0.7599
0.756592
0.750759
0.763638
0.76699
0.76699
0.76699
0.76699
0.76699
0.76699
0.759722
0.76699
0.76699
0.76699
0.76699
0.760151
0.760069
0.76699
0.76699
0.76513
0.76699
0.762395
0.76699
0.76699
0.76699
0.758377
0.763221
0.762356
0.76699
0.76699
0.76699
0.75966
0.76699
0.758362
0.76699
0.76699
0.760393
0.76699
0.76699
0.76699
0.751749
0.76699
0.76699
0.76699
0.757161
0.76699
0.76699
0.76699
0.758578
0.765053
0.766838
0.76699
0.76699
0.767767
0.76699
0.766779
0.758802
0.765829
0.766949
0.767109
0.76697
0.766527
0.76699
0.703406
0.761879
0.76699
0.76699
0.766991
0.727973
0.76699
0.761606
0.766912
0.76699
0.76671
0.76699
0.757637
0.766988
0.76699
0.764858
0.762308
0.76699
0.76699
0.76699
0.76699
0.756624
0.76699
0.764867
0.765261
0.76699
0.76699
0.76699
0.76699
0.76699
0.76699
0.76699
0.76699
0.757555
0.76699
0.766463
0.76699
0.76699
0.76699
0.76699
0.766892
0.76699
0.76699
0.76699
0.76699
0.76699
0.763253
0.763221
0.766894
0.76699
0.76699
0.76699
0.76699
0.76699
0.76699
0.76699
0.76699
0.76699
0.76699
0.763264
0.76699
0.76699
0.76699
0.76699
0.76699
0.76699
0.76699
0.76699
0.76699
0.76321
0.76699
0.766969
0.76699
0.76699
0.76699
0.76699
0.76699
0.76699
0.76699
0.76699
0.76699
0.76699
0.76699
0.76699
0.76699
0.76699
0.76699
0.76699
0.76699
0.76699
0.766356
0.76699
0.76699
0.76699
0.76699
0.76699
0.76698
0.76699
0.76699
0.76699
0.76699
0.763784
0.756617
0.76699
0.765927
0.757719
0.76699
0.76699
0.76699
0.76699
0.75765
0.76699
0.76699
0.76699
0.76699
0.758643
0.76699
0.76699
0.76699
0.76699
0.76699
0.76699
0.76699
0.76699
0.76699
0.766252
0.76699
0.76699
0.76699
0.76699
0.76699
0.766989
0.76699
0.76699
0.766989
0.76699
0.76699
0.76699
0.76699
0.76699
0.76699
0.76699
0.76699
0.76699
0.76699
0.76699
0.76699
0.76699
0.76699
0.76699
0.76699
0.76699
0.766043
0.76699
0.765025
0.76699
0.76699
0.76699
0.76699
0.765326
0.76699
0.76699
0.766984
0.76699
0.766009
0.76699
0.76699
0.76699
0.766667
0.766989
0.76699
0.766989
0.76699
0.76699
0.766985
0.76699
0.76699
0.76699
0.76699
0.76699
0.76699
0.766983
0.76699
0.766818
0.76699
0.766924
0.76699
0.76699
0.76699
0.76699
0.76699
0.76699
0.76699
0.76699
0.76699
0.76699
0.76699
0.76699
0.76699
0.76699
0.76699
0.76699
0.76549
0.76699
0.76699
0.76699
0.76699
0.76699
0.76699
0.76699
0.76699
0.76699
0.76699
0.76699
0.76699
0.76699
0.76699
0.76699
0.76699
0.76699
0.76699
0.76699
0.76699
0.76699
0.76605
0.76699
0.76699
0.76699
0.76699
0.76699
0.76699
0.76699
0.76699
0.76699
0.76699
0.76699
0.76699
0.76699
0.76699
0.76699
0.766988
0.76699
0.76699
0.76698
0.76699
0.76699
0.76699
0.76699
0.76699
0.766945
0.76699
0.76699
0.76699
0.761096
0.763535
0.76699
0.76699
0.76699
0.76699
0.76699
0.76699
0.76699
0.76699
0.76699
0.75984
0.76699
0.76699
0.76699
0.758618
0.766047
0.76699
0.759768
0.76699
0.76699
0.76699
0.76699
0.76699
0.76699
0.76699
0.76699
0.76699
0.764973
0.759728
0.76699
0.76699
0.759288
0.76699
0.7571
0.76699
0.76699
0.76699
0.76699
0.760655
0.76699
0.760245
0.76699
0.76699
0.761163
0.76699
0.76699
0.76699
0.760002
0.76699
0.76699
0.761071
0.76699
0.76699
0.759498
0.76699
0.76699
0.76699
0.76699
0.76699
0.76699
0.763927
0.76699
0.76699
0.76699
0.76699
0.76699
0.765589
0.76699
0.76699
0.76699
0.765066
0.76699
0.76699
0.76699
0.76699
0.76699
0.76699
0.765166
0.763301
0.76699
0.766766
0.765117
0.763919
0.76699
0.76699
0.764147
0.76699
0.765711
0.76699
0.76699
0.76699
0.765009
0.76699
0.76699
0.76699
0.76699
0.765864
0.76699
0.76699
0.7628
0.766824
0.76699
0.76699
0.76699
0.76699
0.76699
0.76699
0.766988
0.76699
0.766955
0.76699
0.76699
0.762419
0.76699
0.76699
0.766443
0.765169
0.76699
0.76699
0.76699
0.76699
0.765478
0.76699
0.766039
0.76699
0.766987
0.766453
0.76494
0.76699
0.76699
0.765221
0.766343
0.76699
0.76699
0.765111
0.76699
0.76699
0.76699
0.757194
0.76699
0.76699
0.762718
0.76699
0.76699
0.766803
0.76699
0.762027
0.76699
0.766986
0.766731
0.76493
0.76699
0.76699
0.76699
0.763169
0.76699
0.766987
0.76699
0.762362
0.761184
0.76699
0.76699
0.766964
0.765645
0.765633
0.766546
0.766513
0.76699
0.76699
0.76699
0.76699
0.76699
0.76699
0.76699
0.76699
0.76699
0.76699
0.76699
0.738779
0.76699
0.76699
0.76699
0.76699
0.76699
0.76699
0.764882
0.76699
0.76699
0.76699
0.76699
0.76699
0.76699
0.76699
0.76699
0.76699
0.76699
0.755969
0.76699
0.76699
0.76699
0.757482
0.76699
0.76699
0.76699
0.76699
0.76699
0.760433
0.76699
0.76699
0.76699
0.76699
0.76699
0.76699
0.76699
0.76699
0.76699
0.76699
0.76699
0.766771
0.76699
0.76699
0.76699
0.76699
0.76699
0.76699
0.76699
0.758104
0.76699
0.76699
0.76699
0.76699
0.76699
0.76699
0.76699
0.758326
0.75508
0.76699
0.765273
0.76699
0.76699
0.76699
0.76699
0.76699
0.76699
0.76699
0.76699
0.76699
0.766887
0.76699
0.766599
0.756488
0.76699
0.76699
0.76699
0.759844
0.76699
0.76699
0.76699
0.76699
0.76699
0.76699
0.76699
0.766968
0.76699
0.76699
0.76699
0.765578
0.766086
0.76699
0.76479
0.766276
0.76699
0.764789
0.717765
0.76699
0.766921
0.76699
0.76699
0.76699
0.76699
0.76699
0.764656
0.76699
0.76699
0.76699
0.76699
0.76699
0.766989
0.766899
0.76699
0.76699
0.76699
0.76699
0.765651
0.76699
0.76699
0.76699
0.766017
0.766413
0.76699
0.76699
0.76699
0.76699
0.765438
0.762141
0.76699
0.76699
0.76699
0.766923
0.76699
0.76699
0.754277
0.76699
0.76699
0.76699
0.76699
0.76699
0.76699
0.76699
0.76699
0.76699
0.76699
0.76699
0.76699
0.762995
0.765273
0.76699
0.76699
0.76699
0.76699
0.76699
0.759324
0.76689
0.760377
0.76699
0.76699
0.76699
0.76699
0.76699
0.76699
0.76675
0.76699
0.76699
0.76699
0.759454
0.753757
0.76699
0.76699
0.766516
0.764933
0.76678
0.766917
0.766654
0.76699
0.759991
0.766984
0.76699
0.76699
0.76699
0.76699
0.76699
0.76699
0.766859
0.755173
0.766577
0.766983
0.766852
0.76699
0.766986
0.76699
0.76699
0.76699
0.765916
0.766989
0.764724
0.766879
0.76699
0.766887
0.766566
0.76699
0.76699
0.759138
0.76699
0.76699
0.766117
0.761018
0.76699
0.76699
0.76699
0.76699
0.76699
0.76699
0.76699
0.765817
0.748079
0.76699
0.76699
0.76699
0.766702
0.76643
0.76699
0.76699
0.76699
0.766657
0.76699
0.76699
0.76699
0.76699
0.76699
0.76699
0.76699
0.755766
0.76699
0.76699
0.76699
0.76699
0.76699
0.76699
0.76699
0.76699
0.76699
0.76699
0.76699
0.76699
0.76699
0.76699
0.76699
0.76699
0.76699
0.76699
0.76699
0.76699
0.76699
0.765461
0.76699
0.766985
0.76699
0.76699
0.76699
0.76699
0.76699
0.76699
0.766243
0.766985
0.762231
0.76699
0.76699
0.766854
0.766932
0.766986
0.766985
0.766953
0.763889
0.76699
0.76699
0.76699
0.76699
0.76699
0.76699
0.76699
0.766955
0.76699
0.75995
0.76699
0.76699
0.76699
0.76699
0.76699
0.76699
0.76699
0.758731
0.765409
0.76699
0.76699
0.76699
0.765099
0.76699
0.76699
0.763978
0.76699
0.764473
0.76699
0.76699
0.76699
0.765259
0.764807
0.764926
0.764883
0.764166
0.76654
0.760055
0.763795
0.764633
0.76699
0.76699
0.76699
0.76699
0.76675
0.764274
0.766907
0.764853
0.764296
0.762061
0.76699
0.761688
0.766988
0.76699
0.76699
0.76699
0.76699
0.76695
0.76699
0.76699
0.76699
0.762776
0.76699
0.757071
0.766964
0.76699
0.763488
0.76699
0.76699
0.762054
0.76699
0.76699
0.76699
0.76699
0.76699
0.76699
0.764823
0.76699
0.76699
0.766802
0.76699
0.763827
0.766914
0.76699
0.766989
0.76698
0.766983
0.766941
0.766977
0.76699
0.766969
0.76699
0.76699
0.766965
0.76699
0.766984
0.766985
0.76699
0.76699
0.76699
0.765211
0.757788
0.76699
0.76699
0.76699
0.76699
0.761003
0.76699
0.76699
0.76699
0.76699
0.76699
0.766581
0.76699
0.76699
0.76699
0.766987
0.766978
0.76699
0.76699
0.76699
0.759544
0.759557
0.76699
0.759128
0.76211
0.766881
0.757112
0.76699
0.761384
0.76699
0.76699
0.76699
0.76699
0.76699
0.76699
0.76699
0.758425
0.76699
0.76699
0.76699
0.76699
0.76699
0.76699
0.76699
0.766949
0.766336
0.76699
0.76699
0.755892
0.76699
0.760695
0.76699
0.76699
0.76136
0.76699
0.76699
0.76699
0.762493
0.76699
0.76699
0.76699
0.76699
0.76699
0.76699
0.76699
0.76699
0.76699
0.76699
0.76699
0.76699
0.76699
0.76699
0.76692
0.76699
0.76699
0.76699
0.76699
0.76699
0.76699
0.76699
0.76699
0.76699
0.76699
0.76699
0.76699
0.76699
0.76699
0.76699
0.76699
0.76699
0.76699
0.757888
0.76699
0.76699
0.76699
0.76699
0.76699
0.765655
0.76699
0.76699
0.76699
0.76699
0.76699
0.76699
0.76699
0.76699
0.76699
0.76699
0.76699
0.76659
0.76699
0.76699
0.76699
0.76699
0.76699
0.76699
0.755702
0.76699
0.76699
0.76699
0.76699
0.766991
0.76699
0.766988
0.764842
0.76699
0.76699
0.76699
0.76699
0.76699
0.76699
0.758403
0.76699
0.76699
0.758425
0.76699
0.76699
0.76699
0.76699
0.76699
0.76699
0.7669
0.76699
0.76699
0.76699
0.758399
0.757495
0.757606
0.76699
0.766934
0.764201
0.76699
0.76699
0.76699
0.758278
0.76699
0.76699
0.76699
0.76699
0.766974
0.76699
0.76699
0.76699
0.76699
0.76699
0.766953
0.766989
0.76699
0.76699
0.766915
0.76699
0.766338
0.76699
0.76699
0.76699
0.76699
0.76699
0.76699
0.76699
0.766664
0.766854
0.765021
0.76699
0.766002
0.76699
0.76699
0.76699
0.76699
0.76699
0.76699
0.76699
0.76699
0.76699
0.766863
0.76699
0.76699
0.765864
0.76699
0.765969
0.76699
0.765324
0.76699
0.76699
0.766814
0.76699
0.76699
0.76699
0.762205
0.765417
0.766181
0.76699
0.766022
0.76699
0.76699
0.76699
0.76699
0.76699
0.758149
0.76699
0.76699
0.76699
0.766988
0.766989
0.76699
0.76699
0.76699
0.76699
0.764119
0.76699
0.76699
0.76699
0.76699
0.76699
0.76699
0.76699
0.76699
0.76699
0.76699
0.756651
0.76699
0.76699
0.76699
0.76699
0.760221
0.76699
0.76699
0.76699
0.765774
0.76699
0.766987
0.766212
0.763172
0.76699
0.758239
0.76699
0.76699
0.76699
0.763179
0.76699
0.76699
0.767018
0.766703
0.76699
0.76699
0.76699
0.766757
0.76699
0.76699
0.76699
0.76699
0.766969
0.76699
0.73658
0.76699
0.76699
0.76699
0.76699
0.76699
0.76699
0.76699
0.76699
0.76699
0.76699
0.765856
0.766956
0.765945
0.766809
0.765429
0.766959
0.76699
0.76699
0.76699
0.760656
0.765784
0.759622
0.76507
0.76699
0.766333
0.766779
0.754902
0.761594
0.76699
0.753028
0.753688
0.766955
0.76699
0.766949
0.766352
0.76493
0.762197
0.763494
0.766714
0.765284
0.76699
0.765608
0.76699
0.766634
0.76699
0.75769
0.765023
0.76699
0.76699
0.766991
0.76517
0.76699
0.766922
0.76699
0.76699
0.765473
0.76699
0.76699
0.76699
0.76699
0.76699
0.76699
0.711605
0.766746
0.76699
0.76699
0.765122
0.76699
0.75676
0.763155
0.765445
0.76699
0.76699
0.76699
0.760855
0.76699
0.76699
0.76699
0.76699
0.76699
0.764934
0.76699
0.76699
0.762541
0.763891
0.76699
0.76699
0.766404
0.76699
0.76699
0.763704
0.76699
0.76699
0.76699
0.765333
0.751685
0.763561
0.76699
0.76699
0.76699
0.764647
0.766547
0.766989
0.762094
0.76699
0.76699
0.76699
0.76699
0.76699
0.766869
0.763074
0.76699
0.759805
0.76699
0.76699
0.76699
0.76699
0.76699
0.76699
0.759474
0.760704
0.76699
0.76699
0.76699
0.766981
0.76699
0.76699
0.763012
0.76699
0.76699
0.76699
0.76699
0.76699
0.76699
0.76699
0.76699
0.76699
0.76699
0.76699
0.766988
0.76699
0.759319
0.680513
0.76699
0.766988
0.76699
0.76699
0.76699
0.76699
0.766989
0.764466
0.760315
0.766989
0.766683
0.766978
0.76699
0.76699
0.766949
0.76699
0.76699
0.76699
0.76699
0.766988
0.76699
0.76699
0.76699
0.76699
0.76699
0.76699
0.758883
0.76699
0.76699
0.76699
0.765563
0.760846
0.76699
0.76699
0.76699
0.766075
0.766957
0.76699
0.76699
0.76699
0.76699
0.76699
0.76699
0.76699
0.76699
0.76699
0.76699
0.76699
0.766911
0.759203
0.76699
0.76699
0.766939
0.76699
0.76699
0.76699
0.76699
0.766989
0.76699
0.76699
0.76699
0.76699
0.76699
0.762192
0.766991
0.76699
0.76699
0.764786
0.76699
0.766996
0.76699
0.76699
0.76699
0.765383
0.76699
0.76699
0.76699
0.76699
0.765381
0.76699
0.76699
0.765616
0.76699
0.766996
0.76699
0.76699
0.76699
0.766525
0.76699
0.766992
0.76699
0.76699
0.76699
0.766999
0.76699
0.76699
0.76699
0.76699
0.765527
0.76699
0.76699
0.76699
0.76699
0.755203
0.76699
0.76699
0.76699
0.76699
0.76699
0.76699
0.76699
0.76699
0.751785
0.76699
0.765098
0.76699
0.76699
0.754401
0.758206
0.76699
0.76699
0.76699
0.76699
0.76699
0.76699
0.7636
0.76699
0.76699
0.76699
0.759855
0.76699
0.76699
0.76699
0.76699
0.758622
0.763932
0.76699
0.758387
0.76699
0.76699
0.76699
0.76699
0.76699
0.756665
0.76699
0.76699
0.76699
0.76699
0.76699
0.76699
0.76699
0.76699
0.76699
0.76699
0.76699
0.766989
0.76699
0.76699
0.76699
0.76699
0.76699
0.76699
0.763573
0.76699
0.76699
0.76699
0.76699
0.759119
0.76699
0.765585
0.76699
0.76699
0.76699
0.76699
0.76699
0.76699
0.76699
0.76699
0.76699
0.76699
0.763311
0.76699
0.76699
0.76699
0.76699
0.76699
0.76699
0.76699
0.76699
0.76699
0.76699
0.76699
0.76699
0.76699
0.755216
0.763009
0.76699
0.76699
0.76699
0.76699
0.763915
0.76699
0.76625
0.76699
0.76699
0.76699
0.76699
0.76699
0.76699
0.76699
0.76699
0.76699
0.76699
0.76699
0.76699
0.76699
0.76699
0.76699
0.76699
0.76699
0.76699
0.76699
0.76699
0.76699
0.76699
0.76699
0.76699
0.76699
0.76699
0.76699
0.76699
0.76699
0.76699
0.76699
0.76699
0.76699
0.76699
0.76699
0.76699
0.76699
0.766989
0.76699
0.76699
0.766844
0.76699
0.766124
0.76699
0.766989
0.76699
0.766988
0.76699
0.76699
0.764738
0.76699
0.76699
0.76699
0.766054
0.758143
0.76699
0.76699
0.76699
0.760284
0.76699
0.76699
0.76699
0.76699
0.76699
0.76699
0.76699
0.76699
0.76699
0.76699
0.76699
0.76699
0.766988
0.76699
0.76699
0.76699
0.76699
0.76699
0.76699
0.765272
0.760176
0.765152
0.76699
0.76699
0.766862
0.765436
0.76699
0.76699
0.765627
0.76699
0.761882
0.76699
0.76699
0.76699
0.76699
0.76699
0.76699
0.76699
0.76699
0.76699
0.76699
0.76699
0.76699
0.76699
0.76699
0.76699
0.76699
0.76699
0.76699
0.76699
0.76699
0.76699
0.76699
0.76699
0.76699
0.76699
0.76699
0.76699
0.76699
0.76699
0.76699
0.76699
0.76699
0.76699
0.76699
0.76699
0.76699
0.76699
0.76699
0.76699