/*--------------------------------*- C++ -*----------------------------------*\
| =========                 |                                                 |
| \\      /  F ield         | OpenFOAM: The Open Source CFD Toolbox           |
|  \\    /   O peration     | Version:  v2012                                 |
|   \\  /    A nd           | Website:  www.openfoam.com                      |
|    \\/     M anipulation  |                                                 |
\*---------------------------------------------------------------------------*/
FoamFile
{
    version     2.0;
    format      ascii;
    class       volScalarField;
    location    "4";
    object      nut;
}
// * * * * * * * * * * * * * * * * * * * * * * * * * * * * * * * * * * * * * //

dimensions      [0 2 -1 0 0 0 0];


internalField   nonuniform List<scalar> 
108993
(
9.00913e-05
8.26108e-05
7.25155e-05
8.78196e-05
8.96098e-05
4.71688e-05
0.000101519
7.05434e-05
8.98579e-05
8.22501e-05
9.44067e-05
9.33805e-05
7.45549e-05
7.39049e-05
7.89982e-05
6.74006e-05
7.68595e-05
7.9953e-05
7.50365e-05
8.05209e-05
7.96376e-05
8.84072e-05
7.05757e-05
9.049e-05
8.95452e-05
7.9913e-05
9.09083e-05
8.61026e-05
9.69171e-05
5.58043e-05
0.000100088
9.25247e-05
0.000113253
9.20125e-05
0.000221766
8.97225e-05
7.9879e-05
9.51388e-05
0.00550216
0.00407288
0.000101935
9.62567e-05
8.13912e-05
0.000141365
8.108e-05
0.00422132
0.000110525
0.000183854
0.000108169
8.79181e-05
9.14632e-05
0.000118801
8.43295e-05
8.76615e-05
9.21479e-05
9.51923e-05
8.93813e-05
8.35715e-05
6.96061e-05
9.75425e-05
8.5993e-05
8.78785e-05
8.45268e-05
7.54772e-05
8.57644e-05
9.69391e-05
8.67188e-05
9.3049e-05
0.00010105
0.0012207
8.28111e-05
8.05352e-05
8.84198e-05
8.62174e-05
7.90063e-05
9.55466e-05
7.6603e-05
0.000103186
9.68045e-05
8.85459e-05
8.05458e-05
7.64806e-05
7.41689e-05
8.58412e-05
9.62409e-05
7.96596e-05
9.67073e-05
7.7459e-05
8.17199e-05
9.67234e-05
8.3935e-05
7.18157e-05
9.46624e-05
7.37317e-05
9.11707e-05
8.81567e-05
7.09733e-05
6.12182e-05
6.96207e-05
7.51532e-05
9.18765e-05
0.000105193
0.00010064
9.61364e-05
6.63631e-05
9.77969e-05
9.6101e-05
0.000204701
9.6289e-05
0.00325432
8.05062e-05
8.45218e-05
0.000171466
8.86661e-05
8.84833e-05
0.00134129
7.58958e-05
7.06182e-05
0.000105076
8.57846e-05
8.36572e-05
8.0539e-05
0.00191597
5.67084e-05
8.76735e-05
8.54974e-05
8.92036e-05
7.67665e-05
7.45236e-05
9.70298e-05
7.77373e-05
9.49409e-05
9.80853e-05
0.000526709
8.54816e-05
7.11973e-05
8.13167e-05
7.52141e-05
7.55386e-05
8.08593e-05
7.30031e-05
7.0437e-05
0.00010571
8.29835e-05
9.17475e-05
8.89399e-05
7.02909e-05
0.0107416
8.10759e-05
0.000466512
0.000419741
6.91948e-05
6.9917e-05
0.000414692
8.64493e-05
8.32059e-05
0.00010239
9.43324e-05
0.000200115
0.000792867
0.000446171
0.000202528
9.79713e-05
8.12393e-05
8.16655e-05
9.57489e-05
8.23705e-05
7.3604e-05
7.35353e-05
9.91093e-05
9.13722e-05
9.08636e-05
0.000109417
7.70492e-05
8.8564e-05
8.0291e-05
0.000568061
7.55044e-05
9.23398e-05
7.79713e-05
7.63467e-05
7.1072e-05
8.97889e-05
2.46395e-05
0.000100949
8.75695e-05
9.32105e-05
8.74632e-05
8.72646e-05
2.83178e-05
8.72679e-05
0.000101801
7.57822e-05
0.000167089
9.27289e-05
8.27498e-05
9.82545e-05
8.84788e-05
9.45029e-05
3.15657e-05
9.2626e-05
0.000175025
8.76673e-05
8.21087e-05
0.000136523
0.00246378
7.91142e-05
0.00307077
8.30614e-05
0.00192152
0.000528528
9.02201e-05
0.000524217
0.00580553
0.0145578
5.94031e-05
7.63575e-05
8.61938e-05
8.72163e-05
0.000106853
8.66112e-05
0.000398313
0.000160714
0.00027107
7.75993e-05
6.58968e-05
8.71228e-05
9.6286e-05
0.000241335
7.00259e-05
0.00368439
8.74171e-05
7.21134e-05
7.51878e-05
8.00287e-05
6.91021e-05
9.09816e-05
7.94717e-05
0.00255077
8.89565e-05
6.09301e-05
9.17978e-05
5.52538e-05
9.63985e-05
0.000102704
8.42211e-05
0.00614776
0.00103481
9.89667e-05
9.55475e-05
8.18911e-05
8.96077e-05
8.25222e-05
9.18757e-05
9.27538e-05
9.73261e-05
9.07145e-05
8.33315e-05
0.000101681
5.48535e-05
8.56614e-05
8.55598e-05
9.69214e-05
7.25942e-05
0.000136482
8.54079e-05
9.5216e-05
0.000101172
5.44514e-05
8.35611e-05
6.03792e-05
7.19052e-05
0.00870018
0.00196526
0.00610669
8.02331e-05
9.24129e-05
0.00293561
9.49354e-05
8.4856e-05
9.12e-05
0.00240286
0.00223921
7.7437e-05
9.0981e-05
8.66777e-05
6.70999e-05
9.23032e-05
9.85587e-05
0.00550635
8.28002e-05
7.13851e-05
9.54916e-05
9.02928e-05
8.76903e-05
7.09687e-05
9.99095e-05
8.37852e-05
0.000147826
4.86791e-05
0.00136002
0.000934633
9.28435e-05
6.63992e-05
8.87426e-05
7.0622e-05
6.75149e-05
7.52792e-05
6.47678e-05
0.0089876
9.33981e-05
9.35014e-05
7.351e-05
8.11227e-05
9.49973e-05
0.000380564
6.71751e-05
7.63554e-05
0.0059037
0.000101605
8.01701e-05
6.23635e-05
6.20582e-05
7.22317e-05
6.81075e-05
0.000451028
0.00207938
0.00110514
7.9965e-05
9.79779e-05
0.000104256
0.000929163
0.000788096
8.23748e-05
0.00650212
8.85787e-05
8.63392e-05
9.06432e-05
8.82698e-05
7.79798e-05
8.30629e-05
0.000841385
7.85064e-05
9.1141e-05
7.82327e-05
8.15782e-05
7.67636e-05
7.64736e-05
7.52485e-05
7.34853e-05
8.906e-05
5.84651e-05
0.00190867
0.00354024
8.26466e-05
8.45637e-05
7.65142e-05
0.00324355
8.41922e-05
4.83512e-05
0.000104618
7.75405e-05
7.05906e-05
8.08129e-05
9.00844e-05
9.36808e-05
9.17613e-05
7.671e-05
8.67784e-05
0.00229449
7.23667e-05
9.19934e-05
7.45305e-05
0.00032099
0.000106841
0.00230658
9.54403e-05
0.000116415
0.00244364
9.17008e-05
0.00182326
0.000793428
9.59595e-05
8.37807e-05
8.1559e-05
5.62343e-05
7.81841e-05
0.00180733
8.03808e-05
0.00448726
0.00351236
5.9993e-05
0.00175299
7.40202e-05
0.00485076
0.000119978
0.000836635
8.69486e-05
8.05206e-05
8.46542e-05
0.000117264
0.0049099
0.00363542
8.65187e-05
9.02537e-05
6.56071e-05
7.63975e-05
5.26659e-05
7.99347e-05
0.00228104
7.87729e-05
7.70472e-05
0.00238674
7.59636e-05
8.74491e-05
9.64417e-05
0.00095257
0.000140945
0.00237944
8.1059e-05
0.00196786
8.29216e-05
0.00066414
6.51188e-05
9.2612e-05
0.00119678
9.04291e-05
0.000595337
0.00185549
5.55778e-05
0.000767589
0.00761262
0.000810459
8.34896e-05
7.94491e-05
8.64947e-05
8.25515e-05
8.94509e-05
9.6445e-05
7.64169e-05
8.08547e-05
7.93897e-05
9.89657e-05
5.67431e-05
0.00273075
9.79498e-05
7.55249e-05
0.000101778
8.07179e-05
6.20234e-05
8.32751e-05
8.54829e-05
9.34014e-05
0.000111757
0.000103996
8.40097e-05
8.408e-05
8.04504e-05
0.000102339
7.45467e-05
0.000991866
8.38613e-05
0.00162909
0.000317874
8.81812e-05
6.37513e-05
7.82819e-05
0.00176775
6.01748e-05
7.46755e-05
0.000384772
9.04579e-05
9.13192e-05
8.16749e-05
0.000102065
9.83408e-05
7.13924e-05
0.000351566
0.00288301
9.58694e-05
7.64246e-05
0.000100577
9.61326e-05
9.1168e-05
0.000153103
7.57939e-05
7.3849e-05
7.32515e-05
9.87417e-05
9.90683e-05
8.4991e-05
9.36491e-05
9.93155e-05
7.75679e-05
8.41578e-05
5.73477e-05
0.000143729
9.17863e-05
6.44136e-05
8.31542e-05
7.4179e-05
8.53137e-05
6.65052e-05
8.54893e-05
9.41318e-05
0.000789082
8.06129e-05
7.34541e-05
0.0025506
8.33978e-05
9.20766e-05
8.03228e-05
9.18312e-05
9.74963e-05
8.4394e-05
9.11761e-05
7.1871e-05
8.42608e-05
0.000100644
0.000103062
0.000180975
0.000245425
8.84876e-05
9.03756e-05
9.92588e-05
0.000118126
8.45921e-05
8.94511e-05
0.000119378
9.68147e-05
7.6096e-05
7.88703e-05
8.89929e-05
7.76455e-05
9.22928e-05
9.75952e-05
7.8028e-05
8.97213e-05
9.41252e-05
0.00452943
7.87717e-05
0.00886166
8.32949e-05
9.75143e-05
9.69314e-05
8.19072e-05
6.71317e-05
0.00010392
9.54735e-05
6.65789e-05
0.00148673
7.14702e-05
0.00587063
0.000103239
9.47962e-05
7.98181e-05
9.36646e-05
9.91274e-05
0.00191821
7.27803e-05
8.91364e-05
8.60008e-05
8.22298e-05
9.10293e-05
0.00340831
0.00374512
8.9923e-05
7.06797e-05
0.000114213
9.49751e-05
8.97673e-05
6.4535e-05
0.00269077
0.00185546
0.000584311
8.55245e-05
0.000100371
0.0043627
0.00222417
0.000142329
9.77928e-05
7.77994e-05
9.88509e-05
0.000106946
9.01891e-05
7.9629e-05
0.00569122
0.00253226
9.60736e-05
6.17023e-05
0.000102356
6.33776e-05
8.46571e-05
8.31219e-05
0.00206455
7.78604e-05
0.000105656
7.00918e-05
0.00010319
9.44923e-05
8.86006e-05
9.69842e-05
0.00349272
7.4875e-05
7.27284e-05
6.48465e-05
0.00223751
8.09237e-05
8.36143e-05
8.97481e-05
0.000284831
8.9311e-05
0.000160042
8.2163e-05
0.000105894
8.17545e-05
9.20589e-05
8.46322e-05
0.00555059
7.4419e-05
0.000111777
8.39891e-05
9.04932e-05
0.00421608
9.74462e-05
9.58197e-05
0.000102888
0.000189819
0.00666474
8.8645e-05
0.000978161
8.38172e-05
0.000267874
0.000392031
8.2423e-05
7.18356e-05
6.41599e-05
0.00349109
8.4627e-05
9.43068e-05
8.00555e-05
9.33655e-05
8.24741e-05
7.62465e-05
7.14969e-05
7.72774e-05
8.49853e-05
0.000140236
7.86839e-05
8.2304e-05
8.76457e-05
7.51722e-05
0.00747877
0.00224461
0.00114129
0.000104878
0.00021577
0.00221011
0.0026798
0.00293727
0.00161744
8.62271e-05
6.49746e-05
8.26123e-05
7.46593e-05
0.000149043
7.17576e-05
9.49912e-05
0.0066078
0.00393917
0.000101859
0.000104432
0.000100635
0.00335604
0.00278923
0.000102347
0.000143468
9.78596e-05
8.62274e-05
0.00577067
8.09853e-05
0.00269191
8.68629e-05
8.87227e-05
0.00526104
0.000118683
0.00216588
0.000276372
7.1759e-05
0.00106411
8.00747e-05
8.44521e-05
0.000102045
6.87867e-05
9.89957e-05
0.00328889
0.000174455
0.00416432
6.76778e-05
0.00124094
0.000135357
9.08098e-05
4.89823e-05
5.55145e-05
0.000108625
5.76111e-05
9.03483e-05
7.37988e-05
8.93803e-05
7.49922e-05
8.82452e-05
0.00613622
0.00678708
9.46414e-05
0.00201019
6.69306e-05
0.00012994
9.42191e-05
6.29914e-05
9.37227e-05
0.000101623
9.02097e-05
0.000118874
7.47895e-05
7.53305e-05
9.00193e-05
0.000100875
7.00346e-05
5.97035e-05
9.07502e-05
8.57371e-05
8.67263e-05
7.11276e-05
7.60807e-05
9.16555e-05
6.77349e-05
0.00355369
6.98615e-05
8.9219e-05
0.000107623
7.64115e-05
6.44914e-05
0.00751559
0.00353946
9.43087e-05
9.80015e-05
0.000103488
0.000112934
9.18007e-05
0.000126927
9.278e-05
6.21073e-05
7.22369e-05
0.000107893
6.43369e-05
7.8756e-05
6.7311e-05
0.000120652
0.000107017
7.90216e-05
9.12904e-05
8.21035e-05
0.000111428
8.25962e-05
0.000263881
9.47512e-05
0.000102444
0.00428498
9.43973e-05
8.96628e-05
7.79746e-05
0.00048859
8.86723e-05
0.00090771
0.000456324
0.000104393
8.34812e-05
0.00129016
0.002832
7.82183e-05
6.53957e-05
0.000605345
9.08113e-05
8.24301e-05
8.46792e-05
0.000141634
8.86175e-05
6.69863e-05
8.9518e-05
0.000693742
8.5124e-05
0.00565548
8.41837e-05
8.24998e-05
0.0092942
0.000108462
0.00244707
9.56176e-05
0.00190814
9.36406e-05
7.7228e-05
7.86478e-05
9.55438e-05
8.32128e-05
9.02048e-05
9.36418e-05
8.97549e-05
8.13708e-05
7.18611e-05
7.55242e-05
9.58636e-05
8.74037e-05
8.71993e-05
0.000313129
6.91915e-05
0.000504675
6.87434e-05
8.45904e-05
0.00357435
6.72924e-05
0.000960522
7.59267e-05
8.3773e-05
9.06975e-05
0.00171627
8.24387e-05
7.51897e-05
0.000264902
8.43258e-05
0.000105855
0.00013453
0.00268858
9.65356e-05
0.000108646
8.03297e-05
7.72365e-05
9.41713e-05
0.000999771
0.0092554
0.000116401
6.84941e-05
9.82347e-05
0.000582722
0.000108461
8.64812e-05
0.000110265
8.39594e-05
9.34291e-05
0.00142922
8.71608e-05
0.00115785
8.83018e-05
0.00164228
9.1839e-05
8.9353e-05
4.96621e-05
9.09556e-05
8.75919e-05
0.000109627
5.07124e-05
5.80118e-05
0.00080609
8.5074e-05
0.00458238
7.96764e-05
9.36821e-05
8.43549e-05
6.92018e-05
9.48935e-05
9.72753e-05
7.22439e-05
7.89613e-05
7.42031e-05
0.00372861
8.05839e-05
9.04013e-05
9.52345e-05
0.00191335
7.90613e-05
0.000321086
0.00219361
0.00562286
7.17968e-05
9.468e-05
9.06468e-05
0.000577595
8.13922e-05
0.000777437
0.00595684
0.00369547
8.38682e-05
8.12246e-05
0.000140801
7.80721e-05
0.000112014
7.61477e-05
8.15864e-05
8.93058e-05
0.000287776
0.000108818
0.000141302
8.07346e-05
7.82165e-05
0.000589794
9.80956e-05
8.59247e-05
0.000900902
0.00143114
6.93008e-05
9.69687e-05
8.46324e-05
8.82568e-05
0.000114833
0.000121772
0.000610872
6.97233e-05
0.000771415
0.00011983
0.000101507
0.000102083
6.68578e-05
9.52915e-05
7.83667e-05
9.65095e-05
0.000123377
9.77754e-05
6.68139e-05
0.000125648
8.4353e-05
6.44415e-05
0.000179465
6.83354e-05
7.25795e-05
9.41069e-05
0.000111808
7.35884e-05
7.88222e-05
0.00104453
9.14385e-05
0.00480214
8.19024e-05
8.12324e-05
8.33762e-05
0.000107
9.84846e-05
6.92094e-05
6.33698e-05
0.000503685
9.95235e-05
0.000549365
8.68965e-05
9.07371e-05
0.000172615
0.00159103
7.87851e-05
0.000334715
0.00631619
8.00073e-05
7.89529e-05
9.01965e-05
7.68079e-05
7.68148e-05
0.0091107
0.000102479
0.000156197
0.00013279
9.37277e-05
8.88748e-05
8.43137e-05
7.97705e-05
0.000121981
0.000456838
6.23663e-05
8.3601e-05
6.60284e-05
0.000188571
7.95435e-05
9.00314e-05
9.17068e-05
0.000165541
7.58548e-05
7.43794e-05
7.68814e-05
6.50707e-05
7.88158e-05
8.77452e-05
8.794e-05
0.000338625
9.6108e-05
8.80236e-05
7.65881e-05
9.45891e-05
0.00700413
7.071e-05
7.50698e-05
8.28365e-05
8.15094e-05
6.29814e-05
0.00368979
0.000462594
0.000104661
6.99535e-05
7.98057e-05
9.89733e-05
0.000137401
0.000116944
8.2722e-05
7.44744e-05
0.00166977
7.56469e-05
0.000208165
0.000111314
0.00363012
4.50316e-05
8.68062e-05
8.70516e-05
7.58843e-05
8.82864e-05
8.67838e-05
6.05653e-05
6.31398e-05
7.8096e-05
8.31018e-05
0.00121648
9.39975e-05
9.68289e-05
0.000173494
8.12456e-05
0.000102892
0.000113082
9.80142e-05
9.41662e-05
9.16142e-05
9.32819e-05
0.000100938
0.000126541
9.05696e-05
0.000109958
9.61787e-05
0.00285539
7.00446e-05
9.21603e-05
8.80528e-05
0.000174011
0.00010702
8.62183e-05
0.00231715
9.73416e-05
0.000114236
7.75456e-05
0.00347764
7.90134e-05
9.59958e-05
8.67799e-05
0.0019222
8.65141e-05
8.43163e-05
7.53846e-05
6.44912e-05
0.000106403
0.00270515
9.42235e-05
8.329e-05
0.000102658
0.000107362
0.000126419
7.86771e-05
9.50302e-05
0.000117359
0.000329675
0.00010394
0.000729673
0.000134462
0.000116119
0.000103564
6.40977e-05
5.36605e-05
8.05384e-05
6.71813e-05
7.74053e-05
9.31325e-05
0.000779779
6.99414e-05
0.00622034
9.42438e-05
9.33394e-05
7.01686e-05
9.74168e-05
0.000264776
6.97399e-05
8.54009e-05
9.49348e-05
9.17174e-05
5.68508e-05
0.000108685
0.00176294
0.000129383
8.78054e-05
0.000615374
8.59034e-05
0.000124388
0.000111249
0.000152672
7.9176e-05
9.97819e-05
0.00247477
6.71314e-05
7.24924e-05
9.38703e-05
6.8521e-05
9.73717e-05
8.02896e-05
5.27762e-05
0.000232704
9.92464e-05
0.000116596
6.31978e-05
8.80829e-05
9.88399e-05
7.9556e-05
7.78826e-05
8.39719e-05
5.62809e-05
7.67816e-05
0.000310072
9.23057e-05
0.000442729
7.65511e-05
9.08487e-05
0.00649451
8.35254e-05
8.30402e-05
8.14151e-05
9.02749e-05
7.88524e-05
9.26662e-05
5.88353e-05
8.68712e-05
9.97773e-05
0.000113094
9.1356e-05
9.41443e-05
0.000102559
6.74636e-05
8.94229e-05
0.00010444
0.00180769
0.00162597
9.11256e-05
8.74626e-05
9.27314e-05
0.000102861
7.23442e-05
8.41319e-05
0.00102683
8.24315e-05
7.4475e-05
5.6241e-05
9.42557e-05
6.21222e-05
7.42194e-05
0.000106725
0.000105126
0.00196592
7.6926e-05
7.93479e-05
8.06896e-05
0.00280218
0.00010404
8.30311e-05
5.77546e-05
6.93838e-05
0.000171125
9.34785e-05
0.000149671
6.17893e-05
5.96695e-05
6.59052e-05
0.00176876
0.000110383
8.147e-05
0.000184383
0.000103685
0.000432302
0.000154098
7.41558e-05
8.93491e-05
6.51955e-05
7.52695e-05
6.32948e-05
0.00010207
7.96083e-05
0.000327081
0.00156835
0.000126376
8.34861e-05
7.97466e-05
0.000174275
6.35655e-05
9.10373e-05
5.70624e-05
7.28649e-05
8.10128e-05
0.000387708
0.000152074
0.00400086
9.14593e-05
7.22286e-05
8.69299e-05
0.000400713
0.000105597
8.32849e-05
7.91662e-05
0.000122669
9.23976e-05
0.00337796
0.000450731
8.48264e-05
0.000703411
8.9466e-05
8.22945e-05
8.40873e-05
9.90681e-05
0.00013551
0.00326004
9.28797e-05
8.18179e-05
9.04563e-05
0.00392626
0.000109989
8.52578e-05
7.95658e-05
0.000116467
0.000646735
0.00419705
0.000108157
0.000101051
8.65908e-05
0.000167151
8.42073e-05
0.000109873
0.000100946
0.000101657
9.23329e-05
0.00183309
9.11465e-05
8.00961e-05
0.00452901
7.26157e-05
9.07526e-05
9.44399e-05
9.30018e-05
0.00188421
9.13089e-05
8.87122e-05
5.93391e-05
0.00137683
0.000642788
9.19205e-05
8.28049e-05
0.000102533
9.45089e-05
0.00425198
0.00576266
0.00530954
0.000321752
0.00661444
9.83398e-05
0.00431104
0.00497178
5.71859e-05
6.40152e-05
8.0866e-05
7.64923e-05
0.000100093
9.17127e-05
7.59497e-05
6.96726e-05
7.72505e-05
8.37337e-05
8.02206e-05
0.000107041
9.94775e-05
0.000103977
0.000340583
0.000109697
0.000282963
0.000343483
8.67932e-05
8.88621e-05
0.00078676
0.000224401
0.000926141
8.60304e-05
8.9273e-05
7.82008e-05
8.5817e-05
8.76797e-05
8.53383e-05
6.81962e-05
8.61284e-05
0.000261567
8.72272e-05
9.93623e-05
0.000138235
0.00011161
0.00142926
9.89901e-05
8.84091e-05
0.000110312
8.06696e-05
9.4546e-05
9.75688e-05
8.51981e-05
7.12964e-05
8.54696e-05
9.63959e-05
7.95227e-05
8.39712e-05
0.000104148
6.53748e-05
8.2031e-05
8.46221e-05
0.000531332
0.00011377
0.000859241
0.00351293
8.95073e-05
0.00256723
8.21295e-05
9.60591e-05
9.72347e-05
7.11451e-05
9.27633e-05
0.0051132
0.00188538
8.84177e-05
7.84105e-05
0.00298636
0.000151172
8.41021e-05
9.42541e-05
8.85854e-05
0.000101324
0.000102039
0.00010837
0.000403109
9.77037e-05
8.38647e-05
7.55337e-05
9.43842e-05
9.70201e-05
0.000178151
0.000173478
0.0116823
0.00741312
0.000104411
8.98175e-05
0.000472193
8.00288e-05
6.69246e-05
0.000105402
0.000101902
8.51828e-05
8.90111e-05
7.53751e-05
0.000106598
9.35992e-05
0.0024559
8.12241e-05
7.96486e-05
0.000391691
0.000149381
7.40096e-05
9.81417e-05
0.000794714
7.83891e-05
8.48008e-05
0.000100064
8.21475e-05
7.0551e-05
7.46262e-05
9.47334e-05
7.99748e-05
0.000201914
0.00392167
0.00012535
0.000111299
0.00390556
6.32477e-05
8.73889e-05
0.0032806
6.58106e-05
8.32986e-05
7.49585e-05
0.000112591
0.00584826
9.65027e-05
8.85584e-05
0.000514471
7.59715e-05
0.00525804
7.42548e-05
0.00699428
6.51191e-05
5.23825e-05
0.00562986
0.000131349
6.09533e-05
0.00260008
8.88083e-05
9.00677e-05
9.16746e-05
5.54532e-05
9.65929e-05
9.90933e-05
0.00440932
8.5601e-05
7.72646e-05
0.001756
7.80837e-05
0.000718728
0.00353945
0.000803588
0.000103114
0.00285384
7.4524e-05
0.00179939
0.000100893
7.57375e-05
7.96692e-05
7.33087e-05
8.21191e-05
9.52558e-05
8.67017e-05
6.97894e-05
0.00234478
0.00208692
0.000232929
0.00286588
6.54344e-05
7.77391e-05
8.38641e-05
6.46828e-05
7.34101e-05
9.75823e-05
0.00317888
0.000575674
9.90746e-05
7.92593e-05
0.000105827
9.47213e-05
0.000119528
7.70978e-05
7.72972e-05
8.09316e-05
8.14212e-05
8.65033e-05
0.000239497
0.0143197
8.72656e-05
0.00342392
0.000301601
9.19419e-05
7.4752e-05
0.00263567
7.60701e-05
7.87231e-05
7.46972e-05
0.00258953
0.00548369
0.00416473
0.00144749
8.05695e-05
9.34359e-05
0.00863913
8.39769e-05
0.000331052
8.89495e-05
7.19478e-05
8.38987e-05
8.20721e-05
0.000278527
8.5789e-05
0.000414948
0.00158279
0.000140337
0.000358218
0.000359961
8.12465e-05
7.64524e-05
0.000110082
9.57577e-05
9.15135e-05
0.000100176
7.58254e-05
8.17364e-05
8.64265e-05
0.000108975
0.000101487
9.09457e-05
0.000984899
0.000700343
0.000506322
9.59991e-05
9.86017e-05
0.00496916
0.00147272
9.37866e-05
0.00223889
7.89502e-05
9.9553e-05
0.00360928
0.00327185
0.00492827
0.0013159
7.23827e-05
0.00293679
0.00839595
0.0010147
8.41793e-05
0.00223979
0.00473284
0.00314001
0.00323669
6.92936e-05
0.00471141
0.0022693
0.000145701
0.00390138
0.00221336
0.00431188
0.000195359
0.00069142
8.01912e-05
8.37867e-05
0.00432886
0.00572949
0.00430645
0.000108142
8.75924e-05
0.00793699
6.55584e-05
8.36957e-05
0.00190699
9.81406e-05
0.00311456
0.000251465
7.74132e-05
8.55832e-05
5.71579e-05
5.36044e-05
0.00027753
0.00148169
0.00293352
0.00257284
0.00251076
8.37302e-05
0.000215604
6.73102e-05
8.75024e-05
5.97454e-05
8.32322e-05
9.81707e-05
8.13054e-05
0.000102192
8.1636e-05
8.75962e-05
8.32658e-05
5.68662e-05
9.89292e-05
0.00267516
8.00046e-05
0.000130985
0.00444234
6.33603e-05
6.17005e-05
0.00105814
5.41046e-05
7.92727e-05
7.22926e-05
8.45515e-05
0.000102654
8.66192e-05
0.00332353
0.000558968
0.000141177
0.000920978
0.00396683
0.000203338
8.34785e-05
0.00310806
0.000634091
8.39122e-05
0.00118776
0.000108869
0.000148925
9.37208e-05
0.000400757
9.13632e-05
0.00292964
6.02789e-05
0.000101625
8.5192e-05
8.08099e-05
0.00102159
9.02159e-05
0.00269153
7.7213e-05
0.000946898
0.000647283
5.66474e-05
0.000178184
0.00465511
0.000975379
0.00329378
0.000874332
4.80439e-05
0.00160275
0.00478983
9.15886e-05
0.000102881
0.000121052
9.17411e-05
0.00359955
8.4299e-05
0.00356653
0.00046229
0.00352462
0.00284208
0.00288622
0.00420159
0.00180926
8.16297e-05
0.0145274
0.00609052
0.000101921
0.00170677
6.77172e-05
0.00019864
0.00191225
8.29762e-05
0.00208278
8.04173e-05
8.39288e-05
8.86629e-05
7.7828e-05
0.00122671
7.50535e-05
9.30587e-05
8.60845e-05
5.52985e-05
6.89218e-05
6.6706e-05
8.0233e-05
8.01449e-05
0.0143951
0.00135159
8.17084e-05
0.00129427
0.000218
8.91534e-05
7.60192e-05
0.00158681
0.00714864
0.000174595
0.000108723
0.00428459
0.000402914
0.00621186
0.000211428
7.21933e-05
0.00211382
9.56746e-05
8.40527e-05
7.04097e-05
0.0021847
6.22578e-05
0.00104901
0.000485278
0.000288006
0.000828441
0.00380654
5.58285e-05
0.00262456
8.5293e-05
6.05095e-05
7.63946e-05
0.000105982
6.42088e-05
9.45165e-05
7.63829e-05
0.00176098
0.000733648
0.0116527
6.41964e-05
0.00807394
7.51605e-05
0.00303512
0.000111779
0.000320838
0.000790825
0.00051252
7.26746e-05
0.000146298
8.58266e-05
8.39665e-05
0.000102195
9.83713e-05
0.000227267
0.000852167
8.2515e-05
0.00310102
0.00295858
8.41253e-05
0.00187906
0.00348713
0.0128855
0.00147114
8.47469e-05
0.000349613
0.000947525
8.73834e-05
6.61299e-05
0.000609685
0.00589929
6.78312e-05
8.04348e-05
6.74792e-05
9.98502e-05
7.0297e-05
0.00097642
0.00107679
0.00154941
0.000916324
9.28622e-05
0.00203449
0.000117194
7.69672e-05
8.72945e-05
5.71966e-05
6.0747e-05
0.00105773
0.000211271
8.85981e-05
0.00104902
9.51922e-05
9.57236e-05
5.9581e-05
0.000104616
0.000172698
9.31146e-05
0.000949835
7.32841e-05
8.77221e-05
0.000990008
0.000388154
0.00362897
7.96797e-05
0.000104948
8.20926e-05
9.03143e-05
9.4503e-05
9.30238e-05
0.0012971
0.00644017
9.10314e-05
8.05396e-05
0.0113659
8.66551e-05
8.15316e-05
8.33202e-05
8.91883e-05
0.000394994
0.00584309
0.00988164
0.000638625
0.00251975
8.8863e-05
0.00396426
9.69449e-05
0.00901888
0.00741992
8.88858e-05
0.00649457
8.36339e-05
8.93052e-05
0.00542548
0.000103806
7.99004e-05
0.00662651
0.00788461
0.0088663
0.00844525
8.40396e-05
0.00067171
0.00217176
0.00916315
9.30368e-05
0.000108581
0.00830658
0.00951568
0.00529179
0.00266933
0.00016837
8.71835e-05
0.000615949
0.0043619
0.00463629
0.00144519
0.000196744
0.007169
8.93473e-05
0.000105668
0.00735187
0.00544349
0.000615805
0.000336047
0.00220116
0.000429322
0.00841279
8.79715e-05
0.00363575
8.64505e-05
0.00466143
9.29872e-05
0.00103623
0.00161503
8.36363e-05
0.00783799
8.05622e-05
0.00277519
0.00669342
7.55525e-05
8.68813e-05
0.00569366
8.35293e-05
8.00738e-05
8.91068e-05
4.63687e-05
0.00430938
8.67061e-05
0.00708407
0.00299133
0.000104997
6.90039e-05
0.00460423
0.000105418
5.43677e-05
0.00313862
5.28738e-05
7.06581e-05
9.63622e-05
9.35461e-05
0.0046812
0.00355268
0.00482804
0.000107993
9.23287e-05
0.00802364
9.66007e-05
0.00119976
0.00240643
0.000111298
5.40348e-05
0.000111121
0.000148249
0.0030724
6.50866e-05
7.79604e-05
5.9866e-05
0.000203978
9.17993e-05
0.00677067
0.00134641
9.61341e-05
7.69182e-05
0.0010129
9.24274e-05
8.25592e-05
6.16479e-05
0.00133265
7.57416e-05
0.00126614
0.0106171
8.32394e-05
8.81353e-05
0.00010647
6.66492e-05
0.00515022
6.42068e-05
0.00168859
0.000110385
0.000100917
8.47269e-05
0.00024499
7.9774e-05
0.00010152
8.12152e-05
0.00356853
8.08793e-05
6.18618e-05
7.68772e-05
8.55851e-05
7.82706e-05
0.00373189
0.00176296
7.06774e-05
7.4487e-05
0.007093
6.17543e-05
0.00335338
0.000113251
6.01884e-05
0.0132309
0.00789152
0.00609763
9.36161e-05
9.30703e-05
0.000246746
0.0111547
7.96172e-05
0.00832865
7.1611e-05
0.00302212
0.00282169
8.02286e-05
0.00131011
0.00656633
0.00935088
0.0113288
0.0057872
7.86624e-05
8.94881e-05
6.75187e-05
0.000126444
0.000486324
8.57928e-05
0.00408122
8.52974e-05
0.000109583
8.16424e-05
0.000144534
0.0104791
0.00664875
9.17577e-05
8.17524e-05
0.00359397
6.90044e-05
0.00295332
0.000100528
7.57064e-05
7.96998e-05
0.00795212
0.00256512
0.00334853
8.40231e-05
9.72133e-05
0.000104951
0.00723776
8.0857e-05
0.00801799
6.79212e-05
7.68166e-05
0.00343638
0.0020893
6.42539e-05
8.91676e-05
0.0139116
8.00206e-05
9.26945e-05
0.00021708
0.00997149
8.08272e-05
0.000695033
7.5827e-05
0.00519165
0.0036405
0.00125313
0.000511723
7.69416e-05
0.000392864
0.000247585
0.00207017
0.00837469
0.00478009
0.000750412
0.000490369
0.000764676
0.00166223
6.34267e-05
0.00534771
0.00396893
0.00303123
7.73754e-05
0.000295921
0.00708445
6.56909e-05
0.00432965
0.000640293
8.54771e-05
0.00106791
6.27324e-05
0.00717266
0.00281236
0.000665314
0.00278321
0.00363305
8.51579e-05
6.58081e-05
9.54931e-05
0.000111083
0.0076874
8.03063e-05
0.00280396
0.00407232
7.24912e-05
7.54483e-05
7.11667e-05
8.29723e-05
5.92803e-05
0.000101663
0.000127994
8.53283e-05
0.00673645
8.36268e-05
0.00186238
6.89099e-05
0.000273593
7.95311e-05
8.13644e-05
0.000931002
6.36582e-05
6.83648e-05
0.000104354
6.89855e-05
6.49035e-05
0.00588257
0.00684544
0.000699039
0.000123557
8.41277e-05
8.31018e-05
8.12337e-05
7.44622e-05
9.89487e-05
8.15881e-05
9.86442e-05
8.2232e-05
8.44172e-05
0.00620346
7.33173e-05
8.59971e-05
8.29837e-05
8.84633e-05
0.000113241
0.000101749
0.000102719
8.27388e-05
9.58676e-05
0.00580335
7.68345e-05
0.000495196
0.00012642
0.000110036
0.0002912
0.000261119
0.000106275
9.98267e-05
9.63978e-05
9.30081e-05
9.00421e-05
7.80781e-05
8.96941e-05
0.000150226
0.000106156
9.66055e-05
8.85316e-05
7.61409e-05
0.00042657
9.86319e-05
0.00169439
9.11972e-05
0.00012197
8.82903e-05
9.31179e-05
0.000179783
0.000114262
8.38803e-05
0.000107649
7.42932e-05
7.44246e-05
0.0015913
0.00113155
8.93214e-05
0.00302296
0.00135512
7.1003e-05
7.59002e-05
0.000213672
0.000414011
0.00106691
7.98528e-05
0.000100008
0.000141142
9.07247e-05
0.00131973
7.83045e-05
8.95146e-05
9.16667e-05
6.9888e-05
0.000115825
7.27255e-05
7.99287e-05
9.24289e-05
5.51932e-05
0.00233178
6.55826e-05
6.91528e-05
9.34232e-05
6.38122e-05
8.72612e-05
0.000816008
0.000104376
0.000134266
0.00395798
0.00271209
8.79809e-05
5.36109e-05
6.50086e-05
7.8999e-05
9.30962e-05
8.97271e-05
9.67203e-05
0.000153112
0.000113003
8.10494e-05
8.8632e-05
9.09153e-05
7.78305e-05
7.97025e-05
9.30823e-05
7.58583e-05
0.00175175
9.86069e-05
0.00554615
8.38481e-05
0.000199947
5.85934e-05
8.97529e-05
0.00280894
5.88837e-05
7.69128e-05
0.00324371
5.6824e-05
0.00195074
7.41055e-05
5.88663e-05
9.61589e-05
0.0030354
0.00053993
0.000360902
0.00107854
8.44917e-05
0.00105311
0.000709796
8.64006e-05
0.000241605
9.39779e-05
0.000238484
0.000204481
9.38629e-05
0.000605044
0.00108799
0.00126456
9.19254e-05
0.000913831
0.0010523
0.000100429
8.61665e-05
0.000376799
8.95768e-05
8.4344e-05
8.36618e-05
9.53758e-05
0.000282186
0.000106192
9.26735e-05
7.25929e-05
9.79304e-05
0.000104501
9.99889e-05
9.09424e-05
0.00439355
9.16646e-05
0.000116982
0.000112176
6.77154e-05
8.04519e-05
8.50592e-05
8.55013e-05
8.62708e-05
8.61987e-05
9.32054e-05
8.72014e-05
7.5532e-05
9.19004e-05
0.000108706
0.000117495
8.59704e-05
7.49369e-05
9.28179e-05
0.000473197
7.47738e-05
0.000106245
0.00264082
5.83173e-05
8.54925e-05
0.000105647
7.54071e-05
8.37647e-05
9.39674e-05
5.08019e-05
7.8103e-05
9.20195e-05
9.59253e-05
8.38622e-05
0.000108049
0.00010448
5.38416e-05
0.000113719
0.000160307
5.21197e-05
7.64914e-05
0.000216752
5.6953e-05
8.3616e-05
0.000118369
9.6027e-05
0.000376626
0.00183875
7.78357e-05
6.22261e-05
0.000212253
0.00551906
0.00175562
0.000102212
8.76143e-05
5.36725e-05
9.02257e-05
9.17037e-05
0.000107132
8.21093e-05
8.34189e-05
8.51799e-05
0.00712496
5.72693e-05
8.97717e-05
8.37982e-05
0.00421467
0.00263404
0.000114857
0.00371444
0.000258533
7.74715e-05
8.39399e-05
8.2732e-05
0.000156871
7.98694e-05
0.00063812
7.59459e-05
8.98788e-05
0.00684695
0.00432283
0.000102225
8.4348e-05
0.00448409
7.47145e-05
0.00485833
0.000102707
7.64323e-05
0.00010204
8.37241e-05
0.00286008
9.60408e-05
0.00293642
9.16578e-05
7.86284e-05
0.00306142
8.90713e-05
8.44022e-05
0.000126771
0.00351078
9.29259e-05
8.9211e-05
0.00309605
7.1615e-05
9.2071e-05
0.00332512
0.00113369
8.59514e-05
0.000103574
0.0014783
0.000347014
0.00100784
0.00472163
0.000108388
9.56895e-05
5.95572e-05
0.000110584
8.0283e-05
0.00220058
9.67237e-05
8.5658e-05
9.29654e-05
0.00231464
8.89282e-05
8.90855e-05
8.65267e-05
9.68341e-05
8.78317e-05
0.000146787
0.00260294
0.00178667
0.000104084
0.00159468
0.00227015
0.00177605
7.7768e-05
9.19752e-05
0.00522803
0.00013024
0.00241567
9.39111e-05
0.000132866
8.28583e-05
0.0027144
4.59676e-05
5.1776e-05
8.259e-05
6.46965e-05
0.00343111
7.41667e-05
0.000203157
0.00305325
0.00144721
8.73079e-05
8.51421e-05
0.000102471
9.53245e-05
8.74267e-05
9.2878e-05
0.000227053
7.864e-05
0.00119124
0.000106445
0.000168579
0.00245859
0.000376392
0.000100796
0.0030724
0.00404839
9.25713e-05
0.000143023
0.000482442
9.22277e-05
0.0031924
7.66313e-05
0.00330565
7.26249e-05
0.000106194
0.006315
0.00307139
8.57198e-05
7.61052e-05
0.00401672
0.00286988
7.64751e-05
8.3401e-05
0.00280032
7.8001e-05
8.58837e-05
8.12616e-05
0.00726717
8.85693e-05
7.97743e-05
0.00288891
9.20752e-05
9.63258e-05
0.00107793
0.000103244
0.00234166
8.04006e-05
0.000440621
0.00518266
0.00247883
8.49818e-05
7.758e-05
7.62698e-05
0.0036689
8.30166e-05
0.000403544
9.92196e-05
0.00322465
0.00256263
8.84068e-05
6.54805e-05
0.000523561
0.00394324
0.00341963
0.000990848
0.00206306
8.40672e-05
8.85598e-05
8.7143e-05
0.000108458
0.000103629
6.89388e-05
8.17523e-05
9.14889e-05
7.10816e-05
6.58401e-05
9.26969e-05
0.0104903
0.000106369
7.28768e-05
8.55368e-05
9.87827e-05
7.75797e-05
7.99602e-05
0.00491326
9.17046e-05
9.04352e-05
9.48658e-05
6.31362e-05
9.98898e-05
9.12805e-05
0.000105516
5.52821e-05
8.62928e-05
0.000116162
0.0108878
5.69771e-05
0.000657228
0.000499153
0.00671019
5.49343e-05
0.000123919
0.00354809
5.28968e-05
8.63329e-05
0.00562407
7.50616e-05
0.000108587
5.70674e-05
7.7739e-05
8.88561e-05
8.81403e-05
5.40472e-05
9.24291e-05
7.94246e-05
7.87e-05
6.32706e-05
0.0012941
5.19326e-05
0.000121735
5.36352e-05
0.000106277
8.95006e-05
7.79222e-05
7.18483e-05
0.00658633
9.30331e-05
6.34663e-05
6.42654e-05
7.19921e-05
6.74904e-05
8.68495e-05
5.55788e-05
0.00449528
0.0119819
7.80247e-05
0.00321498
8.14741e-05
9.07708e-05
6.94755e-05
0.000293045
8.37702e-05
8.95578e-05
0.000281455
8.55383e-05
7.55671e-05
0.00199554