/*--------------------------------*- C++ -*----------------------------------*\
| =========                 |                                                 |
| \\      /  F ield         | OpenFOAM: The Open Source CFD Toolbox           |
|  \\    /   O peration     | Version:  v2012                                 |
|   \\  /    A nd           | Website:  www.openfoam.com                      |
|    \\/     M anipulation  |                                                 |
\*---------------------------------------------------------------------------*/
FoamFile
{
    version     2.0;
    format      ascii;
    class       volScalarField;
    location    "4";
    object      O2;
}
// * * * * * * * * * * * * * * * * * * * * * * * * * * * * * * * * * * * * * //

dimensions      [0 0 0 0 0 0 0];


internalField   nonuniform List<scalar> 
108993
(
0.23301
0.23301
0.23301
0.23301
0.23301
0.23301
0.23301
0.23301
0.23301
0.23301
0.23301
0.23301
0.23301
0.23301
0.23301
0.23301
0.23301
0.23301
0.23301
0.23301
0.23301
0.23301
0.23301
0.23301
0.23301
0.23301
0.23301
0.23301
0.23301
0.23301
0.23301
0.23301
0.23301
0.23301
0.23301
0.23301
0.23301
0.23301
0.220141
0.207239
0.23301
0.23301
0.23301
0.23301
0.23301
0.192356
0.23301
0.23301
0.23301
0.23301
0.23301
0.23301
0.23301
0.23301
0.23301
0.23301
0.23301
0.23301
0.23301
0.23301
0.23301
0.23301
0.23301
0.23301
0.23301
0.23301
0.23301
0.23301
0.23301
0.232722
0.23301
0.23301
0.23301
0.23301
0.23301
0.23301
0.23301
0.23301
0.23301
0.23301
0.23301
0.23301
0.23301
0.23301
0.23301
0.23301
0.23301
0.23301
0.23301
0.23301
0.23301
0.23301
0.23301
0.23301
0.23301
0.23301
0.23301
0.23301
0.23301
0.23301
0.23301
0.23301
0.23301
0.23301
0.23301
0.23301
0.23301
0.23301
0.23301
0.209353
0.23301
0.23301
0.23301
0.23301
0.23301
0.23301
0.23301
0.23301
0.23301
0.23301
0.23301
0.23301
0.23301
0.23301
0.23301
0.23301
0.23301
0.23301
0.23301
0.23301
0.23301
0.23301
0.23301
0.23301
0.23301
0.23301
0.23301
0.23301
0.23301
0.23301
0.23301
0.23301
0.23301
0.23301
0.23301
0.23301
0.23301
0.193583
0.23301
0.23301
0.23301
0.23301
0.23301
0.23301
0.23301
0.23301
0.23301
0.23301
0.23301
0.232995
0.23301
0.23301
0.23301
0.23301
0.23301
0.23301
0.23301
0.23301
0.23301
0.23301
0.23301
0.23301
0.23301
0.23301
0.23301
0.23301
0.23301
0.23301
0.23301
0.23301
0.23301
0.23301
0.23301
0.23301
0.23301
0.23301
0.23301
0.23301
0.23301
0.23301
0.23301
0.23301
0.23301
0.23301
0.23301
0.23301
0.23301
0.23301
0.23301
0.23301
0.23301
0.23301
0.23301
0.23301
0.23301
0.23301
0.23301
0.217272
0.23301
0.233603
0.232939
0.23301
0.23301
0.219121
0.176764
0.23301
0.23301
0.23301
0.23301
0.23301
0.23301
0.23301
0.23301
0.23301
0.23301
0.23301
0.23301
0.23301
0.23301
0.23301
0.226183
0.23301
0.23301
0.23301
0.23301
0.23301
0.23301
0.23301
0.225668
0.23301
0.23301
0.23301
0.23301
0.23301
0.23301
0.23301
0.218451
0.23301
0.23301
0.23301
0.23301
0.23301
0.23301
0.23301
0.23301
0.23301
0.23301
0.23301
0.23301
0.23301
0.23301
0.23301
0.23301
0.23301
0.23301
0.23301
0.23301
0.23301
0.23301
0.23301
0.23301
0.23301
0.221572
0.233077
0.203377
0.23301
0.23301
0.23301
0.23301
0.23301
0.23301
0.210565
0.2041
0.23301
0.23301
0.23301
0.23301
0.23301
0.23301
0.20417
0.23301
0.23301
0.23301
0.23301
0.23301
0.23301
0.23301
0.23301
0.23301
0.23301
0.23301
0.23301
0.23301
0.23301
0.23301
0.23301
0.23301
0.23301
0.23301
0.22316
0.23301
0.23301
0.23301
0.23301
0.23301
0.23301
0.23301
0.23301
0.2051
0.23301
0.23301
0.23301
0.23301
0.23301
0.23301
0.233011
0.233011
0.233032
0.23301
0.23301
0.23301
0.233012
0.23299
0.23301
0.225778
0.23301
0.23301
0.23301
0.23301
0.23301
0.23301
0.23301
0.23301
0.23301
0.23301
0.23301
0.23301
0.23301
0.23301
0.23301
0.23301
0.23301
0.209696
0.22079
0.23301
0.23301
0.23301
0.194645
0.23301
0.23301
0.23301
0.23301
0.23301
0.23301
0.23301
0.23301
0.23301
0.23301
0.23301
0.231612
0.23301
0.23301
0.23301
0.233011
0.23301
0.232871
0.23301
0.23301
0.23301
0.23301
0.233011
0.233012
0.23301
0.23301
0.23301
0.23301
0.23301
0.230583
0.23301
0.216287
0.233012
0.23301
0.233012
0.23301
0.22967
0.23301
0.233413
0.23301
0.23301
0.23301
0.23301
0.232936
0.232965
0.23301
0.23301
0.23301
0.23301
0.23301
0.23301
0.232207
0.23301
0.23301
0.233519
0.23301
0.23301
0.23301
0.232821
0.23301
0.23199
0.23301
0.230232
0.23301
0.23303
0.23301
0.23301
0.233008
0.23301
0.232987
0.23301
0.23301
0.23369
0.205154
0.23304
0.23301
0.23301
0.23301
0.23301
0.23301
0.23301
0.23301
0.23301
0.23301
0.23301
0.23301
0.23038
0.23301
0.23301
0.23301
0.23301
0.23301
0.23301
0.23301
0.23301
0.23301
0.23301
0.23301
0.23301
0.23301
0.23301
0.23301
0.23301
0.23301
0.23301
0.23301
0.23301
0.23301
0.23301
0.23301
0.23301
0.23301
0.23301
0.23301
0.23301
0.23301
0.23301
0.23301
0.23301
0.233
0.230974
0.23301
0.23301
0.23301
0.23301
0.23301
0.23301
0.23301
0.23301
0.23301
0.23301
0.23301
0.23301
0.23301
0.23301
0.23301
0.23301
0.23301
0.23301
0.23301
0.23301
0.23301
0.23301
0.23301
0.23301
0.23301
0.23301
0.23301
0.23301
0.23301
0.223291
0.23301
0.23301
0.23301
0.23301
0.23301
0.23301
0.23301
0.23301
0.23301
0.23301
0.23301
0.23301
0.23301
0.23301
0.23301
0.23301
0.23301
0.23301
0.23301
0.23301
0.23301
0.23301
0.23301
0.23301
0.23301
0.23301
0.23301
0.23301
0.23301
0.23301
0.226477
0.23301
0.200654
0.23301
0.23301
0.23301
0.23301
0.23301
0.23301
0.23301
0.23301
0.23301
0.23301
0.212109
0.23301
0.23301
0.23301
0.23301
0.23301
0.236919
0.23301
0.23301
0.23301
0.23301
0.23301
0.223116
0.233006
0.23301
0.23301
0.23301
0.23301
0.23301
0.23301
0.101228
0.224129
0.232995
0.23301
0.23301
0.222714
0.23301
0.233011
0.23301
0.23301
0.23301
0.23301
0.23301
0.23301
0.198599
0.224059
0.23301
0.23301
0.23301
0.23301
0.23301
0.23301
0.233072
0.23301
0.23301
0.23301
0.23301
0.23301
0.23301
0.23301
0.23753
0.23301
0.23301
0.23301
0.235784
0.23301
0.23301
0.23301
0.23301
0.23301
0.23301
0.23301
0.23301
0.23301
0.23301
0.23301
0.218332
0.23301
0.23301
0.23301
0.23301
0.19681
0.23301
0.23301
0.23301
0.23301
0.187946
0.23301
0.232935
0.23301
0.23301
0.23301
0.23301
0.23301
0.23301
0.228989
0.23301
0.23301
0.23301
0.23301
0.23301
0.23301
0.23301
0.23301
0.23301
0.23301
0.23301
0.23301
0.23301
0.23301
0.216926
0.21632
0.232877
0.23301
0.23301
0.212698
0.226582
0.204397
0.218988
0.23301
0.23301
0.23301
0.23301
0.23301
0.23301
0.23301
0.226124
0.222768
0.23301
0.23301
0.23301
0.209708
0.212363
0.23301
0.23301
0.23301
0.23301
0.204628
0.23301
0.227296
0.23301
0.23301
0.197217
0.23301
0.231318
0.23301
0.23301
0.23288
0.23301
0.23301
0.23301
0.23301
0.23301
0.225929
0.23301
0.222768
0.23301
0.232869
0.23301
0.23301
0.23301
0.23301
0.23301
0.23301
0.23301
0.23301
0.23301
0.23301
0.23301
0.197934
0.210264
0.23301
0.227953
0.23301
0.23301
0.23301
0.23301
0.23301
0.23301
0.23301
0.23301
0.23301
0.23301
0.23301
0.23301
0.23301
0.23301
0.23301
0.23301
0.23301
0.23301
0.23301
0.23301
0.23301
0.229649
0.23301
0.23301
0.23301
0.23301
0.23301
0.192329
0.22662
0.23301
0.23301
0.23301
0.23301
0.23301
0.23301
0.23301
0.23301
0.23301
0.23301
0.23301
0.23301
0.23301
0.23301
0.23301
0.23301
0.23301
0.23301
0.23301
0.23301
0.23301
0.23301
0.23301
0.22964
0.23301
0.23301
0.23301
0.233115
0.23301
0.23301
0.23301
0.23301
0.23301
0.232954
0.23301
0.23301
0.23301
0.23301
0.23301
0.23301
0.23301
0.23301
0.23301
0.23301
0.23301
0.23301
0.23301
0.202287
0.23301
0.23301
0.171476
0.23301
0.23293
0.23301
0.23301
0.23301
0.23301
0.23301
0.23301
0.23301
0.23301
0.23301
0.23301
0.23301
0.23301
0.23301
0.23301
0.23301
0.23301
0.233008
0.23301
0.23301
0.23301
0.23301
0.172368
0.23301
0.233594
0.23301
0.23301
0.23301
0.23849
0.23301
0.23301
0.23301
0.23301
0.23301
0.23301
0.212765
0.23301
0.23301
0.23301
0.23301
0.23301
0.232991
0.163644
0.23301
0.23301
0.23301
0.232958
0.23301
0.23301
0.233009
0.23301
0.23301
0.241681
0.23301
0.239503
0.23301
0.242377
0.23301
0.23301
0.23301
0.23301
0.23301
0.23301
0.23301
0.23301
0.232786
0.23301
0.185226
0.23301
0.23301
0.23301
0.23301
0.23301
0.23301
0.23301
0.23301
0.23301
0.198026
0.23301
0.23301
0.23301
0.231663
0.23301
0.23301
0.208608
0.181124
0.23301
0.23301
0.23301
0.232995
0.23301
0.233004
0.195799
0.232614
0.23301
0.23301
0.23301
0.23301
0.23301
0.23301
0.23301
0.23301
0.23301
0.23301
0.23301
0.23301
0.23301
0.233004
0.23301
0.23301
0.233235
0.232448
0.23301
0.23301
0.23301
0.23301
0.23301
0.23301
0.233012
0.23301
0.233006
0.23301
0.23301
0.23301
0.23301
0.23301
0.23301
0.23301
0.23301
0.23301
0.23301
0.23301
0.23301
0.23301
0.23301
0.23301
0.23301
0.23301
0.23301
0.23301
0.23301
0.233015
0.23301
0.221762
0.23301
0.23301
0.23301
0.23301
0.23301
0.23301
0.23301
0.232979
0.23301
0.23301
0.23301
0.23301
0.23301
0.23301
0.23301
0.23301
0.229656
0.23301
0.23301
0.23301
0.23301
0.23301
0.185752
0.23301
0.23301
0.23301
0.23301
0.23301
0.23301
0.23301
0.23301
0.23301
0.23301
0.23301
0.23301
0.233011
0.23301
0.23301
0.23301
0.23301
0.23301
0.23301
0.23301
0.23301
0.23301
0.23301
0.23301
0.23301
0.23301
0.23301
0.23301
0.23301
0.184973
0.23301
0.23301
0.23301
0.23301
0.23301
0.213184
0.23301
0.23301
0.23301
0.23301
0.23301
0.23301
0.23301
0.23301
0.23301
0.23301
0.23301
0.23301
0.23301
0.228936
0.23301
0.23301
0.23301
0.23301
0.23301
0.23301
0.23301
0.23301
0.23301
0.23301
0.231679
0.23301
0.23301
0.23301
0.23301
0.23301
0.23301
0.23301
0.23301
0.23301
0.23301
0.23301
0.23301
0.23301
0.23301
0.23301
0.232964
0.23301
0.23301
0.23301
0.23301
0.23301
0.23301
0.214024
0.23301
0.23301
0.23301
0.211433
0.23301
0.23301
0.23301
0.203862
0.23301
0.23301
0.23301
0.23301
0.23301
0.232002
0.23301
0.23301
0.23301
0.23301
0.23301
0.23301
0.23301
0.23301
0.23301
0.23301
0.23301
0.23301
0.23301
0.23301
0.23301
0.23301
0.23301
0.23301
0.23301
0.23301
0.232954
0.23301
0.206063
0.23301
0.23301
0.23301
0.23301
0.23301
0.23301
0.23301
0.23301
0.23301
0.23301
0.23301
0.23301
0.23301
0.23301
0.23301
0.23301
0.23301
0.23301
0.23301
0.23301
0.23301
0.213779
0.23301
0.23301
0.23301
0.23301
0.23301
0.23301
0.23301
0.23301
0.23301
0.23301
0.23301
0.23301
0.23301
0.23301
0.23301
0.23301
0.23301
0.23301
0.23301
0.23301
0.232631
0.23301
0.23301
0.191299
0.23301
0.23301
0.23301
0.23301
0.23301
0.23301
0.23301
0.23301
0.23301
0.23301
0.23301
0.23301
0.23301
0.23301
0.23301
0.23301
0.233019
0.233012
0.23301
0.23301
0.23301
0.23301
0.23301
0.23301
0.232858
0.23301
0.23301
0.23301
0.23301
0.23301
0.23301
0.23301
0.23301
0.231739
0.23301
0.23301
0.23301
0.23301
0.23301
0.23301
0.23301
0.23301
0.23301
0.23301
0.23301
0.23301
0.23301
0.23301
0.231437
0.23301
0.23301
0.23301
0.23301
0.232972
0.23301
0.23301
0.23301
0.23301
0.23301
0.23301
0.23301
0.23301
0.23301
0.222032
0.23301
0.23301
0.23301
0.23301
0.23301
0.23301
0.23301
0.23301
0.23301
0.23301
0.23301
0.215537
0.23301
0.23301
0.23301
0.23301
0.23301
0.23301
0.23301
0.23301
0.23301
0.228725
0.233009
0.23301
0.23301
0.23301
0.23301
0.23301
0.23301
0.23301
0.116489
0.23301
0.23301
0.23301
0.232969
0.23301
0.23301
0.23301
0.23301
0.23301
0.218582
0.23301
0.23301
0.23301
0.23301
0.23301
0.23301
0.23301
0.23301
0.23301
0.23301
0.23301
0.23301
0.217156
0.23301
0.23301
0.23301
0.23301
0.23301
0.23301
0.23301
0.23301
0.23301
0.232934
0.23301
0.23301
0.23301
0.23301
0.231507
0.232408
0.232723
0.23301
0.232525
0.23301
0.231742
0.231432
0.23301
0.23301
0.23301
0.23301
0.23301
0.23301
0.23301
0.23301
0.23301
0.23301
0.23301
0.23301
0.23301
0.23301
0.23301
0.23301
0.23301
0.23301
0.23301
0.23301
0.233012
0.23301
0.232966
0.23301
0.23301
0.23301
0.23301
0.23301
0.23301
0.23301
0.23301
0.23301
0.23301
0.23301
0.23301
0.23301
0.232684
0.23301
0.23301
0.23301
0.23301
0.23301
0.23301
0.23301
0.23301
0.23301
0.23301
0.23301
0.23301
0.23301
0.23301
0.23301
0.23301
0.23301
0.23301
0.23301
0.207021
0.23301
0.23301
0.23301
0.23301
0.23301
0.23301
0.23301
0.208617
0.230118
0.23301
0.23301
0.225058
0.23301
0.23301
0.23301
0.23301
0.23301
0.23301
0.23301
0.23301
0.23301
0.23301
0.23301
0.23301
0.23301
0.23301
0.23301
0.139267
0.181432
0.23301
0.23301
0.23301
0.23301
0.23301
0.23301
0.23301
0.23301
0.23301
0.23301
0.23301
0.23301
0.225001
0.23301
0.23301
0.23301
0.23301
0.23301
0.23301
0.23301
0.23301
0.23301
0.23301
0.23301
0.23301
0.23301
0.23301
0.23301
0.23301
0.208403
0.23301
0.23301
0.209272
0.23301
0.23301
0.207698
0.23301
0.23301
0.23301
0.23301
0.206383
0.23301
0.23301
0.233011
0.23301
0.194263
0.23301
0.194087
0.23301
0.23301
0.196076
0.23301
0.23301
0.203574
0.23301
0.23301
0.23301
0.23301
0.23301
0.23301
0.212976
0.23301
0.23301
0.23301
0.23301
0.232696
0.221778
0.232934
0.23301
0.216472
0.23301
0.231564
0.23301
0.23301
0.23301
0.23301
0.23301
0.23301
0.23301
0.23301
0.233008
0.23301
0.23301
0.224367
0.23301
0.23301
0.23301
0.23301
0.23301
0.23301
0.229512
0.232909
0.23301
0.23301
0.23301
0.23301
0.23301
0.23301
0.23301
0.23301
0.23301
0.23301
0.23301
0.153915
0.23301
0.209456
0.23301
0.23301
0.23301
0.23301
0.23301
0.23301
0.23301
0.225213
0.205072
0.226147
0.231845
0.23301
0.23301
0.19401
0.23301
0.23301
0.23301
0.23301
0.23301
0.23301
0.23301
0.23301
0.23301
0.231269
0.23301
0.23301
0.23301
0.23301
0.23301
0.23301
0.23301
0.23301
0.23301
0.23301
0.23301
0.23301
0.23301
0.23301
0.23301
0.23301
0.23301
0.232998
0.23301
0.23301
0.205152
0.23301
0.23301
0.23301
0.23301
0.23301
0.226032
0.204329
0.207262
0.232732
0.23301
0.228994
0.191146
0.232706
0.23301
0.22505
0.225988
0.226944
0.224627
0.23301
0.203921
0.230415
0.23301
0.231867
0.233007
0.229678
0.23301
0.232863
0.23301
0.23301
0.214436
0.209474
0.204073
0.23301
0.23301
0.209768
0.23301
0.23301
0.23301
0.23301
0.230343
0.23301
0.23301
0.23301
0.23301
0.23301
0.23301
0.23301
0.20409
0.232607
0.232853
0.23301
0.23301
0.23301
0.23301
0.23301
0.23301
0.23301
0.23301
0.23301
0.23301
0.23301
0.23301
0.23301
0.23301
0.232963
0.23301
0.233011
0.201896
0.23301
0.23301
0.232863
0.23301
0.23301
0.23301
0.23301
0.23301
0.23301
0.210494
0.23301
0.23301
0.233013
0.213351
0.23301
0.23301
0.222411
0.233006
0.23301
0.232663
0.23301
0.23301
0.23301
0.233009
0.23301
0.229962
0.23301
0.23301
0.23301
0.23301
0.23301
0.23301
0.223533
0.23301
0.232949
0.233003
0.23301
0.23301
0.208837
0.232871
0.216907
0.232951
0.23301
0.23301
0.220914
0.23301
0.23301
0.23301
0.23301
0.223394
0.23301
0.222834
0.233
0.225684
0.223036
0.220325
0.232977
0.224082
0.23301
0.154841
0.196504
0.23301
0.231845
0.23301
0.23301
0.227241
0.23301
0.232067
0.23301
0.23301
0.23301
0.23301
0.232818
0.23301
0.23301
0.23301
0.23301
0.23301
0.23301
0.23301
0.23301
0.165318
0.232464
0.23301
0.232795
0.23301
0.23301
0.23301
0.232388
0.195541
0.23301
0.23301
0.230725
0.233017
0.205546
0.23301
0.23301
0.223044
0.23301
0.23301
0.23301
0.240237
0.23301
0.232966
0.23301
0.23301
0.23301
0.204974
0.23301
0.225191
0.23301
0.23301
0.23301
0.23301
0.23301
0.23301
0.23301
0.231474
0.233005
0.18868
0.23301
0.227053
0.23301
0.2086
0.23301
0.233013
0.23301
0.232999
0.23301
0.23301
0.23301
0.23301
0.23301
0.23301
0.23301
0.232498
0.23301
0.224749
0.224999
0.23301
0.229464
0.207507
0.163218
0.232113
0.23301
0.23301
0.23301
0.23301
0.23301
0.232904
0.225299
0.23301
0.23301
0.23301
0.23301
0.23301
0.232928
0.232967
0.232318
0.232892
0.23301
0.232096
0.23301
0.23301
0.23301
0.23301
0.23301
0.232689
0.23301
0.23301
0.227824
0.23301
0.23301
0.23301
0.23301
0.23301
0.23301
0.23301
0.23301
0.23301
0.23301
0.23301
0.207988
0.23301
0.23301
0.23301
0.23301
0.23301
0.23301
0.233004
0.215325
0.23301
0.23301
0.163872
0.23301
0.23301
0.23301
0.23301
0.233017
0.192956
0.172434
0.233007
0.23301
0.23301
0.213481
0.23301
0.226731
0.196416
0.23301
0.232515
0.23301
0.23301
0.192691
0.23301
0.23301
0.195961
0.2318
0.19902
0.194563
0.23301
0.233006
0.23301
0.226989
0.23301
0.23301
0.204193
0.199632
0.214834
0.226883
0.23301
0.23301
0.23301
0.232469
0.211931
0.232614
0.23301
0.196457
0.23301
0.23301
0.198033
0.198419
0.233009
0.23301
0.232023
0.233004
0.162832
0.23301
0.232729
0.23301
0.198303
0.23301
0.23301
0.23301
0.23301
0.194176
0.23301
0.232515
0.19749
0.23301
0.23301
0.213115
0.23301
0.23301
0.23301
0.23301
0.232761
0.23301
0.197237
0.200349
0.23301
0.23301
0.206906
0.23301
0.23301
0.23301
0.23301
0.23301
0.23301
0.23301
0.222993
0.221971
0.199865
0.23301
0.23301
0.204372
0.23301
0.230292
0.229527
0.23301
0.23301
0.23301
0.23301
0.221159
0.23301
0.23301
0.23301
0.23301
0.23301
0.229532
0.232954
0.23301
0.23301
0.235415
0.23301
0.23301
0.23301
0.23301
0.23301
0.232192
0.224202
0.23301
0.23301
0.23301
0.23301
0.179945
0.23301
0.232106
0.23301
0.23301
0.23301
0.23301
0.23301
0.23301
0.23301
0.220941
0.23301
0.23301
0.23301
0.23301
0.23301
0.200779
0.232062
0.23301
0.23301
0.212728
0.23301
0.225171
0.23301
0.23301
0.153512
0.178898
0.224836
0.23301
0.23301
0.233008
0.189461
0.23301
0.18774
0.23301
0.227267
0.229526
0.23301
0.231673
0.2013
0.184619
0.156444
0.217707
0.23301
0.23301
0.23301
0.23301
0.23301
0.23301
0.199549
0.23301
0.23301
0.23301
0.23301
0.203658
0.202777
0.23301
0.23301
0.224685
0.23301
0.210938
0.23301
0.23301
0.23301
0.194537
0.215478
0.210537
0.23301
0.23301
0.23301
0.19986
0.23301
0.194596
0.23301
0.23301
0.20233
0.23301
0.23301
0.23301
0.162669
0.23301
0.23301
0.23301
0.187649
0.23301
0.23301
0.23301
0.192982
0.225221
0.232711
0.23301
0.23301
0.232168
0.23301
0.232089
0.195008
0.228649
0.233003
0.232726
0.233021
0.232884
0.23301
0.10097
0.208309
0.23301
0.23301
0.233009
0.0955359
0.23301
0.20745
0.233088
0.23301
0.232258
0.23301
0.190454
0.233012
0.23301
0.223369
0.210599
0.23301
0.23301
0.23301
0.23301
0.2017
0.23301
0.222794
0.225428
0.23301
0.23301
0.23301
0.23301
0.23301
0.23301
0.23301
0.23301
0.189927
0.23301
0.23124
0.23301
0.23301
0.23301
0.23301
0.233002
0.23301
0.23301
0.23301
0.23301
0.23301
0.220319
0.21854
0.232925
0.23301
0.23301
0.23301
0.23301
0.23301
0.23301
0.23301
0.23301
0.23301
0.23301
0.217368
0.23301
0.23301
0.23301
0.23301
0.23301
0.23301
0.23301
0.23301
0.23301
0.217886
0.23301
0.233016
0.23301
0.23301
0.23301
0.23301
0.23301
0.23301
0.23301
0.23301
0.23301
0.23301
0.23301
0.23301
0.23301
0.23301
0.23301
0.23301
0.23301
0.23301
0.229964
0.23301
0.23301
0.23301
0.23301
0.23301
0.233009
0.23301
0.23301
0.23301
0.23301
0.217486
0.242929
0.23301
0.229194
0.241138
0.23301
0.23301
0.23301
0.23301
0.241713
0.23301
0.23301
0.23301
0.23301
0.23992
0.23301
0.23301
0.23301
0.23301
0.23301
0.23301
0.23301
0.23301
0.23301
0.229583
0.23301
0.23301
0.23301
0.23301
0.23301
0.233009
0.23301
0.23301
0.233008
0.23301
0.23301
0.23301
0.23301
0.23301
0.23301
0.23301
0.23301
0.23301
0.23301
0.23301
0.23301
0.23301
0.23301
0.23301
0.23301
0.23301
0.229697
0.23301
0.227197
0.23301
0.23301
0.23301
0.23301
0.227883
0.23301
0.23301
0.233013
0.23301
0.229901
0.23301
0.23301
0.23301
0.23155
0.23301
0.233009
0.23301
0.23301
0.233009
0.233006
0.23301
0.23301
0.23301
0.23301
0.23301
0.23301
0.233007
0.23301
0.232203
0.23301
0.232694
0.23301
0.23301
0.23301
0.23301
0.23301
0.23301
0.23301
0.23301
0.23301
0.23301
0.23301
0.23301
0.23301
0.23301
0.23301
0.23301
0.226207
0.23301
0.23301
0.23301
0.23301
0.23301
0.23301
0.23301
0.23301
0.23301
0.23301
0.23301
0.23301
0.23301
0.23301
0.23301
0.23301
0.23301
0.23301
0.23301
0.23301
0.23301
0.22932
0.23301
0.23301
0.23301
0.23301
0.23301
0.23301
0.23301
0.23301
0.23301
0.23301
0.23301
0.23301
0.23301
0.23301
0.23301
0.233011
0.23301
0.23301
0.23302
0.23301
0.23301
0.23301
0.23301
0.23301
0.23279
0.23301
0.23301
0.23301
0.206141
0.216283
0.23301
0.23301
0.23301
0.23301
0.23301
0.23301
0.23301
0.23301
0.23301
0.200697
0.23301
0.23301
0.23301
0.194538
0.228704
0.23301
0.199772
0.23301
0.23301
0.23301
0.23301
0.23301
0.23301
0.23301
0.23301
0.23301
0.223406
0.199518
0.23301
0.23301
0.197457
0.23301
0.187348
0.23301
0.23301
0.23301
0.23301
0.20299
0.23301
0.201257
0.23301
0.23301
0.204727
0.23301
0.23301
0.23301
0.200538
0.23301
0.23301
0.204246
0.23301
0.23301
0.198519
0.23301
0.23301
0.23301
0.23301
0.23301
0.23301
0.218079
0.23301
0.23301
0.23301
0.23301
0.23301
0.226385
0.23301
0.23301
0.23301
0.22387
0.23301
0.23301
0.23301
0.23301
0.23301
0.23301
0.224353
0.214389
0.23301
0.231963
0.224111
0.217716
0.23301
0.23301
0.224686
0.23301
0.226925
0.23301
0.23301
0.23301
0.223639
0.23301
0.23301
0.23301
0.23301
0.228846
0.23301
0.23301
0.211687
0.2325
0.23301
0.23301
0.23301
0.23301
0.23301
0.23301
0.233
0.23301
0.232845
0.23301
0.23301
0.209564
0.23301
0.23301
0.231347
0.224924
0.23301
0.23301
0.23301
0.23301
0.226044
0.23301
0.228576
0.23301
0.233013
0.231638
0.223521
0.23301
0.23301
0.224692
0.229941
0.23301
0.23301
0.224354
0.23301
0.23301
0.23301
0.189584
0.23301
0.23301
0.212161
0.23301
0.23301
0.232729
0.23301
0.209004
0.23301
0.233013
0.232264
0.224748
0.23301
0.23301
0.23301
0.214505
0.23301
0.233013
0.23301
0.210675
0.204992
0.23301
0.23301
0.232989
0.227192
0.22693
0.231596
0.231518
0.23301
0.23301
0.23301
0.23301
0.23301
0.23301
0.23301
0.23301
0.23301
0.23301
0.23301
0.128543
0.23301
0.23301
0.23301
0.23301
0.23301
0.23301
0.223207
0.23301
0.23301
0.23301
0.23301
0.23301
0.23301
0.23301
0.23301
0.23301
0.23301
0.195232
0.23301
0.23301
0.23301
0.189094
0.23301
0.23301
0.23301
0.23301
0.23301
0.217671
0.23301
0.23301
0.23301
0.23301
0.23301
0.23301
0.23301
0.23301
0.23301
0.23301
0.23301
0.232526
0.23301
0.23301
0.23301
0.23301
0.23301
0.23301
0.23301
0.194443
0.23301
0.23301
0.23301
0.23301
0.23301
0.23301
0.23301
0.191925
0.179343
0.23301
0.224945
0.23301
0.23301
0.23301
0.23301
0.23301
0.23301
0.23301
0.23301
0.23301
0.232512
0.23301
0.231914
0.183327
0.23301
0.23301
0.23301
0.20047
0.23301
0.23301
0.23301
0.23301
0.23301
0.23301
0.23301
0.233032
0.23301
0.23301
0.23301
0.228602
0.230445
0.23301
0.222662
0.230265
0.23301
0.222532
0.0716035
0.23301
0.232956
0.23301
0.23301
0.23301
0.23301
0.23301
0.221991
0.23301
0.23301
0.23301
0.23301
0.23301
0.233011
0.233101
0.23301
0.23301
0.23301
0.23301
0.228978
0.23301
0.23301
0.23301
0.229835
0.231412
0.23301
0.23301
0.23301
0.23301
0.225654
0.208187
0.23301
0.23301
0.23301
0.232746
0.23301
0.23301
0.173467
0.23301
0.23301
0.23301
0.23301
0.23301
0.23301
0.23301
0.23301
0.23301
0.23301
0.23301
0.23301
0.21336
0.22485
0.23301
0.23301
0.23301
0.23301
0.23301
0.200876
0.232649
0.20103
0.23301
0.23301
0.23301
0.23301
0.23301
0.23301
0.233183
0.23301
0.23301
0.23301
0.199409
0.174751
0.23301
0.23301
0.233083
0.227274
0.23208
0.233071
0.232006
0.23301
0.198698
0.232994
0.23301
0.23301
0.23301
0.23301
0.23301
0.23301
0.232897
0.180133
0.232036
0.232978
0.232561
0.23301
0.233014
0.233009
0.23301
0.23301
0.228898
0.233011
0.222054
0.232903
0.23301
0.232772
0.231932
0.23301
0.23301
0.1961
0.23301
0.23301
0.230182
0.204869
0.23301
0.23301
0.23301
0.23301
0.23301
0.23301
0.23301
0.227351
0.144839
0.23301
0.23301
0.23301
0.23236
0.230758
0.23301
0.23301
0.23301
0.232234
0.23301
0.23301
0.23301
0.23301
0.23301
0.23301
0.23301
0.180769
0.23301
0.23301
0.23301
0.23301
0.23301
0.23301
0.23301
0.23301
0.23301
0.23301
0.23301
0.23301
0.23301
0.23301
0.23301
0.23301
0.23301
0.23301
0.23301
0.23301
0.23301
0.225138
0.23301
0.233012
0.23301
0.23301
0.23301
0.23301
0.23301
0.23301
0.229866
0.233013
0.21195
0.233008
0.23301
0.232762
0.233048
0.233012
0.233013
0.233045
0.217841
0.23301
0.23301
0.23301
0.23301
0.23301
0.23301
0.23301
0.233045
0.23301
0.201615
0.23301
0.23301
0.23301
0.23301
0.23301
0.23301
0.23301
0.193653
0.225886
0.23301
0.23301
0.23301
0.223923
0.23301
0.23301
0.21828
0.23301
0.221815
0.23301
0.23301
0.23301
0.226479
0.222826
0.224276
0.223875
0.220589
0.231302
0.201804
0.219304
0.223179
0.23301
0.23301
0.23301
0.23301
0.232358
0.223454
0.233093
0.22274
0.223238
0.211174
0.23301
0.209797
0.23301
0.23301
0.23301
0.23301
0.23301
0.233027
0.23301
0.23301
0.23301
0.212327
0.23301
0.18684
0.233014
0.23301
0.216481
0.23301
0.23301
0.209812
0.23301
0.23301
0.23301
0.23301
0.23301
0.23301
0.222705
0.23301
0.23301
0.232249
0.23301
0.217806
0.232903
0.23301
0.23301
0.233013
0.233013
0.232775
0.233017
0.23301
0.233014
0.23301
0.23301
0.233019
0.23301
0.233012
0.233012
0.23301
0.23301
0.23301
0.225054
0.189281
0.23301
0.23301
0.233009
0.23301
0.203524
0.23301
0.23301
0.23301
0.23301
0.23301
0.231185
0.23301
0.23301
0.23301
0.232996
0.232953
0.23301
0.23301
0.23301
0.19723
0.199491
0.23301
0.197218
0.219295
0.232775
0.186142
0.23301
0.206823
0.23301
0.23301
0.23301
0.23301
0.23301
0.23301
0.23301
0.192093
0.23301
0.23301
0.23301
0.23301
0.23301
0.23301
0.23301
0.23305
0.229892
0.23301
0.23301
0.180439
0.23301
0.202341
0.23301
0.23301
0.2065
0.23301
0.23301
0.23301
0.210839
0.23301
0.23301
0.23301
0.23301
0.23301
0.23301
0.23301
0.23301
0.23301
0.23301
0.23301
0.23301
0.23301
0.23301
0.232699
0.23301
0.23301
0.23301
0.23301
0.23301
0.23301
0.23301
0.23301
0.23301
0.23301
0.23301
0.23301
0.23301
0.23301
0.23301
0.23301
0.23301
0.23301
0.190589
0.23301
0.23301
0.23301
0.23301
0.23301
0.22744
0.23301
0.23301
0.23301
0.23301
0.23301
0.23301
0.23301
0.23301
0.23301
0.23301
0.23301
0.231153
0.23301
0.23301
0.23301
0.23301
0.23301
0.23301
0.182198
0.23301
0.23301
0.23301
0.23301
0.233006
0.23301
0.233007
0.222935
0.23301
0.23301
0.23301
0.23301
0.23301
0.23301
0.194664
0.23301
0.23301
0.194685
0.23301
0.23301
0.23301
0.23301
0.23301
0.23301
0.233008
0.23301
0.23301
0.23301
0.194545
0.18963
0.190378
0.23301
0.233003
0.220903
0.23301
0.23301
0.23301
0.193908
0.23301
0.23301
0.23301
0.23301
0.23299
0.23301
0.23301
0.23301
0.23301
0.23301
0.233043
0.23301
0.23301
0.23301
0.232925
0.23301
0.229889
0.23301
0.23301
0.23301
0.23301
0.23301
0.23301
0.23301
0.233336
0.233143
0.225209
0.23301
0.228421
0.23301
0.23301
0.23301
0.23301
0.23301
0.23301
0.23301
0.23301
0.23301
0.232533
0.23301
0.23301
0.2281
0.23301
0.22797
0.23301
0.224804
0.23301
0.23301
0.232195
0.23301
0.23301
0.23301
0.209573
0.226575
0.229018
0.23301
0.228269
0.23301
0.23301
0.23301
0.23301
0.23301
0.192478
0.23301
0.23301
0.23301
0.23301
0.233011
0.23301
0.23301
0.23301
0.23301
0.219451
0.23301
0.23301
0.23301
0.23301
0.23301
0.23301
0.23301
0.23301
0.23301
0.23301
0.184487
0.23301
0.23301
0.23301
0.23301
0.200441
0.23301
0.23301
0.23301
0.22832
0.23301
0.233003
0.230058
0.214162
0.23301
0.193766
0.23301
0.23301
0.23301
0.214042
0.23301
0.23301
0.232977
0.232248
0.23301
0.23301
0.23301
0.23189
0.23301
0.23301
0.23301
0.23301
0.233014
0.23301
0.124607
0.23301
0.23301
0.23301
0.23301
0.23301
0.23301
0.23301
0.23301
0.23301
0.23301
0.229599
0.233039
0.229431
0.232269
0.225426
0.233041
0.23301
0.23301
0.23301
0.204848
0.227697
0.199399
0.223785
0.23301
0.231287
0.232134
0.178542
0.205864
0.23301
0.175243
0.172105
0.233029
0.23301
0.233005
0.229947
0.223154
0.20984
0.215941
0.231686
0.227437
0.23301
0.228337
0.23301
0.231479
0.23301
0.189934
0.225703
0.23301
0.23301
0.233009
0.224269
0.23301
0.232991
0.23301
0.23301
0.227623
0.23301
0.23301
0.23301
0.23301
0.23301
0.23301
0.00202265
0.232267
0.23301
0.23301
0.226231
0.23301
0.184965
0.21366
0.226895
0.23301
0.23301
0.23301
0.206264
0.23301
0.23301
0.23301
0.23301
0.23301
0.225443
0.23301
0.23301
0.210995
0.218249
0.23301
0.23301
0.231112
0.23301
0.23301
0.21745
0.23301
0.23301
0.23301
0.224936
0.171304
0.217063
0.23301
0.23301
0.23301
0.222218
0.232318
0.233006
0.209793
0.23301
0.23301
0.23301
0.23301
0.23301
0.232743
0.216625
0.23301
0.199831
0.23301
0.23301
0.23301
0.23301
0.23301
0.23301
0.199291
0.239296
0.23301
0.23301
0.23301
0.233011
0.23301
0.23301
0.217898
0.23301
0.23301
0.23301
0.23301
0.23301
0.23301
0.23301
0.23301
0.23301
0.23301
0.23301
0.23301
0.23301
0.19695
0.103385
0.23301
0.23301
0.23301
0.23301
0.23301
0.23301
0.233011
0.221703
0.201491
0.233011
0.233317
0.232981
0.23301
0.23301
0.232956
0.23301
0.23301
0.23301
0.23301
0.233004
0.23301
0.23301
0.23301
0.233009
0.23301
0.23301
0.193978
0.23301
0.23301
0.23301
0.228565
0.204377
0.23301
0.23301
0.23301
0.228623
0.23304
0.23301
0.23301
0.23301
0.23301
0.23301
0.23301
0.23301
0.23301
0.23301
0.23301
0.23301
0.232872
0.197587
0.23301
0.23301
0.232761
0.23301
0.23301
0.23301
0.23301
0.233009
0.23301
0.23301
0.23301
0.23301
0.23301
0.208731
0.233008
0.23301
0.23301
0.222194
0.23301
0.233003
0.23301
0.23301
0.23301
0.226145
0.23301
0.23301
0.23301
0.23301
0.226219
0.23301
0.23301
0.227614
0.23301
0.233004
0.23301
0.23301
0.23301
0.231079
0.23301
0.233008
0.23301
0.23301
0.23301
0.232999
0.23301
0.23301
0.23301
0.23301
0.226183
0.23301
0.23301
0.23301
0.23301
0.177324
0.23301
0.23301
0.23301
0.23301
0.23301
0.23301
0.23301
0.23301
0.164061
0.23301
0.228518
0.23301
0.23301
0.173655
0.191654
0.23301
0.23301
0.23301
0.23301
0.23301
0.23301
0.216665
0.23301
0.23301
0.23301
0.198021
0.23301
0.23301
0.23301
0.23301
0.194312
0.218539
0.23301
0.19176
0.23301
0.23301
0.23301
0.23301
0.23301
0.184105
0.23301
0.23301
0.23301
0.23301
0.23301
0.23301
0.23301
0.23301
0.23301
0.23301
0.23301
0.233005
0.23301
0.23301
0.23301
0.23301
0.23301
0.23301
0.217145
0.23301
0.23301
0.23301
0.23301
0.199414
0.23301
0.227293
0.23301
0.23301
0.23301
0.23301
0.23301
0.23301
0.23301
0.23301
0.23301
0.23301
0.215113
0.23301
0.23301
0.23301
0.23301
0.23301
0.23301
0.23301
0.23301
0.23301
0.23301
0.23301
0.23301
0.23301
0.178364
0.213453
0.23301
0.23301
0.23301
0.23301
0.218485
0.23301
0.229497
0.23301
0.23301
0.23301
0.23301
0.23301
0.23301
0.23301
0.23301
0.23301
0.23301
0.23301
0.23301
0.23301
0.23301
0.23301
0.23301
0.23301
0.23301
0.23301
0.23301
0.23301
0.23301
0.23301
0.23301
0.23301
0.23301
0.23301
0.23301
0.23301
0.23301
0.23301
0.23301
0.23301
0.23301
0.23301
0.23301
0.23301
0.23301
0.23301
0.23301
0.233019
0.23301
0.231002
0.23301
0.23301
0.23301
0.233011
0.23301
0.23301
0.222554
0.23301
0.23301
0.23301
0.229242
0.19257
0.23301
0.23301
0.23301
0.201341
0.23301
0.23301
0.23301
0.23301
0.23301
0.23301
0.23301
0.23301
0.23301
0.23301
0.23301
0.23301
0.232971
0.23301
0.23301
0.23301
0.23301
0.23301
0.23301
0.224979
0.200889
0.224606
0.23301
0.23301
0.232432
0.225674
0.23301
0.23301
0.227404
0.23301
0.210709
0.23301
0.23301
0.23301
0.23301
0.23301
0.23301
0.23301
0.23301
0.23301
0.23301
0.23301
0.23301
0.23301
0.23301
0.23301
0.23301
0.23301
0.23301
0.23301
0.23301
0.23301
0.23301
0.23301
0.23301
0.23301
0.23301
0.23301
0.23301
0.23301
0.23301
0.23301
0.23301
0.233009
0.23301
0.23301
0.23301
0.23301
0.23301
0.23301
0.23301