/*--------------------------------*- C++ -*----------------------------------*\
| =========                 |                                                 |
| \\      /  F ield         | OpenFOAM: The Open Source CFD Toolbox           |
|  \\    /   O peration     | Version:  v2012                                 |
|   \\  /    A nd           | Website:  www.openfoam.com                      |
|    \\/     M anipulation  |                                                 |
\*---------------------------------------------------------------------------*/
FoamFile
{
    version     2.0;
    format      ascii;
    class       volScalarField;
    location    "4";
    object      p_rgh;
}
// * * * * * * * * * * * * * * * * * * * * * * * * * * * * * * * * * * * * * //

dimensions      [1 -1 -2 0 0 0 0];


internalField   nonuniform List<scalar> 
108993
(
0.50731
0.594068
0.443384
0.198465
0.261167
0.49509
0.66703
0.26652
0.235046
0.553545
0.488267
0.481755
0.224322
0.531433
0.491347
0.572667
0.565149
0.528789
0.211314
0.504528
0.322641
0.161788
0.662412
0.42315
0.218843
0.480887
0.174231
0.533822
0.498562
0.330044
0.203215
0.526224
0.170156
0.531177
0.153987
0.307475
0.186202
0.338603
-3.01026
-5.08226
0.617643
0.328417
0.527786
0.188845
0.641728
-5.26263
0.176472
0.713298
0.500668
0.424202
0.197183
0.683878
0.582199
0.202787
0.533735
0.456573
0.170294
0.259848
0.272268
0.258013
0.26384
0.229648
0.32728
0.372173
0.201328
0.48317
0.217443
0.254424
0.532308
0.23417
0.419295
0.244969
0.294114
0.252226
0.525318
0.229882
0.375599
0.564654
0.172933
0.222134
0.36551
0.534006
0.241463
0.44042
0.525144
0.525833
0.428314
0.490305
0.259392
0.230819
0.23475
0.221515
0.239114
0.245389
0.24008
0.527908
0.218269
0.368176
0.207618
0.241697
0.241068
0.208456
0.458096
0.517868
0.345665
0.235732
0.339413
0.0851789
0.193311
-5.17241
0.66871
0.230572
0.654879
0.676468
0.332931
1.35013
0.27182
0.429237
0.610855
0.216039
0.537257
0.193815
2.42611
0.456805
0.326542
0.573716
0.621241
0.418965
0.183414
0.163455
0.520992
0.181267
0.300827
0.602713
0.313656
0.413002
0.196128
0.321165
0.327576
0.531612
0.448498
0.268344
0.627087
0.186368
0.170318
0.307663
0.355918
-7.40691
0.453461
0.729264
0.686148
0.475091
0.596927
0.607163
0.276586
0.661273
0.479968
0.0549384
0.10777
0.58539
0.63419
0.0439543
0.22382
0.390705
0.518635
0.667056
0.262542
0.384348
0.380697
0.359609
0.224577
0.446736
0.675502
0.404636
0.394474
0.437183
0.650391
0.386998
0.365393
0.263778
0.554709
0.256962
0.100002
0.452588
0.528045
0.385405
0.12654
0.51739
0.512608
0.453996
0.429411
0.130575
0.439278
0.623585
0.334426
0.464001
0.614249
0.386863
0.331069
0.450078
0.263846
0.651774
0.353716
0.0185119
0.677963
1.50367
0.323927
-3.04637
0.340439
0.49724
0.361168
0.360501
0.63875
-1.13694
-4.62336
0.345392
0.492489
0.32301
0.0892598
0.197127
0.300808
0.814304
0.529344
0.635775
0.283214
0.392491
0.0564092
0.372951
0.753901
0.452807
-0.250312
0.413031
0.39006
0.650496
0.260677
0.210132
0.173609
0.206913
-4.55742
0.05442
0.235016
0.338705
0.266653
0.0365945
0.105078
0.577128
-1.22679
2.43233
0.0557958
0.207591
0.24792
0.194326
0.278132
0.34769
0.0806485
0.0389921
0.0810347
0.475285
0.196072
0.49442
0.347172
0.526656
0.576383
0.580596
0.155122
0.474849
0.348854
0.480042
0.494162
0.316849
0.264319
0.422281
-0.436122
0.631695
-5.655
0.357457
0.219994
2.60311
0.466175
0.481796
0.470626
-0.109257
-1.82672
0.462427
0.213981
0.543719
0.222667
0.430797
0.496497
-4.0403
0.538137
0.320147
0.434135
0.325719
0.421936
0.354944
0.214571
0.336176
0.626674
0.267671
2.02373
1.09376
0.348421
0.267013
0.287488
0.730368
0.156796
0.548901
0.732067
-0.692501
0.268872
0.241525
0.563927
0.320218
0.726183
1.28881
0.375367
0.556621
-5.76898
0.308464
0.585826
0.371745
0.602302
0.600288
0.38672
0.756542
0.558512
0.999091
0.216868
0.466154
0.264711
1.44486
0.626644
0.282755
-2.32532
0.369796
0.300238
0.251813
0.337021
0.205036
0.273386
2.14172
0.350169
0.358343
0.488366
0.513393
0.385883
0.29712
0.22241
0.390761
0.331751
0.4946
-0.120275
2.92018
0.186795
0.33096
0.359942
-5.99108
0.468035
0.398608
0.530125
0.334983
0.38453
0.38781
0.51923
0.461281
0.377298
0.217922
0.499231
1.14116
0.597511
0.535795
0.393617
0.61695
0.451982
0.406234
0.516863
0.338686
0.999422
0.430623
0.649412
0.928655
0.434563
0.604075
0.509775
0.704234
0.554253
-0.44661
0.486533
-2.70912
0.731131
0.704818
0.56052
0.537308
4.9814
0.405469
0.627817
0.221381
0.587796
0.23707
0.430566
1.78201
1.82264
0.296738
0.248651
0.703866
0.702067
0.366992
0.464672
0.928968
0.5344
0.537613
0.321706
0.385963
0.503143
0.259348
0.370436
0.663255
4.75311
0.271975
1.57615
0.590711
0.640413
0.39415
0.259009
0.657871
0.344927
0.893062
0.651028
0.264406
0.601276
-6.36323
0.735202
0.180001
0.333668
0.552812
0.11448
0.398833
0.3959
0.283442
0.509847
0.367258
0.384031
0.401316
-1.85976
0.620247
0.605571
0.675287
0.371915
0.401861
0.521464
0.252629
0.376178
0.532984
0.398597
0.473325
0.513192
0.396866
0.435596
0.251526
2.33517
0.456364
2.36037
0.893132
0.618547
0.42188
0.51205
2.43894
0.426967
0.4418
0.677051
0.279057
0.235656
0.600622
0.151203
0.578802
0.286155
0.410327
7.8499
0.622954
0.335479
0.250922
0.268535
0.371159
0.490293
0.436494
0.434258
0.42746
0.671076
0.510957
0.517186
0.418366
0.586873
0.442955
0.615117
0.325504
0.497112
0.368402
0.393084
0.556666
0.195106
0.268792
0.306489
0.405435
0.629828
1.34859
0.386982
0.291895
-2.98096
0.388094
0.587667
0.620339
0.254217
0.535522
0.384194
0.0373205
0.495061
0.379539
0.562582
0.674806
0.0792398
0.0367457
0.610692
0.687701
0.478638
0.668915
0.735556
0.397339
0.672633
0.693557
0.478619
0.314037
0.660302
0.537254
0.346031
0.340395
0.686735
0.514244
0.57117
4.90554
0.345203
-4.37019
0.267733
0.328637
0.450173
0.3426
0.307923
0.663654
0.384008
0.240637
2.08493
0.46895
-2.3719
0.355297
0.513031
0.340273
0.223587
0.554556
-0.913147
0.540676
0.530617
0.262297
0.435448
0.638662
-4.05362
0.64151
0.487033
0.2863
0.582638
0.609928
0.452892
0.576744
8.11946
-3.67264
0.848558
0.620819
0.480747
-4.08051
0.63473
0.519918
0.535154
0.458695
0.383546
0.216214
0.424124
0.615697
-4.08917
-3.69418
0.525278
0.396246
0.610231
0.384397
0.567359
0.388279
0.639236
0.240426
0.254822
0.382248
0.596503
0.608434
0.408371
0.491309
-1.1547
0.556536
0.533606
0.398142
-0.292474
0.393217
0.56164
0.466336
0.669138
0.47807
0.651753
0.463459
0.622398
0.400885
0.560253
0.386708
-6.11827
0.236174
0.69008
0.235667
0.43775
-5.9961
0.60002
0.263492
0.267791
2.51679
-4.44333
0.562501
0.848822
0.517372
2.18097
0.722419
0.555435
0.494417
0.389944
-3.21203
0.639544
0.675671
0.53805
0.675381
0.368346
0.609593
0.297428
0.559525
0.527497
0.643136
0.632306
0.561396
0.557955
0.619306
-1.01058
-0.830797
0.696234
0.569908
0.720207
-2.0447
-3.47826
-4.25457
0.206373
0.473508
0.561837
0.317505
0.452189
0.517687
0.750918
0.562891
0.627023
1.96499
0.576042
0.686893
0.673063
-2.92112
-2.22003
0.233421
0.624062
0.66794
0.44565
-6.14522
0.611624
-2.89676
0.616149
0.55791
-6.77875
0.565
-0.428957
0.662802
0.659723
0.173902
0.137593
0.41905
0.674974
0.546417
0.613778
0.309286
0.603233
-2.06199
0.60289
1.00882
0.651874
0.2975
0.350218
0.348625
0.602352
0.277629
0.639035
0.661314
0.294702
0.349088
0.636555
-5.02077
-6.85026
0.386252
-1.24908
0.426181
0.673391
0.623835
0.266839
0.674647
0.565164
0.561252
0.651949
0.576137
0.533001
0.573217
0.647636
0.670394
2.29155
0.278102
0.675195
0.563394
0.574683
0.571937
0.519777
0.267309
-2.42695
0.384254
0.421525
0.668763
0.48922
0.582536
-8.99218
-1.02047
0.543339
0.649582
0.557475
0.5616
0.551284
0.604637
0.485324
0.386018
0.37526
0.535916
0.384161
0.635597
0.373938
0.556748
0.617727
0.520381
0.554223
0.383831
0.535928
0.503501
0.638343
0.557852
0.657706
4.79071
0.207508
0.374311
0.507465
0.494909
0.293457
2.0557
1.74418
0.53993
0.512528
0.880703
1.50687
0.5543
0.391772
0.377316
0.514133
0.513087
0.647422
0.388006
0.628161
0.272974
0.312669
0.638784
0.238159
-6.93164
0.307328
0.436589
-10.5117
0.566792
-1.19877
0.690206
0.748251
0.331067
0.62855
0.577564
0.23538
0.506597
0.567689
0.279015
0.466703
0.534236
0.370286
0.364709
0.480549
0.601546
0.247716
0.639891
0.401021
0.68782
0.717313
0.510482
5.06663
0.718005
0.65673
0.551449
0.536527
0.543284
-0.260345
0.624586
0.726407
0.620943
0.700844
0.635967
0.789368
-3.87979
0.616062
0.479808
0.670932
0.721182
0.482766
0.607501
-10.8523
0.483679
0.435429
0.52584
0.59503
0.521393
0.729463
0.59484
0.517552
0.510237
-3.42776
0.498374
-1.91489
0.509997
-3.79439
0.504692
0.625473
0.694245
0.633051
0.714714
0.520872
0.694804
0.694584
0.408399
0.638226
-6.66893
0.235854
0.225909
0.505307
0.65994
0.551526
0.648233
0.234835
0.382998
0.590635
-5.00575
0.360134
0.642715
0.662621
-0.490393
0.629759
0.758606
-3.73376
-7.50733
0.644698
0.678947
0.648108
0.631327
0.260943
0.616236
-7.14732
-0.813478
0.230987
0.212283
0.624263
0.59505
0.659547
0.0895231
0.27544
0.605653
1.82394
0.24089
0.708884
0.61498
0.535962
0.595031
0.278047
0.432422
0.505681
-0.250391
0.54612
0.65327
0.269833
0.529151
0.591218
0.673524
0.650788
0.463504
0.675307
0.628497
0.591769
0.581118
0.525856
0.5751
0.69224
0.529913
0.065067
0.559458
0.524131
0.675926
0.403167
0.428414
2.51629
0.426618
0.673826
0.614888
0.568383
0.578076
0.262548
0.890753
0.439756
-1.81691
0.695273
0.550122
0.0539075
0.668497
0.665034
0.430403
0.566719
0.700647
0.661973
1.87122
0.458089
0.565342
2.2441
1.16932
0.529946
0.628394
-1.78298
0.573789
0.565583
0.569503
0.590446
0.677698
-8.70404
0.664629
0.696011
0.66124
0.577024
0.620609
0.553896
0.611912
0.670959
1.05124
0.564808
0.211557
0.429034
0.682746
0.221395
0.390478
0.179951
0.692016
0.495501
0.433761
0.487448
0.428939
0.478182
0.481314
0.525389
0.669988
0.485045
0.503487
0.549599
0.233189
-8.5533
0.403103
0.524715
0.434168
0.512645
0.434474
-3.05369
0.471554
0.536843
0.49104
0.279932
0.674676
0.644619
0.667838
0.381507
0.487886
0.891643
0.507528
0.546776
0.667866
-2.21968
0.495268
0.496359
0.490892
0.407878
0.531888
0.633362
0.523625
0.494989
0.451663
0.277212
0.346736
0.446974
0.637403
0.0324658
0.444541
0.64451
0.684434
0.722018
0.683904
0.445322
0.379577
0.628788
0.66256
0.420044
0.190136
0.260437
0.244234
0.525847
0.640391
0.338141
0.624315
0.566767
0.211767
1.12676
0.673083
0.613156
0.656242
-4.63139
0.57157
0.622458
0.636664
-1.69177
0.441396
0.418596
0.41664
0.664676
0.609353
0.833601
0.646054
0.682831
0.54486
0.634053
0.643168
0.496067
0.64672
0.67717
0.636295
0.5818
0.569984
0.692005
0.675964
0.344084
0.396984
0.400783
0.363059
0.397998
0.253171
0.541981
0.822879
0.452051
-8.94
0.574429
0.463041
0.380879
0.674946
0.659491
0.398221
0.57307
0.442398
0.5474
0.400561
0.558111
0.577192
0.590182
0.416037
2.10093
0.402607
0.410736
0.431856
0.0402458
0.175603
0.639749
4.83108
0.656185
0.223703
0.427533
0.401582
0.526859
0.52757
0.399266
0.50848
0.443682
0.429154
0.233867
0.469058
0.469554
0.40863
0.444693
0.169441
0.366711
0.393928
0.504376
0.476574
-0.112736
0.674304
0.677849
-7.59073
0.478477
0.267643
0.55199
0.362442
0.539203
0.465168
0.59856
0.456761
0.472874
0.697031
0.527356
0.651235
0.607217
0.596518
0.459372
0.537059
0.774096
0.514408
0.421778
0.345663
0.329107
0.672467
0.600349
0.329152
9.88584
0.275612
0.323804
0.342343
0.24065
0.398067
0.750019
0.592572
0.57411
8.87461
0.576136
0.571784
0.59285
1.05868
0.634689
0.582314
0.500584
0.563186
0.836965
0.270152
0.658332
0.700907
0.701533
0.702577
-0.264672
0.638298
0.211763
0.672719
0.274224
0.677385
0.661147
0.701335
0.42052
0.541718
0.51251
0.542927
0.541224
0.260672
1.21567
-2.32924
0.642941
0.344632
0.215926
0.641761
0.408598
0.215845
0.408516
0.293965
0.403365
0.68212
0.651083
-4.59656
0.449572
0.655415
0.366611
0.622149
2.11167
0.646356
0.216876
0.675509
0.563109
-2.38917
0.681981
0.786925
0.712709
0.399337
0.41383
0.572151
0.27377
0.499629
7.77132
0.378099
0.495669
0.353916
0.0394942
0.403452
0.312802
0.621572
0.468792
2.26817
-3.62248
0.309607
0.655043
0.518668
0.826328
0.395952
0.535323
0.287767
0.641677
0.221487
1.85301
0.606149
0.39872
-2.03131
0.396636
0.161017
0.259613
0.66959
0.694645
0.512799
0.66785
0.671286
0.689122
0.325253
0.63461
0.335295
0.590049
0.416857
1.2891
1.86221
1.5261
2.05497
1.87417
0.123734
1.62509
1.19706
0.70795
0.708679
0.482835
0.670438
0.42422
0.255108
0.341925
0.708749
0.183875
0.526141
0.516074
0.658786
0.265878
0.412813
0.120174
0.515086
0.147123
0.0348854
0.359914
0.666667
0.832329
0.0232147
0.440766
0.611214
0.59706
0.704019
0.48782
0.632369
0.486539
0.520571
0.666507
0.0715501
0.495871
0.50632
0.0614261
0.5113
0.477835
0.500727
0.645463
0.519588
0.617147
0.668617
0.548865
0.319743
0.460124
0.399573
0.550203
0.283507
0.201911
0.53574
0.46009
0.54717
0.604103
1.12296
0.539209
1.89565
-4.23578
0.303513
3.02267
0.195413
0.468446
0.473725
0.525968
0.525622
-3.21094
0.489436
0.705674
0.572069
-4.86729
2.2924
0.360906
0.506427
0.259139
0.554243
0.555771
0.673511
0.714228
0.190502
0.231305
0.594365
0.592909
0.467271
0.487867
0.493575
-10.6091
-10.3862
0.596186
0.235216
1.89008
0.404295
0.522558
0.579456
0.493105
0.676809
0.433299
0.522733
0.527843
0.58791
-0.935498
0.61303
0.566872
1.99741
0.546849
0.522163
0.628338
0.691211
0.502521
0.47759
0.571571
0.662404
0.587091
0.265969
0.562309
0.676679
2.53755
-3.87178
0.563296
0.567005
-4.62789
0.543853
0.459584
-4.19552
0.544211
0.204738
0.546466
0.509824
-6.34136
0.490334
0.422171
0.822493
0.546483
-7.74856
0.545119
-6.66232
0.545792
0.542822
-5.03829
0.607536
0.542331
-1.98226
0.574166
0.602568
0.684874
0.494003
0.373541
0.445147
-5.0989
0.67599
0.528252
2.65666
0.339283
0.468518
-2.86161
0.683105
0.613539
-2.60254
0.380321
1.01302
0.391501
0.399921
0.645333
0.238785
0.201389
0.175311
0.269789
0.397059
3.2174
0.7176
2.60374
-4.71674
0.399776
0.473357
0.474191
0.398649
0.39855
0.330236
-2.63119
0.427741
0.450291
0.343472
0.486537
0.684156
0.583576
0.404681
0.677772
0.380664
0.397338
0.388412
0.571405
-8.11639
0.694556
-4.03032
0.679585
0.402684
0.567404
0.731711
0.384711
0.356973
0.481586
5.25911
-5.66115
-2.55163
0.356669
0.333024
0.267582
-2.85696
0.350088
0.556828
0.472075
0.354845
0.587622
0.333913
0.583545
0.343352
0.578789
0.155095
0.606417
0.57498
2.41475
0.640695
0.269427
0.702141
0.375929
0.386936
0.333914
0.36901
0.208807
0.353699
0.666137
0.281685
0.604316
0.858732
1.43273
1.8074
0.406066
0.352067
-6.08985
0.730601
0.275699
2.44674
0.331498
0.368357
-3.18753
-3.65775
-4.932
1.30303
0.348084
-0.109799
-7.7298
0.391123
0.457369
-1.09424
-3.08774
-2.77563
-2.60015
0.696932
-5.55418
-0.732425
0.138872
0.32308
2.06552
-0.879431
0.799332
0.258951
0.794768
0.714877
-5.5339
-5.63508
-5.67813
0.249799
0.225928
-5.38935
0.26577
0.585918
1.06893
0.162206
-1.13369
0.794202
0.442031
0.477258
0.466666
0.451154
0.784056
1.67206
-5.66836
2.43872
-1.34163
0.355783
0.682823
0.78749
0.691095
0.478518
0.688229
0.489652
0.456926
0.369279
0.474473
0.654359
0.468835
0.446442
0.563453
0.410385
0.782189
0.635591
-3.49551
0.647583
0.420278
0.479913
0.441552
0.456075
0.552796
0.422393
0.294903
0.516149
-3.42585
0.802938
0.653281
0.809318
-3.32891
0.622582
0.455449
-3.69614
1.2938
0.640119
1.1466
0.207372
0.616459
0.223944
0.936449
0.683184
-1.96993
0.474814
0.357682
0.305645
0.280332
0.685389
0.225755
-3.5393
0.259585
0.96291
1.17504
0.516644
0.0434846
-4.84577
0.910784
-2.39953
1.05008
0.489024
0.88112
-4.4173
0.316382
0.690056
2.23322
0.589531
-3.22279
0.388067
-3.73464
0.390518
4.49945
-3.34749
-4.09703
2.07809
-3.51976
0.479666
-8.05419
1.60321
0.625361
0.468554
0.546562
0.615733
-3.43438
0.519045
0.545578
0.640018
0.594455
0.550693
0.599651
0.517526
0.58837
0.437235
0.687792
0.6052
0.355665
0.48143
0.620889
0.544873
-12.267
1.01016
0.577095
0.429111
0.613278
0.268236
0.58347
0.592762
-6.99201
0.591788
0.61915
-1.23345
0.587192
-4.11601
0.653148
0.604635
-2.28452
0.545572
0.468198
0.506945
-2.63142
0.606639
0.704045
0.500763
0.622061
0.643272
-5.28117
0.606041
-4.50147
0.591375
0.411024
0.438696
0.605089
0.405992
0.605534
0.576305
-0.202766
0.973097
-6.21447
0.576414
-1.36798
0.686881
-3.91685
0.537677
0.771325
0.692337
0.339514
0.5185
0.575256
0.371092
0.230021
0.253417
0.155654
0.62912
0.0696726
0.680195
-2.76862
-4.37648
0.668926
-0.661042
-4.85731
-6.54366
0.29343
0.309436
0.567211
2.03211
0.325465
0.480556
0.187841
-5.78089
0.361394
0.527439
0.519458
0.687289
0.255901
0.094684
0.211041
-0.00427988
0.108023
0.230893
0.551093
0.658361
0.367277
0.662595
0.377205
0.575433
1.17456
0.61691
0.57467
2.14989
0.687292
0.483094
0.572627
0.465014
0.0844594
0.50304
2.78484
0.587036
0.542147
1.31928
0.681335
-3.41013
0.685702
0.66613
0.519185
0.468467
0.506465
0.466979
0.907905
-3.90942
0.475138
0.242256
-7.73261
0.5038
0.199288
0.504646
0.509451
0.690778
-6.43486
-6.00684
0.915235
1.19487
0.213027
-3.53024
0.514327
-0.815842
-5.45361
0.299788
1.46215
0.287637
0.324606
-7.35974
0.139748
0.579234
-5.61005
1.66959
-6.10411
-6.15144
0.507169
2.08743
2.25834
0.00603054
0.675784
0.661693
-3.0289
-5.35828
-1.88984
-1.2566
0.590853
0.545634
2.5397
-0.17853
-2.0243
0.846921
2.29047
-5.6191
0.451509
0.28389
0.141311
-5.95821
1.98792
1.35869
1.3671
0.641431
-9.95307
0.227471
0.949806
0.417659
-6.13819
0.43294
1.8041
1.33957
0.384653
-7.23279
0.425823
9.36337
-5.66728
0.495677
0.435525
-3.24222
0.423722
0.378777
0.232323
0.494372
6.76487
0.410013
-6.2388
-2.83541
0.232972
0.253435
-4.80386
0.673946
0.522721
2.23214
0.52306
0.521549
0.43175
0.428996
-4.1289
-4.90544
-7.17123
0.421792
0.36082
-3.96864
0.325946
-0.802698
-2.33201
0.232022
0.398459
0.626416
0.511217
-3.0231
0.26579
0.513638
0.266395
0.0458519
0.295133
-6.4786
0.0893933
0.636224
0.462772
0.119263
0.5951
0.677922
0.265557
1.89237
0.407461
-1.01095
-0.0256668
0.52799
0.359916
0.573234
0.680092
-6.18189
0.266065
1.64447
0.607762
0.266511
0.610008
0.635321
0.32833
0.661712
0.354077
-2.4782
0.353115
0.265419
0.447951
0.572217
0.509169
-5.62659
0.225543
0.266229
0.266078
-3.60452
0.392403
-3.73526
0.553263
0.394136
-7.98348
-9.50052
-4.60865
0.642127
0.492176
0.630976
-8.81941
0.416808
-8.19867
0.403137
-0.779373
7.08596
0.528474
0.418176
-4.85429
-9.81855
-7.46418
-2.26375
0.59202
0.384179
0.430671
0.669454
0.607743
0.634518
-5.5376
0.544298
0.623861
0.387929
0.734172
-5.35288
-4.95244
0.387417
0.681432
-4.21269
0.390633
-4.00602
0.442869
0.315129
0.479369
-7.02982
-1.9643
-3.89021
0.480988
0.406538
0.405081
-5.95141
0.589317
-6.59607
0.389923
0.388622
-5.20063
0.678742
0.317211
0.423854
-6.71765
0.439058
0.448041
0.618668
-8.64077
0.68832
1.91229
0.313464
-3.87941
-2.76254
0.36706
0.778096
0.66623
-0.0162391
0.334604
-0.589544
-8.25195
0.36269
0.764675
0.105538
0.333365
0.581896
0.303762
2.98348
-4.09275
0.762239
0.30797
0.718308
-3.20938
0.273894
-3.83031
0.597493
0.313408
0.890683
0.303788
-7.13921
0.273911
0.767316
1.27469
-4.45414
0.373787
0.30811
0.555699
0.58285
-3.39527
0.47478
-2.52539
-2.58054
0.387669
0.389415
0.386358
0.441042
0.582443
0.364327
0.621597
0.521459
-8.16092
0.435098
-0.215232
0.389829
0.651141
0.5351
0.562998
0.420097
0.383016
0.38341
0.416525
0.50894
0.597471
-2.73995
-2.9202
0.910281
0.641527
0.607256
0.624549
0.487121
0.708334
0.574143
0.625596
0.500484
0.679871
0.672787
-2.9328
0.628856
0.604158
0.539095
0.675859
0.64164
0.169039
0.752635
0.53165
0.650425
-2.877
0.753345
0.661386
0.448817
0.597547
0.676757
0.65913
0.453468
0.655369
0.690823
0.620089
0.687774
0.678261
0.606388
2.63801
0.579887
0.531482
0.514192
0.536316
0.69962
0.401996
-1.52331
0.489835
2.64018
0.402839
0.256268
2.62359
0.663767
0.709293
0.720608
0.476721
0.468379
-0.496752
-4.09243
0.433583
-1.58831
-2.85559
0.531944
0.59229
0.582357
0.719502
-3.12036
0.394162
0.711161
0.814337
0.511248
-2.05453
0.562346
0.0227297
0.530307
0.51432
0.432926
0.0457509
0.389306
0.410585
0.0332177
-1.8532
0.550862
0.0493856
0.664344
0.0264413
0.571959
1.71636
0.409888
0.00875438
0.845814
0.994453
0.462174
0.693754
0.153297
0.567146
0.680762
0.627368
0.43522
0.644534
0.72731
0.459788
0.469685
0.473487
0.527678
0.493987
0.641713
0.631207
0.377281
0.699401
-2.00212
0.631749
0.680226
0.693113
0.533031
-0.896709
0.693814
0.545026
0.99336
0.693078
0.394094
0.533128
0.693555
0.61118
0.0996908
3.11054
0.961534
2.96908
0.570706
0.96808
1.94873
0.517937
0.724261
0.491768
0.661593
0.928049
0.603735
2.22911
0.901669
1.68968
0.597548
1.63607
0.946248
0.563138
0.31407
0.688365
0.588403
0.559489
0.509277
0.526502
0.905369
0.601541
0.56969
0.630603
0.32399
0.31354
0.563659
0.575543
-3.22092
0.337967
0.577221
0.548828
0.385229
0.77145
0.348659
0.659267
0.52306
0.521131
0.503907
0.337005
0.7282
0.349968
0.364245
0.373518
0.55063
0.536419
0.344483
0.76371
0.536279
0.647935
-0.974299
0.492418
0.71058
0.596824
0.368073
0.514351
0.551833
0.193392
0.362435
0.626971
0.636708
0.568677
0.438204
0.552049
0.19294
0.586841
0.728765
0.203865
0.363807
0.659542
0.200729
0.368627
0.620604
0.334775
0.662435
0.0724436
0.555953
0.195732
0.608138
-7.35044
-0.800227
0.500771
0.32349
0.196888
0.403146
0.685454
0.671767
0.319582
0.276092
0.549552
-4.046
0.411965
0.280173
0.284908
-6.10582
-2.98351
0.640139
-5.22935
0.52195
0.540422
0.627655
0.544844
0.0248391
0.66977
0.666466
0.685622
0.433598
-4.93157
-5.16081
0.442384
0.430204
-5.32138
0.686432
-6.84816
0.44497
0.585033
0.449506
0.681874
-4.6012
0.446109
-4.9295
0.534385
0.515429
-4.17048
0.549772
0.529603
0.548049
-5.04912
0.522893
0.624023
-4.28107
0.529092
0.613333
-5.45981
2.34961
0.59629
0.461681
2.44127
0.646343
2.37404
-2.43728
0.20281
0.512403
0.671043
0.57011
0.670276
-2.90187
0.532629
0.575456
0.453936
-4.38294
0.59381
0.581152
0.621818
0.302227
0.624704
0.0600344
-3.83048
-4.21546
0.461994
0.00891865
-4.37649
-3.54868
0.530536
0.697045
-4.09359
0.220694
-2.465
0.605845
0.630103
0.495789
-4.42154
0.266978
0.267713
0.563315
0.264413
-0.609307
0.645361
0.647779
-4.58113
0.23026
0.531782
0.558128
0.652594
0.517925
0.406713
0.593424
0.460755
0.545378
0.370786
0.490856
0.661922
-4.96015
0.65492
0.698498
-1.78244
-2.63143
0.551349
0.65133
0.589693
0.671037
-4.22774
0.662932
-2.76305
0.585265
0.385134
-3.40581
-4.51537
0.608095
0.593194
-3.78394
-2.09157
0.519767
0.697432
-4.48425
0.582773
0.676168
0.65089
-9.40615
0.663548
0.541407
0.095124
0.572131
0.58251
0.652648
0.511103
-0.738884
0.382416
0.452943
-1.33342
-2.55497
0.480563
0.493335
0.30604
0.580694
0.580889
0.455666
0.546957
-0.765024
-1.97106
0.663454
0.391645
0.557485
-2.86069
-3.01632
0.559236
-0.126559
0.497727
0.617932
0.53303
0.568118
0.227395
0.538839
0.386888
0.581878
0.528602
0.3759
0.511411
-5.77031
0.471349
0.558349
0.519831
0.665901
0.674919
0.684589
-4.40896
0.380624
0.537931
0.559905
0.538541
0.485164
0.529634
0.536571
0.382317
0.60875
0.579555
-4.29293
0.377023
0.58434
0.534183
-6.83369
0.482192
0.744269
3.45822
0.480709
0.51016
-1.99292
0.398574
0.542746
0.479081
0.521317
0.483475
0.544388
0.479208
0.505356
0.498208
0.380815
0.675225
1.05525
0.477804
0.623625
0.47769
0.671594
0.674007
0.395936
0.17127
-8.20712
0.53582
0.750717
0.281246
0.745384
0.746943
0.273565
0.263032
-5.7895
-9.03812
0.43432
-4.62444
0.391536
0.300847
0.749112
0.708158
0.386206
0.621287
0.671891
0.636598
0.381284
0.140521
0.748853
-0.0139508
-5.68141
0.560501
0.264407
0.750264
-4.93563
0.378409
0.567885
0.398563
0.394716
0.397536
0.379913
0.38472
0.740209
0.749752
0.578606
0.744549
-6.08127
-2.81035
0.49731
-4.80908
-0.852
0.199207
-3.95392
-2.91713
0.137759
0.719724
1.4049
0.578026
0.509895
0.19511
0.63183
-4.56114
0.687157
0.687174
0.518853
0.508111
0.690471
0.498463
0.661952
0.65289
0.57136
0.512587
0.583978
-5.59948
0.689209
0.605621
0.484353
-1.18466
-3.06528
0.344713
0.708225
0.198375
0.665157
-3.87949
-5.14207
0.693703
0.718388
0.624671
0.134356
0.247712
0.516315
-4.37973
0.340052
0.351136
0.452064
0.339274
0.621266
0.578361
0.584952
0.586736
0.5504
0.687405
0.687717
0.452996
-4.65184
-0.827675
0.495824
0.709217
0.455005
0.456726
0.336578
-7.17753
2.50173
-3.00282
0.491568
0.423838
0.106035
0.553086
0.519262
0.596348
-0.367864
0.543865
0.453523
0.741923
-5.57469
-8.20705
0.500114
0.456196
-0.72727
-0.777437
-0.338755
0.0932363
-1.3657
0.667674
-5.42142
1.23558
0.425845
0.524759
0.429012
0.535719
0.372042
0.530923
0.642591
-9.17239
0.00104488
1.54648
-0.879063
0.533977
0.821686
0.797977
0.772456
0.592596
-2.88199
0.61393
-2.41791
0.94544
0.360448
0.443009
-0.413878
0.546658
0.467467
-6.88474
0.53189
0.345068
-3.65635
-5.14444
0.292908
0.523795
0.195732
0.437823
0.507658
0.343457
0.363836
-3.11895
-5.62983
0.36306
0.542198
0.586525
-0.644702
-1.08251
0.459067
0.357202
0.317961
-0.391173
0.397113
0.610183
0.657199
0.355279
0.624603
0.431892
0.385922
-7.91067
0.544752
0.366445
0.264864
0.360765
0.515355
0.699542
0.500595
0.425849
0.632176
0.669944
0.360581
0.69707
0.421323
0.426417
0.429641
0.530163
0.537051
0.392838
0.558489
0.353122
0.383976
4.15296
0.413076
0.604341
0.558826
0.252757
0.337834
0.450922
0.463885
0.561033
-1.71441
0.576875
-2.65068
0.591264
0.75148
0.462721
0.412418
0.617027
0.57542
0.588994
-2.38146
0.412989
0.563482
0.309796
0.419842
0.194704
0.396504
0.683316
0.717553
0.263585
-4.61123
0.323274
0.585904
0.560699
0.269646
0.716321
0.506041
0.766219
-6.72173
-3.54321
0.477844
0.277342
0.592313
-4.43376
0.583863
0.58576
-4.16825
0.563513
-3.68671
0.293959
0.314342
0.637972
-3.38182
-3.19327
-3.51005
-3.38256
-1.77685
-0.837169
-5.30815
-1.08229
-4.03683
0.51821
0.50317
0.520037
0.517511
-0.0691941
-2.05735
0.640443
-5.5223
-2.08096
-4.60099
0.544884
-4.81442
0.767234
0.368556
0.268785
0.293636
0.858258
0.544425
2.56489
0.316462
0.856955
-4.43399
0.580199
-7.00717
1.44712
0.699631
-1.37415
0.345928
0.695684
-3.2483
0.545385
0.358892
0.634325
0.68465
0.477952
0.39566
1.17501
0.420589
0.317937
0.324523
0.5362
-0.739453
-0.232946
0.480815
0.377013
1.42782
1.23478
0.270946
1.27067
0.548089
0.83435
0.650157
0.297724
1.13593
0.652564
1.44391
1.61203
0.610395
0.681494
0.666421
-3.20666
-4.49834
0.287505
0.660537
1.33884
0.377571
-1.87991
0.385032
0.385892
0.312949
1.46394
0.586654
-0.328243
0.197433
0.411791
0.680156
1.33631
1.20489
0.548432
0.272513
0.710594
-3.14382
-5.46136
0.185163
-3.97052
-3.71643
0.42256
-4.77553
0.541142
-2.81455
0.449718
0.577902
0.396389
0.287509
0.471367
0.318762
0.440995
-3.94539
0.392962
0.688022
0.297923
0.292563
0.504141
0.319683
0.415253
0.625663
-1.68109
0.384769
0.249093
-7.06062
0.531837
-2.14134
0.586044
0.235494
-4.21328
0.545809
0.245916
0.421638
0.046399
0.609334
0.270078
0.697333
0.716246
0.68496
0.278667
0.775404
0.373341
0.217898
0.338913
0.233703
0.295124
0.684071
0.553118
2.01254
0.244359
0.686331
0.312775
1.16352
0.31711
0.576472
0.570489
0.714401
0.697996
0.697211
0.690145
0.0630166
0.659544
0.634946
0.310612
0.362529
0.19843
0.380646
-7.12816
0.286576
0.258058
0.41807
0.692214
0.502196
-2.96231
0.366478
0.367593
0.478325
0.553624
0.395479
0.526451
0.335244
0.539213
0.33068
0.236375
0.455805
-0.670785
0.501636
0.512472
0.229432
0.498624
0.421365
0.496757
-8.98079
0.595876
0.547914
0.518644
0.484432
0.472188
0.440982
0.504639
-5.02727
0.618961
0.667584
0.498975
0.430717
0.291159
0.521058
-6.87931
0.49189
0.230383
-6.8484
0.505611
0.0493757
0.474321
0.247674
0.555851
0.690886
0.164502
0.536182
0.244842
0.410867
-7.41152
-7.43024
-7.47295
0.606884
-1.12607
-1.80618
0.606984
0.437511
0.581036
-7.32713
0.397028
0.452335
0.409917
0.539215
0.157163
0.475887
0.390188
0.52838
0.637395
0.598849
0.484727
1.75561
0.260412
1.29242
0.81355
0.240493
-1.74715
0.0556487
0.389513
0.261029
0.446795
0.611638
0.590854
0.241092
1.07405
0.601371
-1.05829
0.700814
-2.38159
0.614576
0.231699
0.440514
0.169837
0.695683
0.232317
0.159283
0.160948
0.469322
0.329338
0.555807
0.407168
-2.08475
0.485959
-1.98237
2.17138
-1.16154
0.62138
0.163506
1.18
0.263112
0.160695
0.496427
-4.13881
-3.37207
-1.849
0.505478
-1.81882
0.353533
0.606793
0.439004
0.586812
0.327031
-7.42646
2.05873
0.348297
0.342552
0.55152
0.548343
0.335929
0.676358
0.166987
0.335727
-3.25745
0.264201
0.588833
0.16855
2.14206
0.0387553
0.489721
0.0175061
0.270507
0.61156
0.0461581
-3.49821
0.523174
0.61831
0.00838067
0.703123
-4.58078
0.398851
0.0347912
0.461121
-2.16468
0.699548
0.983016
-0.867011
-4.68886
0.358641
-7.22367
1.17401
0.0164705
0.44081
-4.4595
1.96597
0.302718
9.93965
0.252432
0.602307
0.714426
0.47069
9.11697
0.512445
0.490054
0.399451
0.443312
0.33735
0.443396
-4.31423
0.495339
0.675179
0.438679
0.405922
0.669472
0.438843
0.689098
0.553911
0.490196
0.616611
-6.99484
7.8121
-1.05041
6.87583
-0.59777
7.85936
0.557647
0.360581
0.2833
-2.92196
-0.484139
-5.16524
-4.36324
0.62068
-0.0889766
7.05448
-9.78033
-4.91476
0.277747
-10.8367
-9.12285
7.44316
0.230171
-0.148426
0.891242
-1.51182
-4.29547
-4.24954
1.90026
-5.57331
0.601605
-3.87565
0.609358
1.46514
0.748036
-7.23476
-4.97194
0.535723
0.598359
1.63422
-1.04241
0.626865
0.707162
0.293748
0.325427
-4.16713
0.564369
0.580096
0.563998
0.330607
0.772024
0.326714
-3.74515
0.42083
0.339538
0.576738
-5.05577
0.603033
-4.0453
-3.39055
-3.21973
0.594412
0.321301
0.529311
-4.1943
0.303269
0.295865
0.558946
0.611327
0.659776
-5.02291
0.627948
0.583274
-4.01961
-1.78583
0.356106
0.612387
-0.997852
0.537065
0.647015
-1.71131
0.332619
0.338046
0.569482
-1.11721
-5.00484
-3.0389
0.567184
0.620294
0.327261
0.698281
0.889348
3.40936
-3.99609
0.245956
0.562742
0.246449
0.453274
0.21698
-0.143697
-1.03274
0.233329
-4.96631
0.255643
0.253977
0.863742
0.576829
0.532713
0.564591
-4.77304
-1.73073
0.250905
0.502949
0.675968
0.377867
0.51777
0.682079
-1.00781
0.333485
0.597115
0.598663
0.252453
0.435937
0.467421
0.430981
0.42124
0.145337
0.326177
0.64772
0.764992
0.545292
-5.24346
7.13586
1.74844
0.749583
0.352367
0.662486
0.0764038
0.419988
0.741638
-2.69845
-4.71401
0.725652
0.660538
0.367274
0.505361
0.662984
-0.132554
1.14231
0.720573
0.678327
0.455699
0.664286
0.426576
0.424052
0.181244
0.515377
0.52519
0.669121
-5.92746
0.179711
0.585344
0.55819
-0.68475
-5.03871
0.478271
0.749291
0.62018
-2.8398
0.632654
0.761864
0.210448
0.15793
0.744299
0.599049
0.319018
0.474626
0.298584
0.185417
0.723191
0.12427
0.152802
-3.50045
0.666784
0.631673
0.439505
0.63927
0.523963
0.180665
0.186051
0.531375
0.326419
0.461838
0.332217
0.609159
0.632246
-4.99063
0.562899
0.674071
1.99784
-2.35218
0.627616