/*--------------------------------*- C++ -*----------------------------------*\
| =========                 |                                                 |
| \\      /  F ield         | OpenFOAM: The Open Source CFD Toolbox           |
|  \\    /   O peration     | Version:  v2012                                 |
|   \\  /    A nd           | Website:  www.openfoam.com                      |
|    \\/     M anipulation  |                                                 |
\*---------------------------------------------------------------------------*/
FoamFile
{
    version     2.0;
    format      ascii;
    class       surfaceScalarField;
    location    "4";
    object      phi;
}
// * * * * * * * * * * * * * * * * * * * * * * * * * * * * * * * * * * * * * //

dimensions      [1 0 -1 0 0 0 0];
oriented        oriented;


internalField   nonuniform List<scalar> 
210647
(
0.00127414
-0.0012112
-0.00118734
0.00112443
0.000175767
8.8223e-05
0.00163918
-0.00190315
0.000589953
-0.000820055
0.000154136
7.59553e-05
-0.0017871
0.000682941
0.000898998
0.000204924
-0.000307624
0.000884494
-0.000269189
-0.000308027
2.6964e-06
4.00468e-05
-2.44768e-06
-4.03991e-05
-0.0040287
0.000651807
0.0018133
0.00156371
2.9097e-07
-6.73283e-05
6.68353e-05
0.00060242
0.00102371
0.000785861
-0.00241222
-0.0001334
0.000952331
-0.000619571
-0.000199216
0.000418106
0.00014714
0.000443306
-0.0010086
0.000267981
0.000780896
-0.000416819
-0.000632128
-0.000683052
0.000749759
-0.000505147
0.000438274
-0.000141105
0.000109195
-9.75102e-05
0.000129452
-0.000586037
0.000186184
-0.000286171
0.000685947
-0.00140732
0.00164083
-0.000124805
-0.000108387
-0.000772758
0.000909735
8.28604e-05
-0.000219695
0.0002451
-0.000317382
0.000373082
-0.000300806
0.00160933
0.000217222
-0.000936749
-0.000889963
-0.000642905
-0.000799723
-0.000319454
0.00176203
-1.07903e-05
0.000358105
-0.000347464
0.000699586
0.00170232
-0.00120784
-0.00119422
-0.000394604
9.10983e-05
0.000465936
-0.00016229
0.000808839
-0.00082023
-0.00077677
0.000787924
-0.00077785
0.000968642
-0.000464508
0.000273464
6.68491e-05
-0.000354691
0.000452478
-0.000164993
0.000963952
0.00135024
-0.000628304
-0.00168601
0.00188451
0.000234197
-0.000285761
-0.00183294
-0.00210385
0.00097027
-0.000351528
0.00148489
0.000369383
-4.94731e-06
-0.00035732
-7.21423e-06
-0.00173167
0.0013086
-0.000647839
0.00107064
-0.000284949
7.5781e-06
0.000175812
0.000101597
-0.000489444
0.00145328
-0.000234852
-0.00176179
0.00198462
1.21935e-05
-0.00140681
-0.000358428
0.0016352
0.000129937
-0.000180559
9.30827e-05
0.000851695
-0.000764585
0.00119908
-0.000268614
-0.000113335
-0.00081726
-0.000160458
0.0010763
-0.000916158
-0.0302608
-0.00355274
0.0144716
0.0191969
0.00355351
-0.0149501
-0.0144071
0.0251889
0.00101104
0.00159482
-0.00187139
-0.00073429
-0.000386398
-0.000428781
-0.000430736
0.00124559
-6.97554e-05
-1.12296e-05
8.10214e-05
-3.65188e-05
-0.00189168
0.00192798
0.000310108
-0.000944783
0.000286644
0.000348791
-0.010508
0.000612915
0.00253371
0.00745746
0.000709507
0.000925841
-0.00282976
0.00190406
0.00110356
-0.00117242
-0.000611669
0.000680075
-0.000694262
2.71461e-05
-0.00193959
0.00260674
-0.00101962
0.00155559
-0.000884215
0.000348038
0.000660733
-0.000925506
-0.00246894
0.00273557
-0.000401338
-0.000261903
-0.000964398
0.00162763
-0.000567056
0.000872395
-0.000366622
6.10795e-05
0.000162489
0.000258699
0.000195606
-0.000616767
0.000708554
0.000336982
2.49857e-05
-0.00107071
-0.00028589
0.00161856
-0.000608049
-0.000724759
-0.000367129
0.00020413
-0.000201221
0.00036394
0.000618513
0.000144061
-0.000833603
7.08778e-05
0.000583684
-0.000927869
-2.6964e-05
0.000370741
0.000698735
-0.000957882
-0.000129583
0.00038844
1.28197e-05
0.000113121
-0.0012994
0.0011732
-9.76899e-05
0.000496475
-0.000938396
0.000539321
-0.000287584
-4.39468e-05
-6.88798e-05
0.000400137
8.55544e-05
0.00141704
-0.000426899
-0.0010759
-0.00097271
0.00135032
0.000151877
-0.000529982
-0.000749608
0.00011612
0.000633348
-0.00122985
0.00082745
0.000243651
0.000158406
0.000587157
-0.000485116
-0.000441125
0.000339157
-0.00175453
-0.00239421
-0.00614758
0.0104266
-3.58709e-05
-0.000916689
8.12424e-05
0.000871111
-0.000731839
0.000201298
0.000871086
-0.000340769
0.000748615
-0.000312401
0.000256848
-0.000693385
0.000158134
-0.000625741
-0.000264513
-0.000451353
0.00137177
0.000699807
-0.00162043
0.00127132
-0.000876773
-0.000494801
9.99709e-05
-0.000293685
5.86211e-06
-0.00200822
0.00189174
-0.000247807
0.000364693
0.00107809
-0.0019708
0.00108681
-0.000194269
-5.13982e-05
-0.00143583
2.91675e-05
0.00145782
-0.000150382
-0.000746401
6.47538e-05
0.000831822
0.000449757
-0.000496982
8.68782e-05
-3.96138e-05
0.000453509
0.00111103
-0.000885855
-0.000678837
1.58028e-05
-0.000546212
0.000530322
-0.000372861
0.000244827
-0.000235544
0.000363556
-2.96799e-06
8.5089e-05
-0.000150192
6.81093e-05
-0.000686259
-0.00043355
0.00123861
-0.000119006
-1.91214e-05
-0.000498857
1.52202e-05
0.000502735
-8.11549e-05
-3.31907e-05
0.00048252
-0.000368447
0.000933422
0.000798068
-0.000781193
-0.000950636
-0.000804716
0.000298139
0.000595725
-8.93986e-05
0.000360936
0.000530393
0.000215959
-0.00110742
0.000319971
-0.0001045
-0.00102053
-0.000225504
0.000305891
-8.05258e-05
0.000928107
-0.000913675
-0.000471152
0.000456404
-0.000167116
-6.12939e-05
0.000446995
-0.000218508
0.000536298
0.000323895
-0.000499383
0.000396483
1.30452e-06
0.00015201
-0.0005499
-0.000548508
0.000526416
-8.72765e-05
0.000109257
0.000116992
0.000410706
-0.000549851
2.20025e-05
0.000469271
-0.000922333
-0.000143929
0.000596661
8.29419e-05
-0.000889559
0.00245553
-0.00164925
0.000980034
-0.000645712
-0.000429078
9.45128e-05
-0.000121424
0.000544184
0.000105674
-0.000528404
0.000390168
-0.000637695
0.000271311
-2.39262e-05
0.00124775
0.000772709
0.000186544
0.000179192
-0.00113883
-0.00149444
-0.00435855
0.00179116
0.00406173
0.000471088
0.000727733
-0.000935464
-0.000263599
-0.0217514
-0.00550114
-0.0109229
0.0382691
0.000924752
-0.000752668
0.00090324
-0.00107467
0.000609262
0.000936389
-0.000631978
-4.12738e-05
0.000673941
-0.00224767
0.00112787
0.00134092
-0.000218879
0.000699788
-0.000155865
0.000388487
-0.000932671
0.00121048
-0.012623
-0.000309746
0.0117231
0.000559231
-0.000277852
6.53365e-05
-0.000346943
0.000394977
0.000380011
-0.000677056
-9.80126e-05
0.00184167
-0.000820364
-0.000515604
-0.000504733
0.000382417
0.00115521
-0.00100744
-0.000216462
2.87237e-06
-7.55604e-05
0.000289189
0.000611547
-0.00156844
0.00048724
0.0004695
-0.0208735
0.00668207
-0.00132557
0.0155185
0.000231131
0.00018041
1.7914e-05
-0.00042947
-0.000114827
-0.000623736
0.000738327
0.000675095
-0.000429244
-0.00131606
0.0010708
0.000864087
0.00110711
-0.00142014
-0.000550914
0.0010384
6.61535e-05
-0.000910631
-0.00019405
-0.0011609
0.00081614
0.000956196
-0.0026978
-0.00132114
0.00189739
0.00212136
-0.000121528
-4.16098e-05
-0.000310639
0.000473845
-1.64716e-05
-0.00121259
-0.00146896
-0.00122166
-0.000357733
0.00139481
0.000184222
-0.00062374
0.00909005
-0.00481149
-0.00365499
0.00136964
-0.000406234
9.2193e-05
-0.00105584
0.000122904
-0.000748745
-8.21466e-05
0.000707921
-0.000100407
-0.00167116
0.000610501
-0.000356328
-0.000638682
-0.000170283
0.00116511
-0.000695397
7.44488e-05
0.000692041
-7.1296e-05
-1.56959e-05
-4.93571e-05
0.00017608
-0.000110986
-0.000648286
-0.000402922
0.000185576
0.00086559
0.000479911
2.56172e-05
-0.000660672
0.000155017
-0.000225039
0.000194014
7.03162e-05
-3.86911e-05
0.00292858
-0.000560181
-0.00137039
-0.000998171
0.00125268
0.000354562
0.000910425
-0.000196734
0.000163537
-0.000877536
0.000506133
-0.000187778
-0.000457178
0.000138665
-0.0196916
0.000172818
0.0196271
-0.000704698
0.000287504
0.0199334
-0.0191497
-0.00769021
0.00690643
0.0256579
0.00285471
-0.00857752
0.000195625
0.000146839
-0.000318291
-2.44279e-05
-0.00011939
-0.000103367
1.6053e-05
0.000206826
-0.0223201
-0.00137181
-0.00690903
0.0306076
-0.00107273
0.00028866
-0.000395479
0.00117929
-0.00102342
0.000636785
-0.000132807
0.000519947
0.000240942
-0.000283292
0.00146523
-0.00142301
0.00272133
-0.00373644
-0.00110906
0.00212411
-0.00267523
-0.00249599
0.00358842
0.00158271
-0.00365706
-0.0028846
-0.00102534
0.00755114
-0.0259575
0.0292978
0.000667315
0.000400589
-0.00480904
-8.79651e-05
-0.000157542
-0.000621097
0.000866301
-4.49146e-05
0.000831608
-0.000764803
-2.21075e-05
0.000137105
-4.28816e-05
0.000207805
-0.000302014
0.000783471
0.00016658
0.000456716
-0.00140517
-0.000200099
0.000246452
-2.07011e-05
-2.59364e-05
0.00021476
-0.000239844
2.48381e-05
-7.91577e-05
0.00096265
0.00014119
-0.00114237
3.81949e-05
-0.000526148
0.000470932
-0.00110808
0.00116302
-0.00104033
0.000794874
0.000326078
-8.08229e-05
-0.00151169
0.00133798
0.000650838
-0.000476405
-0.000632004
-0.000685492
0.000761138
0.000556227
-0.000105471
0.00068879
0.00125458
-0.00183803
0.00112652
6.23689e-05
-0.000731133
-0.000458055
-0.000444949
0.000530121
-0.00106012
0.000975418
-0.000267863
-3.09522e-05
5.86706e-05
0.000280068
0.00110543
-0.000686497
-0.000699268
0.00087894
-0.000170149
-0.000645496
-6.34578e-05
-0.000104223
7.6601e-05
-0.000612057
0.000639831
0.000181102
-0.00113261
0.000266027
0.000685335
0.00313071
-0.0010253
-0.00103699
-0.00106849
-0.000109456
0.000139204
-7.58841e-05
4.61327e-05
-0.000431964
0.000575596
-1.2463e-05
-0.0001311
-0.00015548
-0.000569014
-0.000353718
0.00107794
0.000138846
-0.00155871
0.00233913
-0.000919366
-0.000187457
0.000613245
-1.83373e-06
-0.000423983
-0.000396532
-0.000202388
-0.000123592
0.000722477
-5.16722e-05
-9.31476e-05
3.53608e-05
-0.000451127
0.000744152
0.000172345
-0.00046554
0.00114546
0.00170707
-0.00279014
-6.2502e-05
0.00075653
-0.000593095
-0.000234323
7.07767e-05
-0.000600355
-0.00026227
2.99531e-05
0.000833076
-0.000734303
0.000840335
0.000497997
-0.000604335
0.000733197
0.000629475
-0.00112067
-0.000242003
6.05603e-05
0.00181474
0.000503059
-0.000939833
7.48449e-05
0.000361673
-7.58692e-05
-0.00115725
8.86391e-05
0.00114412
8.37735e-06
-4.58729e-05
0.000176695
-0.000212037
-0.000158317
0.000381896
-1.19327e-05
0.000198991
0.000425359
-0.00102831
0.000404565
-1.68096e-05
-0.000387492
0.000404164
-0.00105025
-0.00233583
-0.000146142
-0.00113963
0.00497715
0.00345973
-0.0072967
-7.42268e-05
-0.00851516
0.00859042
-9.77189e-05
9.75042e-05
-0.00100789
0.00100794
-0.00415636
0.0257687
-0.0340895
0.0120434
0.000528054
0.000561956
-0.00120879
0.000118559
0.00408448
-0.00304777
0.00441488
-0.00546652
-0.00151077
0.00834699
-0.00468236
-0.00215695
-0.000762863
-7.8219e-05
0.000840867
-0.00132587
-0.000111019
0.000992378
0.0592579
-0.0586039
-0.00391575
0.00398228
-0.000605499
0.0100961
-0.00963473
0.000325908
-0.000364143
-0.000148145
0.000186273
-0.000115511
-4.12691e-05
0.000545379
-0.000388659
0.00104933
-9.44101e-05
-0.00105154
9.639e-05
0.00323913
-0.00152549
-0.000482138
-0.00123158
0.000440973
0.000602623
-0.00167804
0.000634133
-0.00133583
0.00227376
-0.0012865
0.000348365
-0.019515
0.00360851
-0.00582786
0.0217349
0.00255276
-0.000650736
-0.0011071
-0.000794659
0.000274985
0.00110404
-0.00219292
0.000814242
0.000610769
0.000102805
-8.16432e-05
-0.000632111
0.000156175
-0.000129841
3.94071e-05
-6.59547e-05
0.00153955
0.00146292
0.000236629
-0.000349226
0.000360501
-0.0011496
0.00113808
-0.00241051
-0.0013112
0.00633532
-0.00260697
-0.000383575
0.000138347
0.000167517
7.74781e-05
-0.000196195
-0.00771485
0.00813998
-0.00103183
0.000423862
6.46049e-05
0.000543126
-0.000111947
-0.00023749
0.000389772
-0.000752703
0.000600455
0.000779777
-0.000121865
-0.000901984
0.000243874
0.000168898
-0.00033008
0.000161082
0.000132077
-0.000275698
-0.00194444
0.00208787
-0.000247661
0.00111278
-0.000865506
2.12413e-07
0.02165
-0.0132929
-0.0122182
0.00361072
0.00168154
0.00120088
-0.00348493
0.000602484
-0.000253855
0.000185128
6.86491e-05
0.000311421
-0.00036445
-0.00119947
0.00125222
-1.49592e-06
1.13353e-05
-9.94578e-06
0.00220073
0.0022021
0.0045618
-0.000428109
-0.00126697
-0.00286685
-0.000110431
-0.000340882
-0.00152049
0.00197234
-0.014872
0.0218678
-0.0402368
0.0334056
0.0196314
0.00515084
-0.0111043
-0.013676
0.00336615
-0.00110097
0.00251031
-0.00477555
0.000723154
-0.00133784
0.00164931
-0.00103489
0.000474544
2.34893e-05
-0.000498185
-8.88907e-05
-0.000326493
-0.00147839
0.00189356
-0.00113796
-0.000845523
0.00122451
0.000758765
-0.00095953
0.0013902
0.000117599
-0.000548551
-0.000491762
0.000329329
-0.00360455
0.0037669
0.00318437
0.00138263
0.00338029
7.1223e-06
-0.00387925
-0.00057314
4.69444e-05
-0.000182321
0.000708496
-0.000761297
0.00072913
0.00167737
-0.00164546
7.25014e-06
2.36414e-05
-2.32007e-05
-7.84173e-06
-0.00113838
0.00101384
0.000383074
-0.000258731
0.000563054
-0.00101458
-0.000999251
-0.000536213
0.000538459
0.000997764
-0.000518271
-0.00069142
-8.57332e-05
0.00129582
0.00194873
-0.000589274
-0.000625963
-0.00073356
0.000742848
-0.000290961
-0.000462338
1.01156e-05
-0.000983825
0.00073662
-0.000666414
0.00091336
0.000957984
-0.000455404
0.00113299
-0.00163598
8.72833e-06
-4.06692e-05
3.90425e-05
-0.000807062
0.000126163
0.00115927
-0.000478608
-2.44554e-05
-9.78529e-05
3.90505e-05
8.31241e-05
-0.000720828
-0.00111757
0.000896688
0.000941677
0.0352392
-0.0133624
-0.0303739
0.0123077
0.0118479
0.000351142
-0.00592378
-0.00627932
0.00893666
-0.00221326
0.0284633
-0.0346751
-0.00105329
-1.08946e-05
0.000342588
0.000721404
0.000621828
0.000475601
3.02097e-05
-0.0011279
0.00017726
-0.0565021
0.0118767
0.0444492
-0.00105057
-0.000380224
0.000504445
0.00092628
-0.000506789
-0.00141518
0.00125852
0.000663251
-0.000523981
0.00159935
0.000632596
-0.00170821
-0.00319414
-0.00254519
0.00274991
0.00315946
-0.00633818
0.00657695
-0.00339368
-0.000246089
0.000160252
-9.5443e-05
0.000180956
-0.000666126
0.000117514
-0.00126261
0.00181099
-0.000458467
0.000932877
0.000356492
-0.000830565
-0.000224184
0.000601133
0.0002695
-0.000646573
-0.000883883
0.000842357
-0.00102133
0.00106268
0.00012683
0.000952928
-0.00124963
0.000169921
-0.00179974
0.00131287
-0.000654038
0.00132435
0.000218251
4.15317e-05
-0.000341905
8.21683e-05
-0.000582404
0.000392704
-0.000292998
0.000482564
0.00122774
0.000708239
-0.00282003
-0.000908824
-0.00014894
-2.99989e-05
0.00108752
0.000113594
-0.000312338
0.000853663
-0.000655326
-0.000750046
0.000587729
0.000174968
-1.27655e-05
0.000684268
-0.00033989
0.00137428
-0.00171895
0.000251725
0.000172414
-0.00127663
0.000852294
-0.0022675
0.00166143
0.000606369
4.80254e-05
-3.86185e-06
1.14749e-05
-5.57155e-05
-0.0121753
0.00948685
-0.0068591
0.00954949
0.0161975
0.00179061
-0.00323566
-0.0147521
0.00138739
-0.00107904
-0.000535732
0.000227031
1.25272e-05
3.5327e-05
0.000243491
-0.000916161
0.00113379
-0.00046138
1.98146e-05
0.000369713
-0.000323952
-6.5502e-05
0.000133738
1.46954e-05
-0.000148487
-0.000547033
-0.000596197
0.00018421
0.00095885
0.00038456
-0.000171255
-0.000193428
0.0118019
0.00492658
-0.0560793
0.0421198
-0.000112869
0.000240871
0.00022828
-0.000356685
-0.00143954
9.51317e-06
0.000410864
0.00101883
-0.000153615
5.05234e-05
0.000619888
-0.000516545
0.000744658
-0.000567297
-0.000122496
-5.51357e-05
-0.000824848
5.43497e-05
0.000928844
-0.000158185
0.0142986
0.010633
-0.00950066
-0.0154298
0.000205099
-0.000199391
-0.000546953
-0.000789934
0.000706632
0.000630511
0.0222587
0.000711602
-0.00772814
-0.0154764
0.000274639
-0.000655786
-0.000948377
0.00132916
0.00016522
0.00139704
-0.000924046
-0.000638177
0.000213672
-5.26825e-05
-6.48519e-05
6.44499e-05
0.000764777
-0.000764399
-0.000635793
6.40277e-05
0.000506891
0.000459339
0.000124285
1.53295e-05
-0.000599083
-0.00338556
-0.00195
0.0182459
-0.0129015
-0.018094
0.0151907
0.0108075
-0.00790065
0.00359448
0.0015916
-0.0326441
0.0274681
-0.00109587
0.000913645
-0.000207398
0.000389457
0.000662827
-0.00207345
0.000104823
0.00130581
0.00216848
-0.000734535
-0.00105068
-0.000383511
-0.00493559
0.0304383
0.01077
-0.0362668
0.001986
0.00276732
-0.00160116
-0.00314835
0.000219306
-0.000191199
0.000939988
-0.000968289
-0.0083065
-0.0125066
0.0209666
-3.44515e-05
0.000721951
-0.000687728
6.07741e-05
-6.3281e-05
-0.000911303
0.000913554
7.92982e-06
-0.000926112
0.000321522
0.000596345
8.3488e-08
0.00138911
-0.00028008
-0.00110937
-0.000135665
-0.00108607
0.000769942
0.000451641
1.32329e-05
0.00108684
8.75913e-05
-0.00118788
0.00637307
0.00238533
-0.00875727
0.00155993
0.000333042
-0.00118409
-0.000708927
-0.000452515
0.0013093
-0.000460506
-0.000396592
-3.22331e-06
-0.000367874
-0.000139155
0.00051019
-0.000409144
0.000326933
0.000571767
-0.000489594
-0.000895402
0.000537836
-9.88065e-05
0.000456263
-5.84518e-05
0.000630155
0.000321979
-0.00089391
2.61149e-05
0.000130256
-0.000156531
-0.000923422
-1.27458e-05
4.06808e-05
0.00100761
-0.0005425
0.000326991
-0.00079235
2.82013e-05
-1.52414e-05
-1.31384e-05
0.00192245
-0.000739254
-0.00106795
-0.0133345
0.01748
-0.00508751
0.00191765
0.000953468
-0.000147315
-0.000733898
-7.23783e-05
0.000224441
0.000976712
-0.000155483
-0.00104593
-0.000891028
-0.000194805
0.000421945
0.000663708
-0.000387868
-0.00736059
-0.00468415
0.0125053
0.000680973
-0.000129032
-0.000552006
2.73507e-05
6.48221e-06
-3.3933e-05
-0.000788103
-0.00162291
0.00158075
0.000830708
0.002236
-0.000299272
-0.000376841
0.000878641
-0.000773582
0.000432704
0.000556562
-0.000194782
-0.00133693
0.000975027
0.000193083
0.00111258
-0.00165461
0.000348663
0.00201168
-0.00146715
-0.00105407
0.000509543
-0.000915514
-0.00041703
0.0012064
0.000125947
-0.000349798
-0.000278209
0.00154639
-0.000918537
-0.000101498
0.000541908
-0.000440469
0.00205483
0.0176796
-0.00185402
-0.0183159
0.00035799
0.00026143
0.000232986
-0.000852301
-0.000547724
0.000497531
-0.000900534
0.000951035
4.81416e-06
0.000978775
-2.42546e-05
-0.000959421
0.0124307
-0.00726683
0.0134325
-0.0185975
0.000481083
-0.00141644
-0.00245671
0.00339206
0.026748
-0.0280887
0.00891536
-0.00756265
-0.000272634
0.000899879
-5.05086e-05
-0.000576651
0.000216009
-0.00123611
0.00198607
-0.00096649
0.000817999
0.0130848
-0.00118561
-0.0127157
-0.00134564
0.000710182
0.000643626
-8.35049e-06
0.0183426
0.000689006
-0.00437279
-0.0146582
-0.0164455
0.0186727
-0.00140761
0.000406954
-0.000210024
-0.00289252
0.00269555
0.00126335
3.87652e-05
-0.00188645
0.000584757
-0.000332515
-0.00052752
0.000503271
0.000356722
-3.0459e-05
-7.1703e-05
-8.24789e-05
0.000184721
0.000684612
-0.000487129
0.000128931
-0.000326232
0.00688704
-0.00793819
-0.000516609
0.00174978
-0.000554928
-0.000100505
-0.000387457
0.00104265
0.0111912
-0.0153585
0.0503138
-0.0459934
0.00312916
0.0105525
-0.0136802
0.000146663
-2.83215e-05
-0.000148709
-0.0162652
0.00363858
0.0157569
0.000104388
-0.000410364
0.000251953
5.40751e-05
-0.0341753
0.00504451
0.0294397
-0.00356493
0.00154023
0.00126842
0.000756073
-0.0120878
0.0168544
-0.013124
0.00838593
0.000114552
-0.000105524
-0.00102744
0.00101819
3.90999e-05
0.000524764
-0.00128741
0.000724153
0.00107655
-0.00176251
0.00128818
-0.00262449
-0.000997772
5.71717e-05
-0.0399406
0.056779
-0.00111657
-0.0156354
0.0314419
-0.0143704
-0.049122
0.0320976
8.09771e-05
-0.000260417
-0.000604152
0.000783337
-0.00176379
0.00186382
0.00137119
-0.00147141
0.00016688
-2.01214e-05
0.000313616
-7.10519e-05
9.95474e-05
-0.000341933
-0.000240137
-0.00022933
-0.000126129
0.000595521
-0.00163574
0.000467642
0.000374017
0.000794099
-0.0013875
-0.00815794
0.00955257
5.71764e-05
-3.72046e-05
-1.99557e-05
-0.000877672
-0.000408998
1.0406e-05
0.00127634
-0.0129192
0.0140094
-0.0140408
0.012899
-8.10295e-05
0.000634317
5.44233e-05
-0.000607896
0.000449938
-4.23887e-06
-0.000107401
-0.000338303
-0.00142236
0.000996985
0.00106504
-0.000639976
0.0130344
-0.038117
0.0319906
-0.00691691
0.000931192
0.0035953
0.00135928
-0.00588505
0.00133696
0.0012222
-0.0179847
0.0154637
-0.000174299
-0.000144199
0.000318233
-0.0028478
-0.0167303
0.0182208
0.000433031
0.000590131
0.000595524
-0.00161866
-0.00792604
0.0114897
0.00475358
-0.0083162
0.000107027
-1.94139e-05
-8.78196e-05
-0.000173057
0.000296765
-0.000317919
0.000193833
0.00284775
-0.00385057
-0.00463566
0.00563993
-6.07408e-05
-0.000863024
0.000744895
0.000178519
0.00119951
-0.0173983
0.00106876
0.0151409
0.0136495
0.00115499
-0.0103983
-0.00440345
-3.60217e-05
2.28302e-05
-1.13729e-05
-0.00399037
-0.000680169
-0.00738245
0.0101664
-0.000655817
-0.0271553
0.0175381
0.0186739
-0.022898
0.000236327
-0.00110574
-1.78922e-05
0.00140838
-0.000284889
0.000202449
0.000236486
0.000530306
-0.000969436
-0.000767317
-0.00012186
0.000883283
6.07728e-06
-0.00132578
-4.4264e-05
0.000823634
0.000546348
0.000230237
0.00031434
-0.00125554
0.00071062
-0.000653885
-4.29867e-05
0.000696329
0.000473609
-0.00013971
-0.000809117
0.000475042
-0.000324711
0.000169183
-0.000283191
0.000438681
-0.000943579
8.42486e-05
0.00127364
-0.000414465
-0.00134179
-0.000161085
0.0015618
-5.91789e-05
-5.76869e-05
0.00023829
-7.69291e-05
-0.00010379
0.00227464
-0.00618179
0.0266207
-0.0229212
0.000962793
-0.000397543
0.000537424
-0.0011023
0.000432873
-0.00101506
-0.000393772
0.000976105
-0.000221601
-0.00118767
-0.000101432
-0.000807482
-0.000731387
0.000595136
0.00017849
-3.01934e-05
-0.000206129
-0.00049393
6.56419e-05
0.000261265
0.000167093
-0.000358531
0.000516369
-9.41844e-06
-0.000148721
0.000410261
-2.28722e-05
-0.00119509
-0.00215216
0.000366647
0.000570939
0.00121486
-0.000685482
0.000579798
-0.00054889
0.000699511
-4.69999e-05
2.19634e-05
-0.000674601
0.000235751
-0.000522865
0.00016874
0.000118346
-0.000329108
0.00014422
0.000365412
-0.000180818
-0.000113326
-0.000360174
0.00112915
-0.000655877
-0.000597215
-1.36714e-05
0.000513678
9.70395e-05
-7.38725e-05
-0.000874739
-0.00168955
0.00263854
-0.00135518
0.000376836
-0.000726729
0.00170508
0.00331427
-0.00266616
-0.000721545
0.0181863
0.0131382
-0.00624365
-0.0250781
-0.000159243
-0.00197698
0.00141397
0.0007228
-0.000604699
0.00104516
2.87642e-05
-0.000469263
-0.000433774
-0.000210549
0.000644111
-0.000330044
0.00381026
-0.000165158
-9.73215e-05
6.54039e-05
-0.000572805
0.000120607
-0.000298886
0.000948525
-0.000770262
-0.0013466
6.9592e-06
0.0013398
-0.000779407
-2.20245e-05
0.000132498
0.000668571
0.000566954
-0.000644719
-0.00126313
0.00134067
0.00048627
0.000178967
-0.00049409
-0.000170938
0.000221569
0.000516413
-0.000738146
0.000758004
-0.000731584
-2.5994e-05
0.000745339
-0.000183874
-2.70329e-05
-0.000534582
-0.00433289
-0.00134411
0.0116265
-0.0059409
-0.0125162
-0.00316981
0.0166171
0.00108898
-0.000626195
-0.000714694
0.000252738
0.0007686
0.000555674
-0.000965239
-0.000359239
0.000908514
-0.0015697
0.000295186
0.000365665
-9.33964e-05
0.0010988
-0.00157468
0.000568969
-0.00025424
-0.00152915
0.00104498
0.00073821
-0.000896374
3.61287e-05
0.000860311
0.000117204
0.00095908
-0.000941196
-0.000135125
-0.000117575
-0.0011757
0.00122008
7.31657e-05
-0.000681086
0.000731811
-2.75447e-05
-2.32125e-05
0.000771471
-0.00102713
7.88807e-05
0.000177311
0.00139556
-0.00165823
-0.00103525
0.00129804
0.000443664
-0.000418664
-0.000212481
0.000199325
0.000905181
0.000315011
-0.00141973
0.000911555
-0.00033543
-0.000575722
0.000243746
-0.000680385
-0.000234964
0.000671589
0.000540364
0.00146594
-0.00199445
-1.09592e-05
-8.55086e-06
0.000333429
4.43981e-05
-0.000586356
0.00108081
-0.0013907
-0.000169147
7.21455e-05
-0.000963552
0.00106031
-0.000554784
-0.000539543
0.00115402
-5.97586e-05
0.00105998
-0.00119296
0.00131187
-0.00117897
0.000301794
-0.000502478
0.000200579
-0.00120257
0.000137646
0.000972645
9.20554e-05
0.000546007
0.000232208
-7.40932e-05
-0.000704239
-0.000967997
-0.000243705
0.000992392
0.000219198
-0.000606436
0.000105691
0.000552712
-5.09349e-05
-0.00584026
0.0220028
-0.015184
-0.000977108
-4.40486e-05
0.00116883
0.000133715
-0.00125862
-0.000134556
-0.00017132
0.00089327
-0.000587555
-0.00329876
-0.00433692
0.00517353
0.00202729
-0.00123442
0.000489178
0.000646302
-0.00119193
0.00204632
-0.000351442
-0.000502329
-0.000653144
0.00019119
-0.000458843
0.00092098
7.47837e-07
2.58839e-05
-0.00097345
0.000946547
-0.000228463
-7.8704e-05
0.000954825
-0.000647376
0.00119486
9.4748e-05
-0.000710234
-0.00057952
3.90212e-05
0.000923883
-0.00368459
0.00272165
0.000171615
-0.000175534
-0.000161278
0.000164913
2.2211e-05
0.0011991
-0.000798568
-0.000422899
-0.00113053
-0.00122968
0.000149938
0.00221005
-0.000813225
-0.000896859
-0.00031925
0.00202944
0.0014554
-0.000384051
-0.00146086
0.000389507
0.00198466
0.0013067
-0.00183596
-0.00130051
0.000663078
-0.000582284
0.00121992
-0.00040089
-8.71582e-06
0.00102797
-0.000618156
0.000820531
-0.001701
-0.000809402
0.00168953
0.000932042
-0.000136631
0.000465807
-0.00126047
-0.000555946
0.000211507
0.000344581
0.00128758
-0.000648123
-0.000357166
-0.000282475
0.000228447
0.000919699
-0.000215404
-0.00103274
0.000765621
-0.000133523
0.000556703
-0.000963994
-0.000191661
0.000598837
-0.000190192
0.000431893
0.000502702
0.000589108
0.000307858
-0.00103305
0.00037358
-0.000323884
0.000170534
-0.000220179
0.000823327
-0.000117087
-0.000706461
0.00043465
0.000598029
-0.00134211
0.000309096
-0.000160039
-0.000274255
0.000467224
-3.23837e-05
0.000142659
3.39913e-05
0.000262643
-0.000439295
-7.17335e-05
0.000533661
0.00151938
-0.00198091
-0.00556908
0.0256624
-0.0201326
0.000544274
-0.000587374
4.29517e-05
-0.0113659
-0.00530917
0.0162277
9.42153e-05
0.000105779
-0.000200295
-0.000236281
-0.000678753
-8.03489e-05
0.00099497
0.000810387
0.000366596
-0.000227131
-0.000950018
-0.000837593
0.000723472
0.000241761
-0.000127845
2.05311e-05
-0.000505014
0.000231158
0.000253164
0.000486738
0.000331377
-0.000974403
0.000612509
0.000488193
-0.000126578
0.000240597
-0.000488647
3.59583e-05
0.00021197
0.00377975
0.00919078
-0.0052609
-0.00770837
0.0005342
0.000213373
-0.00021403
-0.000533679
0.00738901
-0.0166058
0.00989339
-0.000853675
0.0012439
-0.000653125
0.000262434
0.000400319
-0.000119682
-0.000605399
-3.02043e-05
0.000574326
0.000266932
-0.00023628
-3.09161e-05
-0.00126733
-0.00132811
0.00224677
0.000348837
-0.00718407
0.00986419
-2.83655e-05
-0.00279527
0.000899106
0.00122531
-0.000749007
-0.0013755
-0.00052153
0.00133593
-0.000696693
-0.000117557
0.000811599
-0.00017161
-0.000488205
-0.000152016
-0.000697378
0.000814548
-0.00103553
-0.000818894
-0.000149232
0.0020039
-0.00355011
-0.00366551
0.00379905
0.0034688
0.0122627
0.00142241
-0.0295105
0.0158285
0.000363929
-0.000842533
0.000602287
-0.000123774
0.000614298
0.000192464
4.4706e-05
-0.000851609
0.00161408
-0.0027615
-0.000342711
0.00149035
0.00132989
0.000235864
2.92172e-05
-0.00103906
-0.00024964
0.00133024
-4.1585e-05
-0.000421189
-0.000330316
0.0010974
-0.00034589
-0.00411154
-2.82867e-05
0.00583321
-0.00169991
-0.0110049
-0.00402411
0.0114129
-0.0377112
0.00834778
0.0153965
0.0139755
-0.000527856
0.000883003
0.00042908
-0.000783987
-0.000950343
-0.000172366
0.00106323
5.93179e-05
-0.00421107
0.000584533
-0.00167312
-0.0062107
-0.00212014
0.010007
0.00516471
-0.00247333
-0.000494355
-0.00219695
0.00134887
-6.10385e-06
-5.5485e-06
-0.00133693
0.000196057
-0.000793631
0.000727895
-0.000130409
0.000516648
-0.000139416
-0.00112803
0.000750555
0.00202844
8.99844e-05
-0.000526597
-0.00159222
0.000703614
0.000534885
-0.000122482
-0.00111623
0.000637756
-0.000599208
-0.000579902
0.00054196
-0.00792908
0.00952182
-0.00148502
-0.00602136
-0.0143228
0.00926193
-5.72458e-05
-0.000225786
0.000328284
-4.51734e-05
9.02108e-05
2.78449e-05
-0.000118231
-0.00143759
-0.000641091
0.0012064
0.000872521
7.80009e-05
-0.000462129
5.21885e-05
0.000331815
-0.000525065
-0.00102618
0.000420607
0.000455274
0.000243508
0.000707766
-0.00140669
0.00013621
0.0117025
0.000864328
0.000292109
-0.00169718
0.000540576
-0.000694637
0.000239439
-0.00177575
0.00223056
-0.000359957
3.00347e-05
0.000407789
0.00289537
-0.00156432
-0.00138131
5.02428e-05
0.000356633
0.000551029
0.000295297
-0.00120247
0.000368707
-0.00130462
0.000137766
0.000798017
-0.00069483
-0.000773328
0.00100528
0.000462844
-0.0252519
0.00246471
0.0226119
-0.000144387
0.000266788
-0.000755239
0.000633137
-0.000120541
0.000101769
0.000163502
-0.000144704
0.000373134
-8.81547e-06
-0.000334838
-2.95769e-05
-0.0149856
-0.0100191
0.000365881
7.1369e-06
-0.000442798
3.08857e-05
0.00124031
-0.000828007
-0.000900611
0.000931216
1.11639e-05
-4.1785e-05
0.00665156
0.00786909
-0.0143937
-0.000116278
2.81026e-05
-0.00116789
-1.9842e-05
0.00115967
0.00230238
-0.000686499
-0.00154769
-6.71046e-05
-0.000785514
2.97855e-05
-5.05853e-05
0.000806306
0.00195133
-0.000402009
-0.000108565
-0.0014405
-0.000889127
-0.00028529
0.000328717
0.00084559
0.000376355
0.00190915
-0.00021545
-0.00206952
5.80327e-06
0.00787536
-0.0314472
0.00577499
0.0182903
0.000124986
0.000612742
-0.000275222
-0.000462668
0.00141751
0.000191365
0.00205131
-0.00365609
-0.000481402
-0.000302581
0.000908748
0.000156349
-0.000991633
-0.000414925
0.00125005
-0.0248507
0.0218867
-0.00747355
0.0107971
0.000866088
0.00104568
-0.0030093
0.00109748
0.00101512
-0.00108587
0.000325861
-0.000255482
0.000521478
-0.000338126
-0.00154688
0.00136317
-0.00108624
0.00468568
-0.00406444
0.0004663
0.0126181
-0.0122274
-0.000115301
0.000940382
0.000401416
-0.00191824
0.00055088
0.000966485
-0.0467374
0.0340094
0.0155154
-0.00274722
-0.000689912
-0.00065127
-0.000197309
0.00153831
0.0031294
-0.0102639
-0.00518817
0.012324
-0.000264036
0.00440585
-0.0119251
0.00778851
-0.00189319
0.000543835
-0.000195377
0.00154514
-9.25423e-06
-4.717e-05
-0.000146147
0.000202279
-0.000454682
-5.24863e-05
-0.0240625
0.0124666
-0.0215202
0.032855
0.000986289
0.00141779
-0.00191542
-0.000487758
0.00131335
0.000662719
-0.00066478
-0.00131042
-0.000373735
0.000105733
6.49101e-06
0.000261535
0.000488507
0.000553315
0.000272422
0.000908495
0.000391554
-0.000883348
-0.000416856
0.00108422
-0.00102824
0.00126618
-0.00132194
0.000336065
-7.05246e-05
0.000404434
-0.000670121
-0.000352599
-0.00058219
-0.000958035
-9.29408e-06
-0.000399749
-0.000378896
0.000788129
-0.000123014
-0.000598954
0.000397579
0.000324795
-0.000202097
-0.000353696
0.000586455
-3.00791e-05
0.0013353
-0.00128605
0.00110197
0.000594774
-0.000360957
4.84986e-05
0.00217181
-0.000905497
-0.00131413
-0.0250845
0.0175117
0.00826317