/*--------------------------------*- C++ -*----------------------------------*\
| =========                 |                                                 |
| \\      /  F ield         | OpenFOAM: The Open Source CFD Toolbox           |
|  \\    /   O peration     | Version:  v2012                                 |
|   \\  /    A nd           | Website:  www.openfoam.com                      |
|    \\/     M anipulation  |                                                 |
\*---------------------------------------------------------------------------*/
FoamFile
{
    version     2.0;
    format      ascii;
    class       volScalarField;
    location    "4";
    object      Qdot;
}
// * * * * * * * * * * * * * * * * * * * * * * * * * * * * * * * * * * * * * //

dimensions      [1 -1 -3 0 0 0 0];


internalField   nonuniform List<scalar> 
108993
(
2.08344e-52
3.92563e-23
3.61883e-45
2.85258e-139
3.59026e-132
8.0236e-110
6.60248e-13
0
4.42348e-103
1.77027e-55
4.45466e-82
3.01164e-88
1.39284e-138
0
6.20689e-93
1.64912e-15
4.21018e-49
2.46151e-91
1.14787e-132
1.15387e-50
8.78027e-133
8.85917e-119
4.89461e-70
0
1.55685e-142
0
0
1.50851e-56
4.96645e-58
4.00704e-95
3.31781e-115
0
0
2.82219e-36
0
3.96892e-124
9.24265e-123
4.46212e-117
3701.01
395.953
2.53893e-51
2.10024e-99
0
5.67297e-143
1.8374e-21
988.159
2.54946e-124
1.15017e-15
0
3.73119e-68
0
1.94417e-07
1.18856e-27
1.03842e-130
1.23871e-81
1.74127e-75
1.57636e-129
0
2.82512e-112
0
6.04518e-112
5.83192e-110
6.4352e-94
1.16417e-127
1.25336e-131
4.41564e-69
0
2.04019e-122
0
0.148656
2.39057e-100
9.32683e-128
2.44052e-123
1.62005e-126
3.33934e-51
7.30512e-107
1.35884e-127
2.39075e-36
2.14318e-130
4.5595e-139
2.45778e-72
0
0
1.99497e-98
1.49769e-90
3.18865e-93
8.9285e-88
3.6153e-83
3.45198e-126
0
1.88745e-125
8.09029e-116
1.06763e-128
0
0
1.8624e-75
1.5452e-115
7.74559e-95
0
3.38927e-121
0
0
6.42995e-95
0
0
3.16043e-127
2.36322e-89
1.05052e-123
6.12124e-138
274
1.43385e-33
1.26496e-124
0
3.07872e-20
0
6.69662e-06
0
2.54945e-71
1.20046e-14
6.31446e-116
6.87622e-82
8.33702e-106
8.64529e-05
2.8643e-58
3.62138e-122
7.49683e-29
1.0523e-46
2.09101e-63
5.13963e-107
5.52746e-111
1.49711e-69
7.27039e-110
1.12754e-100
2.36175e-05
2.57969e-110
1.24239e-59
2.45474e-105
0
3.98669e-92
9.33239e-85
3.57692e-58
2.81512e-110
1.32591e-17
7.46331e-108
1.86653e-109
2.522e-122
2.04672e-98
4251.47
7.20344e-57
0.0217939
0.0117982
9.70194e-107
4.53266e-45
0.0113691
0
2.70402e-32
1.85766e-69
7.21755e-125
1.09094e-121
0.120581
0.0107473
1.25906e-124
3.32304e-115
0
0
8.49265e-15
9.89067e-133
0
1.90763e-125
9.23818e-100
2.85256e-133
9.84434e-84
0
0
0
9.5083e-82
8.67743e-05
6.22303e-126
3.89681e-84
1.06494e-122
1.35732e-53
9.65044e-113
1.07703e-124
4.63747e-61
4.68659e-77
0
0
0
0
4.73712e-60
1.22e-91
9.83047e-125
3.37467e-98
0
6.67523e-105
6.48404e-43
1.23915e-48
2.78134e-103
2.97523e-105
1.9052e-61
1.10766e-126
2.79815e-08
2.02981e-124
1.30406e-119
7.36331e-07
0.000220362
9.24137e-79
198.977
8.68599e-88
0
0.0819178
2.74021e-113
0.000695558
237.595
46911.8
1.43574e-110
3.47284e-82
1.94895e-77
3.25307e-123
2.236e-109
1.37965e-79
0.0192444
9.43852e-28
7.42292e-08
0
4.97543e-125
1.66714e-124
2.0251e-67
0.00022162
1.02358e-84
6.5166
1.02298e-89
1.65773e-124
0
0
0
6.52138e-115
8.53355e-110
8.35886
0
3.13626e-120
3.22081e-78
0
0
4.11941e-115
9.8578e-16
257.988
0.00756852
1.40701e-119
2.71882e-118
4.16552e-108
2.0531e-126
3.71785e-96
3.03757e-103
2.81532e-122
2.28622e-121
1.53502e-120
1.05959e-65
3.55394e-108
5.60644e-113
1.00574e-72
0
2.97222e-30
2.63684e-26
0
4.95687e-70
6.41137e-73
5.13316e-64
0
2.39068e-90
7.77388e-141
3.31721e-51
105.011
1075.5
2831.27
2.61848e-89
2.37437e-120
0
0
1.39549e-53
8.58547e-52
26.1313
52.6469
2.1338e-101
7.42927e-101
4.69602e-48
0
9.41532e-56
2.3e-55
118.818
8.21664e-82
1.96762e-81
2.39988e-55
9.77268e-80
3.5614e-98
2.9375e-71
3.9744e-111
5.27368e-76
4.57579e-21
1.09093e-136
0
2.26022e-05
1.21472e-98
6.96852e-139
2.24657e-96
3.5181e-58
2.63902e-118
5.44931e-44
6.92244e-56
134.9
0
2.42769e-109
4.5233e-41
4.62033e-112
8.17745e-53
0.00534045
8.35925e-131
1.00423e-42
1303.47
0
3.37684e-35
4.57619e-130
1.55072e-64
0
0
1.18094
0.0704073
1.44449
1.49659e-109
3.51e-40
4.38744e-84
0.985047
1.25068
8.13024e-90
215.36
0
7.24327e-111
0
1.06069e-93
1.43074e-104
0
4.41104e-10
1.25089e-63
2.36304e-86
4.80803e-83
7.8482e-91
4.95732e-63
8.41416e-102
5.00626e-146
2.45192e-61
2.99124e-90
0
12.482
42.4313
0
0
1.7447e-83
212.64
5.83873e-94
2.39082e-125
9.52366e-42
5.36512e-63
1.67454e-64
9.66329e-63
4.25468e-54
2.11081e-56
3.23367e-65
6.31066e-105
1.12709e-94
20810.3
1.1439e-26
4.6649e-49
9.16406e-60
0.0245054
1.09626e-54
4.72405
4.0065e-54
0
0.0334303
7.21722e-90
1.78011
0.282014
5.81364e-58
7.14335e-11
3.41533e-84
3.85769e-77
0
28.1188
1.0346e-60
453.716
0.393044
6.90255e-79
1.05712
2.92136e-78
44.5291
1.0517e-55
72.8139
2.76075e-130
4.59563e-26
2.72728e-104
8.9692e-54
3.03438
1.03593
6.38239e-110
1.09985e-86
9.60029e-81
1.09503e-74
1.70879e-100
2.64673e-40
70911.3
0
1.57919e-71
555.218
9.25758e-94
0
1.49005e-100
5.32003
1.43354e-05
12.8417
2.67265e-126
352180
3.39757e-27
89.2022
1.07953e-128
1.87407e-128
0
1.86474e-116
1.17822
0
2.65584e-143
0
10464.3
0
1.32938e-112
3.4104e-106
0
1.89626e-103
5.10468e-79
9.74517e-115
9.88714e-99
5.95e-83
1.58281e-69
1.89451e-65
3.38337e-109
15.6253
1.79124e-18
5.0704e-24
1.42404e-14
5.76511e-68
0
0
9.49992e-131
1.18852e-67
0
5.31733e-113
6.23819e-95
0
0
1.82138e-80
0
3.06314e-08
2.30808e-43
3.10437e-06
0.000415981
3.76786e-16
2.82047e-52
3.52074e-64
1.48674e-07
5.11236e-51
1.48753e-48
0
0
1.77546e-104
6.24992e-38
7.38554e-119
0
0
0.00269151
8.57087
8.88726e-14
0
1.2539e-97
3.99525e-96
3.66045e-66
2.12653e-33
3.76294e-53
1.06176e-48
4.44996e-53
0
3.04505e-36
0
1.53577e-58
8.04169e-25
1.43775e-48
9.82875e-18
0
2.221e-32
3.05245e-81
1.70762e-61
8.62351e-35
2.10182e-117
1.28196e-95
0
4.01539e-56
9.99303e-28
4.15391e-06
8.99295e-64
4.97587e-96
38.5632
7.80726e-61
8.38132e-19
4.93929e-24
1.59811e-100
3.69389e-56
1.92292e-63
1.1135e-119
6.03968e-92
5.63663e-65
0
0
1.02544e-81
1.22211e-82
2.72779e-25
0
3.29463e-58
0.000204761
0
5.00003e-69
4.14831e-05
8.23658e-40
5.24763e-88
8.30774e-114
3.96799e-06
1.37755e-79
6.86695e-116
0
3.66137e-43
6.66919e-91
2.39177e-33
79.1931
3.74653e-92
415.622
8.90558e-138
3.39794e-89
0
0
8.6077e-97
0
0
7.38143e-123
0.00102339
0
214.292
0
3.56664e-85
0
0
6.60078e-44
0
3.12005e-40
3.81844e-40
1.23346e-101
3.46341e-55
1.04157e-27
14.603
0.0651296
5.22869e-74
1.04974e-95
5.0877e-45
2.73158e-53
1.24487e-54
2.23434e-28
1.62092e+06
16.8301
1.67226
2.3783e-36
0
9.60222
0.000415158
1.80606e-05
1.59471e-42
2.3228e-64
1.57855e-60
3.78951e-115
1.81536e-72
3.31777e-22
210.284
22.8991
1.26504e-82
3.36919e-122
1.74411e-42
2.52209e-111
2.52188e-42
1.28846e-62
1212.46
6.66109e-96
4.85484e-100
1.15547e-113
9.41855e-20
2.15731e-21
1.5502e-56
6.42436e-72
0
2.50473e-44
0
0
0
2.89745e-111
5.14747e-35
0
0.00178936
1.23497e-50
6.35271e-05
1.49526e-54
2.64358e-35
0
1.5077e-25
3.58532e-113
28.7991
1.21968e-125
2.01549e-12
2.3498e-122
2.11081e-58
226.002
1.1701e-30
4.75804e-104
1.42748e-93
2.3402e-09
3317.24
2.73512e-28
4.1797
2.514e-46
4.51475e-07
3.25658e-05
3.20209e-28
6.35107e-99
0
128.391
2.29262e-14
2.9735e-19
0
5.83142e-18
3.91877e-79
3.93851e-24
3.7518e-98
1.31448e-26
4.28842e-54
2.6968e-17
3.34306e-26
4.16713e-28
8.94772e-30
7.92258e-15
71.0774
29.6432
0.0476876
3.15855e-40
0.00174904
59.2998
20.7617
101.291
25.8306
0
8.01239e-35
2.21209e-81
6.56394e-100
8.08391e-58
3.96944e-45
3.686e-37
64.2524
317.389
3.10186e-34
1.37833e-26
8.35682e-17
54.3494
59.3723
0
5.80608e-13
2.15842e-12
1.19324e-106
1366.69
1.6164e-18
6.53096
2.16089e-13
8.54811e-32
1195.97
2.06401e-32
6.92382
2.95742e-14
8.81893e-14
8.7647
0
1.71193e-56
7.71229e-24
0
1.47475e-60
65228.5
3.72424e-28
17.9012
4.18231e-26
95.8346
1.20296e-26
2.46041e-92
8.92253e-122
0
9.4815e-24
4.11003e-128
3.44233e-28
6.47122e-56
4.59047e-101
0
2.86589e-23
303.508
61615.1
4.75174e-66
72.7264
1.58091e-52
1.88103e-24
6.60346e-11
0
8.38593e-27
0
1.24897e-22
4.83289e-13
9.22903e-16
0
2.01176e-22
1.52753e-16
0
4.07055e-11
0
2.7049e-17
1.46565e-21
2.77707e-14
1.88779e-19
8.43696e-63
2.13458e-135
2.92384
5.77896e-127
8.3804e-53
3.34441e-20
7.01756e-77
3.5615e-17
29903.7
375.212
1.24545e-33
1.04804e-22
4.05841e-26
1.43367e-26
4.47402e-30
3.37843e-15
1.95899e-72
0
2.41083e-128
2.00956e-31
1.1051e-129
7.95144e-19
5.07713e-127
2.95579e-22
0
2.24204e-59
6.59665e-25
3.11763e-123
1.47719e-29
3.97597e-45
5.18314e-05
0
3.00048e-27
41.7683
2.64189e-145
3.9658e-65
9.98454e-42
0.00239396
2.39935e-113
0.0104678
0.0102305
0
2.56524e-40
14526.8
0.00200137
2.98051e-44
2.34614e-63
0.0382093
1.16006e-40
4.71302e-42
1.23195e-26
1.08808e-69
1.83951e-17
0
6.48785e-96
0
1.24935e-120
3797.26
1.01071e-102
2.40785e-74
9880.35
9.07304e-32
1.95537
2.67583e-49
6.23943e-05
7.06742e-92
1.67176e-19
9.8967e-31
0
1.76744e-48
2.23167e-34
7.55312e-93
0
0
2.52057e-70
1.33744e-72
1.87721e-40
2.27714e-54
0
0.000487548
7.21059e-80
0.0985487
0
3.19468e-79
854209
0
35969.7
2.44916e-58
4.9462e-76
0
0
1.64037e-15
3.52894e-58
3.37055e-08
7.58532e-08
1.54678e-24
4.51623e-15
167.275
1.37545e-09
5.94555e-39
1.27418e-15
1.0942e-59
3.68279e-35
0.0134165
14706.5
4.98753e-34
5.31008e-65
5.16665e-38
0.00705848
1.00421e-31
8.80081e-54
0.00060181
8.34033e-51
0
4518.58
6.32693e-39
0
0
406.346
1.35758e-37
3.84454e-23
2.49823e-87
2.00458e-10
1.19409e-26
1.09718e-79
1.32226e-88
8.14619e-91
1.11117
1.81503e-34
1114.44
4.78953e-107
1.44239e-102
3.95174e-60
5.16825e-08
8.86882e-42
2.54009e-08
0
1.34537e-66
3.1994e-15
181.019
6.91567e-95
1.26467e-09
1.73604e-22
1.0558
0
9.14714e-09
30.5916
2776.08
1.82156e-29
1.12191e-17
7.90247e-54
0.303254
5.75023e-125
1.165
5331.4
7.92417
0
1.51757e-107
1.71565e-12
9.10289e-27
1.76484e-39
7.17913e-101
4.12416e-136
6.69975e-22
2.55296e-05
0
7.32445e-05
5.43678e-20
9.95789e-48
0.0231518
0
7.65647e-92
0
17.4702
1.66416e-45
2.09957e-16
1.1536e-154
4.49082e-99
2.60591e-24
5.60866e-10
29.0933
1.95047e-58
7.49069
0
4.41238e-26
5.70119e-37
0
6.02981e-26
0
0
9.68004e-127
8.31756e-29
6.42684e-51
8.57268e-11
2.78387e-90
1.86067e-106
2.2118e-13
1.38298e-103
9.39961e-20
1.03519e-27
1.87478e-28
4.361e-32
5.13421e-93
1.43005
7.04081e-92
19.5075
1.75285e-37
7.65857e-40
8.08658e-117
1.6103e-43
6.03259e-10
0
0
465.451
2.66599e-16
8.80081e-11
1.54378e-99
1.50989e-35
4.69883e-11
0.00369777
4.42252e-85
3.44628e-07
27.3959
3.18137e-34
6.90446e-49
1.1343e-32
6.26775e-42
8.90149e-43
5615.75
4.41294e-13
0
9.84081e-05
6.07313e-34
8.8279e-18
1.33728e-43
3.64749e-32
0.00177426
0.0361314
0
3.31329e-117
0
0.0188319
0
4.57815e-100
1.43472e-121
0.0153539
5.34145e-47
5.1217e-48
2.06677e-50
0
3.08101e-55
1.09759e-52
3.39883e-54
1.19764e-12
0
2.45024e-59
0
2.79371e-118
6611.91
1.69734e-96
1.933e-57
2.66499e-100
0
1.07157e-95
17.819
9.07136e-07
9.21348e-77
1.88071e-48
0
7.44999e-39
4.3516e-13
1.10174e-23
1.83444e-78
0
0.00135284
3.21616e-95
0.000338091
2.6088e-09
7.85038
5.2239e-110
6.97731e-45
3.17558e-46
1.8471e-98
8.84851e-49
2.66819e-26
2.63587e-106
7.20442e-113
1.03404e-48
6.63628e-94
18.1911
6.28496e-51
6.15747e-26
8.86302e-117
4.80307e-50
2.62172e-29
0
0
3.59756e-55
0
2.36883e-80
7.70388e-37
7.18041e-21
4.88099e-89
7.37652e-137
7.11768e-98
9.27633
9.78935e-62
4.97193e-17
2.85026e-104
5.73794e-12
3.54656e-19
1.93958e-105
11.1797
1.99579e-41
1.44589e-23
1.3373e-24
40.5272
1.57028e-38
0
4.35799e-20
16.2418
2.72771e-75
9.69342e-102
0
3.18089e-15
3.1541e-14
60294.7
4.08907e-11
1.29595e-81
1.69917e-31
0
4.9324e-08
2.48645e-36
2.3021e-08
4.56105e-32
9.27598e-10
3.09066e-24
0.0315181
1.87493e-10
0
1.52868e-77
0
0
5.25661e-70
0
1.16738e-131
1.04736e-28
0.910507
1.82056e-63
4266.14
2.30928e-22
1.56749e-61
2.25009e-69
6.10386e-15
1.99355e-09
0
6.92647e-22
2.03304e-47
1.2749e-49
0
1.34664e-32
0.00189887
2.06759e-12
0
4.07334e-07
2.37223e-111
1.45984e-57
6.93267e-51
3.10962e-117
0
1.05583e-53
399203
9.43664e-28
5.07216e-133
1.07023e-53
2.88122e-117
6.5588e-68
6.72038e-83
3.76946e-122
2.70116e-34
3.67264e-47
7.00035e-53
0
1.94339e-52
1.23194e-52
0
2.58527e-48
0
3.88522e-69
3.80521e-95
4.3376e-34
0
0.0712952
9.44673e-25
1.50137e-35
198.869
2.79752e-47
5.05136e-136
1.25261e-28
0
3.3204e-83
9.80018e-47
1.26719e-63
1.34149e-43
9.48318e-64
0
1.14725e-65
3.29228e-34
4.33206e-67
2.03324e-66
3.31378e-48
1.91778e-68
11.7233
0.119193
0
2.25987e-87
5.4863e-81
1.08061e-41
3.87633e-39
0
0.121123
9.1558e-107
0
0
4.27593e-100
0
7.48854e-63
1.45666e-17
5.02729e-41
1.63504
1.63214e-32
8.37239e-32
6.37496e-27
0.00603541
1.91216e-17
1.38495e-20
0
3.02477e-32
0.000548671
1.78595e-137
2.60175e-13
3.78435e-78
1.18264e-80
1.46226e-80
49.063
9.29877e-12
0
0
1.09149e-102
0.127817
4.54067e-05
5.21922e-77
2.79395e-59
1.91974e-48
4.04744e-39
2.52187e-46
4.79246e-36
3.06997e-128
2.49314e-05
73.8972
1.02326e-10
1.91337e-82
1.67648e-141
4.19322e-10
0
4.43958e-111
2.04718e-109
0
1.18388e-104
0.667712
4.30038e-05
66.9278
0
0
1.42134e-86
3.39802e-06
4.26882e-13
7.14741e-61
1.61889e-111
3.63876e-05
1.13722e-24
8.92811
0.00650556
4.74111e-19
0.0108709
3.69758e-56
0
1.9475e-34
1.12792e-104
4.54735e-38
2.17607e+06
4.17375e-87
0
2.71959e-90
1.05223
0
6.01998e-85
8.58184e-24
1.74815e-38
0
121.865
6.08706e-86
3.00607e-27
9.30575e-41
2.68885e-12
9.28419e-98
1.30467e-38
4.62991e-108
6.01688e-25
0
0
4.14338e-22
1.84771e-97
136.064
4.93973e-90
4.0446e-104
2.85334e-102
6.54097e-34
1.57705
0
2.30486e-15
2.73517e-34
0
0.0346698
2.68844e-80
0
5.6432e-17
2.01375e-56
13.9242
5.03766
1.26415
5.12075e-13
3.27625
0
11.9851
13.6643
0
0
0
1.33143e-35
1.4694e-54
1.76093e-92
1.21488e-90
1.50544e-69
0
2.88289e-50
2.29441e-52
1.56009e-13
2.43242e-104
7.18288e-55
4.47192e-83
5.10515e-31
1.09194e-80
7.40099e-85
2.51479e-70
0
0.0788683
7.02854e-84
0.760155
6.29746e-24
8.5346e-64
2.19849e-37
1.00741e-65
2.82885e-17
2.1696e-92
9.66434e-43
5.46154e-18
1.79017e-82
9.92307e-34
3.5676e-32
3.90743e-102
1.20339e-32
14.0626
9.96244e-34
1.80223e-32
2.83603e-32
2.85714e-17
1.41193e-20
3.63948e-30
3.4596e-81
1.34976e-94
1.52307e-68
4.09755e-29
1.62636e-93
4.08402e-118
3.5004e-31
0
2.74724e-50
2.96848e-39
0.0505308
2.0146e-31
6.1073e-12
154.821
2.00743e-97
0.000502535
2.50958e-115
0
4.74851e-90
4.81915e-67
6.58223e-89
595.965
19.6939
0.000110106
1.37471e-21
192.031
2.37803e-09
4.35029e-91
3.99734e-54
1.14275e-145
2.14499e-26
5.09421e-28
2.27234e-40
0.0495006
2.97163e-116
6.18827e-114
1.6455e-40
7.74584e-23
5.32885e-92
4.1785e-32
5.55113e-31
62361
14646.3
8.21582e-22
4.1291e-109
0
6.25739e-79
9.00441e-45
1.02965e-12
8.67115e-35
3.49643e-30
1.03151e-83
5.38387e-45
5.25447e-32
2.13892e-24
27.5931
7.09506e-21
6.78063e-38
4.44823e-07
0.00153303
4.79385e-43
1.33428e-20
7.92328e-05
3.52469e-48
3.23166e-38
8.63182e-33
0
1.13203e-36
0
4.94188e-37
1.63714e-23
4.46451e-13
323.107
0
1.3844e-34
95.0525
0
5.86035e-101
175.763
1.46892e-75
1.43365e-120
0
3.41456e-52
6801.32
1.61596e-90
8.74767e-86
0.136468
0
2360.08
0
376.033
0
9.78543e-58
348.101
4.64538e-15
4.37136e-61
95.6502
6.07577e-37
8.59356e-42
1.67305e-16
3.34864e-108
0
3.46291e-93
818.242
9.97308e-20
1.54385e-52
4.15387e-05
6.59824e-86
2.33204
414.274
1.61481
2.22458e-10
26.8175
3.54621e-77
8200.05
1.25214e-63
2.28685e-66
0
0
1.17041e-115
0
1.23753e-97
2.24578e-115
0.118348
0
3.15149e-14
3.13505
0
1.70916e-78
0
0
0
2.36738e-101
3.0888
0.301829
0
1.0245e-71
8.76862e-65
8.87656e-18
9.58789e-20
1.63106e-59
2.28973e-31
2.15512e-68
1.96669e-66
0
1.0916e-06
31915.8
1.54003e-15
243.075
0.0164447
8.90354e-65
4.03458e-24
0
1.45207e-75
2.78852e-78
2.81286e-74
39.1682
1811.47
18.9441
33.1691
2.94716e-90
2.52962e-122
202686
2.67685e-84
8.30011e-08
2.43096e-57
2.20564e-80
2.86293e-29
1.64604e-88
1.22978e-12
0
2.06785e-10
54.7516
2.69167e-05
1.24247e-09
8.72733e-08
2.61637e-14
1.42709e-122
0
0
4.2922e-84
0
7.60465e-77
2.75756e-107
1.41207e-74
4.18591e-40
3.90008e-107
3.8412e-18
0.551411
7.07655e-06
1.28616
8.31071e-104
2.27192e-79
434.569
0
8.07645e-88
5.19374e-06
6.44266e-79
0
5.06392
168.204
58.9183
2.40331
9.92626e-75
1.09455
15628.8
12.5607
2.93841e-81
74.8098
5.74804
3.97989
87.4875
0
183.464
1.48056
1.38954e-78
1.00131
0.0680534
2.98093
1.49203e-16
0.208836
7.1529e-18
0
45.4286
9742.34
241.046
1.34982e-95
8.53488e-112
38234.3
4.70515e-139
4.32791e-25
3.10363e-11
1.37358e-111
82.7175
5.99925e-18
3.26508e-55
5.75367e-45
1.64657e-46
8.70466e-53
2.1563e-19
0.0304587
134.418
11.5899
3.11442
0
1.28372e-07
1.39941e-19
2.40025e-45
3.52212e-71
7.80016e-57
3.33831e-43
4.04366e-52
2.92064e-64
2.12837e-43
7.05691e-39
4.61144e-46
1.43784e-54
3.02822e-31
1.61358
4.87721e-21
0
614.494
7.56549e-17
4.48415e-99
0.661682
8.85483e-55
9.93393e-49
8.03941e-50
0
2.59365e-99
0
291.452
6.01912e-07
9.00867e-24
0.585801
40.0867
1.03367e-15
0
16.0597
0.305338
2.71274e-18
10.2072
8.07507e-93
3.56855e-14
0
0.0784813
7.4214e-46
6.96535
1.44291e-70
1.63187e-107
2.22127e-122
0
0.138365
6.00207e-114
23.2656
0
4.69116
0.490712
3.65443e-76
9.54837e-98
51.2373
3.30291
151.831
3.83327
1.47508e-107
4.85456e-05
60304.8
3.2352e-92
6.87325e-59
4.50075e-17
0
13.5201
2.05231e-63
19.3285
0.427953
72.4595
8.84887
116.429
0.0964698
15.8277
3.81754e-40
111974
875137
8.37854e-16
56.4983
0
1.99168e-08
11.8043
2.83513e-53
119.69
1.65132e-18
1.15484e-29
0
1.51415e-19
0.424074
6.9556e-33
0
0
1.52241e-30
2.94202e-126
0
1.49347e-30
1.22742e-48
19978.9
4.62297
2.68759e-39
19.9966
7.44312e-15
7.86719e-129
2.28158e-26
23.0684
722.556
7.65996e-06
2.34125e-06
6.53898
0.452953
155706
6.84323e-07
8.60118e-32
267.488
4.98144e-41
2.27942e-39
1.31531e-43
0
5.18894e-25
1.14488
0.00501102
2.07506e-11
0.00390096
59.0253
8.83675e-29
9.26127
1.64201e-19
0
1.00441e-91
7.36066e-30
6.99282e-70
5.84423e-26
0
22.3243
6.77148
64247.3
2.1391e-40
3702.7
1.05522e-39
66.8715
1.75917e-29
0.0164808
0.000230609
74.6406
7.11278e-43
4.41646e-39
4.24112e-71
7.2073e-100
7.97527e-127
0
4.56211e-13
0.731946
1.4562e-30
11.9336
10.3088
6.4277e-29
72.1054
40.2592
51401.8
42.6167
3.5272e-122
0.150678
1.36975e-07
6.06731e-110
2.93868e-68
2.62322
13.3128
5.78454e-129
1.22718e-94
0
2.01569e-55
0
6.43981
5.60026
20.2958
2.20997
5.84568e-102
4580.05
5.13164e-19
1.4887e-126
3.40152e-32
7.56237e-66
0
16.316
0
1.77984e-41
202021
0
4.77811e-37
2.4019e-42
4.5394e-42
1.36053e-114
9.99904e-64
0.0226929
1.35636e-23
7.71753e-42
1.83858e-05
1.40416e-07
318.029
2.7629e-40
3.92778e-38
6.27378e-53
1.80628e-39
1.43108e-31
1.52713e-41
0.220779
85.2118
1.08782e-41
0
17574.4
8.81234e-33
1.48672e-116
4.4964e-34
1.28516e-32
0.0541449
551.986
8060.53
0.186079
5.64662e-08
5.37508e-123
78.0441
3.21916e-31
118.538
218.833
5.16551e-92
4.33139
7.57453e-85
2.52299e-79
275.466
0
1.00842e-26
371.007
7.71075
578.023
760.984
1.05396e-54
0.494836
6.62252e-10
30.1599
8.53512e-59
3.28731e-11
201.29
495.207
269.535
10.2573
2.17729e-14
2.02979e-55
0.000765906
5.01096
169.787
12.5564
6.645e-08
365.011
6.55143e-89
0
819115
496.559
0.0573003
5.82342e-05
26.3305
0.160468
10975.2
0
3.14836
5.24892e-97
641.077
1.89943e-54
0
5.25506e-05
5.83495e-66
1319.69
1.53769e-57
0.891896
1096.76
1.80848e-78
7.98286e-52
91.7869
3.25717e-55
5.75857e-65
1.63002e-111
9.70498e-108
2.46658
3.04916e-97
1246.81
149.332
5.07289e-108
9.39194e-108
40.5703
3.45911e-60
0
8.57213e-06
1.62777e-101
1.78524e-97
0
1.77324e-62
13.1133
16.6984
3444.03
3.0981e-59
0
591.674
9.81579e-77
12.775
116.154
0
1.32192e-125
2.93044e-28
9.22657e-47
154.493
0
5.94423e-62
4.91245e-139
5.11119e-119
0
24.9379
7.70759
1.74519e-29
8.30969e-52
0
2.06762e-43
3.12419e-21
5.04519e-141
0.00949097
2.66515e-87
11.5096
97.4571
4.10223e-89
1.8633e-106
3.32684e-30
2.03752e-19
132.7
0
14.1021
1.26438e-13
0
9.0389e-20
2.71848e-10
3.63493e-78
1.51979e-26
2.55266e-71
497.202
3.64306e-72
0
0
6.55617e-26
2.15002e-77
142.916
27.4716
0
0
152.355
4.08435e-126
10.1091
4.26059e-32
0
28398.2
6497.29
7.64314
2.55524e-37
9.90825e-59
0.000225556
5565.15
5.52532e-54
259.118
2.22957e-59
1504.36
7.3555
1.14293e-59
22.4931
621.906
1074.21
10842.9
200.788
2.83849e-26
3.84435e-64
1.73615e-98
9.76862e-05
0.000107403
1.25356e-09
222.87
7.58932e-44
0
2.81371e-62
0.0023121
1594.42
708.52
9.68944e-63
1.92002e-15
16.3047
4.03393e-123
47.3001
1.68714e-48
2.77212e-103
8.32661e-103
2391.44
233.457
225.268
0
1.69066e-90
5.23615e-57
1832.53
7.25209e-13
6707.5
1.90042e-125
0
77.7664
0.000154607
6.04376e-130
5.34502e-52
22018.2
1.34924e-47
1.46286e-47
4.7837e-08
585.763
1.10624e-15
1.32407e-06
1.57693e-130
443.579
221.881
1.21607
7.77844e-10
2.12563e-53
76.1632
3.11928e-75
0.530759
684.123
20.0286
9.00071
290.37
3.06846
2290.56
2.93148e-134
1.98239e+06
194.052
2.26264e-07
2.85021e-132
0
1.36441e+06
1.28791e-124
134.577
0
0
49.5826
1.49304e-131
3478.94
0
3.95877e-06
189.952
55.9577
8.97949e-77
5.49456e-130
4.35442e-35
1.79968e-22
127126
2.56784e-92
66.374
19.7165
2.64888e-120
5.67713e-125
1.83853e-127
1.86352e-48
1.73986e-25
0
6.80171e-15
4.36552e-55
1143.56
1.21576e-49
41.0477
3.6693e-122
1.21651e-10
0
2.93212e-36
0.35826
2.80935e-126
1.8218e-122
3.21726e-58
1.71865e-36
6.77493e-29
3796.33
2916.93
7.97336
1.23156e-13
4.2168e-31
0
0
0
3.29859e-41
7.09051e-28
3.12515e-62
2.81443e-21
2.15e-19
1204.2
2.41458e-34
6.18959e-33
3.34581e-56
2.48435e-27
8.58762e-19
4.08673e-98
7.33453e-12
1.91692e-73
2.57819e-17
1362.39
3.05089e-35
0.748201
3.31845e-69
5.33295e-30
0.00154661
0.00120265
8.36421e-91
1.35694e-46
5.88063e-57
4.07072e-60
9.42869e-50
1.0745e-65
1.49854e-28
3.92395e-12
7.88842e-38
3.2309e-59
1.02637e-76
4.08897e-61
6.60705e-05
1.094e-59
2.58585
2.4449e-64
1.73978e-13
4.62787e-60
0
3.84878e-11
0.146377
0.000187876
6.28384e-47
2.09234e-97
6.61367e-90
35.1549
108.975
0
6.42823
852.718
1.40105e-80
5.22312e-29
0
1.83971e-05
103.155
7.00243e-64
1.27858e-45
1.51904e-12
0
480.038
1.21933e-46
6.11575e-97
3.71664e-70
1.12312e-45
1.19907e-51
1.02894e-95
2.40023e-76
4.43247e-58
1.30334e-91
2.10307
2.5921e-56
0
8.24356e-35
3.21456e-93
6.47518e-38
0.0970415
9.85448e-58
1.50629e-96
0.0510582
0.0168224
5.27645e-43
4.13073e-90
2.70331e-122
2.53649e-31
9.10493e-11
0
5.55837e-61
4.24171e-05
8.63349e-46
5.20237e-44
2.30714e-41
3.07683e-39
6.1521e-52
2.70819e-91
6.17344e-22
4.21854e-13
257.534
1.32796e-10
601.257
6.53462e-25
0.000154739
0
1.81503e-55
607.554
5.1648e-90
2.61757e-66
1.03663
0
291.589
0
4.24903e-88
5.21731e-22
0.813507
0.012303
0.000284154
0.0290077
3.85625e-46
0.000222452
0.356286
3.33958e-91
0.0132832
6.13391e-71
3.28883e-12
2.11549e-05
1.42134e-27
0.586071
1.10834e-06
15.7083
3.96428e-20
5.44207
1.66937e-05
2.43204e-28
2.51813e-85
0.00345543
6.53408e-25
1.99461e-24
1.49899e-44
3.6287e-93
2.04107e-06
5.82573e-44
4.66233e-40
2.05749e-18
2.30035e-83
7.72734e-87
1.28015e-45
1.65497e-21
16.9743
2.92265e-73
2.94498e-37
1.00138e-26
4.91114e-71
2.86378e-19
1.84248e-70
4.89362e-37
2.00781e-37
5.68531e-46
4.31916e-72
2.16826e-72
2.44375e-64
1.59424e-68
6.417e-66
9.4662e-62
2.092e-51
0
9.87818e-84
4.10272e-06
0
2.37933e-08
80.4938
1.1839e-102
2.27744e-32
2.22731e-15
4.24608e-69
4.13034e-68
5.93605e-37
1.89333e-121
2.32272e-71
1.42897e-18
5.65098e-12
9.67158e-40
1.42304e-65
2.24073e-26
6.26786e-124
1.64156e-30
0.00333772
2.05211e-122
4.75844e-73
0.000363116
9.13588e-123
3.66663e-72
1.23189e-14
2.88801e-79
1.45208e-09
0.178036
1.67119e-37
8.07002e-125
1.67362e-09
1788.06
23.6103
3.55687e-40
1.1773e-88
0
3.22719e-82
0
2.23622e-53
5.58854e-91
7.55975e-92
2.05186e-52
149.246
1.54577e-64
1.3602e-91
3.71113e-90
612.576
11.9337
9.7008e-07
144.917
2.4875e-06
5.5769e-63
9.19121e-14
0
2.16897e-79
3.93628e-65
0.0163431
0
1.1852e-66
17.1004
166.265
6.32611e-57
5.15745e-60
324.11
0
1582.66
3.19465e-57
0
0
1.13369e-44
96.8862
1.1006e-56
118.42
0
5.43356e-83
49.1838
8.0936e-60
0
1.35521e-06
133.777
2.96703e-62
4.5691e-16
51.3515
5.37557e-84
8.04571e-09
169.668
2.57322e-08
7.26939e-18
1.12129e-65
7.75813e-07
7.96627e-05
3.19286e-09
11.9297
0
1.83134e-64
5.03571e-39
3.97411e-44
2.44378e-41
6.671
0
9.69784e-28
1.82201e-71
12.6252
5.59032e-26
1.90234e-41
3.36771e-34
0
4.77085e-14
8.693e-96
9.41822
59.3213
1.17418e-70
1.10094
12.6513
66.6314
7.94505e-88
4.67853e-43
2567.33
1.77644e-104
5.49983
1.90548e-35
1.20015e-15
1.94003e-79
13.0827
1.13409e-104
1.01483e-104
1.99577e-31
1.0557e-106
3.8637
1.47459e-16
6.24271e-17
50.375
0.914363
0
6.73776e-50
6.82409e-15
8.37187e-52
3.27391e-95
8.07629e-61
0.0123077
5.25192e-53
0.0586622
1.2335e-35
4.1928e-15
104.58
2.08428e-15
0
31.2122
20.0638
0
0
0.00079169
1.42599e-25
18.5386
0
6.7524
7.65952e-13
3.14784e-07
13.4294
18.4654
1.75518e-07
2.96139e-13
12.1884
3.54926
6.21539e-84
9.57686e-43
20.1599
4.15267e-32
0
4.05736e-10
3444.19
9.80087e-24
3.82431e-42
14.693
1.75987e-40
0
2.75566
2.33087e-56
79.3166
9.59173e-69
0.058241
7.05234
51.5608
0
1.09921e-76
0
7.18584
2.96518e-35
0
1.48913e-30
30.1752
60.8502
0
5.97837e-66
3.97582
11.0916
19.5209
86.7949
23.679
0
7.8743e-16
4.18597e-67
1.64409e-31
8.67275e-103
0
1.52076e-66
2.35557e-34
1.11564e-85
0
0
620742
5.36115e-44
1.68697e-44
2.56897e-85
7.41653e-22
6.28038e-38
8.03734e-80
18.1137
3.93159e-68
0
3.51257e-45
0
2.42439e-39
5.36681e-88
1.18283e-31
2.87439e-66
4.87736e-20
1.4311e-26
75571.2
5.08758e-68
1.26862e-06
1.02513e-06
4543.24
0
3.04695e-27
0.00405354
1.13874e-107
0
113547
4.0997e-58
8.09184e-36
2.24948e-103
6.06849e-82
1.75582e-45
3.6007e-55
7.24491e-108
7.71959e-81
9.68398e-35
5.51467e-74
2.38309e-22
17.9253
7.16965e-107
0
0
2.93403e-17
2.71752e-33
4.13233e-76
3.28708e-108
4460.91
2.17472e-77
0
0
4.81724e-23
0
1.13468e-117
1.94914e-137
483.185
8956.43
1.36791e-95
12.2138
1.02823e-77
6.29701e-117
0
5.60615e-14
1.16773e-79
1.83116e-32
1.05878e-05
4.79588e-35
1.5273e-78
0.0909498
0
3.78815
45.7275
4.05159e-52
7.2073e-72
0
156.538
0
8.49387e-34
4.51741e-63
1.22399e-63
6.44483e-65
1.56519e-70
2.05167e-68
0.220321
2.41662e-62
2.51977e-27
2.99294e-20
34.3712
78.5733
4.08972e-68
15.6712
5.24258
8.71631e-82
12.9944
1.6875e+06
0
1.22878
8.15088e-07
2.05089e-45
5.01302e-48
3.57464e-79
0.000137552
17.9365
3.4794e-87
2.78218e-89
1.15738e-52
1.74084e-76
0
0
0.441596
1.29172e-06
2.07514e-21
5.53072e-57
3.49036e-08
42.6283
0
1.08474e-37
0
152.767
20.0101
8.66997e-81
5.64903e-38
0
1.58498e-27
6.43841
115.23
0
2.27341e-16
1.75491e-13
0.438863
1.42404e-129
2.19342e-88
7892.54
2.43124e-82
2.03521e-82
3.55625e-102
4.52445e-86
1.13779e-11
7.45326e-24
2.15554e-22
1.09198e-26
0
2.81788e-60
0
1.55336e-104
214.927
135.11
1.85668e-103
3.66895e-13
2.52212e-106
0
1.1722e-87
4552.2
2.89226
188.004
4.09752e-37
0
2.6477e-126
0
3.48288e-05
1.94335e-17
4069.23
5.91772e-44
7.56703e-101
3.93889e-60
735.651
21488.5
2.63759e-05
0
23561
66986.6
1.47156
3.21175
24.1323
2.57235e-11
61.4286
0.661835
0
0
7.10243e-116
3.60134e-66
2.95203e-103
2.71742e-52
18.2209
7385.24
29.6075
0.423882
10.2259
1.22876e-30
0
0.000956919
9.42865e-07
0
56.6395
0
5.7407
3.84953
0
0.750471
31.8814
1.30696e-63
0
1726.59
0
3.32233e-122
44.7495
104.98
0
3.51665e-98
2.04467e-79
6.97579e-93
1.69902e-28
0
2.13189e-100
11.8553
25073.9
4.59923e-88
1.0929e-32
0
26.143
20.7582
6.35633e-44
2.4135e-124
3.86396e-111
29.2321
1.51978e-71
4.80413e-43
4.75221e-12
5.37821e-126
2.98049e-24
4.00319e-95
1.70184e-73
223.491
2.02988e-05
1.66641e-67
0
1.55383e-69
5.69524e-65
8.44443e-36
4.48475e-06
8.55176e-97
1.20185e-15
5.03063e-51
1.34856e-72
5.13841e-26
9.6436e-99
2.64587e-100
3.81426e-98
1.74454e-74
7.82492e-88
2.13513e-67
1.4064e-57
1.38941e-71
7.18927e-68
26.1082
3.09292e-84
0.939239
3.09088e-55
5.17481e-127
3.23902e-78
0
0
1.94188e-53
11.3601
0.659382
410.463
0.482032
3.19903e-39
1.09618
0.00653222
0.260467
0.815728
0.040413
112.468
2.31888e-54
0
0
1.64304e-52
2.34416e-106
1.20889e-72
1.60576e-38
0
9.09352e-92
320.747
1.1599e-66
4.98743e-26
0
0
2.15957e-43
0
5.18205e-18
364.921
19.3008
8.2874e-66
0
1.55779e-18
14.0056
3.92292e-22
1.83198e-25
79.4353
0
104.695
1.93367e-132
9.32841e-121
1.89035e-17
97.2534
84.886
96.3215
99.8353
6.04621
3.79136
316.448
351.39
124.765
9.64047e-96
0
1.06263e-69
0
0.555947
372.499
0.0101368
9.36252
356.904
157.241
3.41843e-56
224.492
0.0479137
1.32704e-109
2.0045e-131
5.64495e-101
0.00808238
2.06483
6.84008e-17
0
0.0028768
113.495
0
2758.7
1.37816
2.92241e-05
45.3395
1.06741e-115
7.788e-08
70.1137
5.77962e-07
9.49516e-110
1.04816e-23
0
1.54135e-99
0
19.9727
0
2.9025e-80
19.1207
0
36.9868
2.0594
1.25976e-77
0.00182808
0.785115
0.247131
0.161632
0.687192
9.02817e-14
1.07444
6.81701e-48
6.55174e-130
1.41749
4.48755e-05
0.297946
0.349818
3.1884e-20
1.08625e-35
2.51529e-18
15.0873
543.666
0
7.60496e-41
0.0121474
1.90774e-112
22.6359
1.16014e-109
5.24696e-64
0
0.00927114
8.48239e-66
1.61819
8.34303e-102
0
3.14597e-31
0.276229
0.626746
0.000103593
0
0.000276811
204.715
210.731
0
159.004
20702.4
9.00728
523.396
5.29696e-61
542.315
4.37474e-88
2.42697e-26
4.19042e-87
1.05493e-85
2.91162e-77
9.04778e-69
1.5457e-91
341.94
3.69316e-125
1.4911e-20
8.05829e-89
9.07798e-86
1.68609e-83
7.27625e-120
0
0.0252427
4.8451
0
1.42746e-96
74.636
1.4523e-65
88.9208
2.6213e-24
3.86942e-97
284.634
0
3.05665e-96
1.02999e-52
40.8793
7.23802e-26
4.50311e-91
1.05526e-10
9.16905e-36
2.39862e-57
5.27004e-87
3.64444e-13
0
0
2.05613e-92
2.69079e-136
0
8.61985e-62
0
3.59612
8.26745e-119
1.83521e-17
3.38837e-86
0
1.97592e-84
4.35342e-22
2.58983e-44
3.01589e-08
0
5.17819e-60
1.60311e-61
0
7.2355e-15
4.22405e-52
0
0
0
0
860.602
2.40921e-87
0
0
2.36645e-55
5.81425e-53
8.91219
6.52104e-102
0
2.71546e-60
0
5.56061e-61
1.39588e-79
5.40325e-77
1.29273e-40
1.58732e-103
4.97691e-124
1.49639e-43
3.77973
6.29184e-95
2.03939e-92
0
8.27956e-68
5.31068e-55
6.41813e-67
6293.18
1.53052e-18
0
7.42111e-41
3.9472e-91
0.000903574
1.99315e-84
0.0151874
12.3152
2.07449e-16
0
5.91994e-97
5.93508e-50
1.56183e-111
5.49842e-67
2427.87
6.68825e-43
3.94503e-126
2323.57
9.66782e-68
8.39955e-129
1.33622e-82
0
1.5319e-38
3.78124e-43
18.3205
1.62811e-76
0
6.67495e-58
2388.3
446.456
830.788
1.0276e-09
0.368514
6.28382
1.32677e-32
7.73427e-51
0
2644.84
5.96264e-61
2.59467e-86
1.28894e-57
1.34247e-47
1.49476
1.94102e-83
3.22879e-62
5.52835e-50
7.11312e-16
0
0.00327453
0.00571596
0
5.23122e-08
13.9709
3.35872e-113
4.70216
3.72725e-94
3.40717e-64
0
6.19277e-58
2.78872e-61
2.55321e-05
0
0.972622
0.490807
3.72487
0.00849801
79.0123
1.07679e-11
0
5.68026e-85
8.60934e-87
1.13091e-83
0
3.50392e-112
4.68502e-115
2.61538e-79