/*--------------------------------*- C++ -*----------------------------------*\
| =========                 |                                                 |
| \\      /  F ield         | OpenFOAM: The Open Source CFD Toolbox           |
|  \\    /   O peration     | Version:  v2012                                 |
|   \\  /    A nd           | Website:  www.openfoam.com                      |
|    \\/     M anipulation  |                                                 |
\*---------------------------------------------------------------------------*/
FoamFile
{
    version     2.0;
    format      ascii;
    class       volScalarField;
    location    "4";
    object      qin;
}
// * * * * * * * * * * * * * * * * * * * * * * * * * * * * * * * * * * * * * //

dimensions      [1 0 -3 0 0 0 0];


internalField   uniform 0;

boundaryField
{
    fire_inlet
    {
        type            calculated;
        value           nonuniform List<scalar> 
41
(
12957.6
13339.5
20436.7
24332.4
11922.2
17328.2
25801.6
30329.4
34556.6
27157.8
34547.2
25097.6
26891.5
28383.9
31800.8
35879.4
23549.4
19265.6
20467.9
21400.9
17123.7
14494.3
26571.3
30073.1
21419
26745.4
36729.2
23301.8
33161.2
20148.7
38987.1
36013.6
44547.1
28754.2
26820.4
33848.7
39262.1
40132
36070.5
35240.8
40268.1
)
;
    }
    outlet
    {
        type            calculated;
        value           nonuniform List<scalar> 
400
(
1365.01
1562.93
1845.5
2274.77
2521.28
2778.82
3009.77
2647.56
1306.81
1382.62
1523.48
1432.48
1733.43
1655.35
2076.42
1989.83
1326.58
1465.3
1514.8
1578.16
1486.57
1573.07
1433.69
1484.99
1412.55
1441.97
1367.29
1368.89
1420.61
2296.31
2527.02
1678.8
2039.46
2673.32
2863.44
1790.52
2969.94
1640.56
2764.29
2641.38
1454.91
1980.42
2714.22
2869.96
2417.94
2555.23
2268.12
2413.1
2451.92
2183.87
2189.25
1490.67
2292.38
2245.88
1896.99
1781.29
1846.71
1520.85
1448.94
1745.66
1611.2
2056.76
1613.91
1505
1609.69
1459.65
1540.77
1667.56
2004.9
2589.53
2353.21
2388.43
2050.91
2534.06
1466.8
1653.6
1715.74
2194.57
1893.39
1489.94
2100.15
1668.34
1595.83
1649.01
1774.42
1766.19
1854.64
1598.72
1963.94
1949.32
2225.84
1823.79
1672.49
2032.01
2196.76
2057.63
1959.92
1874.56
1819.01
1875.08
459.31
459.311
459.309
459.308
459.306
459.306
459.305
459.305
459.305
459.305
459.305
459.305
459.305
459.305
459.305
459.305
459.305
459.309
459.307
459.307
459.306
459.306
459.306
459.306
459.305
459.305
459.305
459.305
459.305
459.307
459.305
459.309
459.308
459.306
459.306
459.306
459.305
459.309
459.305
459.309
459.305
459.31
459.308
459.305
459.305
459.305
459.305
459.307
459.307
459.306
459.306
459.305
459.307
459.308
459.308
459.305
459.305
459.305
459.305
459.31
459.306
459.306
459.306
459.305
459.306
459.307
459.309
459.305
459.307
459.305
459.305
459.305
459.308
459.305
459.308
459.307
459.305
459.305
459.305
459.305
459.307
459.307
459.305
459.305
459.305
459.305
459.306
459.305
459.305
459.307
459.305
459.307
459.306
459.306
459.305
459.305
459.305
459.305
459.306
459.305
459.305
459.305
459.305
459.305
459.305
459.306
459.306
459.305
459.305
459.305
459.68
459.836
460.134
459.907
460.573
460.206
460.805
460.687
461.228
460.896
461.436
461.236
461.587
461.223
461.445
461.225
462.714
462.243
465.28
463.97
468.169
466.522
474.62
471.499
485.991
477.576
494.688
492.624
505.371
499.176
507.007
503.781
502.936
459.916
460.695
466.349
483.437
494.676
485.716
496.503
459.593
459.636
459.693
459.881
459.915
459.974
459.592
459.611
461.637
462.413
465.008
470.468
470.281
461.317
459.647
459.628
459.675
459.781
459.722
459.819
459.919
459.666
478.123
460.177
459.896
459.664
459.952
459.815
460.263
460.595
460.213
460.891
460.59
461.164
461.031
461.197
459.731
462.126
463.846
462.367
465.992
465.501
471.068
467.31
477.083
475.146
484.584
481.104
488.514
487.444
497.29
459.792
464.27
460.74
480.682
460.297
461.247
459.918
459.962
459.694
459.864
459.864
460.314
460.693
459.883
459.694
459.973
461.206
460.616
459.844
461.871
461.348
485.526
461.437
468.789
469.856
459.998
463.931
460.567
475.664
487.061
491.215
460.888
461.199
461.458
460.906
460.031
462.253
461.74
460.096
464.423
464.088
467.29
464.718
472.933
467.502
476.222
473.806
483.49
483.31
477.5
460.341
461.807
472.736
473.352
460.969
462.957
462.081
463.132
461.25
461.297
461.456
460.18
460.122
460.391
466.218
471.501
460.793
460.582
460.885
461.661
461.233
462.929
462.021
464.543
463.448
466.172
465.625
475.833
471.683
474.26
465.711
465.007
470.202
460.481
460.77
466.468
463.775
461.633
461.339
460.714
466.637
464.051
463.563
461.702
464.98
461.052
462.739
461.94
461.444
)
;
    }
    base
    {
        type            calculated;
        value           nonuniform List<scalar> 
14237
(
1662.88
2024.88
1973.35
895.628
1331.16
1671.24
1851.35
1625.86
1259
1723.3
1611.05
845.182
900.322
1012.58
1103.26
1348.03
1759.66
1386.55
1524.66
1506.17
1641.81
1769.85
1712.05
2115.45
1741.02
1946.24
1122.96
819.324
795.768
1692.69
1105.38
1178.43
1547.41
1414.04
1513.75
1733.93
1647.07
946.77
1798.82
1235.11
1192.68
1195.37
1634.56
971.043
1798.54
1793.62
1769.53
1228.59
1310.21
1214.41
1064.85
899.377
1337.98
1271.91
1751.9
1380.96
1250.55
835.099
769.511
795.489
844.663
954.972
1109.18
1012.33
1041.06
819.043
842.611
940.726
1186.63
754.19
732.719
459.306
459.306
459.305
459.306
459.305
459.305
459.305
459.305
459.305
459.305
459.305
459.305
459.305
459.305
459.305
459.305
459.305
459.305
459.305
459.305
459.305
459.305
459.305
459.305
459.305
459.305
459.305
459.305
459.305
459.305
459.305
459.305
459.305
459.305
459.305
459.305
459.305
459.305
459.305
459.305
459.306
459.305
459.306
459.306
459.307
459.306
459.307
459.307
459.309
459.308
459.311
459.31
459.313
459.312
459.315
459.315
459.318
459.318
459.321
459.322
459.342
459.342
460.463
460.078
605.576
569.763
538.159
493.509
474.93
469.393
467.98
465.747
463.833
459.307
459.307
459.308
459.309
459.313
459.33
459.359
459.405
459.477
459.696
461.156
481.53
459.308
459.308
459.308
459.31
459.309
459.312
459.311
459.314
459.313
459.315
459.316
459.319
459.32
459.321
459.323
459.328
459.328
459.337
459.333
459.342
459.343
459.349
459.35
459.372
459.391
459.37
459.411
459.401
459.453
459.424
459.532
459.48
459.657
459.571
459.85
459.735
460.249
460.029
460.568
460.401
460.9
460.774
461.172
461.09
461.285
461.343
461.091
461.193
460.884
461.008
460.598
460.787
460.39
460.437
460.261
460.485
460.045
460.181
459.893
459.989
459.728
459.83
459.629
459.687
459.596
459.619
459.647
459.681
460.231
459.886
461.327
461.021
464.276
459.301
459.316
459.377
459.86
461.099
463.618
465.465
466.255
468.385
475.286
525.031
718.715
942.915
865.345
652.243
495.042
480.005
481.22
477.262
472.168
459.301
459.306
459.308
459.313
459.326
459.357
459.379
459.369
459.355
459.335
459.319
459.308
459.3
459.301
459.305
462.605
559.387
686.553
533.118
520.149
482.074
471.558
468.309
466.611
464.901
459.307
459.307
459.308
459.308
459.308
459.31
459.318
459.345
459.382
459.436
459.524
460.117
464.102
464.456
459.872
460.527
459.317
459.303
459.331
459.332
459.573
460.537
462.423
464.162
465.723
466.819
470.837
488.168
621.885
859.233
888.834
769.18
531.472
481.751
479.901
481.804
474.943
467.566
459.307
459.31
459.319
459.34
459.372
459.378
459.363
459.345
459.33
459.313
459.304
459.306
560.692
548.05
489.971
472.978
468.608
466.955
465.11
462.963
459.308
459.31
459.315
459.332
459.365
459.413
459.514
460.073
462.997
511.522
459.308
463.655
465.512
466.459
469.08
478.129
609.159
809.308
958.269
839.907
587.678
485.955
480.131
481.58
475.48
467.975
459.308
459.313
459.326
459.361
459.382
459.37
459.355
459.334
459.318
459.306
464.198
625.541
554.855
512.867
480.033
469.872
468.369
465.813
463.871
459.322
459.346
459.394
459.456
459.649
461.104
473.76
467.236
471.903
502.767
695.372
903.035
915.954
705.828
508.817
480.41
479.187
478.109
472.639
464.985
459.307
459.31
459.32
459.341
459.376
459.38
459.365
459.344
459.325
459.312
635.547
459.312
459.309
461.121
459.38
465.792
459.58
462.453
459.306
597.585
461.915
459.305
459.305
459.305
459.305
459.305
459.305
459.305
459.305
459.305
459.305
459.305
459.305
459.305
459.305
459.305
459.305
459.305
459.308
459.308
459.308
459.305
459.305
459.305
459.305
459.305
459.305
459.305
459.305
459.305
459.305
459.305
459.306
459.306
459.306
459.306
459.307
459.306
459.308
459.307
459.309
459.308
459.312
459.31
459.316
459.314
459.319
459.319
459.325
459.323
459.337
459.333
459.39
459.404
460.458
461.359
460.464
459.312
591.766
602.495
581.614
538.283
497.813
528.055
486.091
475.349
468.852
466.877
465.7
465.725
462.011
459.32
461.916
459.31
459.311
459.308
459.308
459.309
460.462
459.314
459.314
459.319
459.309
459.309
459.31
459.342
459.39
459.43
459.674
460.104
462.925
482.033
466.875
459.307
459.647
459.309
459.312
459.311
459.313
459.314
459.318
459.317
459.321
459.322
459.325
459.329
459.328
459.33
459.335
459.335
459.341
459.339
459.345
459.347
459.365
459.398
459.365
459.35
459.422
459.398
459.476
459.435
459.554
459.496
459.71
459.599
460.037
459.814
460.381
460.197
460.786
460.624
461.107
461.037
461.41
461.448
461.213
461.38
461.027
461.132
460.817
460.937
460.449
460.875
460.524
460.531
460.212
460.514
460.002
460.206
459.869
460.012
459.725
459.862
459.663
459.709
459.675
459.732
459.998
459.958
461.219
464.297
460.878
464.696
459.313
459.316
461.535
460.48
460.859
459.817
459.828
459.304
463.116
463.228
616.975
466.156
465.839
459.472
459.349
459.48
474.891
528.737
732.176
903.919
921.796
738.638
517.367
479.805
478.976
474.751
466.324
465.339
464.198
464.48
459.305
459.31
459.319
459.34
459.379
459.386
459.369
459.348
459.327
459.313
597.422
594.41
463.467
462.417
459.303
459.306
580.031
581.395
459.306
459.306
459.306
459.308
459.305
459.304
461.549
459.306
459.304
459.305
459.305
566.735
555.197
494.91
487.132
470.362
469.881
467.147
466.266
464.256
463.443
462.395
459.551
461.565
459.399
459.335
459.363
459.321
459.491
459.775
460.777
465.368
499.706
459.305
461.957
459.306
606.844
464.465
469.436
492.529
615.376
811.91
932.783
855.107
614.7
492.34
479.804
478.953
470.178
468.671
459.308
472.772
459.309
459.313
459.325
459.36
459.388
459.374
459.36
459.336
459.318
479.122
483.805
551.074
572.255
459.318
459.336
459.361
459.388
459.403
459.361
467.051
473.42
459.311
459.326
459.348
459.369
459.402
459.381
459.319
469.055
474.174
478.549
501.183
682.355
848.499
859.442
459.308
459.307
489.181
465.127
460.314
459.306
468.7
459.305
459.444
469.19
470.12
759.985
519.553
471.13
459.368
459.337
459.344
459.536
461.147
900.355
806.29
652.722
509.899
471.931
484.82
586.435
760.689
459.31
459.329
459.313
459.347
459.327
459.306
459.305
459.306
459.305
459.305
459.305
459.305
459.305
459.305
459.305
459.305
459.305
459.305
459.305
459.542
461.072
459.471
459.524
459.305
459.305
459.305
459.305
459.305
459.305
459.305
459.306
459.306
459.306
459.306
459.307
459.307
459.308
459.308
459.31
459.31
459.313
459.314
459.316
459.317
459.326
459.326
459.338
459.334
459.36
459.361
459.463
459.462
597.672
585.025
535.237
513.141
728.74
459.308
472.126
459.305
459.48
462.009
459.353
464.054
463.312
476.051
475.07
459.342
459.35
459.329
459.333
461.982
844.771
460.908
461.918
469.66
470.743
468.888
487.241
459.305
459.305
459.305
459.315
459.319
459.318
459.329
459.328
459.332
459.333
459.335
459.338
459.341
459.341
459.347
459.351
459.356
459.358
459.374
459.394
459.37
580.828
459.427
459.415
459.497
459.451
459.595
459.548
459.815
459.729
460.201
460.001
460.632
460.447
461.158
460.969
461.468
461.417
461.396
461.566
461.184
461.443
460.946
461.197
460.887
460.862
460.542
461.268
460.525
460.62
460.214
460.452
460.022
460.286
459.874
460.091
459.733
459.952
459.744
459.783
461.582
459.309
459.41
459.455
465.538
462.271
671.207
476.329
482.291
512.907
540.802
640.912
638.237
821.884
766.257
503.961
803.904
775.655
724.602
470.769
510.292
476.106
459.312
470.81
468.919
471.348
481.423
481.666
459.329
462.997
463.928
465.684
459.312
459.319
459.314
459.319
459.369
459.415
459.398
459.367
459.34
459.34
474.186
474.464
471.189
459.306
459.308
461.792
461.587
567.928
584.256
598.751
586.93
531.134
460.718
590.401
587.311
583.772
460.787
480.908
477.627
481.07
459.312
459.307
459.307
459.306
459.306
459.306
565.541
556.775
460.918
459.397
459.378
459.313
459.31
615.436
460.507
460.462
498.871
487.623
459.306
461.621
462.2
460.057
459.473
459.663
504.433
467.122
467.132
459.31
459.31
459.309
459.31
459.321
459.328
459.316
459.314
459.323
459.843
462.358
460.314
459.374
465.265
459.79
605.536
459.368
460.109
459.314
459.325
459.407
466.504
466.074
465.43
460.522
460.164
459.309
557.915
459.311
459.312
459.312
460.828
459.372
459.378
459.308
459.309
742.714
515.025
459.319
674.739
460.266
487.721
459.318
463.594
465.096
462.257
459.351
459.311
459.327
459.392
459.413
459.378
459.35
460.276
584.661
628.378
460.724
460.708
459.367
459.31
463.987
469.003
464.943
483.739
459.38
742.909
707.512
694.766
498.503
459.329
459.355
459.432
459.403
459.434
459.35
459.308
459.311
459.311
459.305
459.305
459.305
459.305
459.305
459.305
459.305
459.305
469.031
463.224
460.353
459.377
459.305
459.305
459.305
459.306
459.306
459.307
459.307
459.308
459.307
459.311
459.309
459.314
459.313
459.318
459.316
459.324
459.321
459.341
459.336
459.349
459.348
459.396
459.388
459.532
459.53
598.779
575.781
533.263
530.035
700.302
464.788
466.234
495.262
463.342
459.442
470.311
459.317
482.28
459.374
480.979
459.357
459.362
672.832
460.477
462.246
462.755
465.822
469.103
459.824
459.437
459.322
461.926
462.709
459.964
459.333
459.331
459.339
459.342
459.345
459.348
459.348
459.351
459.358
459.359
459.366
459.374
459.386
459.41
459.382
459.398
459.428
459.454
459.434
459.547
459.506
459.736
459.655
460.017
459.849
460.455
460.157
460.985
460.707
461.439
461.259
461.738
461.755
461.761
461.923
461.588
461.606
461.213
461.85
461.298
461.317
460.755
461.294
460.481
460.793
460.309
460.462
460.088
460.349
459.983
460.082
459.387
577.978
459.33
459.985
679.129
671.633
462.852
460.389
460.703
459.932
459.306
464.952
463.164
546.072
633.167
635.559
494.159
462.544
461.668
460.952
459.331
586.953
459.382
459.319
600.95
611.273
459.626
459.549
459.713
459.358
459.335
459.363
460.601
460.083
461.343
459.306
459.305
459.306
459.446
459.471
459.419
459.42
459.4
459.401
459.315
459.92
526.175
511.122
460.595
460.789
624.541
574.097
459.412
459.412
615.84
459.341
459.341
459.306
459.872
459.934
459.398
463.097
459.305
470.677
473.422
459.318
459.322
459.32
460.153
460.147
614.17
495.457
694.595
722.168
491.678
478.355
464.912
459.317
570.213
459.319
459.341
459.355
460.619
460.022
460.29
627.51
460.569
459.398
469.904
467.214
480.357
473.543
459.329
460.254
459.305
459.309
587.622
459.325
459.396
459.453
459.491
562.993
459.315
459.32
459.307
505.429
562.013
459.83
459.822
459.839
459.314
459.314
459.316
485.721
459.34
459.351
459.442
459.307
459.452
507.523
459.305
612.291
703.964
459.305
484.416
491.165
483.784
459.309
459.305
459.314
459.315
459.6
459.5
459.591
459.361
459.308
459.838
466.337
465.045
602.308
477.992
459.359
587.578
615.535
609.313
459.376
459.31
459.53
514.801
459.478
459.305
459.305
459.305
459.305
459.397
459.402
626.547
690.329
459.306
459.308
459.307
459.308
459.308
459.312
459.31
459.315
459.315
459.319
459.32
459.327
459.326
459.341
459.338
459.36
459.359
459.411
459.41
459.597
459.594
624.178
476.777
508.502
459.332
460.111
463.197
491.678
600.118
459.672
672.864
459.325
459.327
459.339
477.895
707.109
460.409
460.401
463.684
460.634
469.084
459.336
459.35
459.35
459.358
459.358
459.364
459.368
459.37
459.383
459.39
459.39
459.399
459.421
459.399
583.984
459.481
555.557
459.486
459.439
459.612
459.504
459.868
459.692
460.173
459.986
460.71
460.519
461.29
461.146
462.043
461.816
462.33
462.226
461.876
462.54
461.865
461.823
461.328
462.207
461.315
461.722
461.324
461.409
460.715
461.313
460.545
460.914
460.296
460.506
459.384
459.647
459.409
459.475
459.322
459.335
459.318
462.715
473.337
601.533
459.599
491.734
459.325
459.33
459.324
459.305
459.305
465.813
459.306
459.306
459.306
460.364
572.491
472.932
459.343
459.342
463.026
464.679
459.309
459.307
459.308
459.441
459.463
482.972
459.408
459.415
502.606
494.395
459.517
459.514
459.576
459.307
459.306
459.307
466.292
552.588
459.439
459.439
459.369
625.52
514.74
533.661
605.308
574.79
506.127
469.402
459.858
459.417
459.417
461.152
462.718
459.319
661.662
473.643
459.727
459.971
459.96
632.605
678.833
502.354
459.382
459.389
460.165
461.766
469.179
476.446
460.286
467.778
469.203
467.714
459.335
459.646
459.798
473.902
501.48
494.171
491.771
471.625
460.999
459.306
459.306
459.459
459.475
469.106
638.389
459.32
459.333
460.661
459.379
459.363
459.576
459.582
459.482
677.83
459.354
459.362
459.332
485.135
482.603
474.142
459.692
459.749
623.802
461.254
461.776
460.753
459.994
459.964
460.832
459.36
459.336
459.37
459.31
459.314
459.305
464.972
464.028
459.4
459.407
459.327
459.333
459.353
472.886
459.306
459.305
472.785
459.618
459.399
459.31
459.312
459.311
459.316
459.314
459.322
459.319
459.329
459.324
459.34
459.339
459.374
459.357
459.433
459.432
459.588
459.586
472.382
459.314
459.306
459.36
469.025
459.418
460.1
460.087
480.948
459.522
467.362
459.377
459.375
459.395
459.397
459.405
459.401
459.406
459.407
459.411
459.418
459.414
459.509
459.455
459.679
459.57
459.953
459.805
460.401
460.241
461.173
460.699
461.837
461.523
462.233
462.101
462.562
462.582
461.918
462.925
462.235
462.481
461.738
462.122
461.426
462.525
461.64
462.177
460.909
461.519
459.321
459.404
459.475
476.647
459.342
459.341
459.432
459.432
459.308
459.95
459.887
459.359
459.357
464.38
459.479
459.525
478.571
459.351
459.356
459.38
459.49
459.506
459.539
466.847
466.414
468.195
459.51
459.545
459.739
462.623
463.941
459.36
474.989
459.85
459.847
459.305
471.736
466.744
459.314
459.428
459.469
459.306
459.306
460.348
459.326
492.005
459.341
459.802
459.367
459.37
460.502
460.825
460.54
459.306
459.305
459.315
459.32
459.306
461.262
459.513
459.526
475.681
471.601
459.557
459.476
459.566
459.386
459.354
459.308
459.309
459.372
459.374
459.306
459.306
459.354
459.306
459.307
459.306
459.421
459.468
459.399
459.642
459.705
461.349
459.932
459.943
459.307
459.307
462.716
463.396
459.477
459.309
459.315
459.32
459.319
459.329
459.325
459.348
459.347
459.368
459.356
459.46
459.438
459.564
459.562
461.393
459.308
459.308
459.424
459.559
459.527
459.387
460.96
460.873
461.639
466.013
459.309
459.408
459.426
459.427
459.444
459.44
459.446
459.453
459.467
459.461
459.567
459.811
459.573
460.252
459.91
460.717
460.487
461.404
461.071
462.181
461.916
462.692
462.708
462.955
462.939
462.484
462.914
462.136
462.425
462.548
462.447
462.202
463.151
461.655
462.017
462.243
459.306
459.382
459.404
459.379
459.334
459.327
459.337
459.825
459.367
459.309
459.585
459.961
459.788
459.775
459.35
459.341
459.369
459.652
459.512
468.833
459.552
459.392
459.392
459.432
472.859
470.019
471.415
459.309
459.307
459.569
459.619
459.601
459.66
459.309
459.812
459.566
459.376
459.452
459.584
470.078
470.281
459.31
459.312
459.311
461.095
459.315
459.415
459.405
465.66
459.369
459.309
459.306
459.306
459.306
459.664
459.444
459.467
459.529
459.644
459.794
459.582
459.313
459.307
460.099
460.112
459.66
459.664
468.739
467.259
459.4
459.453
459.398
459.51
459.525
462.723
463.814
465.606
465.621
470.094
465.049
459.785
459.307
459.467
459.325
459.355
469.911
469.766
459.726
459.73
459.472
459.545
459.484
459.484
459.465
459.488
459.591
459.932
459.684
460.332
459.94
461.075
460.426
461.94
461.33
462.697
462.134
462.944
463.1
462.906
463.44
462.803
462.936
462.761
463.405
463.24
462.884
467.188
459.698
459.434
459.472
459.437
459.543
459.441
459.436
459.501
459.598
461.481
459.742
467.745
459.579
459.423
462.281
459.315
459.644
459.651
459.34
466.509
459.468
459.322
462.069
467.672
459.827
459.322
459.552
459.539
459.682
459.717
463.022
463.055
463.368
461.937
463.782
460.904
460.908
459.307
459.549
459.597
465.453
466.473
465.872
464.221
460.289
460.333
459.565
459.549
459.697
466.709
459.487
463.438
464.013
462.908
459.846
460.479
459.894
461.282
460.56
462.204
461.407
463.095
462.311
463.632
463.514
463.892
463.908
463.411
464.536
459.821
469.001
468.371
467.06
459.746
461.903
467.065
459.526
459.722
459.7
459.561
463.415
459.512
459.545
465.431
459.449
463.664
464.877
465.631
460.489
461.189
461.378
459.53
459.501
462.366
461.974
463.316
464.684
459.495
459.882
461.377
462.37
463.937
464.745
459.944
459.866
460.42
466.01
465.969
459.912
464.556
461.471
460.549
461.548
464.936
464.977
459.606
460.261
459.537
459.597
464.779
463.741
459.715
463.777
461.512
459.604
462.666
462.665
463.841
459.689
462.744
463.25
459.306
459.306
459.305
459.305
459.305
459.305
459.305
459.305
459.305
459.305
459.305
459.305
459.305
459.305
459.305
459.305
459.305
459.305
459.305
459.305
459.305
459.305
459.305
459.305
459.304
459.305
459.304
459.305
459.305
459.305
459.305
459.305
459.305
459.305
459.305
459.305
459.305
459.305
459.305
459.305
459.305
459.305
459.305
459.305
459.305
459.305
459.305
459.315
459.312
459.311
459.311
459.309
459.31
459.308
459.308
459.307
459.308
459.307
459.307
459.307
459.307
459.306
459.307
459.306
459.306
459.305
459.306
459.305
459.305
459.305
459.317
459.319
459.321
459.314
459.311
459.309
459.307
459.306
459.312
459.311
459.309
459.307
459.306
459.307
459.306
459.306
459.305
459.305
459.305
459.305
459.305
459.305
459.305
459.305
459.305
459.305
459.31
459.307
459.306
459.305
459.305
459.305
459.305
459.305
459.306
459.305
459.305
459.305
459.305
459.305
459.305
459.305
459.315
459.317
459.318
459.305
459.316
459.317
459.32
459.316
459.313
459.311
459.308
459.307
459.312
459.31
459.312
459.309
459.305
459.309
459.309
459.308
459.306
459.305
459.305
459.305
459.305
459.305
459.305
459.306
459.305
459.305
459.305
459.313
459.311
459.308
459.306
459.306
459.313
459.311
459.31
459.309
459.306
459.305
459.305
459.305
459.305
459.305
459.305
459.305
459.307
459.313
459.311
459.309
459.305
459.305
459.305
459.305
459.305
459.305
459.307
459.318
459.31
459.312
459.315
459.319
459.318
459.309
459.305
459.306
459.306
459.307
459.305
459.305
459.305
459.312
459.307
459.305
459.305
459.305
459.305
459.305
459.305
459.305
459.305
459.305
459.305
459.305
459.305
459.305
459.305
459.305
459.305
459.305
459.305
459.305
459.305
459.305
459.305
459.305
459.305
459.305
459.312
459.311
459.309
459.311
459.308
459.309
459.307
459.308
459.307
459.307
459.307
459.307
459.307
459.307
459.306
459.306
459.305
459.306
459.309
459.305
459.305
459.317
459.318
459.311
459.314
459.308
459.308
459.307
459.311
459.306
459.306
459.317
459.306
459.314
459.31
459.313
459.311
459.308
459.307
459.305
459.314
459.305
459.305
459.31
459.306
459.305
459.306
459.305
459.305
459.305
459.305
459.305
459.305
459.305
459.305
459.305
459.306
459.305
459.305
459.305
459.305
459.305
459.305
459.305
459.305
459.316
459.316
459.314
459.306
459.305
459.305
459.307
459.306
459.307
459.306
459.307
459.313
459.31
459.305
459.306
459.306
459.306
459.305
459.316
459.305
459.317
459.305
459.306
459.305
459.305
459.305
459.305
459.305
459.306
459.305
459.305
459.305
459.305
459.314
459.305
459.305
459.305
459.305
459.307
459.307
459.308
459.306
459.306
459.305
459.305
459.305
459.305
459.305
459.305
459.305
459.31
459.305
459.305
459.305
459.305
459.308
459.307
459.307
459.306
459.306
459.306
459.305
459.306
459.307
459.306
459.306
459.305
459.306
459.305
459.305
459.31
459.308
459.305
459.305
459.305
459.305
459.305
459.305
459.305
459.305
459.305
459.305
459.305
459.307
459.305
459.305
459.305
459.305
459.306
459.305
459.305
459.305
459.305
459.305
459.305
459.305
459.305
459.306
459.305
459.306
459.306
459.306
459.306
459.305
459.305
459.305
459.305
459.305
459.305
459.305
459.305
459.305
459.305
459.305
459.305
459.305
459.305
459.305
459.305
459.305
459.305
459.306
459.305
459.305
459.305
459.306
459.305
459.305
459.306
459.306
459.321
459.333
459.372
459.493
459.68
459.761
459.65
459.478
459.393
459.368
459.341
459.318
459.308
459.338
459.317
459.399
459.419
459.441
459.424
459.371
459.358
459.338
459.307
459.289
459.295
459.307
459.309
459.31
459.309
459.314
459.312
459.318
459.315
459.325
459.32
459.34
459.327
459.358
459.342
459.387
459.361
459.414
459.394
459.44
459.423
459.453
459.433
459.445
459.429
459.421
459.422
459.41
459.412
459.392
459.395
459.38
459.381
459.364
459.368
459.351
459.351
459.333
459.339
459.32
459.327
459.309
459.314
459.3
459.302
459.291
459.295
459.308
459.327
459.331
459.334
459.336
459.337
459.338
459.343
459.336
459.345
459.333
459.34
459.328
459.333
459.325
459.331
459.319
459.329
459.316
459.32
459.314
459.317
459.311
459.312
459.309
459.31
459.309
459.309
459.308
459.308
459.308
459.288
459.344
459.432
459.569
459.782
459.715
459.571
459.422
459.381
459.355
459.326
459.311
459.359
459.361
459.354
459.323
459.365
459.363
459.426
459.371
459.401
459.352
459.356
459.325
459.294
459.357
459.291
459.481
459.697
459.341
459.329
459.386
459.613
459.868
459.86
459.661
459.49
459.396
459.359
459.338
459.317
459.39
459.346
459.328
459.298
459.288
459.918
459.771
459.556
459.432
459.375
459.348
459.325
459.312
459.293
459.316
459.362
459.339
459.33
460.017
459.663
459.992
460.212
459.343
459.883
459.607
459.465
459.379
459.349
459.326
459.315
459.318
459.367
459.299
459.353
459.338
459.362
459.347
459.344
459.336
459.34
459.305
459.302
459.354
459.352
459.341
459.312
459.309
459.286
459.523
459.59
459.309
459.309
459.312
459.311
459.315
459.314
459.319
459.317
459.328
459.324
459.343
459.339
459.359
459.353
459.373
459.374
459.407
459.402
459.416
459.422
459.415
459.429
459.407
459.423
459.395
459.412
459.385
459.398
459.373
459.383
459.362
459.367
459.35
459.357
459.335
459.338
459.325
459.329
459.314
459.32
459.304
459.305
459.296
459.289
459.298
459.341
459.431
459.462
459.343
459.351
459.344
459.35
459.356
459.343
459.369
459.341
459.35
459.333
459.342
459.329
459.337
459.321
459.328
459.318
459.321
459.313
459.32
459.311
459.314
459.309
459.311
459.351
459.349
459.324
459.317
459.338
459.868
459.35
459.383
460.077
459.772
459.527
459.404
459.362
459.34
459.317
459.404
459.343
459.322
459.333
459.619
460.029
459.334
459.359
459.852
459.341
459.4
459.289
459.481
460.227
459.815
459.309
459.318
459.335
459.333
459.299
459.323
459.343
459.379
459.43
459.991
460.101
459.325
459.952
460.437
459.32
459.31
460.253
460.372
460.63
460.805
460.325
459.324
459.452
460.012
460.33
459.386
459.33
459.322
459.348
459.33
459.331
459.433
459.31
459.366
459.368
460.422
460.698
459.333
459.328
459.358
459.351
459.699
459.873
459.312
459.311
459.547
459.546
459.314
459.315
459.319
459.319
459.327
459.325
459.345
459.34
459.364
459.363
459.406
459.421
459.431
459.454
459.464
459.472
459.436
459.565
459.443
459.473
459.421
459.437
459.418
459.418
459.383
459.396
459.366
459.385
459.352
459.358
459.335
459.342
459.324
459.336
459.318
459.323
459.307
459.315
459.565
459.586
459.372
459.332
459.33
459.734
459.65
459.386
459.392
459.439
459.371
459.414
459.375
459.393
459.374
459.38
459.344
459.382
459.335
459.344
459.323
459.331
459.317
459.321
459.313
459.314
459.317
459.336
459.321
459.327
459.321
459.315
459.319
459.314
459.408
459.393
459.372
460.544
460.652
459.393
459.442
459.372
459.337
459.455
459.342
459.328
459.325
459.332
459.959
459.307
459.334
459.331
459.341
459.338
459.301
459.308
459.338
459.307
459.411
459.414
460.296
459.312
460.572
460.626
461.413
461.352
461.349
459.341
459.46
459.46
459.333
459.328
461.626
462.126
459.331
459.353
459.346
460.051
459.469
459.63
459.575
459.315
459.315
459.323
459.325
459.339
459.339
459.36
459.365
459.408
459.409
459.489
459.508
459.579
459.622
459.601
459.647
459.686
459.783
459.638
459.747
459.558
459.61
459.481
459.549
459.408
459.483
459.398
459.415
459.369
459.379
459.342
459.369
459.336
459.339
459.327
459.317
459.326
459.774
459.815
459.472
459.33
459.331
459.922
459.809
460.981
461.665
459.435
459.559
459.436
459.441
459.462
459.471
459.402
459.498
459.382
459.446
459.346
459.383
459.329
459.355
459.55
460.488
460.95
459.327
460.207
459.621
461.729
459.501
459.316
459.327
459.329
459.367
459.331
459.335
459.332
459.326
459.307
459.366
460.348
459.413
459.315
459.319
459.318
459.329
459.33
459.333
459.324
459.334
459.331
459.318
459.319
459.325
459.326
459.327
459.343
460.497
459.628
459.759
459.325
459.324
459.327
459.347
459.486
460.775
462.551
459.336
461.911
461.162
460.918
459.596
459.602
459.336
459.325
459.367
459.352
459.405
459.389
459.503
459.488
459.644
459.704
459.915
459.973
460.077
460.069
460.146
460.252
460.042
460.221
459.884
459.985
459.656
459.783
459.549
459.597
459.495
459.503
459.399
459.444
459.37
459.396
459.348
459.358
459.335
459.98
459.959
460.673
459.326
459.905
459.851
462.923
463.006
459.617
459.751
462.559
463.391
462.531
459.827
459.983
459.659
459.815
459.548
459.664
459.47
459.581
459.421
459.462
459.383
459.438
461.518
462.449
459.334
459.328
459.367
459.359
459.336
460.267
459.335
459.334
459.339
459.334
459.338
459.338
461.421
459.336
462.038
459.415
459.337
459.345
459.339
459.336
459.34
459.438
459.338
459.346
459.336
459.39
460.388
459.343
459.353
459.347
459.371
459.339
459.399
462.761
459.334
461.363
461.161
459.669
459.465
459.442
459.404
459.528
459.454
459.732
459.735
460.046
460.3
460.607
460.604
461.337
461.29
460.953
461.661
460.766
461.178
460.572
460.77
459.945
460.566
459.763
459.894
459.535
459.637
459.478
459.501
459.409
459.458
459.368
459.351
459.395
459.336
459.919
459.8
464.868
460.04
460.436
459.923
460.016
460.419
459.921
460.055
459.784
459.924
459.599
459.604
459.882
463.124
464.74
460.252
460.268
460.217
461.408
462.769
459.333
459.339
459.354
459.342
459.345
459.355
459.351
459.371
462.709
459.344
460.179
460.863
460.444
460.938
459.55
459.353
459.369
459.358
459.384
465.144
464.821
464.027
464.006
459.344
459.364
459.356
459.353
459.358
459.37
459.396
459.868
461.396
463.461
462.558
459.386
465.099
459.966
459.961
460.653
460.69
461.595
461.347
462.327
462.432
462.589
463.701
462.193
462.738
461.831