/*--------------------------------*- C++ -*----------------------------------*\
| =========                 |                                                 |
| \\      /  F ield         | OpenFOAM: The Open Source CFD Toolbox           |
|  \\    /   O peration     | Version:  v2012                                 |
|   \\  /    A nd           | Website:  www.openfoam.com                      |
|    \\/     M anipulation  |                                                 |
\*---------------------------------------------------------------------------*/
FoamFile
{
    version     2.0;
    format      ascii;
    class       volScalarField;
    location    "4";
    object      qr;
}
// * * * * * * * * * * * * * * * * * * * * * * * * * * * * * * * * * * * * * //

dimensions      [1 0 -3 0 0 0 0];


internalField   uniform 0;

boundaryField
{
    fire_inlet
    {
        type            calculated;
        value           nonuniform List<scalar> 
41
(
12498.3
12880.2
19977.4
23873.1
11462.9
16868.9
25342.3
29870
34097.3
26698.5
34087.9
24638.3
26432.2
27924.6
31341.5
35420.1
23090.1
18806.3
20008.6
20941.6
16664.4
14035
26112
29613.8
20959.7
26286.1
36269.9
22842.5
32701.9
19689.4
38527.8
35554.3
44087.8
28294.9
26361
33389.4
38802.8
39672.7
35611.2
34781.5
39808.8
)
;
    }
    outlet
    {
        type            calculated;
        value           nonuniform List<scalar> 
400
(
904.343
1102.31
1383.58
1763.51
1898.39
1823.79
2550.47
1634.28
846.13
920.342
1049.78
968.002
1174.32
1140.86
1381.35
1211.74
865.416
1004.23
1053.85
1116.69
1025.39
1111.08
971.975
1021.95
951.003
977.657
905.498
904.829
956.308
1793.29
1685.45
1217.89
1576.57
2214.01
1985.42
1329.27
1944.57
1179.77
2304.99
2182.08
994.16
1518.15
1657.6
2410.66
1735.57
1472.52
1687.4
1632.81
1610.32
1703.81
1708.76
1029.91
1416.59
1529.93
1424.84
1318.45
1379.49
1048.95
977.887
1177.7
1114.36
1584.77
1147.87
1039.45
1140.95
993.33
1070.7
1206.49
1519.76
1217.57
1195.09
1929.13
1284.5
2074.76
996.877
1190.46
1245.63
1621.47
1235.26
1009.61
1489.41
1161.62
1109.67
1174.09
1280.85
1290.6
1386.4
1118.72
1453.41
1490.01
1766.54
1248.2
1197.13
1521.02
1506.78
1444.09
1440.9
1380.49
1328.98
1356.98
0.00625623
0.00739906
0.0055653
0.00420658
0.00283425
0.00228878
0.00162679
0.00120672
0.00146648
0.00146037
0.00151446
0.00157024
0.00143263
0.00154744
0.0014385
0.00152246
0.00164753
0.00555868
0.0039148
0.00424674
0.00266631
0.00317988
0.00234982
0.00274083
0.00184167
0.00207742
0.00172962
0.00176247
0.00193385
0.00403202
0.00139304
0.00614092
0.00464666
0.00284367
0.00228875
0.00239975
0.00180003
0.00554438
0.00141435
0.0057715
0.00204273
0.00650189
0.00481871
0.00155499
0.00183329
0.00208851
0.00160044
0.00395443
0.00339997
0.00245689
0.00291715
0.00224706
0.00398865
0.00460608
0.00458748
0.0016175
0.00168201
0.00163839
0.00164159
0.00663027
0.00317479
0.00281719
0.00285395
0.00229921
0.00263933
0.00337378
0.00550213
0.00173303
0.00352473
0.00136843
0.00189491
0.00172973
0.00435404
0.0015954
0.00460351
0.00404585
0.00160746
0.00181883
0.00179827
0.00223777
0.00366107
0.0034256
0.00154853
0.00188754
0.00167772
0.00176169
0.00273991
0.00216457
0.00168277
0.00369891
0.00173939
0.00331409
0.00276592
0.002417
0.00191967
0.00177888
0.00206598
0.00229544
0.00258148
0.00219886
0.00185656
0.00159123
0.00171273
0.00176502
0.00183715
0.00267738
0.00241019
0.00170735
0.00227243
0.00190609
0.376755
0.531769
0.828675
0.602141
1.26573
0.89977
1.49749
1.37927
1.91884
1.58664
2.12815
1.92611
2.28106
1.9138
2.13242
1.91735
3.39641
2.93213
5.95953
4.65387
8.84516
7.20397
15.2937
12.1798
26.667
18.258
35.3637
33.3044
46.0478
39.8553
47.6859
44.462
43.6161
0.61237
1.39106
7.04255
24.1253
35.3602
26.4023
37.1856
0.288737
0.331701
0.389359
0.577258
0.610915
0.669991
0.288107
0.307155
2.33273
3.1082
5.70192
11.1596
10.9737
2.01167
0.342287
0.324421
0.370954
0.476931
0.418088
0.515344
0.615533
0.361968
18.8127
0.873625
0.592601
0.360344
0.647174
0.509405
0.955282
1.28552
0.904766
1.57858
1.27978
1.84999
1.71625
1.88853
0.426552
2.80464
4.5255
3.03845
6.67289
6.17369
11.7405
7.97897
17.757
15.8169
25.2624
21.7795
29.194
28.1218
37.9709
0.487135
4.964
1.43615
21.3694
0.992894
1.94227
0.613387
0.657039
0.389485
0.558679
0.559269
1.00967
1.38863
0.579346
0.389979
0.667098
1.89213
1.31239
0.539052
2.5664
2.03231
26.2102
2.11536
9.48142
10.5479
0.691665
4.62566
1.26213
16.353
27.7439
31.8948
1.57407
1.88087
2.13574
1.58916
0.724585
2.92456
2.41486
0.787853
5.09102
4.75913
7.95906
5.3879
13.6059
8.17594
16.8989
14.4826
24.1702
23.9934
18.1802
1.03149
2.502
13.4257
14.039
1.66346
3.65127
2.77594
3.82688
1.94395
1.99047
2.15021
0.87038
0.814914
1.07904
6.91069
12.1922
1.48599
1.27309
1.57689
2.33861
1.91583
3.6047
2.70025
5.21729
4.12617
6.85104
6.30432
16.5162
12.3695
14.9399
6.40257
5.69996
10.8906
1.16802
1.45686
7.15132
4.46787
2.32474
2.022
1.4029
7.32277
4.73626
4.25384
2.39247
5.66792
1.74343
3.42583
2.62281
2.12919
)
;
    }
    base
    {
        type            calculated;
        value           nonuniform List<scalar> 
14237
(
1201.54
1563.03
1511
435.035
870.013
1209.96
1389.49
1163.39
536.207
694.018
639.622
384.895
439.89
552.171
642.712
887.21
1296.95
922.839
1060.96
1043.11
1179.03
567.083
871.717
1356.69
1057.86
1232.05
449.213
359.095
335.557
1230.09
644.823
717.7
1085.72
847.207
943.416
915.679
974.716
486.371
963.233
771.87
729.848
723.281
776.992
510.659
985.655
1097.46
1081.81
777.599
846.713
751.063
246.162
439.043
874.382
808.534
1288.77
917.45
787.446
374.887
-113.437
24.5714
-17.7873
-95.2451
408.35
321.654
357.95
-104.422
-192.836
-103.481
537.906
8.60637
-68.4223
0.00125013
0.00109768
0.000807808
0.0011276
0.000715242
0.000870511
0.000697478
0.000801082
0.000638483
0.000735846
0.000554568
0.000671543
0.000505079
0.000569197
0.000429833
0.000491106
0.000369408
0.000436812
0.000322863
0.000372583
0.000272513
0.000317075
0.000253002
0.000278284
0.000302579
0.000295143
0.000310478
0.000303
0.000274902
0.000282464
0.000243068
0.000248418
0.000215262
0.000220876
0.000196764
0.000191679
0.000234022
0.000176402
0.000304806
0.000249859
0.000422169
0.000327824
0.000803129
0.000444102
0.00109727
0.000932461
0.00191825
0.0013425
0.00333631
0.00255751
0.00492985
0.00432422
0.00699202
0.00642236
0.00933049
0.0088583
0.011185
0.0122027
0.0143278
0.0153191
0.0353426
0.035591
1.15459
0.770136
-165.942
-3.10831
-158.677
12.3116
15.5458
10.0457
8.64979
6.4309
4.52246
0.00172695
0.00200726
0.00240071
0.00364189
0.00790576
0.0241091
0.0529928
0.0987232
0.169842
0.385714
1.83328
18.1444
0.0023631
0.00316954
0.00289694
0.00479738
0.00417924
0.00667833
0.00587965
0.00870536
0.00831995
0.0103705
0.011372
0.0134967
0.0148961
0.0160731
0.0179561
0.0233165
0.023177
0.0325407
0.0283516
0.0372656
0.0382013
0.0436962
0.0449242
0.0674611
0.0860941
0.0647728
0.105591
0.0955137
0.147513
0.119176
0.225835
0.174005
0.347709
0.263875
0.537141
0.424312
0.927658
0.71156
1.24045
1.07645
1.5682
1.44308
1.83879
1.75589
1.95646
2.01267
1.76961
1.86921
1.56804
1.68895
1.28702
1.47265
1.08073
1.12697
0.953372
1.17682
0.737396
0.873092
0.585361
0.681885
0.420134
0.522517
0.321262
0.378942
0.287873
0.31066
0.338639
0.37234
0.919084
0.576706
2.00932
1.70641
4.94
-0.00596454
0.00821894
0.0663551
0.537578
1.75808
4.25543
6.1107
6.89289
8.92547
15.7654
46.2649
-148.798
-229.631
-273.195
-280.877
35.1674
20.5941
21.7739
17.8222
12.7677
-0.00591954
0.00180679
0.00377174
0.00793933
0.0207637
0.0511189
0.0737231
0.0627634
0.0484521
0.0291645
0.0125
0.0014724
-0.00701052
-0.00614846
0.000260646
3.29531
-143.113
-284.325
45.3626
-17.5611
22.3042
12.1998
8.9699
7.28718
5.58838
0.00207148
0.00219975
0.00225791
0.00240768
0.00282932
0.00492876
0.012423
0.0387504
0.0757008
0.129853
0.216088
0.802607
4.76051
5.12126
0.549148
1.19266
0.0087323
-0.00459552
0.0220165
0.023131
0.257489
1.20132
3.0671
4.80598
6.36988
7.42922
11.3314
28.4925
-6.88254
-352.648
-275.872
-265.86
13.7034
22.3178
20.4718
22.3358
15.5195
8.20672
0.00245823
0.00546659
0.0141264
0.0343862
0.0668517
0.0723496
0.0574535
0.0388766
0.0231498
0.00652175
-0.00309839
0.00131559
66.6066
-151.65
20.2462
13.6115
9.26573
7.62753
5.79586
3.65408
0.00266358
0.00430131
0.00967465
0.0260917
0.0587068
0.106602
0.207199
0.760681
3.66218
-44.6098
0.00246823
4.29333
6.1585
7.08281
9.59911
18.6025
-10.3484
-383.292
-415.919
-276.435
-254.852
26.4225
20.7065
22.1283
16.0523
8.59977
0.00363422
0.00804301
0.0209327
0.0552143
0.0765631
0.0636498
0.0488637
0.0277273
0.0110024
-0.000785295
4.84139
-373.103
-498.518
16.4233
20.2841
10.5192
9.03502
6.49504
4.56009
0.0160409
0.0404158
0.0873529
0.149387
0.340037
1.78378
14.2075
7.80908
12.3815
42.1559
-203.379
-434.776
-199.973
-140.6
35.5244
20.9966
19.7601
18.6563
13.2286
5.6475
0.00270581
0.0055382
0.01459
0.0361549
0.0705665
0.0739003
0.0589842
0.0382169
0.0186757
0.00537864
-350.08
0.00623619
0.00329334
1.77945
0.0690925
6.43763
0.264561
3.09551
0.00191171
-415.038
2.60688
0.000860178
0.000835839
0.000902089
0.000757091
0.000861796
0.000689916
0.000750111
0.000599428
0.000693114
0.000470027
0.000583424
0.000416133
0.000478523
0.000378849
0.00042117
0.00031272
0.00034326
0.00293773
0.00259768
0.00262549
0.000307941
0.000236075
0.000269074
0.000230653
0.000246566
0.000199576
0.00020994
0.000209669
0.000233829
0.000247909
0.000283088
0.000570926
0.00047629
0.000791739
0.000693111
0.00136101
0.000858721
0.00210653
0.00174794
0.0036902
0.00260258
0.00625557
0.00479816
0.00986948
0.00788666
0.0133418
0.0127217
0.018331
0.017316
0.0309431
0.0262846
0.0831495
0.09694
1.14968
2.05074
1.15597
0.00603352
-544.818
-567.152
-539.727
-372.727
-62.6561
-263.89
13.3686
15.5107
9.51388
7.5574
6.38302
6.41304
2.70261
0.0139835
2.57666
0.00441327
0.00596074
0.0028175
0.00298361
0.00320322
1.13215
0.00881259
0.00814095
0.0128762
0.00390815
0.0038808
0.00481295
0.0357626
0.0832987
0.122913
0.364664
0.790195
3.58564
19.4848
7.4652
0.0021896
0.329746
0.00383621
0.00655303
0.00578227
0.00834871
0.00923629
0.0125524
0.0122174
0.015953
0.0169234
0.0198066
0.0240653
0.0233098
0.0250999
0.0304271
0.0297036
0.0364243
0.0336078
0.0402637
0.0422976
0.0597349
0.092959
0.0599386
0.0404435
0.116948
0.0934037
0.170056
0.129908
0.247246
0.189275
0.399957
0.291169
0.719734
0.500695
1.05668
0.876141
1.45475
1.2958
1.7727
1.70269
2.07803
2.11329
1.88852
2.05019
1.70803
1.81063
1.50321
1.62064
1.13908
1.56245
1.21612
1.22179
0.904694
1.20623
0.694395
0.897951
0.561019
0.704291
0.417224
0.554142
0.355116
0.400673
0.366772
0.423608
0.687271
0.648213
1.90222
4.96287
1.56352
5.35092
0.00544729
0.00770154
2.1917
1.1485
1.52754
0.499136
0.508692
-0.00280346
3.7826
3.8911
-456.685
6.78624
6.45981
0.159472
0.0402619
0.16728
15.3261
-20.8756
-355.318
-411.825
-540.811
-582.273
5.08167
20.3936
19.5524
15.335
6.97198
5.99398
4.86122
5.1432
0.000269191
0.00545294
0.0145112
0.0350664
0.0731144
0.0803007
0.0627468
0.0412388
0.0204327
0.00632397
-426.545
-397.807
4.1178
3.08152
-0.00411822
0.00135062
-514.023
-445.718
0.00109071
0.00116161
0.00131455
0.00284244
0.000280806
-0.00263088
2.24102
-0.00106615
-0.0028231
0.000299895
0.000298253
-440.988
-404.897
-38.8164
6.80158
11.001
10.5512
7.83351
6.95412
4.94532
4.13356
3.08605
0.237806
2.25691
0.0922036
0.0288294
0.0573057
0.0155368
0.183826
0.464928
1.45633
6.01364
-24.9533
0.000292591
2.61598
0.00168726
-479.125
5.11687
9.94724
32.1109
-414.397
-353.851
-299.806
-526.003
-514.379
32.7554
20.3809
19.5044
10.7931
9.20359
0.00354787
13.2971
0.00395178
0.00792347
0.0195942
0.0543112
0.0824429
0.0679994
0.053623
0.0300335
0.0114417
19.6986
24.3683
-258.718
-152.152
0.0109303
0.0294013
0.0543906
0.0817132
0.0974443
0.0558597
7.68624
14.0043
0.00437648
0.0196669
0.0414125
0.06307
0.0965584
0.0749078
0.0142972
9.67107
14.7609
19.1421
40.5046
-572.781
-544.656
-390.89
0.00326658
0.00202465
13.1535
5.78162
0.999533
0.00157447
9.3789
0.000295069
0.137067
9.84565
10.787
-572.253
-71.1471
11.6343
0.0613454
0.031634
0.0377663
0.22814
1.82182
-565.605
-368.84
-390.033
43.6213
12.3961
25.2281
-102.967
-373.282
0.0051257
0.0241347
0.00765918
0.0418427
0.019978
0.0010527
0.000796778
0.000966114
0.000719719
0.000840095
0.000614469
0.000696261
0.000534923
0.000592018
0.00045866
0.000523434
0.000369874
0.00031768
0.000460408
0.233432
1.74484
0.163483
0.216554
0.000286363
0.000238783
0.000320745
0.000240552
0.000211005
0.00033117
0.000390999
0.000699336
0.000703503
0.00128541
0.000912348
0.00153367
0.00174836
0.0024113
0.00287316
0.00439039
0.00457014
0.00738761
0.00825129
0.00986532
0.0111293
0.0197519
0.0205719
0.031718
0.0281555
0.0535031
0.0542446
0.156208
0.155095
-602.375
-565.707
-468.964
-213.436
-624.423
0.00311062
12.7881
0.000313702
0.168173
2.70093
0.0473251
4.74468
4.00342
16.6937
15.7174
0.0356353
0.0440365
0.0228918
0.0274077
2.65109
-566.228
1.58513
2.58949
10.3372
11.411
9.56924
27.6092
0.000289164
0.000340668
0.000350901
0.0102419
0.0142855
0.0133187
0.0237362
0.0228724
0.0270068
0.0275643
0.0294613
0.032937
0.035506
0.0363706
0.0418504
0.0460274
0.0511838
0.0525387
0.0691964
0.0887513
0.0652282
-290.841
0.12191
0.109875
0.190734
0.144972
0.287286
0.241322
0.502829
0.418482
0.879909
0.68442
1.30299
1.122
1.82279
1.63582
2.1331
2.07976
2.06584
2.23271
1.86151
2.11763
1.62952
1.87782
1.57437
1.54857
1.23318
1.95681
1.21729
1.31142
0.905949
1.14417
0.713954
0.978147
0.565864
0.782878
0.425134
0.643837
0.435557
0.474995
2.26328
0.00183616
0.1032
0.147915
6.16664
2.94434
-390.439
16.7365
22.6825
37.2286
-127.098
-365.004
-439.199
-325.286
-609.144
3.89066
-486.811
-539.819
-603.323
11.3834
18.5099
16.7214
0.00508247
11.4308
9.45898
11.8351
20.3333
22.1071
0.023329
3.66406
4.57954
6.33824
0.00726385
0.0138817
0.00942625
0.0141304
0.0632988
0.108747
0.0922718
0.0607949
0.0338945
0.0331439
14.8068
15.0923
11.8186
0.00142791
0.000889393
2.46394
2.26139
-533.664
-463.66
-513.51
-534.554
-80.1177
1.40993
-498.473
-556.32
-391.826
1.47894
20.1507
18.0787
20.0436
0.00696854
0.00200044
0.00202487
0.00139717
0.00113437
0.00143061
-459.543
-489.001
1.59135
0.090623
0.0723051
0.00797678
0.00526015
-641.958
1.19905
1.15452
-167.689
16.944
0.00108337
2.30242
2.87774
0.74692
0.161553
0.348424
41.931
7.76953
7.78145
0.0045361
0.00302918
0.00402403
0.00445443
0.0156178
0.0222016
0.0101329
0.0088301
0.0170194
0.531521
3.0315
0.994822
0.0673517
5.91769
0.479632
-376.934
0.0614682
0.799677
0.00627725
0.0168703
0.100586
7.09063
6.7625
6.11928
1.19781
0.845038
0.00471285
-433.743
0.00582289
0.00644249
0.00671695
1.52044
0.0629108
0.0690389
0.00330829
0.00396728
-449.304
-90.4826
0.0125811
-652.883
0.958797
28.1525
0.0110343
4.2609
5.75326
2.93269
0.0457177
0.0057849
0.0206406
0.0859598
0.107076
0.0720748
0.0441338
0.968391
-493.884
-551.759
1.41642
1.39982
0.060889
0.00437805
4.65171
9.63831
5.60076
24.3584
0.0746989
-332.348
-524.041
-646.532
33.8399
0.0241129
0.0493736
0.126041
0.0974521
0.128162
0.0440307
0.00308825
0.0059222
0.00583439
0.000904065
0.000732487
0.000850084
0.0006084
0.000695487
0.000509043
0.000529979
0.000440297
9.67723
3.89973
1.03584
0.070716
0.000376102
0.000532916
0.000578352
0.000945248
0.000877504
0.00164202
0.0016395
0.0030493
0.00226557
0.00516261
0.00406767
0.00848944
0.00792478
0.0125602
0.0108664
0.0181379
0.0154751
0.0347083
0.0301802
0.0428117
0.042504
0.0899423
0.081492
0.225012
0.223571
-559.606
-404.828
-380.407
-453.235
-547.583
5.44709
6.88602
35.5101
4.0097
0.136393
10.891
0.00992277
22.8486
0.0685048
21.4799
0.0512636
0.0566351
-530.785
1.16899
2.92353
3.43091
6.46599
9.72013
0.51206
0.13013
0.0166123
2.5988
3.3789
0.643445
0.0275833
0.0261606
0.0334726
0.03668
0.0401787
0.0423889
0.0429619
0.0455134
0.0531262
0.0534905
0.0607529
0.0685508
0.0810698
0.105219
0.0768239
0.0917507
0.121157
0.147996
0.128411
0.239736
0.199888
0.425587
0.345445
0.700753
0.535594
1.13003
0.837492
1.65096
1.37699
2.10044
1.92152
2.40298
2.41698
2.43359
2.59066
2.26559
2.28206
1.89815
2.53035
1.98657
2.0042
1.44632
1.98333
1.17269
1.48435
1.00121
1.1542
0.780502
1.04152
0.674568
0.774413
0.0785925
-573.695
0.0229677
0.677452
-671.782
-638.014
3.54228
1.07832
1.38972
0.622901
0.0010969
5.61745
3.84213
-49.5139
-483.481
-564.621
24.5317
3.22232
2.35043
1.63792
0.0253855
-445.215
0.0768575
0.0120375
-451.945
-493.047
0.311458
0.241559
0.403554
0.0528189
0.0297804
0.0579004
1.28128
0.769143
2.01942
0.000959721
0.000913182
0.00113437
0.140274
0.164661
0.112751
0.114129
0.0932963
0.0942351
0.00935608
0.61269
-43.6871
25.0821
1.28082
1.47427
-582.414
-536.854
0.105449
0.105811
-585.103
0.0347538
0.034721
0.00147763
0.553787
0.62658
0.092064
3.78626
0.000464579
11.3179
14.0571
0.0132177
0.0168511
0.0143358
0.845505
0.839704
-499.7
31.263
-431.243
-506.188
32.2894
19.007
5.5744
0.0105783
-249.531
0.0136342
0.035747
0.0495556
1.3109
0.714367
0.982785
-578.002
1.26022
0.0922629
10.5771
7.8967
20.9593
14.1956
0.0220987
0.942509
0.000490958
0.00354516
-417.262
0.0177841
0.0874593
0.142839
0.183995
-407.85
0.00952524
0.0146846
0.00188529
45.1138
-410.031
0.516854
0.509158
0.532087
0.00847061
0.00821492
0.0106979
24.9
0.0326918
0.0431309
0.135671
0.00213348
0.145227
14.8621
0.000426092
-516.682
-627.128
0.000479563
24.9352
31.0615
24.3271
0.00461628
0.00049041
0.00920138
0.00948834
0.28866
0.190265
0.280429
0.0542027
0.00286611
0.530191
7.001
5.71931
-499.415
18.3359
0.0525002
-362.491
-515.641
-562.719
0.0697487
0.00478539
0.222718
49.0325
0.1718
0.000691918
0.000613668
0.000533979
0.000617734
0.0916514
0.0961024
-570.369
-466.095
0.00121473
0.00261776
0.00189443
0.00330706
0.00329381
0.0063619
0.00454423
0.00938259
0.00958008
0.0139098
0.01414
0.0210848
0.0206534
0.0350416
0.0327395
0.0535513
0.0528665
0.104872
0.10354
0.289833
0.287531
-519.76
17.4416
44.513
0.0251405
0.802185
3.88397
32.1781
-520.814
0.364271
-481.665
0.0197357
0.0210406
0.0333753
18.4109
-625.866
1.1015
1.0936
4.36733
1.32291
9.72244
0.0310724
0.0451555
0.0443022
0.0527224
0.0524358
0.0587109
0.063023
0.0653523
0.077721
0.084346
0.0848085
0.0936828
0.115599
0.0937658
-647.268
0.174397
-407.453
0.179368
0.133176
0.30306
0.197003
0.554127
0.382326
0.853555
0.670536
1.38047
1.19346
1.95309
1.81
2.70208
2.47484
2.99379
2.88677
2.5507
3.20801
2.5455
2.50119
2.01525
2.88928
2.0052
2.41017
2.01554
2.09959
1.40738
2.00463
1.23729
1.60548
0.988002
1.19769
0.0772762
0.340183
0.103423
0.168625
0.0166324
0.0293878
0.0130452
3.40147
13.9625
-490.931
0.2917
32.3884
0.0177366
0.023597
0.0168989
0.000664394
0.000569663
6.46911
0.000741216
0.00109349
0.000829752
1.05361
-381.503
13.5964
0.0367619
0.035273
3.69195
5.33772
0.00382147
0.00228124
0.00287059
0.135221
0.156875
23.4953
0.101826
0.108116
38.5533
34.9486
0.210228
0.207819
0.26908
0.00188536
0.00130482
0.00201162
6.95838
-273.186
0.132754
0.132799
0.061243
-598.482
-111.648
-285.053
-515.589
-371.848
21.3401
10.0749
0.54863
0.111068
0.111509
1.82968
3.38747
0.0141387
-593.043
14.2957
0.417726
0.663408
0.653037
-463.622
-501.232
42.1773
0.0759272
0.0834613
0.856276
2.4491
9.82442
17.0134
0.978348
8.42821
9.85336
8.36697
0.0294369
0.338695
0.491154
14.5175
38.4418
30.1741
32.0375
12.2788
1.68568
0.00115781
0.00136502
0.15331
0.16893
9.78419
-522.817
0.0146191
0.0277969
1.3505
0.0722566
0.056736
0.269025
0.274959
0.176309
-524.925
0.0466795
0.0545629
0.0251576
25.2483
23.2725
14.8182
0.383697
0.439478
-554.455
1.94189
2.46382
1.44191
0.681221
0.652089
1.51241
0.0541267
0.0307932
0.0644344
0.00485504
0.00912575
0.000771976
5.65368
4.71382
0.0926783
0.0994383
0.0215557
0.0274813
0.0466525
13.5663
0.00109444
0.000801539
13.4441
0.310098
0.092847
0.00447728
0.00702248
0.00597736
0.0108556
0.00908384
0.0164477
0.013638
0.0236562
0.0181727
0.0343489
0.0336724
0.0677651
0.0508833
0.126929
0.125431
0.281909
0.279506
13.0647
0.00871698
0.000868415
0.0550748
9.68073
0.112211
0.793128
0.780284
21.6057
0.215433
8.04517
0.0718303
0.0700016
0.089866
0.0920206
0.0994262
0.095543
0.100285
0.101206
0.105858
0.112893
0.108348
0.20251
0.149003
0.369794
0.263145
0.637963
0.493258
1.07862
0.92121
1.83788
1.37123
2.49483
2.18347
2.89411
2.7584
3.22865
3.24453
2.59491
3.59164
2.9183
3.16022
2.42592
2.8055
2.11666
3.21336
2.3315
2.86738
1.60128
2.21069
0.0153496
0.097079
0.168204
17.3081
0.0349846
0.0342569
0.125673
0.125502
0.00269956
0.642482
0.580164
0.0518125
0.0499645
5.03998
0.172974
0.216338
19.2435
0.0451388
0.0508146
0.0741816
0.183813
0.19923
0.2317
7.50239
7.06957
8.8509
0.20421
0.238702
0.429847
3.29029
4.60244
0.055008
15.6685
0.542862
0.539881
0.000692877
12.4206
7.43001
0.0091982
0.122526
0.162684
0.00115695
0.00117156
1.03936
0.020286
32.5056
0.0354073
0.494555
0.0601374
0.064425
1.19329
1.51502
1.23161
0.000824532
0.000620889
0.00957805
0.0144606
0.0016778
1.95311
0.206527
0.21996
16.3498
12.2615
0.250284
0.168895
0.258951
0.0790204
0.0469257
0.00273166
0.00364542
0.0660053
0.0686675
0.000829461
0.000832294
0.0483228
0.00142135
0.00238353
0.0013323
0.114957
0.161542
0.0918996
0.33464
0.396895
2.03889
0.621666
0.631699
0.00191626
0.00179691
3.40505
4.08409
0.170828
0.00426473
0.0100585
0.0142288
0.0138157
0.0235077
0.0195175
0.0420411
0.0415726
0.0625648
0.0498403
0.154195
0.131871
0.257533
0.255979
2.08411
0.00295629
0.0029369
0.117783
0.252651
0.220941
0.0796088
1.63901
1.5531
2.31381
6.7018
0.00442164
0.102676
0.120193
0.121192
0.13876
0.134835
0.140921
0.14763
0.161439
0.155158
0.260163
0.499431
0.265099
0.931924
0.596924
1.38907
1.16341
2.06897
1.73857
2.83637
2.57587
3.35156
3.36506
3.62172
3.59998
3.16342
3.58648
2.82005
3.10596
3.23612
3.13356
2.8928
3.83931
2.34635
2.70851
2.93413
0.00100891
0.0766171
0.0989816
0.073273
0.0283546
0.0217843
0.0312228
0.517742
0.0600487
0.00381621
0.278704
0.653625
0.480885
0.468157
0.0450049
0.0355242
0.0621259
0.345406
0.205275
9.49732
0.245612
0.0860282
0.0865678
0.126292
13.5304
10.6926
12.0942
0.00431225
0.00210829
0.263049
0.312917
0.294084
0.353003
0.00395676
0.505696
0.25911
0.0698147
0.14614
0.2774
10.7604
10.9653
0.0054082
0.00685822
0.00635939
1.78566
0.00982977
0.109779
0.0994079
6.31502
0.0634868
0.00372091
0.00109217
0.00150567
0.00132395
0.357519
0.136663
0.160886
0.222367
0.337471
0.484206
0.275514
0.00766766
0.0018188
0.786133
0.796424
0.352536
0.356276
9.40454
7.91823
0.0931053
0.146577
0.0908619
0.204297
0.219185
3.41311
4.47266
6.26194
6.30994
10.7794
5.73846
0.477978
0.0024311
0.160455
0.0197856
0.0495243
10.5853
10.4458
0.419668
0.423259
0.166533
0.238876
0.178065
0.178076
0.159111
0.182446
0.283666
0.619435
0.37463
1.01162
0.626652
1.74286
1.1038
2.60055
1.99561
3.35472
2.79235
3.60427
3.75713
3.57907
4.10167
3.48067
3.61074
3.44575
4.08599
3.92876
3.57142
7.84941
0.391434
0.128451
0.166127
0.131271
0.236279
0.135474
0.130605
0.194611
0.291372
2.17265
0.433998
8.41389
0.27216
0.116604
2.97221
0.00935713
0.337321
0.343987
0.0346311
7.17244
0.161804
0.016308
2.75967
8.34239
0.51693
0.0168736
0.245468
0.232314
0.374158
0.408801
3.71244
3.74561
4.05622
2.60893
4.44198
1.58286
1.58594
0.00239324
0.243109
0.290132
6.11137
7.13682
6.56008
4.90995
0.972452
1.01448
0.257871
0.242859
0.388853
7.38259
0.181012
4.12585
4.70077
3.59547
0.534887
1.15685
0.581324
1.94884
1.2359
2.86195
2.07308
3.75081
2.96722
4.29086
4.17141
4.5629
4.57024
4.09239
5.21041
0.511431
9.68599
9.05288
7.74656
0.437504
2.57637
7.74714
0.220032
0.414098
0.390771
0.254709
4.09721
0.205725
0.239489
6.09636
0.143667
4.32098
5.53262
6.30412
1.16775
1.86218
2.04945
0.224054
0.195274
3.02998
2.64122
3.9724
5.36024
0.189489
0.57103
2.04679
3.03088
4.59788
5.41891
0.631853
0.555679
1.101
6.69448
6.65309
0.599102
5.23685
2.13913
1.22746
2.21492
5.60051
5.6408
0.299269
0.944113
0.230743
0.29068
5.43614
4.39809
0.406223
4.43421
2.17832
0.297213
3.32683
3.32587
4.49782
0.380699
3.40351
3.90671
0.00201085
0.00141441
0.000770755
0.00056868
0.000364101
0.000275024
0.000210654
0.000219665
0.000428392
0.000413207
0.000398641
0.000451442
0.000414461
0.000446879
0.000447209
0.000426666
0.000476013
0.000476553
0.000482259
0.000490979
0.000487716
0.000503452
0.000495993
0.000499395
0.000486501
0.000510136
0.000474116
0.000500787
0.000459321
0.000488037
0.000439744
0.000464362
0.000413993
0.000444714
0.00038807
0.000415517
0.000355949
0.000382745
0.000328201
0.000348983
0.00029516
0.000317041
0.00026256
0.000274117
0.000248484
0.000255026
0.000443375
0.0110701
0.00815691
0.00714839
0.00723686
0.00474831
0.00553764
0.00363568
0.00401365
0.00302032
0.00338615
0.00257422
0.00264645
0.00233891
0.00250528
0.00219842
0.0022868
0.00176408
0.00181141
0.00112373
0.00162608
0.000595532
0.000500836
0.00077368
0.0130843
0.0152923
0.0168826
0.0100365
0.00658695
0.00474869
0.00259063
0.00203091
0.00848501
0.00698361
0.00575281
0.00336768
0.00235898
0.00260928
0.00199879
0.00196337
0.0016399
0.00154373
0.00144232
0.00130287
0.00116921
0.00107192
0.000988801
0.000925161
0.000792429
0.000780447
0.00615181
0.00364613
0.00191808
0.00152082
0.00102622
0.000949138
0.000896964
0.000217771
0.00145631
0.0010281
0.000964341
0.000614512
0.000401481
0.000307757
0.000241884
0.000716345
0.0107282
0.0125566
0.0134514
0.000225112
0.0116276
0.0132731
0.0156722
0.0120583
0.00919211
0.0064826
0.00355049
0.00224933
0.00832663
0.00653019
0.00782838
0.00464179
0.000598271
0.00503796
0.00518615
0.00382038
0.00267155
0.00162517
0.000776531
0.00124042
0.000922633
0.000915736
0.000747171
0.00148749
0.000454261
0.000322616
0.000257576
0.0092602
0.00645134
0.0036596
0.00196639
0.00173403
0.00880292
0.00767677
0.00607639
0.0045147
0.00257264
0.00167833
0.00119664
0.00081553
0.000842521
0.000736924
0.00029895
0.000225511
0.00232666
0.00928417
0.00708116
0.00502609
0.000973144
0.000823099
0.00078872
0.000618487
0.000394116
0.000638499
0.00293362
0.0141147
0.00624733
0.00834738
0.0105661
0.0153256
0.0137211
0.00477758
0.00144013
0.00185768
0.00105243
0.00300037
0.000347374
0.000589696
0.000277122
0.00845276
0.00210216
0.000718417
0.000620367
0.000531101
0.00056498
0.000499572
0.000561636
0.000526891
0.00058923
0.000581709
0.000591182
0.000562881
0.000610672
0.000593236
0.000567629
0.000522679
0.000502773
0.000471994
0.000422429
0.000476067
0.000377398
0.000416421
0.000337461
0.0003587
0.000289801
0.000304092
0.00823472
0.00692885
0.00503309
0.006608
0.00390238
0.00488681
0.00297392
0.00344024
0.00267222
0.00299424
0.00254807
0.00250583
0.00236071
0.00235493
0.00161179
0.00176366
0.00118261
0.00132306
0.00504002
0.000235258
0.000634914
0.0129364
0.0140415
0.00654505
0.0104911
0.003622
0.00379831
0.00277783
0.00726657
0.0019254
0.00173199
0.0132832
0.00144603
0.00998874
0.00538937
0.00918454
0.00680698
0.00344441
0.00310337
0.000889483
0.0104269
0.000421213
0.000372847
0.00563398
0.00154436
0.00125895
0.00145448
0.00117274
0.00123247
0.000971763
0.00102513
0.000785925
0.00073811
0.00066801
0.000620607
0.00110525
0.00193457
0.000638929
0.000623157
0.000643463
0.000608987
0.000570825
0.000505699
0.000303299
0.000292502
0.0115411
0.0122023
0.00974001
0.0012474
0.00148069
0.00130262
0.00263755
0.00245164
0.0024948
0.00211908
0.00296873
0.00896806
0.00552402
0.00056212
0.00157136
0.0018722
0.00150115
0.000241352
0.0120134
0.00051399
0.0125435
0.000233482
0.00126393
0.00103062
0.00054642
0.000265415
0.000330711
0.000260424
0.00186579
0.000247496
0.000689061
0.000589392
0.00107435
0.00957801
0.00048514
0.000470274
0.000432257
0.000921529
0.00339163
0.00282598
0.00419379
0.00210506
0.00211059
0.000562386
0.000646718
0.000273954
0.000317743
0.000279319
0.000303351
0.000281291
0.00577072
0.000403794
0.000315957
0.00030185
0.000347582
0.00427949
0.00304985
0.00243073
0.00209076
0.00173432
0.00142107
0.00120469
0.00164099
0.00246111
0.00136786
0.00139577
0.000456664
0.00146065
0.000651737
0.00122403
0.00586884
0.00401388
0.0004713
0.000483321
0.000912418
0.000873753
0.000778476
0.000831978
0.000597752
0.000579524
0.000532905
0.000563439
0.000669112
0.00292602
0.00102458
0.00122512
0.000397023
0.000360289
0.00196105
0.000575395
0.000463749
0.000433827
0.000985066
0.00041348
0.000917716
0.000455537
0.0010191
0.00146795
0.00115408
0.00153774
0.00211468
0.00159073
0.00213587
0.000386045
0.000335778
0.000366203
0.000332417
0.000590371
0.000394729
0.000449017
0.000420426
0.000709029
0.000631342
0.000794069
0.00075736
0.000535089
0.000497941
0.000482495
0.000755496
0.000879966
0.000756913
0.00142495
0.00108547
0.000507627
0.000535785
0.00135504
0.000355181
0.000396988
0.00162606
0.00147434
0.0170071
0.0291186
0.0678487
0.187779
0.375112
0.455435
0.344188
0.171747
0.086443
0.0613792
0.0339839
0.011605
0.00125663
0.0305589
0.00964968
0.0916252
0.110751
0.133149
0.116545
0.06416
0.0516068
0.0313048
0.000345012
-0.0178547
-0.0127831
0.00252415
0.00411172
0.00587548
0.00484238
0.0092899
0.00705219
0.0130453
0.00993908
0.0197585
0.0152286
0.0346675
0.0218853
0.0532715
0.0368743
0.0820811
0.0562001
0.108986
0.088923
0.134705
0.117146
0.147092
0.127735
0.139139
0.123083
0.115147
0.115918
0.104421
0.106119
0.086337
0.0886505
0.0736916
0.0749402
0.0572943
0.0618708
0.0446773
0.0448391
0.0264985
0.0321457
0.0136546
0.0205161
0.0019028
0.00759549
-0.00703223
-0.0044571
-0.0160448
-0.0114272
0.00381078
0.0231346
0.0270394
0.0298519
0.032186
0.0324244
0.0338751
0.0388445
0.0315384
0.0412185
0.028795
0.0357546
0.0236205
0.0291721
0.0208279
0.0269279
0.0152724
0.0245488
0.0120125
0.0159207
0.00946523
0.0131636
0.00624491
0.00801575
0.00479324
0.00586063
0.00410389
0.00474363
0.00342615
0.00327367
0.00394417
-0.0192009
0.0392617
0.12697
0.263875
0.47682
0.409157
0.265624
0.116015
0.074628
0.0487269
0.0197677
0.00420874
0.0518264
0.0545293
0.0465877
0.0160535
0.0575934
0.0555262
0.118859
0.0638573
0.0942025
0.0448008
0.0490655
0.0180079
-0.0129887
0.0525718
-0.0163556
0.176488
0.391543
0.0371111
0.0249149
0.0814606
0.307922
0.56323
0.554072
0.355318
0.184245
0.0893667
0.0523565
0.0315129
0.0102992
0.0832385
0.0395019
0.0209655
-0.00856143
-0.0194414
0.612354
0.465806
0.250565
0.125937
0.0684909
0.0412809
0.0185639
0.00492394
-0.0139932
0.00949356
0.0552524
0.0320242
0.025397
0.711761
0.358382
0.687006
0.906383
0.0388844
0.577111
0.301019
0.159221
0.0722875
0.0421624
0.0192593
0.00777066
0.0112714
0.0604848
-0.00784427
0.0466184
0.031259
0.0552836