/*--------------------------------*- C++ -*----------------------------------*\
| =========                 |                                                 |
| \\      /  F ield         | OpenFOAM: The Open Source CFD Toolbox           |
|  \\    /   O peration     | Version:  v2012                                 |
|   \\  /    A nd           | Website:  www.openfoam.com                      |
|    \\/     M anipulation  |                                                 |
\*---------------------------------------------------------------------------*/
FoamFile
{
    version     2.0;
    format      ascii;
    class       volScalarField;
    location    "4";
    object      rho;
}
// * * * * * * * * * * * * * * * * * * * * * * * * * * * * * * * * * * * * * //

dimensions      [1 -3 0 0 0 0 0];


internalField   nonuniform List<scalar> 
108993
(
1.17165
1.17173
1.17201
1.17181
1.17173
1.17165
1.17164
1.17166
1.17195
1.17166
1.17202
1.17205
1.17179
1.17192
1.17167
1.17209
1.1716
1.17168
1.1718
1.17178
1.17165
1.1719
1.17208
1.17165
1.17179
1.17176
1.17202
1.17179
1.17171
1.17166
1.17204
1.17194
1.17202
1.17169
1.17184
1.17168
1.17203
1.17177
0.763246
0.64265
1.17191
1.17203
1.17199
1.17182
1.17178
0.527802
1.17202
1.17164
1.17166
1.17205
1.17203
1.1702
1.17179
1.17205
1.17166
1.17169
1.17202
1.17173
1.17186
1.17173
1.17174
1.17178
1.17167
1.17209
1.17178
1.17178
1.17177
1.17178
1.17184
1.1623
1.17166
1.17178
1.17178
1.17177
1.17166
1.17204
1.1721
1.17168
1.17201
1.17177
1.17175
1.17176
1.17191
1.17205
1.17168
1.17203
1.17205
1.17206
1.17171
1.17175
1.17175
1.17204
1.17174
1.17175
1.17174
1.17198
1.17204
1.17184
1.17203
1.1721
1.17175
1.17185
1.17172
1.17188
1.17178
1.17175
1.1717
1.17185
1.17194
0.657114
1.17163
1.17176
1.17114
1.16988
1.17199
1.17084
1.17172
1.17196
1.17174
1.17203
1.17178
1.17184
1.17091
1.17203
1.17175
1.17206
1.17192
1.17177
1.17185
1.17184
1.17202
1.17184
1.17187
1.17008
1.17203
1.17208
1.17185
1.17188
1.17168
1.17191
1.17204
1.17209
1.17186
1.17185
1.17185
1.17179
1.1718
0.520865
1.17204
1.16952
1.16906
1.17175
1.17208
1.16886
1.17192
1.1718
1.1718
1.17193
1.17198
1.17123
1.16903
1.17197
1.17206
1.17166
1.17198
1.16955
1.17169
1.1721
1.17209
1.17197
1.17185
1.17171
1.17171
1.17207
1.17176
1.17184
1.17174
1.17209
1.17194
1.172
1.17175
1.17191
1.17194
1.17203
1.1719
1.17177
1.17192
1.17176
1.17175
1.17203
1.17194
1.17196
1.17191
1.17175
1.17193
1.17193
1.17191
1.17183
1.17182
1.17203
1.17169
1.17179
1.17165
1.17188
1.17164
1.17113
1.17194
0.771475
1.17188
1.19124
1.16917
1.17181
1.17179
0.817182
0.366695
1.1718
1.17171
1.17196
1.17194
1.17198
1.17191
1.16997
1.17187
1.17185
1.17208
1.17209
1.17194
1.17203
1.16719
1.17196
0.959502
1.17169
1.17209
1.17176
1.17202
1.17202
1.17195
1.17183
0.97183
1.17194
1.17209
1.17193
1.17165
1.17193
1.1719
1.17205
0.800642
1.1707
1.17193
1.17191
1.1721
1.1718
1.17194
1.17196
1.17191
1.17194
1.1719
1.17207
1.17198
1.17166
1.17203
1.17165
1.17167
1.17202
1.17199
1.17193
1.17207
1.1717
1.17167
1.17189
1.17166
1.17207
0.876348
1.16161
0.58834
1.17193
1.17206
1.17086
1.17198
1.17185
1.17187
0.691034
0.614835
1.17186
1.1719
1.17205
1.1718
1.1719
1.17194
0.629726
1.17179
1.17206
1.1719
1.17206
1.17198
1.17202
1.17202
1.17205
1.17162
1.17165
1.17113
1.17108
1.17174
1.17164
1.17194
1.17166
1.17202
1.17166
1.17166
0.901804
1.17167
1.17178
1.17182
1.17169
1.17167
1.17118
1.1721
1.1718
0.602343
1.17195
1.17179
1.1721
1.17166
1.17165
1.17182
1.15897
1.16458
1.17126
1.17198
1.17191
1.17208
1.16997
1.16643
1.17195
0.922313
1.17165
1.17208
1.17175
1.17193
1.17191
1.17199
1.17129
1.17193
1.17176
1.17182
1.17166
1.17204
1.17169
1.1721
1.17204
1.17206
1.17165
0.689454
0.859167
1.17194
1.17178
1.17182
0.548506
1.1721
1.1721
1.17204
1.17193
1.17205
1.17208
1.17166
1.17191
1.17206
1.17191
1.1718
1.06174
1.17197
1.17203
1.17207
1.16787
1.17194
1.16498
1.17187
1.17196
1.17083
1.17197
1.17034
1.1707
1.17189
1.17199
1.17165
1.17194
1.17183
1.05853
1.17186
0.735457
1.17062
1.17193
1.17041
1.17186
1.06538
1.17193
1.18133
1.17202
1.17191
1.17195
1.17193
1.1682
1.16884
1.17204
1.17196
1.17194
1.17195
1.1718
1.17194
1.13077
1.17182
1.17209
1.16657
1.17165
1.17206
1.17198
1.16259
1.17155
1.13424
1.17165
1.06238
1.17175
1.16884
1.1721
1.17171
1.16651
1.1717
1.16851
1.16599
1.17165
1.19281
0.580591
1.16832
1.17187
1.17204
1.17168
1.17205
1.17185
1.17205
1.17206
1.17176
1.17198
1.17193
1.17166
1.0896
1.17184
1.17184
1.17171
1.17198
1.17166
1.17209
1.17171
1.17199
1.17176
1.17205
1.17169
1.17178
1.17167
1.17197
1.17207
1.17124
1.17204
1.17119
1.17027
1.17164
1.17207
1.17165
1.17121
1.17208
1.17209
1.17157
1.17172
1.17198
1.17209
1.17208
1.17201
1.17209
1.17114
1.10372
1.17153
1.17178
1.17198
1.17199
1.17206
1.1721
1.1721
1.17205
1.1721
1.17185
1.17169
1.17177
1.17171
1.17191
1.1721
1.17142
1.17166
1.1721
1.17205
1.17202
1.17177
1.17185
1.17199
1.17207
1.17205
1.17178
1.17075
1.17208
1.17208
0.866764
1.17205
1.17192
1.17183
1.17203
1.17198
1.17203
1.17188
1.17172
1.17202
1.17166
1.17171
1.17208
1.17209
1.17181
1.17182
1.17175
1.17162
1.17175
1.172
1.17165
1.17181
1.17164
1.17169
1.17164
1.17185
1.17181
1.17201
1.17098
1.17194
1.17168
0.977228
1.17165
0.58242
1.17165
1.1717
1.172
1.1719
1.17171
1.1717
1.17192
1.17207
1.17107
1.17165
0.706419
1.17169
1.17176
1.17165
1.1721
1.17196
1.34554
1.17175
1.17175
1.17207
1.1721
1.17183
0.917934
1.16925
1.17177
1.17208
1.17193
1.17192
1.17207
1.17184
0.285008
0.936077
1.1684
1.172
1.17181
0.910541
1.16526
1.17167
1.17192
1.17176
1.1719
1.17182
1.17166
1.17145
0.579717
0.934137
1.17202
1.17208
1.17194
1.17166
1.17165
1.17201
1.16046
1.17186
1.17195
1.17165
1.17166
1.17177
1.172
1.17197
1.34523
1.17184
1.17187
1.17165
1.26135
1.17165
1.17183
1.17209
1.16756
1.17209
1.17177
1.17209
1.17186
1.17209
1.172
1.17165
0.805383
1.17208
1.16829
1.17207
1.17175
0.554954
1.17165
1.17177
1.17198
1.1716
0.508913
1.17205
1.16736
1.1718
1.17138
1.16454
1.17207
1.1717
1.17166
1.01807
1.17132
1.17121
1.17167
1.171
1.1721
1.17204
1.17205
1.17206
1.17206
1.17165
1.1719
1.17204
1.17203
1.1714
0.789486
0.765159
1.16721
1.17164
1.17172
0.718709
0.995306
0.625996
0.808104
1.17173
1.17185
1.17203
1.17192
1.1721
1.17159
1.17206
0.96817
0.88245
1.17189
1.17177
1.16947
0.678179
0.712188
1.17177
1.17196
1.17155
1.17173
0.60222
1.17168
1.00834
1.17157
1.17205
0.554288
1.17197
1.1193
1.17156
1.17156
1.16181
1.17194
1.17198
1.17181
1.17165
1.17167
0.918926
1.17162
0.890301
1.17163
1.13671
1.17164
1.1721
1.17209
1.1721
1.17174
1.17165
1.17189
1.1719
1.17206
1.17209
1.17201
0.577444
0.586797
1.17173
0.986731
1.17178
1.17146
1.17162
1.17165
1.1715
1.17165
1.17205
1.1712
1.17205
1.1717
1.17204
1.1718
1.17159
1.17148
1.17174
1.17155
1.17204
1.17209
1.17206
1.17206
1.17166
1.07145
1.17209
1.17201
1.17166
1.1721
1.17202
0.468727
0.938382
1.17195
1.17189
1.17192
1.17193
1.17192
1.17167
1.17179
1.17209
1.1721
1.17194
1.1721
1.17186
1.17209
1.1721
1.17178
1.17165
1.17198
1.17208
1.17193
1.17199
1.1716
1.17189
1.17165
1.06432
1.17183
1.17198
1.17197
1.1749
1.172
1.17098
1.17136
1.17184
1.17197
1.15196
1.1702
1.17177
1.1721
1.1695
1.17199
1.17198
1.17192
1.1721
1.17183
1.17165
1.17193
1.17161
1.17206
0.570453
1.17209
1.17196
0.429438
1.17199
1.16492
1.17186
1.16961
1.17166
1.17186
1.17202
1.17175
1.1721
1.17205
1.17204
1.17178
1.17184
1.17185
1.17195
1.1721
1.17191
1.17207
1.17155
1.17195
1.16682
1.17166
1.17192
0.390526
1.17166
1.17028
1.17177
1.17185
1.17195
1.42452
1.17188
1.17166
1.17163
1.17143
1.17165
1.1716
0.70976
1.17169
1.17201
1.17178
1.17165
1.17201
1.17096
0.406003
1.172
1.17166
1.17195
1.16999
1.17194
1.17167
1.17159
1.17199
1.17207
1.58348
1.17196
1.42828
1.17189
1.64337
1.17196
1.17185
1.17201
1.17169
1.17104
1.17196
1.17201
1.17201
1.16448
1.17197
0.496215
1.17202
1.17205
1.17209
1.17131
1.17195
1.1717
1.1718
1.17197
1.17195
0.56857
1.17208
1.17177
1.17162
1.13101
1.17174
1.1714
0.662976
0.476831
1.17203
1.17038
1.1721
1.16597
1.1717
1.16524
0.532156
1.15289
1.1718
1.17193
1.17191
1.17175
1.17172
1.17209
1.17175
1.17156
1.17142
1.17175
1.17012
1.17185
1.17167
1.16735
1.17201
1.1717
1.17194
1.14681
1.17165
1.17166
1.17166
1.17183
1.17161
1.16971
1.16285
1.17184
1.16383
1.17177
1.17163
1.17164
1.17207
1.17182
1.17205
1.17166
1.17191
1.17192
1.1718
1.16909
1.17171
1.17199
1.1716
1.17199
1.17179
1.17159
1.17182
1.17165
1.17187
1.17043
1.17168
0.858111
1.17165
1.17176
1.17189
1.17161
1.16971
1.17198
1.17162
1.15798
1.17099
1.17125
1.17172
1.1717
1.17151
1.17127
1.17184
1.17169
1.05118
1.17165
1.17161
1.17169
1.17203
1.17123
0.481949
1.17025
1.17177
1.17163
1.17158
1.17179
1.17204
1.17202
1.17161
1.17072
1.17162
1.17203
1.17165
1.17148
1.17208
1.17171
1.17197
1.17149
1.1719
1.17207
1.1719
1.17165
1.17197
1.1719
1.17166
1.16946
1.17188
1.1721
1.17169
1.17182
0.490274
1.1721
1.1717
1.17164
1.17165
1.17166
0.750674
1.17165
1.17205
1.17191
1.1717
1.17092
1.17184
1.17034
1.17207
1.17191
1.17123
1.17208
1.17165
1.17122
1.04753
1.17165
1.1719
1.1719
1.17173
1.1721
1.17198
1.1721
1.17166
1.17194
1.17199
1.1237
1.17193
1.17197
1.17186
1.17192
1.17201
1.17155
1.17176
1.17194
1.17192
1.17204
1.17201
1.17152
1.17189
1.17202
1.17201
1.15642
1.17208
1.17184
1.17202
1.17174
1.17206
1.17189
0.743215
1.17126
1.17186
1.17181
0.713221
1.17173
1.1715
1.1719
0.623898
1.17171
1.17175
1.17175
1.17155
1.17175
1.09661
1.1717
1.17207
1.17193
1.17192
1.17169
1.17207
1.17176
1.17103
1.17181
1.1717
1.16895
1.1714
1.17184
1.17195
1.17209
1.17207
1.17202
1.1721
1.17177
1.17171
1.16598
1.17175
0.584596
1.17173
1.17196
1.1721
1.17187
1.16987
1.1721
1.17172
1.17178
1.17185
1.17208
1.17185
1.16752
1.17198
1.17208
1.17138
1.17168
1.17182
1.17183
1.17194
1.17183
1.17191
0.651473
1.17186
1.1718
1.17182
1.17207
1.17201
1.17203
1.17208
1.17165
1.17177
1.17178
1.17203
1.17187
1.17188
1.17175
1.17194
1.17207
1.17209
1.17179
1.17164
1.17191
1.15996
1.17025
1.17084
0.529783
1.17193
1.17177
1.17209
1.17168
1.17165
1.17192
1.17166
1.17208
1.17198
1.1693
1.17205
1.17197
1.17165
1.17165
1.17192
1.17186
1.16117
1.16691
1.1718
1.17176
1.17201
1.17189
1.1721
1.17208
1.16505
1.17209
1.17201
1.1721
1.17189
1.1721
1.17162
1.17171
1.17163
1.12582
1.17193
1.17192
1.17193
1.17084
1.17181
1.17173
1.17176
1.17176
1.16931
1.17166
1.17178
1.17196
1.17195
1.17195
1.11264
1.17178
1.17208
1.17164
1.17182
1.1699
1.1716
1.17196
1.17168
1.17198
1.17203
1.17198
1.17187
1.17183
1.1707
0.86812
1.17174
1.17209
1.17209
1.17172
1.17165
1.17203
1.17166
1.17165
1.17167
1.1522
1.1716
0.759486
1.17203
1.17195
1.17174
1.17161
1.17141
1.17202
1.17197
1.17167
1.17199
1.04156
1.17163
1.17155
1.17081
1.17191
1.17167
1.17165
1.17175
1.17165
0.332324
1.17206
1.17166
1.17178
1.16796
1.17192
1.17208
1.17187
1.1721
1.17141
0.812266
1.172
1.17195
1.17175
1.17158
1.17171
1.17172
1.17171
1.172
1.1721
1.17136
1.17156
1.17168
0.766679
1.17171
1.17202
1.17194
1.17188
1.16816
1.17209
1.1719
1.17149
1.16431
1.16903
1.1721
1.17178
1.17196
1.17172
1.11864
1.14916
1.16015
1.17139
1.15312
1.17192
1.12668
1.11611
1.17191
1.1719
1.17166
1.17159
1.17173
1.17195
1.1721
1.17189
1.17193
1.17197
1.17197
1.17156
1.17176
1.17179
1.17209
1.17177
1.17208
1.17209
1.17203
1.17142
1.16925
1.17209
1.16944
1.17209
1.17197
1.17166
1.17167
1.17164
1.17207
1.17194
1.17089
1.17208
1.17178
1.17177
1.17209
1.17177
1.15844
1.17177
1.17198
1.17183
1.17173
1.1711
1.17177
1.17205
1.17164
1.17206
1.17176
1.17206
1.17203
1.17201
1.17165
1.17192
1.17206
1.17089
1.17177
1.17133
0.655778
1.1717
1.171
1.17197
1.17166
1.17164
1.1721
1.17202
0.648901
1.07324
1.17153
1.17174
0.908637
1.17163
1.17174
1.17166
1.17173
1.17174
1.17177
1.17187
1.16983
1.17192
1.17202
1.17207
1.17168
1.17164
1.1721
1.17209
0.328488
0.462567
1.17168
1.17201
1.17119
1.17174
1.17196
1.1721
1.17209
1.17143
1.1721
1.17196
1.1719
1.17169
0.945749
1.17185
1.17167
1.17157
1.17138
1.17195
1.17152
1.16342
1.17197
1.172
1.17165
1.17065
1.17193
1.17185
1.17166
1.17097
1.17156
0.662058
1.17165
1.17165
0.686123
1.17164
1.17171
0.661141
1.17165
1.17205
1.17164
1.17207
0.603091
1.17169
1.17171
1.16907
1.17165
0.531586
1.17164
0.534774
1.17164
1.17203
0.546242
1.17165
1.17204
0.61169
1.1716
1.17206
1.16966
1.17168
1.17182
1.17169
0.665158
1.1713
1.17174
1.17115
1.17172
1.16191
0.813154
1.16801
1.17167
0.789106
1.17166
1.09562
1.17193
1.17166
1.17166
1.1721
1.17197
1.17201
1.17209
1.17166
1.17049
1.16708
1.17173
0.948577
1.17166
1.17187
1.17167
1.17165
1.17167
1.17207
1.05311
1.1682
1.17183
1.17194
1.17193
1.17023
1.17175
1.17171
1.17067
1.17203
1.17168
1.1717
1.17164
0.372625
1.17086
0.674742
1.16027
1.17168
1.17168
1.1672
1.17166
1.17171
1.17166
0.947444
0.605978
0.974766
1.10086
1.17168
1.17168
0.459642
1.17169
1.17164
1.17209
1.17171
1.17195
1.1717
1.17165
1.17177
1.17165
1.08797
1.17147
1.17164
1.17143
1.17144
1.17169
1.16921
1.17197
1.17167
1.1717
1.1721
1.17184
1.17189
1.17189
1.17172
1.17172
1.17065
1.1714
1.16949
1.17166
1.17202
0.611739
1.16758
1.17188
1.17108
1.1718
1.17168
0.982628
0.630228
0.645276
1.15953
1.1718
1.04487
0.49521
1.15781
1.17195
0.939384
0.981956
1.00439
0.914454
1.17198
0.607975
1.0939
1.17208
1.13595
1.17057
1.07344
1.17157
1.1666
1.17154
1.17185
0.748149
0.61307
0.612469
1.17196
1.17202
0.58216
1.17167
1.17168
1.17013
1.17192
1.07241
1.17156
1.17165
1.17168
1.17166
1.17166
1.17155
1.16989
0.617818
1.15387
1.16212
1.17175
1.17
1.17154
1.17185
1.17193
1.17188
1.17165
1.17165
1.17189
1.17168
1.172
1.17167
1.17166
1.17204
1.16823
1.17154
1.17179
0.589717
1.17147
1.17165
1.16703
1.17166
1.17169
1.17164
1.17165
1.17186
1.1717
0.689967
1.17095
1.17139
1.16868
0.738789
1.17179
1.17168
0.903135
1.17095
1.17188
1.15511
1.17196
1.17189
1.1721
1.17098
1.1719
1.07661
1.17193
1.17203
1.17166
1.17172
1.16234
1.17178
0.923746
1.17208
1.16167
1.17077
1.17165
1.17193
0.67391
1.16564
0.76438
1.16776
1.17174
1.16952
0.723233
1.17173
1.17196
1.1715
1.17187
0.923736
1.1721
0.911313
1.16747
0.95736
0.916941
0.8088
1.16938
0.935949
1.1717
0.352298
0.491242
1.17154
1.11198
1.17176
1.17166
1.01019
1.172
1.11763
1.17151
1.17174
1.17173
1.17171
1.16488
1.17178
1.17168
1.17191
1.17209
1.1721
1.17192
1.17182
1.17166
0.362614
1.15063
1.17174
1.15084
1.17164
1.17166
1.17196
1.14742
0.54303
1.17195
1.17173
1.08963
1.16078
0.553727
1.17014
1.1721
0.857363
1.17172
1.17198
1.17196
1.52532
1.17209
1.16881
1.17138
1.16992
1.16747
0.622102
1.17209
0.961794
1.17165
1.17165
1.17198
1.1721
1.17165
1.1721
1.17202
1.11479
1.16471
0.450399
1.172
0.901036
1.17174
0.684314
1.17199
1.16768
1.16262
1.14854
1.17194
1.17199
1.17181
1.17185
1.17173
1.17206
1.17181
1.15547
1.17168
0.918999
0.955333
1.17126
1.0319
0.649414
0.399325
1.13496
1.17165
1.16294
1.17133
1.17203
1.17193
1.16549
0.943652
1.1721
1.17202
1.17209
1.17192
1.17175
1.16134
1.16245
1.14183
1.16439
1.17192
1.10388
1.1706
1.17209
1.17169
1.17209
1.17162
1.1557
1.17162
1.17162
0.987128
1.17191
1.17201
1.17162
1.172
1.17187
1.17173
1.17076
1.17185
1.172
1.1708
1.16958
0.640499
1.17173
1.17188
1.17168
1.17203
1.17173
1.17176
1.17012
0.746125
1.17176
1.172
0.406496
1.17175
1.1718
1.17174
1.17175
1.17042
0.531935
0.440231
1.16978
1.17054
1.17178
0.733619
1.17174
0.978717
0.566646
1.17178
1.15133
1.17186
1.172
0.541902
1.17188
1.17179
0.551134
1.12671
0.568671
0.538861
1.1719
1.16989
1.171
0.988794
1.17201
1.17186
0.630223
0.574026
0.750359
0.983974
1.17165
1.17165
1.1712
1.14986
0.725962
1.15549
1.17163
0.555771
1.1718
1.17168
0.500389
0.573239
1.16979
1.17091
1.13319
1.16971
0.411469
1.17176
1.15963
1.17167
0.569169
1.1717
1.17121
1.17084
1.17175
0.532402
1.17168
1.15344
0.5511
1.17165
1.17171
0.742971
1.1717
1.17202
1.17205
1.17168
1.16148
1.17168
0.549257
0.584856
1.17204
1.17178
0.65142
1.17201
1.1721
1.17102
1.1721
1.17209
1.17173
1.17198
0.916542
0.896113
0.581905
1.17197
1.17191
0.60592
1.17183
1.09238
1.04279
1.172
1.1721
1.1721
1.17203
0.852981
1.17165
1.1717
1.17165
1.17197
1.17207
1.03243
1.1641
1.17209
1.17194
1.27582
1.17206
1.17091
1.17165
1.17003
1.17191
1.13943
0.923777
1.172
1.17165
1.17165
1.17026
0.487008
1.17165
1.13786
1.17169
1.17171
1.17179
1.17173
1.17207
1.17188
1.17208
0.80396
1.17208
1.17164
1.17173
1.17176
1.17168
0.609815
1.1387
1.17165
1.17166
0.728123
1.17209
0.963049
1.17168
1.17208
0.37416
0.455085
0.953531
1.17167
1.1717
1.17157
0.498641
1.17203
0.50848
1.17207
0.936067
1.05836
1.17165
1.11117
0.58338
0.49485
0.391586
0.778368
1.17194
1.17207
1.1718
1.17155
1.1716
1.1718
0.577722
1.17185
1.17163
1.17207
1.17167
0.590584
0.591479
1.17206
1.1703
0.945746
1.17208
0.690699
1.17206
1.17165
1.17173
0.531802
0.730347
0.683096
1.17184
1.17182
1.17191
0.577579
1.17174
0.530575
1.17209
1.17208
0.604392
1.16473
1.17165
1.17205
0.402272
1.17208
1.17206
1.17163
0.499958
1.16966
1.17145
1.17164
0.533948
0.908718
1.16225
1.16865
1.17206
1.11945
1.17178
1.14283
0.551622
1.03792
1.14986
1.13441
1.15952
1.13659
1.17165
0.261524
0.645009
1.16783
1.17164
1.16002
0.248176
1.17165
0.67086
1.15016
1.17166
1.12786
1.17165
0.50978
1.1709
1.17063
0.89899
0.704407
1.17165
1.17166
1.1718
1.17173
0.513612
1.17178
0.884567
0.961935
1.17169
1.17168
1.17169
1.17191
1.17166
1.17166
1.17198
1.1717
0.508473
1.17191
1.10272
1.17168
1.17183
1.1718
1.17176
1.17115
1.17169
1.17169
1.17191
1.17204
1.17162
0.767785
0.753892
1.1656
1.17191
1.17206
1.17208
1.17168
1.1719
1.17202
1.17202
1.17202
1.16997
1.17097
0.750553
1.17207
1.17204
1.17203
1.17031
1.17188
1.17185
1.17166
1.17205
1.17166
0.752114
1.17154
1.15956
1.17182
1.17162
1.16785
1.16319
1.17191
1.17207
1.17179
1.17199
1.17164
1.17204
1.17171
1.1717
1.17165
1.17203
1.17181
1.17207
1.16356
1.17175
1.08327
1.17204
1.17172
1.17173
1.17173
1.17166
1.17155
1.16971
1.17176
1.17165
1.17187
0.787996
1.69229
1.17174
1.04766
1.54928
1.17195
1.17155
1.17173
1.17158
1.58954
1.17205
1.1718
1.17158
1.17183
1.45896
1.17164
1.17209
1.17196
1.17203
1.17175
1.17208
1.1721
1.17173
1.17208
1.07301
1.17207
1.17208
1.17172
1.17208
1.1718
1.17049
1.17175
1.17209
1.16921
1.16954
1.17174
1.17203
1.17203
1.17172
1.17128
1.17202
1.17199
1.1711
1.17176
1.17173
1.17174
1.17175
1.17207
1.17201
1.17187
1.17122
1.02417
1.16848
0.934411
1.17187
1.17179
1.17204
1.17202
0.952771
1.17204
1.1717
1.17076
1.17204
1.03039
1.17186
1.17204
1.17202
1.12647
1.17073
1.1715
1.17051
1.17204
1.17153
1.1698
1.17184
1.17133
1.17181
1.17155
1.17156
1.17166
1.17017
1.17158
1.14036
1.1718
1.15839
1.17156
1.17166
1.17178
1.17018
1.17155
1.17203
1.17201
1.17205
1.17157
1.17209
1.17175
1.17187
1.17177
1.17178
1.17209
1.17192
0.9794
1.17185
1.17183
1.17168
1.1721
1.17159
1.17185
1.17183
1.17187
1.17202
1.17205
1.17186
1.17174
1.17185
1.17186
1.17185
1.17205
1.17166
1.17204
1.17082
1.17165
1.17172
1.03149
1.17171
1.17171
1.17185
1.17175
1.17166
1.17174
1.17185
1.17176
1.17148
1.1715
1.17195
1.17199
1.17187
1.17185
1.17194
1.17002
1.17183
1.17176
1.172
1.17183
1.17173
1.17143
1.17178
1.17162
1.16459
1.17172
1.17184
1.17179
0.633517
0.765668
1.17179
1.17173
1.17184
1.17178
1.1719
1.17193
1.17172
1.17198
1.17175
0.602025
1.17166
1.17199
1.172
0.544429
1.04508
1.17152
0.580532
1.17168
1.17173
1.17189
1.17187
1.17203
1.17204
1.16875
1.17187
1.17198
0.923093
0.578611
1.17199
1.17196
0.563898
1.17112
0.504582
1.17199
1.17159
1.1719
1.17182
0.60679
1.17196
0.592704
1.17202
1.17185
0.620856
1.17167
1.17186
1.17138
0.587186
1.17204
1.17159
0.615963
1.17204
1.17193
0.57206
1.17121
1.17194
1.17172
1.17117
1.16885
1.17125
0.791441
1.17201
1.17168
1.17158
1.17209
1.17165
0.993804
1.17182
1.17169
1.17171
0.938591
1.17168
1.17208
1.17204
1.17166
1.17164
1.17197
0.949259
0.739709
1.17168
1.13993
0.942876
0.789682
1.17166
1.17129
0.852616
1.17199
1.00639
1.17183
1.1713
1.17173
0.933353
1.17209
1.1721
1.17174
1.1721
1.04717
1.17159
1.17158
0.707527
1.1539
1.17186
1.17166
1.17157
1.17187
1.17171
1.17209
1.17114
1.17188
1.16626
1.17188
1.16977
0.671075
1.17157
1.17195
1.10747
0.950869
1.17174
1.17159
1.16953
1.17102
0.980327
1.17189
1.04007
1.17204
1.1717
1.11439
0.925204
1.17172
1.172
0.951581
1.07752
1.17189
1.17165
0.9425
1.17163
1.17173
1.17133
0.513142
1.17138
1.17179
0.708954
1.17205
1.17165
1.16089
1.17174
0.666794
1.1717
1.1662
1.14027
0.898995
1.17167
1.17173
1.17171
0.743808
1.17157
1.16775
1.17165
0.687659
0.61867
1.16996
1.1721
1.15562
1.00124
0.997696
1.09564
1.11855
1.17206
1.17154
1.17182
1.17183
1.17188
1.17177
1.1721
1.17167
1.17205
1.1721
1.17176
0.295798
1.17204
1.17182
1.17184
1.17062
1.171
1.17205
0.917752
1.1721
1.1719
1.17191
1.17165
1.17198
1.17185
1.17191
1.17209
1.17161
1.17169
0.454416
1.17209
1.17177
1.17158
0.505786
1.17178
1.17112
1.17124
1.17179
1.1721
0.743347
1.17189
1.17202
1.1718
1.17183
1.172
1.17197
1.1718
1.17209
1.17207
1.17167
1.17075
1.14854
1.17181
1.1718
1.17181
1.16959
1.17159
1.17166
1.17186
0.527763
1.17175
1.17163
1.1717
1.17125
1.17166
1.17171
1.17169
0.529816
0.455098
1.17165
0.957136
1.17165
1.17179
1.17165
1.17104
1.17165
1.17182
1.17171
1.17173
1.17166
1.15586
1.17164
1.13423
0.513835
1.17169
1.17182
1.17164
0.588569
1.17166
1.17165
1.17171
1.17173
1.1717
1.17171
1.1717
1.1702
1.17163
1.17166
1.17165
0.999145
1.06384
1.17182
0.908491
1.08632
1.17189
0.907051
0.223423
1.1721
1.16784
1.17096
1.17206
1.17186
1.17209
1.17058
0.89588
1.17208
1.17209
1.17194
1.17189
1.17208
1.1717
1.17499
1.17148
1.17203
1.17174
1.1718
1.00931
1.17209
1.172
1.17169
1.04105
1.1069
1.17174
1.17165
1.1719
1.17177
0.973593
0.664316
1.17188
1.17095
1.17163
1.16301
1.17173
1.172
0.440814
1.17173
1.17167
1.17192
1.17171
1.17163
1.17177
1.17167
1.1716
1.1717
1.1718
1.17165
1.17191
0.697496
0.928482
1.17167
1.17124
1.17191
1.1719
1.17168
0.562343
1.15741
0.600496
1.17178
1.17175
1.1719
1.17164
1.17162
1.17169
1.16202
1.17165
1.17191
1.17164
0.575829
0.425059
1.17167
1.1719
1.16568
0.970619
1.14215
1.16015
1.12714
1.17162
0.576133
1.16865
1.17165
1.17166
1.17166
1.17171
1.17172
1.17175
1.15624
0.463358
1.1338
1.16888
1.1496
1.17166
1.17165
1.17147
1.17094
1.17174
1.02184
1.17174
0.884293
1.16449
1.1721
1.16422
1.12921
1.17184
1.17179
0.549452
1.17195
1.1721
1.0575
0.623324
1.17165
1.17192
1.17195
1.17165
1.17177
1.1721
1.1717
1.01676
0.361681
1.17175
1.17189
1.1716
1.14288
1.09837
1.17208
1.17209
1.17184
1.13701
1.17172
1.17168
1.17165
1.1721
1.17166
1.17198
1.17195
0.476267
1.17165
1.17195
1.17168
1.17196
1.17181
1.17166
1.17167
1.172
1.17172
1.17187
1.17193
1.17117
1.172
1.17169
1.17199
1.17196
1.17174
1.17202
1.17162
1.17196
1.17198
0.948229
1.17206
1.15561
1.17163
1.17172
1.17184
1.17172
1.17166
1.17163
1.07533
1.15866
0.678238
1.15407
1.17154
1.16384
1.17274
1.1597
1.15664
1.17269
0.795559
1.17195
1.17162
1.17166
1.17196
1.17185
1.17171
1.17171
1.16693
1.17183
0.596848
1.17204
1.17183
1.17161
1.17182
1.17178
1.17165
1.17163
0.540995
0.97213
1.17169
1.17182
1.17176
0.939653
1.17169
1.17161
0.798081
1.17161
0.846469
1.17167
1.17168
1.17165
0.939926
0.87015
0.894315
0.883437
0.860922
1.11466
0.594869
0.826937
0.869675
1.17191
1.17176
1.17166
1.17166
1.1507
0.843991
1.17408
0.911581
0.84983
0.692128
1.17182
0.677248
1.16816
1.17181
1.17173
1.17172
1.17028
1.16907
1.17161
1.17165
1.17005
0.703642
1.17048
0.496651
1.17033
1.16914
0.770767
1.17168
1.17132
0.681773
1.17157
1.17173
1.17167
1.171
1.17181
1.17197
0.880032
1.17169
1.17209
1.13515
1.17164
0.791063
1.16095
1.1717
1.17158
1.17001
1.16935
1.16366
1.16959
1.17096
1.1687
1.17203
1.17165
1.16953
1.17169
1.1696
1.16995
1.17161
1.17061
1.17188
0.954677
0.516544
1.17165
1.17188
1.17001
1.17168
0.616589
1.17165
1.17186
1.17165
1.17007
1.17194
1.11535
1.17205
1.17172
1.17083
1.16945
1.16745
1.17169
1.17185
1.16746
0.56632
0.578728
1.17179
0.571277
0.717939
1.16042
0.505836
1.17172
0.629655
1.17207
1.17168
1.17167
1.17185
1.17169
1.17202
1.17183
0.539145
1.17167
1.17172
1.17179
1.17182
1.17168
1.17165
1.17165
1.1727
1.07558
1.17204
1.17185
0.487418
1.17176
0.607953
1.17163
1.17187
0.621656
1.17171
1.17187
1.17194
0.699523
1.172
1.17182
1.17159
1.17173
1.17166
1.17183
1.17162
1.17201
1.17187
1.17168
1.17209
1.17208
1.17166
1.17168
1.15893
1.17176
1.17168
1.17178
1.1713
1.17179
1.17172
1.17205
1.16749
1.17166
1.17166
1.17165
1.17202
1.17027
1.17203
1.17166
1.17201
1.17196
1.17165
0.516602
1.17181
1.17179
1.1717
1.17166
1.17182
1.00723
1.172
1.17199
1.17173
1.17176
1.17183
1.1721
1.17196
1.17176
1.17205
1.17193
1.17202
1.11323
1.17165
1.17204
1.17194
1.17202
1.17183
1.17206
0.467708
1.17169
1.17168
1.17173
1.17181
1.17137
1.17165
1.17155
0.913723
1.17161
1.17122
1.17165
1.1719
1.17166
1.17166
0.530825
1.17201
1.17193
0.532248
1.17205
1.1719
1.17183
1.17175
1.17168
1.17166
1.1495
1.17182
1.17194
1.17183
0.530787
0.510487
0.510699
1.17156
1.16909
0.867259
1.17207
1.17177
1.1717
0.527116
1.17177
1.17165
1.17176
1.172
1.16644
1.17186
1.17178
1.17171
1.17133
1.17171
1.17222
1.17073
1.17182
1.17075
1.1675
1.17184
1.08025
1.17202
1.17178
1.17182
1.17209
1.17209
1.17161
1.17184
1.18001
1.17525
0.955656
1.16568
1.01576
1.17168
1.17185
1.17166
1.17184
1.17197
1.17185
1.17199
1.17199
1.17165
1.14315
1.17166
1.17163
1.025
1.17178
1.00637
1.17147
0.934049
1.17177
1.17198
1.14078
1.17207
1.17198
1.17165
0.685855
0.956143
1.03501
1.1717
1.01347
1.17194
1.17208
1.17194
1.17203
1.17171
0.527098
1.17138
1.17196
1.17195
1.16925
1.17158
1.17196
1.16497
1.17196
1.17196
0.797934
1.17184
1.17168
1.17196
1.17144
1.17208
1.17172
1.17209
1.17184
1.17172
1.17208
0.490474
1.1717
1.17166
1.17209
1.1717
0.603279
1.17208
1.17208
1.17192
1.00048
1.17193
1.17016
1.06469
0.744224
1.17208
0.526792
1.17116
1.17209
1.17173
0.714542
1.17156
1.17183
1.16949
1.14292
1.17207
1.17168
1.17193
1.13207
1.17172
1.17171
1.17173
1.17165
1.15789
1.17164
0.289534
1.17182
1.17051
1.17165
1.17166
1.17147
1.17165
1.17203
1.17176
1.17174
1.17163
1.03224
1.17116
1.05788
1.14411
0.95074
1.17114
1.1719
1.17207
1.17196
0.618211
1.00039
0.578087
0.935934
1.17185
1.11343
1.13965
0.453094
0.639364
1.17196
0.383649
0.439749
1.17083
1.17195
1.16786
1.06273
0.887075
0.675441
0.762717
1.1215
0.963163
1.17208
0.996533
1.172
1.11327
1.17153
0.519982
0.922661
1.17195
1.17208
1.17114
0.911564
1.17174
1.17112
1.1718
1.1721
0.976088
1.17177
1.17168
1.17183
1.17209
1.17141
1.17187
0.196927
1.14511
1.17209
1.17168
0.934471
1.1717
0.486811
0.74697
0.964057
1.17168
1.1719
1.17165
0.621415
1.1719
1.17191
1.172
1.17203
1.17177
0.913122
1.17163
1.17177
0.706561
0.79535
1.17172
1.17207
1.09534
1.17197
1.17174
0.782152
1.1721
1.17209
1.17178
0.939228
0.344961
0.767517
1.17166
1.17178
1.17166
0.88196
1.10961
1.17032
0.653766
1.17175
1.1718
1.17175
1.17163
1.17206
1.15673
0.790781
1.17178
0.580732
1.17172
1.17173
1.17132
1.17165
1.17162
1.17181
0.573374
1.43482
1.17174
1.17175
1.17115
1.1581
1.17181
1.17199
0.720164
1.17209
1.17182
1.17185
1.17173
1.17165
1.17187
1.17165
1.17165
1.17207
1.17174
1.17177
1.16714
1.17178
0.577021
0.282742
1.17114
1.16716
1.17186
1.17152
1.17192
1.17165
1.16794
0.819126
0.593017
1.16656
1.17645
1.16329
1.1718
1.17151
1.16411
1.1701
1.1627
1.17016
1.17188
1.1633
1.17166
1.17164
1.17195
1.1715
1.17127
1.17174
0.548795
1.17194
1.17182
1.17172
0.97973
0.621554
1.17183
1.16377
1.16789
1.04434
1.16424
1.16137
1.1718
1.17204
1.16684
1.1718
1.17206
1.17198
1.17196
1.17196
1.17165
1.17186
1.1633
0.568599
1.16383
1.17111
1.16315
1.17083
1.17175
1.17195
1.17197
1.16685
1.17173
1.17188
1.17172
1.16295
1.17205
0.663264
1.16739
1.17073
1.17147
0.875436
1.17179
1.16675
1.17172
1.1718
1.17165
0.961781
1.17049
1.17196
1.17179
1.17187
0.980141
1.17198
1.15894
1.00474
1.16624
1.16783
1.17176
1.17175
1.16627
1.11078
1.17163
1.16732
1.17068
1.17141
1.17169
1.16632
1.17182
1.16532
1.1721
1.17167
0.989074
1.17188
1.17173
1.17165
1.16931
0.485543
1.16788
1.17198
1.1721
1.16931
1.16746
1.1721
1.17165
1.17189
0.409101
1.16497
0.953373
1.16961
1.17209
0.47017
0.564196
1.1718
1.1721
1.17181
1.17176
1.1717
1.17181
0.807141
1.17184
1.17178
1.17192
0.595833
1.17169
1.17169
1.17197
1.17185
0.554077
0.799508
1.17169
0.556978
1.17173
1.17205
1.17182
1.17205
1.17181
0.516575
1.16721
1.17165
1.17165
1.17081
1.172
1.17193
1.17164
1.17192
1.172
1.16667
1.17194
1.17144
1.17173
1.17196
1.17165
1.16761
1.17182
1.17166
0.774286
1.17166
1.1717
1.17198
1.17176
0.55366
1.17196
1.00069
1.17172
1.17112
1.17165
1.17201
1.17166
1.17169
1.17166
1.1718
1.1717
1.16746
0.739872
1.17179
1.17191
1.17188
1.17187
1.17165
1.17177
1.17166
1.17169
1.17164
1.17194
1.17165
1.17177
1.17181
0.46119
0.738003
1.17181
1.165
1.17205
1.17187
0.823168
1.17165
1.04653
1.17181
1.17128
1.17192
1.1721
1.17198
1.17208
1.17164
1.17172
1.17152
1.16838
1.17168
1.17193
1.17201
1.17171
1.17194
1.17205
1.17195
1.17198
1.1718
1.17142
1.17153
1.17153
1.17189
1.17189
1.17151
1.1715
1.17171
1.17189
1.17185
1.17189
1.1715
1.17171
1.17146
1.17201
1.17177
1.17151
1.1715
1.16435
1.17152
1.16477
1.16742
1.172
1.0529
1.17201
1.16504
1.17204
1.1638
1.17132
1.16281
0.869478
1.17186
1.17207
1.172
1.04903
0.53848
1.17196
1.1657
1.17166
0.592004
1.17187
1.17165
1.17172
1.17191
1.1695
1.17197
1.17208
1.17193
1.17187
1.17205
1.17198
1.16685
1.15696
1.17139
1.17183
1.17204
1.16623
1.17201
1.17203
0.957865
0.588403
0.946337
1.17206
1.17199
1.14884
0.973723
1.17176
1.17187
0.998037
1.16827
0.666705
1.17209
1.16747
1.17193
1.17174
1.17195
1.17176
1.17177
1.17175
1.17173
1.17178
1.17196
1.17179
1.17182
1.17174
1.1717
1.17189
1.17197
1.17178
1.17185
1.17189
1.17196
1.17167
1.17178
1.1717
1.17172
1.17131
1.1668
1.17092
1.17178
1.172
1.17165
1.17166
1.17091
1.17173
1.17167
1.17172
1.17166
1.1717
1.17166
1.17167
1.17196
1.17175
1.17184
1.17167
1.17187
1.17162
1.17201
1.17148
1.17145
1.14842
1.17182
1.17194
1.17149
1.17204
1.17205
1.17171
1.17193
1.17172
1.17203
1.17166
1.17194
1.17168
1.17187
0.725479
0.858042
1.17209
1.17186
1.172
1.1717
1.17165
1.17176
1.17176
1.17176
0.937661
1.15825
1.1717
1.1585
1.17166
1.17183
1.15297
1.15069
1.17165
1.17114
0.782496
1.17166
1.17172
1.17178
1.17177
1.17174
1.15931
1.17209
1.15717
1.17171
1.17172
1.17201
1.16716
1.16739
1.16752
1.17181
1.17198
1.17208
1.17193
1.17172
1.17178
1.17165
1.17186
1.17166
1.17201
1.16925
1.1721
1.17186
1.17186
1.17178
1.17184
1.1717
1.17169
1.17085
1.17119
1.17086
1.17165
1.17178
1.1719
1.17206
1.17186
1.17166
1.17184
1.17166
1.16964
1.17199
1.17176
1.17175
1.17176
1.17208
1.17154