/*--------------------------------*- C++ -*----------------------------------*\
| =========                 |                                                 |
| \\      /  F ield         | OpenFOAM: The Open Source CFD Toolbox           |
|  \\    /   O peration     | Version:  v2012                                 |
|   \\  /    A nd           | Website:  www.openfoam.com                      |
|    \\/     M anipulation  |                                                 |
\*---------------------------------------------------------------------------*/
FoamFile
{
    version     2.0;
    format      ascii;
    class       volScalarField;
    location    "4";
    object      T;
}
// * * * * * * * * * * * * * * * * * * * * * * * * * * * * * * * * * * * * * //

dimensions      [0 0 0 1 0 0 0];


internalField   nonuniform List<scalar> 
108993
(
300.001
300.007
300
300
300
300
300.007
300
300
300.009
300
300
300
300.001
300
300.001
300.02
300.001
300
300.005
300
300
300.001
300
300
300
300
300.005
300.005
300
300
300.001
300
300.001
300
300
300
300
459.435
544.315
300.001
300
300.001
300
300.074
660.903
300
300.002
300.001
300.002
300
300.441
300.002
300
300.001
300
300
300
300
300
300
300
300
300
300
300
300
300
300.001
302.408
300
300
300
300
300
300
300
300.003
300
300
300
300.001
300
300
300
300.001
300
300
300
300
300
300
300
300
300
300.001
300
300.001
300
300
300
300
300
300.001
300
300
300
300
300
532.558
300.116
300
300.185
300.556
300
300.311
300
300.001
300.04
300
300.001
300
300.28
300
300
300.009
300.001
300
300
300
300.001
300
300
300.5
300
300
300
300
300
300.001
300
300
300.015
300
300
300
300
669.819
300
300.649
300.768
300
300.001
300.817
300
300.06
300.001
300
300
300.153
300.774
300
300
300
300
300.612
300
300
300
300.001
300
300
300.056
300
300.002
300
300.04
300
300
300
300.007
300
300
300
300.001
300
300
300
300
300
300.001
300
300
300.031
300
300.001
300.001
300.001
300
300
300
300.031
300
300
300.018
300.245
300
454.31
300
295.202
300.662
300
300.025
429.077
948.368
300
300
300
300
300
300
300.536
300.001
300.014
300
300
300
300
301.23
300
365.904
300
300
300.001
300
300
300
300
361.186
300
300
300
300
300
300
300.001
437.88
300.342
300
300
300
300
300
300
300
300
300
300
300
300
300
300
300.075
300.019
300
300
300
300.001
300
300
300
300
400.272
302.705
594.101
300
300
300.287
300
300
300
506.549
568.629
300
300
300.008
300
300.001
300.001
555.164
300.001
300
300.001
300
300
300
300
300
300.016
300
300.235
300.261
300
300
300
300.001
300
300
300.001
389.091
300
300
300.019
300
300.001
300.231
300
300.029
580.503
300
300.007
300
300.001
300.001
300.001
303.364
301.917
300.202
300
300.001
300.001
300.529
301.46
300
380.621
300
300
300
300
300
300
300.212
300.006
300
300
300
300
300
300
300
300
300
507.624
408.213
300
300
300
636.224
300
300
300.001
300.005
300
300
300
300.007
300
300
300
331.003
300.002
300.005
300
301.075
300.007
301.803
300.001
300
300.316
300
300.432
300.345
300.007
300.004
300
300.004
300.003
331.941
300
476.445
300.361
300.004
300.414
300.001
329.753
300.003
297.664
300
300.046
300
300.003
300.952
300.784
300
300
300.005
300.004
300
300
310.819
300.001
300.001
301.392
300
300
300
302.42
300.039
309.878
300
329.942
300.01
300.834
300
300
301.437
300
300.892
301.566
300
294.813
602.223
300.967
300
300
300.013
300
300
300
300
300
300
300
300
322.441
300.017
300.016
300.057
300
300
300.001
300
300
300.001
300
300
300
300
300
300
300.191
300
300.206
300.457
300.035
300
300
300.203
300
300
300.022
300
300
300.002
300
300.023
300
300.154
318.376
300.106
300
300
300
300
300.001
300
300
300
300.021
300.001
300
300
300.051
300
300.16
300
300.001
300
300
300.002
300
300
300
300
300.081
300.346
300
300
404.821
300
300.007
300.01
300
300.005
300
300
300
300
300.002
300.001
300.001
300.001
300.013
300.002
300.001
300.075
300.004
300
300.066
300.002
300.005
300
300.071
300.001
300
300
300.251
300
300.011
359.272
300
599.85
300
300
300
300
300
300.055
300.001
300
300.248
300.004
495.664
300
300
300
300
300.005
261.461
300.002
300.001
300
300
300.004
382.204
300.686
300
300
300.002
300.001
300
300.001
1115.43
374.87
300.92
300.002
300
385.278
301.75
300.019
300.001
300.001
300
300
300
300.167
602.439
375.644
300.001
300
300.001
300
300.003
300
303.007
300
300
300
300.001
300.015
300
300
261.542
300.047
300.001
300
278.869
300
300.02
300
301.156
300
300.025
300
300.003
300
300.002
300
435.285
300
300.953
300
300.001
629.101
300.009
300
300
300.132
684.867
300.005
301.197
300
300.183
301.935
300.002
300
300
345.04
300.176
300.195
300.001
300.247
300
300.004
300
300.002
300.001
300.056
300.03
300.006
300.006
300.167
443.926
457.96
301.137
300.002
300.044
487.222
352.723
558.496
433.844
300
300.008
300
300
300.001
300.023
300.01
362.631
397.592
300.036
300.005
300.641
516.044
491.65
300
300.006
300.028
300
580.552
300.008
348.217
300.053
300.006
629.879
300.021
313.952
300.024
300.026
302.616
300
300
300.045
300.005
300.001
381.957
300.008
394.097
300.01
309.26
300.119
300
300
300
300.05
300
300.048
300.001
300
300
300.003
604.725
596.28
300
355.933
300
300.127
300.058
300
300.129
300.002
300.001
300.174
300.002
300.001
300.005
300.027
300.127
300.163
300
300.102
300.001
300.001
300.002
300.001
300
327.853
300
300
300.003
300
300.003
744.029
374.164
300.002
300.009
300.002
300.009
300.003
300.031
300
300
300
300.001
300
300.011
300
300.001
300.052
300
300.001
300
300.001
300.001
300.014
300.001
300.002
330.08
300
300
300.001
299.206
300
300.276
300.182
300.001
300.001
305.182
300.449
300.003
300
300.656
300.001
300.001
300.004
300.001
300.013
300
300
300.01
300
612.608
300
300.001
809.002
300.019
301.798
300.021
300.634
300
300.012
300.02
300
300.001
300.011
300
300.001
300.001
300
300
300.001
300.001
300
300.029
300.001
301.334
300.001
300
882.092
300.001
300.328
300.007
300.001
300.012
246.992
300.013
300.001
300.014
300.077
300.007
300.015
493.396
300.011
300.001
300.054
300.001
300.001
300.183
854.4
300
300
300.001
300.431
300.001
300.001
300.033
300.001
300
222.296
300.001
246.375
300.001
214.221
300.001
300.011
300.014
300.069
300.191
300.001
300.014
300.015
301.856
300.002
702.016
300
300
300.001
300.159
300.025
300.059
300
300
300.036
614.164
300
300.036
300.115
310.712
300.001
300.083
527.775
729.978
300.009
300.439
300.001
301.576
300
301.768
655.883
304.925
300
300
300.004
300.038
300.098
300
300
300.135
300.174
300
300.484
300.016
300.001
301.218
300
300
300.048
306.533
300.001
300.007
300
300.001
300.088
300.574
302.382
300.001
302.129
300.009
300.084
300.004
300.001
300.039
300.007
300.003
300
300.008
300
300.734
300
300
300.133
300
300.055
300.129
300.039
300.075
300
300.414
300
408.798
300.001
300
300
300.127
300.565
300
300.01
303.647
300.235
300.221
300
300.069
300.156
300.211
300.001
300.016
334.22
300.078
300.01
300.071
300.002
300.219
722.827
300.426
300.031
300.068
300.035
300.038
300.005
300.003
300.074
300.344
300.01
300
300.002
300.106
300
300
300
300.105
300.001
300
300.001
300.002
300.001
300.001
300.001
300.677
300.001
300.001
300.012
300
710.452
300
300
300.003
300
300.003
466.55
300.028
300.001
300.001
300
300.304
300.012
300.403
300.001
300.001
300.192
300
300.033
300.196
335.304
300
300.001
300.001
300
300.001
300.002
300.001
300
300
300
312.803
300.001
300.002
300
300.001
300.005
300.093
300.016
300.014
300.001
300
300.001
300.097
300.001
300
300
304.014
300.001
300.013
300
300.01
300.001
300
471.292
300.215
300.019
300.007
490.867
300.064
300.128
300.007
560.341
300
300
300
300.092
300.016
320.484
300.05
300.002
300.001
300.001
300.036
300.001
300.017
300.244
300.009
300.005
300.801
300.146
300.024
300
300
300
300
300
300
300.001
301.524
300.001
598.182
300.003
300.001
300
300.019
300.568
300
300.003
300
300.028
300
300.03
301.16
300.032
300
300.174
300
300
300
300
300
300.001
536.172
300.063
300
300
300
300.001
300.001
300
300.001
300
300
300
300.001
300.001
300
300
300
300
300
300.001
300.001
303.02
300.471
300.314
658.296
300.001
300
300.001
300
300.001
300.001
300.001
300
300
300.692
300.001
300.003
300.001
300.001
300.001
300.001
302.813
301.314
300.001
300
300
300.002
300.002
300
301.719
300
300
300
300
300
300.01
300.004
300.005
312.167
300.008
300.005
300.007
300.318
300.008
300.004
300
300.001
300.711
300
300.032
300.006
300.006
300.004
315.896
300.027
300
300.049
300
300.493
300.056
300.003
300
300.001
300.001
300.001
300.001
300
300.352
404.096
300.014
300
300
300.016
300.001
300
300.001
300
300
305.148
300.046
461.351
300
300.023
300
300.029
300.181
300.001
300
300.035
300.002
337.21
300.052
300.029
300.286
300
300
300.027
300
300.001
925.663
300
300.001
300
301.03
300.001
300
300.01
300
300.183
431.62
300
300.011
300.001
300.02
300
300.001
300
300.004
300
300.194
300.055
300
457.153
300
300
300
300.024
301.012
300.001
300.015
300.151
302.002
300.678
300.001
300
300.037
300
314.183
305.888
303.012
300.183
304.847
300
311.952
314.889
300.005
300.005
300
300.123
300
300
300
300.007
300
300.001
300.001
300.123
300
300
300.001
300.002
300.001
300.001
300
300.156
300.688
300
300.608
300.002
300.001
300.001
300.002
300.092
300
300.002
300.236
300.001
300.001
300.001
300
300.002
303.497
300.001
300.026
300.001
300.044
300.258
300.002
300
300.004
300
300.002
300
300
300.001
300.004
300.033
300.002
300.299
300.001
300.199
533.431
300
300.264
300
300.004
300.004
300.001
300.001
539.212
327.392
300.102
300.003
386.3
300.123
300
300.001
300
300.002
300.002
300.001
300.572
300
300
300.003
300.009
300.004
300.001
300.001
1051.07
752.441
300.006
300
300.236
300.001
300.003
300.002
300.001
300.124
300
300.003
300.001
300.008
371.143
300.023
300.011
300.137
300.113
300.003
300.134
302.226
300.002
300.001
300.002
300.325
300.039
300
300.001
300.273
300.143
528.503
300.001
300.001
510.049
300.003
300
529.168
300.002
300
300.003
300.001
579.884
300
300
300.738
300.003
656.407
300.003
652.494
300.003
300.017
639.027
300.003
300.015
571.498
300.026
300.001
300.619
300
300
300
526.453
300.185
300
300.226
300
302.522
431.371
301.03
300.009
444.097
300
320.774
300
300
300.001
300
300
300
300
300
300.396
301.285
300.102
369.95
300
300
300
300
300
300
333.59
300.902
300
300
300
300.458
300.001
300
300.333
300
300
300
300.006
929.268
300.232
518.684
303.036
300
300.002
301.253
300
300
300
370.481
577.007
360.128
319.26
300
300
758.335
300
300.003
300
300
300.002
300
300.002
300
300.002
323.021
300.149
300.002
300.17
300.158
300
300.702
300
300
300
300
300
300
300.001
300
300.032
300.322
300.181
300.648
300
300
571.609
301.158
300
300.236
300
300
357.24
554.776
542.132
303.19
300
336.199
704.179
303.658
300
373.682
357.48
349.559
383.824
300.007
575.027
321.168
300.001
309.363
300.35
327.241
300.022
301.317
300.03
300.003
468.238
570.78
570.821
300
300
601.039
300
300.001
300.508
300
327.666
300.024
300
300.001
300
300
300.025
300.541
565.881
304.687
302.518
300
300.521
300.031
300.018
300
300.001
300.001
300
300.001
300
300.025
300
300
300.008
300.971
300.03
300.014
592.602
300.141
300.001
301.198
300
300
300.007
300
300
300.001
507.353
300.279
300.184
300.829
474.052
300.015
300
388.418
300.285
300.01
304.335
300
300.003
300
300.276
300.007
326.304
300
300
300
300
302.515
300
379.832
300
302.643
300.329
300
300
519.249
301.642
458.506
301.09
300
300.653
484.753
300
300.007
300.159
300.055
379.826
300
384.964
301.165
366.683
382.615
433.587
300.641
374.92
300
982.87
708.215
300.114
316.073
300.004
300.012
347.569
300.001
314.488
300.132
300.022
300.002
300.005
301.757
300.008
300.001
300.002
300.001
300
300
300.006
300
956.972
305.513
300.021
305.472
300.005
300
300.037
306.393
642.738
300.017
300.071
322.5
302.893
630.768
300.491
300.001
409.237
300.001
300
300.001
230.745
300.001
300.787
300.17
300.556
301.187
562.07
300.001
364.922
300.001
300.001
300
300.001
300
300.001
300.021
315.294
301.858
773.779
300.022
389.704
300.043
511.357
300.001
301.098
302.442
306.119
300.004
300.001
300
300
300
300
300.013
304.183
300.048
381.926
367.375
300.215
340.443
538.699
868.647
309.692
300
302.342
300.183
300
300
301.666
371.995
300
300.001
300.001
300.018
300
302.735
302.451
307.874
301.948
300
318.424
300.385
300
300.107
300
300.009
304.185
300.01
300.009
354.782
300.017
300.001
300.01
300
300
300
300.33
300.001
300.005
300.333
300.642
546.25
300.048
300.001
300.003
300
300.001
300
300.484
469.562
300.001
300
853.475
300.001
300
300.002
300.002
300.373
655.823
789.402
300.572
300.398
300
477.416
300.002
358.766
616.069
300
305.315
300
300
643.741
300
300.001
633.34
311.938
614.163
647.588
300
300.542
300.252
355.132
300.003
300.016
554.741
608.51
466.878
356.861
300.001
300.001
300.22
305.739
482.299
304.269
300.121
628.114
300
300
695.152
609.208
300.566
300.296
310.203
300.603
842.964
300
303.178
300
613.543
300
300.217
300.314
300
655.392
300
304.723
633.556
300
300
471.365
300
300
300
300
302.649
300
635.65
597.352
300
300
536.99
300.002
300.001
300.242
300.001
300.001
300
300
382.778
391.428
600.281
300
300
576.988
300
321.626
336.907
300
300
300.001
300.005
411.226
300
300
300
300
300
340.271
302.011
300.003
300.001
275.661
300.001
300.286
300
300.504
300
308.509
379.92
300.001
300
300.001
300.467
714.588
300
308.933
300.004
300
300.025
300.013
300
300.011
300
436.238
300
300
300
300.001
300
572.949
308.658
300
300
480.963
300
364.442
300.001
300
925.438
764.507
368.054
300.002
300
300.025
699.117
300
685.411
300
375.117
331.925
300
316.314
598.937
703.872
884.787
450.332
300.002
300
300
300.06
300.022
300.015
604.609
300
300.042
300
300.058
591.88
590.896
300
300.455
371.075
300
506.826
300
300
300
656.172
479.738
512.444
300
300
300
604.78
300.005
657.693
300
300
578.239
301.884
300
300
862.251
300
300
300.007
697.068
300.616
300.171
300
653.383
386.267
302.424
300.88
300.004
314.032
300.003
307.532
632.68
338.43
305.754
309.91
303.216
309.311
300
1267.5
542.453
301.093
300
303.113
1366.59
300
521.472
305.676
300
311.654
300
683.993
300.274
300.36
390.326
496.94
300
300
300.001
300.001
679.993
300
396.658
364.885
300
300
300
300
300.001
300
300.006
300
685.685
300
318.69
300
300.043
300.001
300.061
300.151
300
300
300
300.001
300.009
456.738
465.005
301.613
300.027
300.003
300.001
300
300.005
300.015
300.002
300
300.545
300.284
466.979
300.001
300.004
300.001
300.433
300.012
300
300.003
300.008
300.096
466.054
300.039
303.21
300.004
300.008
301.084
302.285
300
300.008
300.055
300.001
300.096
300.003
300.011
300.106
300.008
300.001
300
300.007
302.194
300
324.299
300.001
300.103
300
300
300.116
300.073
300.568
300.002
300
300
444.787
208.044
300
335.29
227.186
300.002
300.048
300.018
300.032
221.455
300.002
300.014
300.021
300
241.207
300.024
300
300.001
300.001
300
300
300
300
300
327.374
300.001
300
300.096
300
300.051
300.397
300
300
300.698
300.62
300
300.013
300
300.001
300.118
300.001
300
300.245
300.006
300
300
300.001
300.001
300
300.03
300.21
343.018
300.918
375.787
300.037
300.027
300.012
300.002
368.592
300.01
300.002
300.326
300.01
340.961
300.001
300.009
300.002
311.953
300.333
300.041
300.388
300.002
300.033
300.568
300
300.15
300
300.028
300.027
300.107
300.473
300.019
308.263
300.059
303.496
300.023
300.001
300
300.472
300.052
300.001
300.001
300.001
300.022
300.001
300.061
300.018
300
300
300.003
300.018
358.426
300
300.009
300.001
300
300.022
300
300.066
300.001
300.001
300
300
300.019
300
300
300
300.011
300.001
300
300.312
300.001
300.039
340.589
300
300.001
300.006
300
300
300.003
300
300
300.16
300.119
300.026
300
300.001
300
300.03
300.492
300
300
299.966
300
300
300.173
300
300.025
301.83
300
300
300.015
552.044
457.651
300.001
300
300
300.001
300.052
300.001
300
300
300.003
580.336
300
300
300
640.967
336.066
300.084
601.703
300.033
300.001
300.013
300.036
300.003
300.001
300.852
300.052
300
380.087
603.672
300
300.001
619.181
300.252
690.645
300
300.052
300.001
300.001
576.025
300.001
589.52
300.01
300
563.164
300.006
300.001
300.101
594.976
300.001
300.097
567.585
300.003
300.018
610.473
300.2
300.002
300.003
300.212
300.829
300.19
442.927
300
300
300.131
300.004
300.116
353.243
300.001
300.001
300.001
373.845
300.004
300.003
300.001
300
300.011
300
369.677
473.558
300
308.292
372.164
443.869
300.001
300.159
411.614
300
348.863
300.065
300.136
300
375.927
300
300
300.004
300
335.444
300.017
300.017
494.844
304.622
300.001
300.01
300.022
300.001
300
300.001
300.152
300.002
301.389
300.001
300.593
521.511
300.021
300.003
317.339
369.096
300.004
300.016
300.634
300.278
358.076
300.026
337.675
300.015
300.006
315.38
379.229
300.024
300.007
368.799
326.032
300
300.064
372.329
300.042
300.043
300.192
679.388
300.16
300
493.899
300.003
300.002
302.815
300
524.812
300
301.494
308.274
390.416
300
300
300
470.965
300.036
301.096
300.001
509.051
565.206
300.501
300
304.238
350.674
351.904
320.769
314.181
300.001
300.103
300.001
300.048
300
300.001
300
300.008
300.003
300
300.001
1160.84
300
300.023
300
300.366
300.281
300.002
382.287
300
300.001
300.034
300.001
300.001
300.001
300.001
300
300.046
300.003
767.84
300
300.047
300.051
689.22
300
300.155
300.204
300
300.001
471.248
300
300.002
300
300
300.001
300.025
300
300
300.001
300
300.34
306.071
300
300.016
300
300.608
300.115
300
300
661.159
300.001
300.007
300
300.123
300.003
300
300
658.336
764.55
300
366.686
300
300
300.004
300.182
300
300.005
300.022
300.005
300
304.081
300.004
309.872
677.709
300.004
300.003
300.006
593.569
300
300.001
300
300
300
300
300
300.437
300.005
300.001
300.002
351.538
330.277
300
386.145
323.429
300
386.75
1505.24
300
301.032
300.288
300.005
300.007
300.001
300.325
391.532
300.003
300.002
300.003
300
300.005
300.012
299.194
300.064
300.002
300
300.006
348.026
300.003
300.002
300
337.472
317.494
300
300.001
300
300.003
360.533
526.677
300.001
300.207
300.009
302.239
300
300
788.505
300
300
300
300
300.007
300.008
300.001
300.038
300.012
300.001
300.001
300
502.109
378.06
300
300.128
300
300
300
621.256
303.717
581.86
300.001
300
300
300.003
300.038
300.005
302.55
300
300
300.001
606.567
817.824
300.03
300
301.545
361.673
307.718
303.057
311.858
300.007
606.21
300.859
300
300.001
300
300.001
300
300.001
304.054
751.025
310.04
300.783
305.803
300.001
300.004
300.048
300.282
300.021
343.779
300.021
396.738
301.909
300
301.92
311.29
300.001
300
635.299
300.001
300
332.262
560.952
300
300
300
300.002
300.001
300
300
345.336
955.811
300
300.001
300.016
307.588
319.896
300
300
300
309.172
300
300.003
300.086
300
300.011
300
300
730.798
300.032
300
300
300
300.001
300.001
300.026
300
300.024
300.001
300
300.168
300
300
300
300.001
300.001
300
300.007
300
300
370.175
300
304.25
300.007
300
300
300
300
300.007
326.689
303.452
516.225
304.658
300.037
302.019
299.75
303.184
303.98
299.775
440.64
300
300.008
300
300
300
300
300.054
301.331
300
585.456
300.001
300.004
300.009
300
300.01
300
300.006
644.944
361.083
300.001
300
300.004
373.429
300.001
300.035
439.25
300.009
414.414
300
300
300.037
373.538
403.218
392.427
397.226
407.379
315.255
587.422
424.002
403.459
300
300.004
300
300
305.451
415.744
299.427
384.84
412.873
505.794
300.001
516.766
300.977
300
300
300
300.435
300.748
300.134
300
300.493
497.631
300.344
701.607
300.44
300.74
454.644
300
300.166
513.338
300.063
300
300.008
300.271
300
300
398.667
300
300.001
309.681
300.003
443.091
302.83
300.003
300.034
300.515
300.68
302.063
300.621
300.293
300.843
300.001
300
300.635
300.02
300.619
300.531
300.027
300.346
300.03
367.632
674.924
300
300.001
300.492
300
566.946
300
300
300
300.48
300.001
315.035
300
300
300.27
300.638
301.149
300.033
300
301.159
616.532
603.546
300
611.165
488.299
302.98
688.8
300.001
555.528
300
300.001
300
300
300
300.003
300
646.975
300
300.011
300
300
300
300
300
299.782
326.622
300
300
714.045
300.003
574.869
300.074
300
562.634
300.002
300
300
500.422
300.007
300
300.026
300.002
300.001
300
300.017
300
300
300
300
300
300.001
300.005
303.354
300
300.003
300
300.178
300
300.004
300.002
301.162
300.001
300.001
300.001
300.001
300.421
300.001
300
300
300
300
674.99
300
300
300
300.001
300.001
348.619
300
300
300.004
300.053
300
300.001
300
300.001
300
300
300
315.658
300
300
300
300
300
300
744.341
300.057
300.007
300.001
300
300.102
300
300.058
383.953
300.04
300.207
300
300
300
300.005
657.398
300.001
300
655.642
300
300
300
300
300.001
300.001
305.861
300.001
300
300
657.427
682.943
682.754
300.064
300.721
404.427
300.003
300
300.009
661.927
300
300.003
300
300.003
301.425
300
300
300
300.132
300.021
299.891
300.335
300
300.346
301.124
300
325.198
300
300
300
300.003
300.001
300.01
300
297.957
299.131
367.323
301.635
345.805
300.025
300
300
300.001
300.019
300
300
300
300.003
307.528
300.033
300.037
342.607
300
349.003
300.157
375.813
300.012
300
308.135
300
300
300
510.281
367.227
339.417
300
346.581
300
300.001
300
300.003
300
661.779
300.188
300
300
300.699
300.056
300
301.836
300
300
439.41
300
300.009
300
300.171
300.001
300
300.001
300
300.02
300
710.151
300
300.014
300.001
300.001
579.117
300
300
300
351.057
300.003
300.478
330.026
470.687
300
662.314
300.213
300
300.001
490.199
300.144
300
300.581
307.587
300.005
300.001
300
310.45
300
300
300
300.003
303.642
300.003
1181.95
300.001
300.401
300.003
300
300.109
300.003
300.003
300
300
300.021
340.333
300.166
332.072
307.219
369.23
300.169
300.002
300
300
565.583
351.055
604.209
374.904
300.013
315.625
308.411
767.811
547.006
300
905.849
790.168
300.25
300
301.052
330.6
395.554
518.158
459.433
313.425
364.596
300.004
352.443
300.005
315.685
300.048
670.515
380.474
300.001
300.004
300.239
385.012
300.011
300.189
300
300
359.779
300.003
300.001
300.005
300
300.075
300
1694.73
306.958
300
300.001
375.7
300.024
715.557
468.901
364.235
300.027
300
300
562.802
300
300
300.004
300.003
300.004
384.428
300.006
300.001
495.479
440.745
300
300.001
320.831
300.004
300.004
448.113
300
300
300.003
373.723
1007.13
456.635
300.001
300.024
300
397.781
316.778
300.435
535.349
300
300.002
300
300.01
300
303.935
443.152
300
601.505
300
300
300.159
300.001
300.034
300.003
609.157
245.265
300
300
300.231
303.594
300
300.022
486.735
300.001
300.005
300.002
300
300
300
300
300
300.002
300
300.004
301.245
300
605.072
1145.46
300.243
301.24
300
300.055
300.003
300
301.04
428.234
589.233
301.399
298.904
302.238
300
300.144
302.015
300.512
302.417
300.49
300.004
302.257
300
300
300
300.061
300.207
300.002
635.814
300
300.001
300
358.499
562.493
300
302.134
301.082
336.304
302.025
302.76
300
300
301.354
300.011
300
300
300
300
300.001
300
302.23
614.094
302.128
300.251
302.186
300.262
300.001
300
300
301.332
300
300
300
302.342
300.002
527.564
301.208
300.352
300.164
400.752
300.008
301.374
300
300.001
300.092
365.043
300.383
300.008
300.001
300.001
358.228
300.001
303.388
349.524
301.484
301.096
300
300.001
301.498
316.348
300.005
301.226
300.317
300.171
300
301.486
300.028
301.74
300.001
300
354.924
300.051
300
300
300.686
716.389
301.072
300.005
300.001
300.698
301.179
300.001
300
300
848.06
301.837
368.393
300.621
300.001
739.3
618.19
300.001
300.001
300.008
300.001
300.001
300.001
434.212
300
300.012
300.001
586.077
300
300
300
300
629.791
438.491
300
626.216
300.011
300.002
300
300.001
300
674.216
301.246
300.001
300
300.308
300.004
300.003
300.006
300
300.003
301.378
300.002
300.068
300
300
300
301.136
300
300
452.659
300
300.001
300
300.001
630.824
300
350.874
300.004
300.186
300
300.003
300
300
300
300.017
300.004
301.175
473.532
300
300.001
300.007
300
300.004
300
300
300.002
300.004
300.005
300.004
300
300.058
754.321
474.589
300.031
301.822
300.001
300.004
425.893
300.003
335.709
300.018
300.206
300
300
300.001
300
300.004
300
300.036
300.945
300
300
300
300.005
300.006
300.004
300
300
300
300.16
300.031
300.129
300.005
300
300.039
300.039
300.077
300.004
300.002
300
300.064
300
300.059
300.018
300.009
300.036
300.156
301.972
300.033
301.875
301.156
300.001
333.762
300.001
301.812
300
302.139
300.195
302.395
403.518
300
300
300.001
334.874
647.797
300
301.645
300.002
590.223
300
300.001
300
300.002
300.662
300
300.001
300.002
300
300.002
300
301.33
303.911
300.181
300
300
301.494
300
300
366.402
593.785
370.839
300
300
306.005
360.484
300
300
351.854
300.968
525.024
300
301.178
300.017
300
300.005
300
300
300.001
300.001
300
300
300
300
300.002
300
300
300
300
300
300.001
300
300
300
300
300
300.207
301.346
300.289
300
300
300
300
300.282
300
300
300.002
300
300
300
300.009
300
300
300
300
300
300.107
300
300.141
300.142
306.094
300
300
300.13
300
300
300
300
300
300
300
300.001
300.003
300.002
482.636
408.772
300
300.002
300
300
300
300
300
300
374.313
303.532
300
303.468
300.001
300
304.927
305.534
300.001
300.175
447.923
300.001
300
300
300.006
300
303.259
300
303.823
300
300
300
301.242
301.182
301.147
300.001
300
300
300
300
300
300
300
300
300
300.706
300
300.001
300.002
300
300
300
300
300.284
300.18
300.231
300.001
300.005
300
300
300.002
300.001
300
300.001
300.578
300.004
300
300.003
300.077
300
300.146
300.002
300.006
300.045
300
300.045
808.588
300.014
300.011
300
300.018
300.011
300.001
300
300
300.001
300.012
300.001
300.004
300.009
301.575
301.35
301.202
300
300.001
307.445
300.001
300.004
300.001
300
300
300.002
301.393
710.022
301.286
345.597
318.544
300
300.005
300.001
305.241
300.336
300
696.804
300
300.188
300.001
300.036
300.007
300
378.664
300.001
300.001
300
300.001
300.002
300
300.07
300.234
300
300.004
304.619
300
300.001
300.004
300.001
300.001
300
300.001
300.001
300
300
300.005
300.012
300
300.001
300
300.006
300.001
300.003
300.004
300.021
300.272
301.683
300.001
301.975
300.2
300.002
300.001
300.004
301.699
300.003
302.486
309.37
300.001
301.769
300
300
300
300
300
300
300.134
300.164
300
300
300.003
300.072
300.145
300.001
300.13
323.026
300.107
632.127
300.01
300.004
300.001
300.001
300.154
300.002
300.019
300.001
300.152
300
300.006
300
300.008
300
300.125
300.158
300
300.006
300
300.001
337.63
300.001
300.003
630.141
300.001
300.001
300.004
300.002
300.002
300.001
300.001
311.561
328.915
307.447
304.538
303.838
301.165
363.86
300
300.001
300.01
300.002
300.016
603.718
300.008
311.681
300.199
300.002
300
304.103
314.767
300
300.005
304.707
640.902
606.974
300.001
300.01
385.725
300.003
300
613.948
300
300.001
300.004
300
300.005
300.001
300.001
300.001
300.283
300.021
300.144
300.422
300
300.224
300.404
300.222
300.002
300.003
300.003
300.402
428.778
300.003
338.851
304.398
300
339.745
325.188
300
300
300
300
325.456
300.001
300.005
300.001
300.002
300.003
300
301.472
300.002
300
300
346.103
300.004
300.727
300
300
300.001
300.051
300.001
300.018
300
300
300.023
301.597
300.062
307.019
300.081
300.012
300
300.002
300.17
300.001
300
300.087
300.051
300.004
300.002
300.028
300.115
300
300.001
300.001
300.003
300.006
301.011
300.001
321.71
300.001
305.243
300.02
339.168
300.002
300.001
300.001
300.006
332.436
300.004
351.756
300
300
300.168
300
300
300.153
300.205
300
300
315.173
329.094
300.001
300.001
300.296
300.002
300.046
300
300
300.015
300
300.001
300
300.001
300.001
300
300.015
300.001
547.329
300.001
300
300.001
300.045
300.002
300.012
613.827
300.001
300.001
520.805
300.001
300.001
328.989
300.001
300.001
300
300.001
648.464
300
384.105
300.009
300.017
300
383.78
300
300
300.022
300.001
300.009
545.597
300
300.001
300.001
300.002
300.004
300.002
520.528
300
300.001
300
300.071
300
300
300.001
300
300
300.001
300
300.042
300
300
300.001
300.001
300.001
300
300
300
300
300.001
301.161
300
300
300
300.046
300
300
300
300
300.27
300.001
300.532
300
300
300.012
306.937
303.43
300.001
300.001
300
300.536
671.81
307.416
300
300
300.001
300
300
300
300.001
300
300
300
304.066
308.149
307.079
300.001
300
300.001
300
300
323.185
302.243
300.002
300.001
300
300
300.002
300.002
300
300
300
300
300
300
300
300
300.009
300.011
300.664
300
300.001
300.001
300
303.41
300.016
300
300.001
300.786
300
300
300.001
300
300.002
300.001
300.001
311.578
300.111
300.001
299.936
300
300.001
300.026
300.001
300
300
300.001
300.001
300.671
300.001
300
300
300
300
300.185
300.001
299.728
300.006
300.48
306.126
300.001
300
310.578
300
300.002
300.001
300.001
300.001
300.31
300.001
300.001
300.264
300.001
300.001
300.001
300.001
308.101
300
300.045
311.365
300.007
300.008
300.008
300.001
300.001
300
300
300
300.785
300
300
300.001
300.008
300
300.007
320.817
300
300
300.011
300
300
300.007
300
300
300.001
300.005
300
300
300.006
300
300
300.008
300.004
300.005
300
300.001
300.005
304.531
300
300
300
300.007
300
300.002
300
300.014
300.004
300.587
300
300.019
300.012
300
300.027
303.136
300
300.015
300
300
300
300.012
300
300
300
636.016
300
300
300
300.015
300.017
300
300
305.788
300.012
300.005
300
300
300.016
300.008
641.325
300.002
300.001
658.907
657.974
656.698
300
300.001
300.001
664.904
300.001
300.081
300
300.008
300.001
300
300
300
300
300
300.001
300
300
300
300
300.001
300
300
300
300.001
300
300.004
300
300.001
300
299.774
300
300
300
300
300.025
300
443.383
300.593
300.004
300.078
300.003
300.068
300.015
300.001
300
300
300
523.416
467.29
300.003
300.07
300.001
300.001
300
300
300
301.017
300.02
300
300
617.54
300
300.013
300
300.131
300.001
300
300
548.466
300
629.488
300.156
526.253
334.281
300
300
300
308.155
299.995
354.674
300
300.016
752.888
300.004
300
300.304
300.001
300.128
300.146
300
300.001
300.173
341.047
311.248
300
323.111
300
300
300
300.276
300
300
300
300
300
300
300
329.075
301.344
300.178
300
386.142
300
406.277
415.377
300
300.211
300.002
300
300
300.001
300.039
300.002
300
300
300.043
300
300
325.889
300.001
378.256
300
300
300
300
300
300.001
310.374
300
300
311.292
300
300
300
300
300.836
300
300
300
301.095
300
305.019
300.001
419.207
300
300
300
300
300
336.063
300
300
314.015
300
300
300
300.131
303.328
300
300
300.001
300
300
314.404
301.569
300
303.955
300.001
668.515
300.001
300.001
300.045
300
300
300
300.001
300
300.001
299.537
300
300
301.088
300
300
300.515
395.973
300
300
300
304.05
302.29
300
531.31
300.001
300
302.899
300.001
300
307.431
300.001
300.158
300
300
300
300.001
500.152
300.001
300
300.159
300
300
300
300
300
300
300
300.163
300.001
300.16
300.001
509.52
300
300.164
300
300
300.001
300
300
300
300
300
300
300
300.001
300
300
300
300
300
300
300.581
300
300.001
300
300.001
300
507.078
300
300.001