/*--------------------------------*- C++ -*----------------------------------*\
| =========                 |                                                 |
| \\      /  F ield         | OpenFOAM: The Open Source CFD Toolbox           |
|  \\    /   O peration     | Version:  v2012                                 |
|   \\  /    A nd           | Website:  www.openfoam.com                      |
|    \\/     M anipulation  |                                                 |
\*---------------------------------------------------------------------------*/
FoamFile
{
    version     2.0;
    format      ascii;
    class       volVectorField;
    location    "4";
    object      U;
}
// * * * * * * * * * * * * * * * * * * * * * * * * * * * * * * * * * * * * * //

dimensions      [0 1 -1 0 0 0 0];


internalField   nonuniform List<vector> 
108993
(
(-0.0339602 0.000517023 -0.0426351)
(0.0243288 -0.031183 -0.0782432)
(-0.000238591 -0.00125366 -0.0573591)
(0.0206111 -0.0460384 -0.0433248)
(0.00267484 -0.019292 -0.0221899)
(0.00136555 -0.00100395 -0.00503413)
(0.118499 -0.0336708 -0.142002)
(0.00169691 -0.00434729 -0.000153984)
(-0.0031722 0.00795017 -0.0671174)
(-0.0412965 -0.0037804 -0.00561178)
(-0.00663717 -0.00250776 -0.027887)
(-0.00427577 -0.000934026 -0.0287317)
(0.017301 -0.0444996 -0.0295605)
(-0.00798616 -0.00270708 -0.00120713)
(-0.00199691 -0.000380698 -0.0290917)
(-0.106068 0.00304847 0.00887716)
(-0.0639027 -0.00410828 -0.00192719)
(-0.006951 -0.00137979 -0.0128753)
(0.014891 -0.0475427 -0.0466503)
(0.0306446 -0.0303377 -0.0701069)
(0.000879138 -0.00182829 -0.0329231)
(0.0241488 -0.00777618 -0.103436)
(0.0110918 -0.00222141 -0.0261141)
(-0.00337693 -0.000467625 -0.0385217)
(0.016782 -0.0475616 -0.0305426)
(0.013319 -0.0091983 -0.0156131)
(-0.0155619 0.0715543 -0.0081837)
(0.0193614 -0.0256608 -0.073271)
(0.025911 -0.020663 -0.0584419)
(-0.000204294 -0.00127387 -0.0391699)
(-0.0104434 0.0330835 -0.0309506)
(-0.00500336 -0.0024953 -0.00920044)
(-0.0140029 0.0807577 0.00784483)
(-0.0601782 -0.00547128 -0.0543616)
(0.0298221 -0.0344916 -0.06617)
(-0.000777936 -0.00438548 -0.0309562)
(-0.00805682 0.0542057 -0.0161189)
(4.60256e-05 -0.00640457 -0.0387237)
(0.610417 1.437 -2.28128)
(0.503112 0.358629 -2.108)
(0.012975 -0.0207635 -0.0524783)
(-0.000499681 0.00105973 -0.0447482)
(3.14726e-05 -0.00104817 -0.00347513)
(0.0511396 -0.058763 -0.00250566)
(-0.0183693 0.0145431 0.0406651)
(-1.34833 -0.988671 -0.723553)
(-0.0071322 0.0598144 -0.0042429)
(0.10999 0.000460361 -0.0835853)
(0.0220005 -0.00413253 -0.0473688)
(0.0381501 -0.00643554 -0.0884559)
(0.00962435 0.0411884 -0.0347452)
(0.00832512 0.0873832 -0.0284458)
(0.0186056 -0.0280444 -0.0641665)
(0.00631512 0.0295328 -0.0126575)
(-0.0153631 -0.000538109 -0.0119279)
(-0.00930932 -0.000450774 -0.036992)
(0.0135251 0.0790606 -0.0261961)
(-0.00467999 -0.017781 -0.0174316)
(0.00348628 -0.0108018 -0.0502983)
(-0.00579329 -0.0234015 -0.0215861)
(-0.00464985 -0.0218501 -0.0265816)
(-0.00797324 -0.03938 -0.0338921)
(-0.000942554 -0.00189495 -0.0370743)
(0.0239034 -0.0013316 0.000299733)
(0.00911767 -0.0754904 -0.0187418)
(0.018286 -0.0135877 -0.0289245)
(0.012612 -0.0516395 0.00020448)
(0.0035928 -0.0272466 -0.0395654)
(-0.0160441 -0.00305934 -0.0110732)
(0.125021 -0.355841 -0.171533)
(-0.000512966 -0.00107862 -0.0386565)
(0.0099488 -0.0291416 -0.0424482)
(0.00189841 -0.0126793 -0.0408171)
(0.00429031 -0.0269091 -0.0375573)
(0.0220975 -0.00220133 -0.0502692)
(-0.00482439 0.0187959 -0.0437033)
(0.0210761 -0.000838826 0.00039886)
(-0.0653625 -0.00734262 -0.0202334)
(0.0280407 0.0685486 -0.049707)
(0.0119528 -0.0522876 -0.00111573)
(-0.00191048 -0.00540866 -0.0442353)
(-0.0203743 -0.00341277 -0.0145982)
(0.00869307 -0.00298284 -0.0547729)
(-0.00018902 -0.00146093 -0.0381215)
(-0.0063244 0.000656165 -0.0155485)
(-0.0036528 -0.00131583 -0.00525587)
(-0.00122843 0.000627353 -0.0417213)
(-0.00620603 -0.000822373 -0.0269557)
(0.0025056 -0.022706 -0.0161249)
(0.00252067 -0.0465416 -0.00525937)
(-0.00306686 -0.0416651 -0.0161361)
(-0.00283637 0.0235628 -0.0385289)
(-0.0023406 -0.0352822 -0.00399625)
(0.00059138 -0.0252454 -0.00656157)
(-0.00780658 -0.0350621 -0.00761876)
(-0.0149142 -0.00223484 -0.00862166)
(0.00070679 0.0275614 -0.0419942)
(-0.000964329 -0.00439238 -0.0432825)
(-0.00737959 0.0303106 -0.0369339)
(0.000976754 0.00295997 -0.0344525)
(-0.00750313 -0.0319743 -0.0153409)
(0.0100376 -0.0316148 -0.0755066)
(-0.00152706 -0.00166384 -0.034642)
(-0.0133881 -0.00276707 -0.0195554)
(-0.00126899 -0.00689441 -0.0426044)
(-0.00532079 -0.0392724 -0.000805766)
(-0.00287278 -0.00410846 -0.0411012)
(0.0251995 -0.083385 -0.121486)
(0.0205903 0.00791622 -0.038566)
(-0.74893 0.0577827 -2.13239)
(0.0501077 0.00247894 0.00269095)
(-0.0033596 -0.0459833 -0.0094133)
(-0.0110819 -0.0283963 -0.000847972)
(0.082331 0.0348643 0.00951739)
(-9.76011e-05 -0.000832121 -0.0451955)
(0.0669344 -0.0231036 0.728601)
(0.00167781 -0.0168272 -0.0260872)
(-0.00678229 -0.00117293 -0.0420091)
(-0.0539364 -0.00283919 -0.00169805)
(-0.002323 0.0218174 -0.0466822)
(-0.0136578 -0.00407236 -0.00507136)
(-0.0174236 -0.0377533 -0.071131)
(0.0788723 -1.05094 0.209689)
(-0.0138541 -0.00358648 -0.0443062)
(0.000684119 -0.00701734 -0.0375757)
(-0.0655346 0.00171388 0.00369927)
(0.0180429 -0.0192282 -0.0490196)
(-0.00917712 -0.00299104 -0.0467189)
(-0.0165944 -0.0352735 -0.0823911)
(-0.00565434 -0.050347 -0.089865)
(-0.0182921 -0.00141483 -0.016345)
(-0.0146108 -0.0504832 -0.0810224)
(-0.00133692 -0.00821237 -0.0526401)
(0.187461 0.0330474 0.56035)
(0.00143828 0.00110749 -0.047349)
(-0.00625672 -0.000466824 -0.0517654)
(-0.00837219 -0.0302317 -0.0781547)
(-0.0011016 -0.00607722 -0.0499438)
(0.00107609 -0.00528797 -0.038578)
(-0.00882618 -0.00240139 -0.00404955)
(-0.0131587 -0.000173999 -0.0447889)
(-0.000242396 0.00261571 -0.0410457)
(-0.00996019 0.00800957 0.00259949)
(-0.0106223 -0.0387443 -0.0854562)
(-0.00810849 -0.0423436 -0.0879904)
(0.00138179 -0.0113638 -0.0412412)
(-0.00193816 -0.00511525 -0.0429504)
(-0.51693 -0.0540233 -2.9688)
(-0.0128943 -0.00196162 -0.0434606)
(0.138021 -0.0835513 1.20901)
(0.0839085 -0.0168696 1.22207)
(0.0124505 -0.00906104 -0.00417912)
(0.00981573 0.00653378 -0.00491648)
(0.105277 0.00102246 1.25476)
(0.000896469 -0.00230582 -0.0521202)
(0.0352848 -0.00115155 -0.0204118)
(-0.0122405 -0.00164298 -0.0355444)
(0.00895197 0.00676823 -0.160105)
(-0.0406551 0.123814 -0.0810278)
(0.107376 0.016564 -0.222882)
(0.112535 -0.0133262 1.22615)
(0.0034495 0.121258 -0.19398)
(-0.0060003 0.0148761 -0.0257645)
(-0.00101163 0.00140333 -0.0395493)
(-0.00206633 -0.00207703 -0.0137565)
(0.0234265 0.0402019 -0.0111954)
(-0.00220486 -0.0124546 -0.0040531)
(0.0165332 -0.00152216 -0.000159978)
(0.0194178 -0.0049045 -0.000229559)
(-0.000233775 -0.000965326 -0.0441392)
(0.00791729 -0.0196947 -0.0497807)
(-0.0057518 -0.00138623 -0.0382795)
(0.0210058 0.0455594 -0.0104047)
(-0.00036402 0.000337044 -0.0396906)
(0.0176321 -0.074501 -0.0611558)
(0.0284293 -0.0164911 -0.020285)
(0.0322116 -0.00170165 -0.0304776)
(0.0142558 -0.00436922 0.00183036)
(-0.00353561 -0.00129931 -0.0452726)
(0.0014508 0.00700356 -0.0435559)
(-0.0426281 -0.0086726 -0.0115189)
(0.00658263 -0.000971494 -0.0565816)
(0.0446986 0.0329731 -0.149074)
(-0.0141702 -0.00459468 -0.0397242)
(-0.0120901 -0.00270696 -0.0102268)
(-0.000948246 -0.00324784 -0.0404)
(0.0476966 0.0115938 -0.130255)
(-0.006888 -0.00172156 -0.0196083)
(-0.0101838 -0.00185227 -0.023164)
(-0.0152597 -0.00106132 -0.0404573)
(-0.00271097 -0.00251136 -0.0370078)
(0.0393253 0.0319223 -0.106222)
(-0.00109666 -0.00286667 -0.0374047)
(0.0124446 0.0638505 -0.015803)
(-0.000220274 -0.00126459 -0.0466846)
(-0.0111896 -0.0030078 -0.0567072)
(0.0155261 -0.0214009 -0.0537036)
(-0.00141582 -0.00394656 -0.0410023)
(-0.000338127 -0.00613137 -0.0435102)
(-0.0104262 -0.000153465 -0.0393161)
(-0.00271846 -0.0123936 -0.00773198)
(0.0334158 0.0128188 0.00377167)
(3.70464e-07 -0.00116508 -0.0387096)
(-0.00386525 -0.0240756 -0.208036)
(0.171097 -0.206693 -0.13191)
(0.0667301 -0.0765016 0.737634)
(-0.00132519 -0.00194372 -0.050444)
(1.15625 -0.817965 -1.21465)
(-0.00156371 -0.00590204 -0.0486755)
(-0.0594627 0.0243403 0.526421)
(-0.20883 -0.222074 -0.280786)
(0.000208644 -0.00350771 -0.041825)
(0.107945 0.0442415 0.001451)
(-1.00966 -3.51133 -0.055264)
(0.270031 2.40701 -0.444318)
(-0.000710952 -0.00713217 -0.0421683)
(-0.00816785 -0.00208266 -0.0291136)
(-0.00140857 -0.00152414 -0.0494596)
(0.0151678 0.0358727 -0.155167)
(-0.0219483 0.0216075 -0.0414618)
(0.0718716 -0.0286588 -0.0174379)
(0.121798 -0.088057 1.17194)
(-0.0644393 -0.00968938 -0.0696195)
(0.0270263 0.0339199 -0.121146)
(0.0390128 -0.00517069 0.000352936)
(0.0118716 -0.00391375 0.00165219)
(0.0145312 0.0353761 -0.167993)
(-0.00356475 -0.000792823 -0.0491041)
(0.0887991 0.168853 0.141283)
(0.00485158 -0.00619821 -0.0228138)
(-0.08694 -1.44883 0.0531579)
(-0.00445039 -0.00197712 -0.0377159)
(0.012405 -0.00471023 0.000268068)
(0.00421207 -0.0197009 -0.0535627)
(0.00294457 0.00779996 -0.0442901)
(-0.00077412 0.0189515 -0.0117707)
(-0.00215014 0.0188282 -0.0898515)
(-0.0184176 -0.0336121 -0.037671)
(0.640176 0.26393 0.982062)
(-0.000696998 0.0307001 -0.168808)
(-0.000558583 0.00493781 -0.0220709)
(-0.0028711 -0.00344087 -0.0491332)
(-5.22318e-06 -0.0011369 -0.00119964)
(0.00161081 0.0184549 -0.175773)
(0.00249959 -0.00777073 -0.146024)
(-0.104241 0.00696645 0.0018423)
(-0.771017 -3.23515 -0.617926)
(-0.0444075 -0.944331 0.31898)
(-0.013856 0.0304827 -0.171213)
(0.0158218 -0.00490248 -0.0696445)
(-0.00295738 -0.000575204 -0.0306446)
(0.0147273 -0.0759308 -0.0462765)
(-0.00318439 -0.00265738 -0.0571863)
(-0.00051488 -0.00217695 -0.0453906)
(0.0124467 -0.00290716 -0.152625)
(-0.00207526 0.0268397 -0.181923)
(0.0135402 -0.0130323 -0.156105)
(-0.0135597 6.34444e-05 -0.0348533)
(-0.00959945 0.0279068 -0.0640367)
(0.00222556 -0.00186633 -0.00117427)
(-0.00122087 0.000938738 -0.0499407)
(0.0208303 -0.00079678 -0.0453476)
(-0.0491255 0.00068426 -0.00394473)
(-0.0661689 0.00298916 0.0133977)
(0.0781022 0.0773347 -0.0429124)
(0.00810514 -0.00623615 -0.028879)
(-0.00195937 0.000615704 -0.0478103)
(0.0244251 -0.0149856 -0.0449073)
(0.00353267 -0.00253541 -0.00228693)
(-0.00378797 -0.00522898 -0.0519191)
(0.00110618 -0.00597145 -0.0036832)
(-0.000415708 0.000907493 -0.0560792)
(-0.945708 -2.95132 0.0283472)
(-0.0287127 -0.0524508 0.735462)
(1.01089 0.333573 -3.46113)
(-0.00177177 -0.0027536 -0.0453321)
(0.000114931 0.0194009 -0.0291142)
(0.463485 -1.84991 -0.368281)
(-0.0123699 -0.000931104 -0.0378207)
(0.0327243 -0.0196922 -0.0449561)
(0.036666 -0.0198308 -0.0459609)
(-0.309373 -0.417589 -0.0847178)
(-0.664015 -0.341706 -0.247162)
(0.00929093 -0.0127381 -0.00318493)
(-0.0127823 -0.00746665 -0.0574245)
(-0.0468968 0.000835536 -0.0105172)
(0.0108527 -0.04051 -0.0400281)
(0.0522108 -0.0242158 -0.0531592)
(-0.0201934 -0.00343752 -0.0339919)
(0.0306662 -0.661085 -0.161769)
(-0.0164379 -0.00404939 -0.00433531)
(-0.000412169 0.000355358 -0.047031)
(0.0465282 -0.0221869 -0.052649)
(-0.00107171 -0.00067724 -0.0473005)
(0.0163529 -0.0307175 -0.0118719)
(-0.00201145 -0.000718093 -0.0497751)
(-0.00506319 0.0256712 -0.0485967)
(-0.0016357 0.000460989 -0.0469518)
(-0.123109 -0.0255153 0.00229048)
(-0.000488017 -0.001984 -0.00632048)
(-0.0756413 -0.246228 0.600055)
(0.0120872 -0.0187829 1.12377)
(-0.00243276 -0.00684766 -0.0403216)
(-0.0010322 -0.000214202 -0.00401893)
(-0.00081898 -0.000926825 -0.0553057)
(0.00380247 -0.00307404 -0.0304974)
(0.0127958 -0.00798751 0.00128752)
(0.0105308 -0.0028073 -0.0579459)
(0.00877329 -0.00595558 -0.0288821)
(-0.933744 -3.15302 0.06463)
(-0.000939059 -0.00633549 -0.0143261)
(-0.00545052 -0.0302798 -0.0280822)
(-0.0429989 -0.00640029 -0.00484078)
(-0.000478305 -0.00421355 -0.0342182)
(0.00873623 -0.00634431 -0.0336299)
(0.0775617 -0.170148 1.02374)
(0.0225102 -0.000259701 -5.85354e-05)
(-0.0421621 -0.00459901 -0.00458607)
(0.245709 0.422365 -1.6163)
(-0.00121042 0.000616138 -0.0516544)
(0.027424 -0.0258241 -0.0610392)
(0.0251938 -0.000710651 -0.000724092)
(0.00185102 -0.00475851 -0.0645658)
(0.00169625 -0.00413686 -0.057145)
(-0.00198125 -0.00355688 -0.0426385)
(0.0998337 0.540111 0.570731)
(-0.0358342 0.434582 0.707612)
(-0.0879015 -0.463746 1.22591)
(0.00340815 0.0204764 -0.0640511)
(-0.00969151 -0.00272121 -0.0588002)
(0.0520126 -0.00387278 -0.0260297)
(0.0862649 -0.729009 0.936187)
(0.0826114 0.0405466 0.399509)
(0.000291274 0.000815464 -0.0534411)
(-0.200806 -0.666792 -1.09802)
(-0.00204128 0.000201777 -0.0372055)
(-0.000143981 0.00127623 -0.0407429)
(-0.00462945 -0.0265867 -0.0289886)
(-0.000497636 -0.00280013 -0.0461164)
(-0.0104726 -0.0019343 -0.0529604)
(0.00384501 0.00589801 -0.047569)
(0.114694 -0.0125363 0.396249)
(0.0630856 -0.0199955 -0.0784628)
(-0.00368232 -0.00602003 -0.0426827)
(-0.00630075 -0.00333543 -0.0298757)
(-0.00586494 -0.00059864 -0.0219283)
(0.000950264 -4.5967e-05 -0.0503552)
(-0.00220033 -0.00797961 -0.0303929)
(0.00464055 4.26737e-05 -0.00863162)
(0.00119007 0.000715995 -0.0522628)
(-0.000458275 0.00134626 -0.0453817)
(0.00157011 -0.0010999 -4.88227e-05)
(0.0433095 -0.0469648 0.101506)
(-0.693774 -0.503221 -0.268001)
(0.037269 -0.0254598 0.0117719)
(-0.00342353 -0.00864541 -0.0430803)
(-0.00293778 -0.00564586 -0.0465458)
(0.558398 -0.591776 -1.74476)
(-0.00295363 -0.00043093 -0.031055)
(1.22409e-05 -0.0040148 0.00078793)
(-0.0473499 -0.00274428 -0.0298549)
(0.0706672 -0.0205638 -0.0795496)
(-4.88492e-05 0.000213067 -0.0524776)
(-0.00287696 0.000440354 -0.049367)
(0.0211868 -0.00599732 -0.050452)
(0.0378402 -0.0212401 -0.0788179)
(-0.000827709 -0.00112752 -0.0485581)
(-0.00287182 -0.00684908 -0.0762046)
(0.000140886 -0.00280181 -0.025157)
(-0.649732 0.0172457 0.740542)
(0.00756797 0.0108838 -0.0520563)
(-0.0372359 -0.000872453 -0.0170118)
(-0.00147342 -3.9702e-05 -0.0520906)
(-0.0359085 0.176701 1.11112)
(0.0412828 -0.017266 -0.0739809)
(-0.065234 0.240278 1.39517)
(-0.0247403 -0.00509232 -0.0258965)
(-0.00279521 -0.00199288 -0.0474124)
(-0.0187131 0.0867237 1.00306)
(-0.00216327 -0.00208022 -0.0363209)
(-0.01942 0.132934 1.2713)
(-0.109868 0.0416452 1.3412)
(0.044449 -0.0250188 -0.0769553)
(-0.116439 0.0204577 0.0156454)
(-0.00907186 0.000169377 -0.0239171)
(0.00259997 -0.0172571 -0.00450701)
(-0.0398388 -0.00899264 -0.00680967)
(-0.281082 0.449427 0.0956594)
(0.0228201 -0.0159926 -0.0385239)
(0.208623 0.231973 -2.31422)
(0.0257828 0.220647 0.751135)
(0.000138201 -0.0184363 -0.00325598)
(0.0180279 0.220649 1.23492)
(-0.0184587 -0.0039752 -0.0024181)
(-0.539838 -1.73829 0.022095)
(0.0525478 -0.0198624 -0.0633399)
(-0.208003 0.279347 0.846331)
(0.00548387 0.0203589 -0.0381306)
(-0.0618797 0.00303581 0.0125683)
(-0.00337947 0.00655142 -0.0635122)
(0.046717 -0.0201779 -0.0665822)
(0.732953 -2.36941 -0.0169531)
(0.114702 -2.4627 0.306408)
(0.00183793 0.00212257 -0.04336)
(0.0706211 -0.0221733 -0.00641191)
(-0.00039763 -0.0163168 -0.00185066)
(0.000480877 -0.0168387 -0.0067579)
(-0.00142832 -0.00569505 -0.0412477)
(-0.00591408 -0.00309963 -0.0629129)
(-0.0866672 0.0168937 0.610342)
(-0.000151468 -0.00220107 -0.0017177)
(0.018767 -0.0015638 -0.0654048)
(-0.0466092 0.939481 -0.263934)
(-0.00359511 -0.000505692 -0.0388723)
(-0.00682437 -0.00136641 -0.0214955)
(0.000684789 0.00723936 -0.0575943)
(-0.0100575 0.297336 1.34739)
(-0.246933 -0.233696 -0.0639504)
(0.189478 -2.6712 0.0267601)
(-0.00182326 0.000284617 -0.0150885)
(-0.0922951 0.108559 0.778746)
(0.0282315 -0.0297157 -0.0682195)
(-0.0993395 0.0910933 1.09203)
(0.00869331 -0.000152735 0.00115513)
(-0.00195213 -0.017091 -0.00754741)
(-0.0717045 0.0941566 0.923897)
(-0.000362448 -0.00345544 -0.0369334)
(0.234019 -0.716793 0.950648)
(-0.0189523 0.116236 0.880048)
(0.000359198 -0.00345791 -0.000910684)
(-0.236243 0.19036 0.66948)
(0.306151 1.92131 -2.2562)
(-0.139898 0.0774986 0.975463)
(-0.0332887 -0.0219014 -0.0514992)
(0.000658386 0.00125032 -0.0435765)
(-0.0412413 -0.00636826 -0.00470569)
(0.0379499 -0.000895631 0.0610968)
(0.0415771 -0.0262295 -0.0209091)
(0.0143296 -0.0138648 -7.45121e-05)
(-0.000863055 0.00434266 -0.0445217)
(-0.00690069 -0.00253738 -0.0234904)
(-0.0032841 0.00155475 -0.0482312)
(-0.00491641 -0.00183415 -0.0493767)
(0.00314754 -0.00874646 -0.0156957)
(0.0995806 0.975408 0.359212)
(0.0178633 -0.00489721 -0.0412887)
(0.0202087 -0.0115334 -0.047909)
(0.0146537 0.0515389 -0.00539085)
(-0.00380661 -0.0016461 -0.0506202)
(0.000573644 -0.00705939 -0.0146901)
(-0.0140597 -0.000340139 -0.0131528)
(-0.0012581 -0.0244422 -0.00742585)
(-0.0043918 -0.00128741 -0.0509569)
(-0.0434088 -0.00858812 -0.0381808)
(0.0138039 -0.0160052 0.000331299)
(-0.00195311 -0.00180189 -0.0323028)
(-0.00716237 -0.00240487 -0.021495)
(0.0015817 -0.0118767 -0.0137721)
(-0.00514422 -0.00215476 -0.0420873)
(0.000817167 0.00598932 -0.0333359)
(0.0012126 0.337848 -0.0988345)
(-0.0114981 0.000541183 -0.0585195)
(0.0788259 -0.330369 -0.0283423)
(0.136281 -0.0980921 1.0682)
(-0.0602763 -0.0832046 -0.00822594)
(-0.00340662 0.00316918 -0.0531477)
(0.012459 0.000833182 -0.03304)
(0.034085 -0.41294 -0.162653)
(-0.00090477 0.00229971 -0.0543198)
(-0.00710116 -0.000813183 -0.0562768)
(-0.179989 -0.0155939 -0.0138491)
(0.00131475 -0.0140219 -0.0273634)
(-0.00223687 0.00791934 -0.0461548)
(0.0146828 0.0045898 -0.0295273)
(0.0221632 -0.00105822 5.26495e-05)
(-0.0476062 0.000857773 0.00038784)
(-0.00137129 0.000861921 -0.0436289)
(-0.0239429 -0.361213 -0.158897)
(0.252817 -0.97495 -0.0421761)
(-0.0520061 0.0220119 0.0153843)
(-0.00207632 -0.00799982 -0.0430721)
(-0.00687449 0.00753113 -0.0506633)
(-0.00236499 0.00738714 -0.0536876)
(-0.00105759 0.000383173 -0.0496017)
(0.00861454 0.00166315 -0.0901818)
(-0.0092567 0.000548207 -0.0527801)
(-0.00321226 -0.00058423 -0.0541016)
(-0.00481973 -0.000813056 -0.0532954)
(0.0155842 0.0482432 -0.00211303)
(-0.0423308 -0.00654902 -0.0722982)
(-0.00734965 -0.0023863 -0.020531)
(-0.00722278 -0.00156041 -0.0511468)
(-0.0613942 -0.000691413 0.0201224)
(-0.00923776 0.000436311 -0.0566263)
(-0.0625426 0.0219212 0.0442861)
(-0.00190583 -0.00319822 -0.0375942)
(-0.0232004 0.0178615 -0.103853)
(-0.00376574 0.000568789 -0.048337)
(-0.00137056 -0.0010101 -0.050632)
(0.0240651 -0.0209854 -0.0617456)
(-0.00172449 -0.0251341 -0.018414)
(-0.00196676 0.00533438 -0.0462986)
(-0.00268998 0.0023433 -0.0469245)
(-0.00309685 -0.00197631 -0.0525049)
(-0.0230086 -0.000945116 0.0168294)
(0.145063 -0.0463776 1.13145)
(-0.0025472 1.93006e-05 -0.0514847)
(-0.00197179 0.00246886 -0.0441284)
(0.345912 -0.100565 0.0386894)
(-0.000223867 -0.000163314 -0.0514072)
(-0.0743575 0.00436626 -0.00361345)
(0.0217724 -0.030347 -0.049658)
(-0.00523889 0.00958493 -0.0445057)
(-0.0304077 -0.00254787 -0.0110533)
(-0.000876996 0.000270823 -0.0508322)
(0.00223048 -0.033722 -0.175731)
(0.00210273 -0.00664728 -0.0126819)
(-0.00226477 -0.00204876 -0.0500196)
(0.0264009 -0.00334659 -0.0646011)
(0.0178146 -0.0120624 -0.0540534)
(0.176514 0.00543009 -0.130845)
(0.200697 0.0100545 -0.0734718)
(0.0221001 -0.0262955 -0.0524186)
(0.0226312 -0.0319436 -0.037547)
(0.0294321 -0.0214143 -0.046861)
(-0.0181864 0.0573376 0.0231499)
(0.00019058 -0.0218386 -0.0112206)
(-0.00599427 -0.00115924 -0.0459444)
(-0.00345704 0.0637896 0.0415351)
(0.0217303 -0.0328519 -0.0340942)
(-0.00109443 -0.00997715 -0.0523391)
(-0.00161179 -0.00605992 -0.0340889)
(-0.00581471 0.0485998 0.0367135)
(-0.0170181 -0.00356821 -0.000891528)
(-0.000425315 -0.0049672 -0.0405349)
(0.000207453 -0.000919728 -0.045384)
(0.0205857 -0.00826539 -0.00556468)
(-0.00288049 -0.00225547 -0.0173134)
(-0.0748956 -0.0118757 -0.0227685)
(-0.972357 -1.20997 -0.166748)
(-0.00289316 -2.13635e-05 -0.038978)
(-0.0584422 -0.302365 -1.42098)
(0.00079274 -0.000452606 -0.00901225)
(-0.00193416 -0.00480521 -0.0377965)
(-0.00281593 -0.000821448 -0.03449)
(-0.0030852 -0.00294095 -0.0514413)
(-0.00230374 -0.0081361 -0.035034)
(0.00172122 0.0120635 0.0257043)
(-0.00262008 -0.00200062 -0.0435258)
(0.00419385 0.0105315 -0.033634)
(-0.0376026 -0.253214 0.588372)
(5.34028e-05 -0.0124255 -0.0522017)
(-0.436618 -1.35248 -0.561237)
(-0.00187383 -0.00312062 -0.0389058)
(-0.00528713 -0.00235305 -0.0217863)
(-0.000629711 0.000531203 -0.0369289)
(-0.00425077 0.000587391 -0.0127169)
(0.0368697 -0.00988069 -0.0612438)
(0.0142182 -0.155687 0.433447)
(0.0272359 -0.02049 -0.0600451)
(-0.0515245 -0.0110272 -0.0423312)
(-0.00287185 0.00360464 -0.04322)
(-0.00930802 0.00125399 -0.0467801)
(0.0218716 -0.0331794 -0.0473111)
(-0.866366 -0.0289899 0.402739)
(-0.00965426 -1.37679 0.89818)
(-0.0096303 -0.00275185 -0.0327131)
(-0.00217481 0.00234588 -0.0450455)
(0.0218236 -0.017443 -0.0573588)
(0.0132644 -0.0184732 -0.0547382)
(-0.0137983 0.000553207 -0.044834)
(0.00795577 -0.0196294 -0.0536354)
(-0.106547 0.55598 1.55824)
(-1.0903 -0.332329 0.848175)
(0.34787 -0.86794 1.05586)
(0.031702 -0.00608708 -0.042515)
(-0.00272988 -0.00332645 -0.0303709)
(-0.49238 -0.0114356 0.0261813)
(-0.0375396 0.187384 0.73553)
(0.0514135 -0.221945 -0.0434528)
(-0.0376504 -0.00953025 -0.0278953)
(-0.0116333 -0.00363433 -0.0410384)
(0.00125856 -0.00352856 -0.0526195)
(0.00665939 -0.0407129 -0.0662189)
(-0.00872101 0.000338908 -0.0421304)
(-0.0546697 0.00623412 0.0343549)
(-0.0358198 -1.27162 -0.658111)
(-0.863826 -0.389701 0.831235)
(-0.00986199 -0.00136228 -0.00716604)
(0.00889232 -0.00471801 -1.56435e-05)
(0.0209508 -0.0141909 -0.0493677)
(-0.00183016 -0.000110916 -0.0391232)
(0.0287695 -0.000811367 -0.0684865)
(-0.00380736 -0.0013488 -0.0506915)
(0.0752974 -0.185265 0.834426)
(-0.00935533 -0.0150465 -0.0600681)
(0.00125401 0.00463843 -0.0621071)
(-0.00102894 0.000515627 -0.038512)
(0.0222648 -0.0152498 -0.115402)
(-0.0382219 -0.0356058 -0.0018053)
(-0.0052813 -0.00113726 -0.053217)
(-0.0108369 -0.00349452 -0.0281975)
(0.0968597 -0.0957354 0.827171)
(-0.0482904 0.00173457 -0.00179104)
(-0.00837305 -0.00320731 -0.00116048)
(-6.4667e-05 0.000421497 -0.0381679)
(-0.178946 -0.199076 0.739458)
(-0.000111877 -0.000806254 -0.036314)
(-0.0491346 -0.00560604 -0.00891257)
(-0.0152331 -0.000102806 -0.0401089)
(0.0726135 0.0879192 0.623083)
(-0.0215503 -0.000549926 -0.0435982)
(0.0536753 0.015763 -0.00453132)
(-0.0163854 -0.00114345 -0.0446501)
(0.0235771 -0.0230684 -0.0477281)
(-0.00583958 1.56627e-05 -0.0487435)
(-0.0841943 0.00114217 -0.00835613)
(-0.00101399 0.00049832 -0.0355326)
(-0.906015 -0.808264 -1.93684)
(0.00454857 0.00642559 -0.028929)
(0.10686 0.0971771 0.0331372)
(0.00258133 0.00834192 -0.0319272)
(-0.00953057 -0.00329392 -0.0473051)
(0.349063 -0.954976 -2.22242)
(0.0378846 -0.0120962 -0.0779842)
(-0.00403298 -0.0229397 -0.0385954)
(-0.00580936 0.00438287 -0.0512273)
(0.131113 -0.101712 0.176631)
(-1.88426 -0.250673 -0.464328)
(-0.0672839 -0.000769739 -0.00734832)
(0.079969 -0.29085 1.35936)
(0.0255143 -0.0182269 -0.0520689)
(0.145139 -0.191449 0.428407)
(0.0323347 0.21047 0.710486)
(-0.0762968 -0.00233841 -0.0145752)
(0.00299458 -0.00454141 -0.00905784)
(-0.000667697 0.0004012 -0.0399231)
(-0.129387 1.61941 -0.217127)
(-0.0574842 0.0317064 0.0631779)
(0.0284107 0.0308085 -0.00128641)
(-0.014654 0.000806843 -0.00381896)
(0.0265919 0.0309436 -0.00361431)
(-0.00389553 -0.000798856 -0.0460705)
(0.0179856 0.00690613 -0.0644416)
(-0.000347082 0.00375633 -0.044743)
(-0.0849647 0.00352239 0.000693454)
(-0.0317328 -0.000944198 -0.0177202)
(-0.0229533 -0.0076392 -0.00756364)
(-0.0166831 0.0191478 0.0117368)
(-0.0681336 0.000507218 -0.00646168)
(-0.0699522 0.00148892 -0.0131129)
(-0.0752904 0.0217696 0.0485302)
(-0.0300685 -1.64063 -0.049527)
(0.0584181 -0.340217 0.338766)
(-0.595745 -0.170989 -0.0764661)
(0.027099 0.000955249 -0.0662641)
(-0.0444255 0.0752423 0.0471675)
(0.0910559 -0.671573 0.434101)
(-0.838639 0.450896 -0.244502)
(0.255031 -0.573227 0.64239)
(0.0224103 -0.397124 0.157989)
(0.0165887 -0.00935353 -0.0100562)
(-0.048098 -0.00941759 -0.014083)
(-0.000417979 0.000642294 -0.0468397)
(0.000541156 -0.0129197 -0.00608505)
(0.0367645 -0.00037271 -0.0618314)
(0.0316255 -0.011282 -0.00141008)
(-0.0542909 -0.000394699 -0.00201074)
(-0.030426 -2.97104 0.299931)
(0.437174 -1.8354 -0.15197)
(-0.0490731 0.0021349 9.20186e-05)
(0.043433 -0.0471943 -0.0480828)
(0.032032 0.0400884 -0.00876727)
(0.326532 0.00654888 0.600343)
(-0.0825414 -0.403294 0.467609)
(-0.011954 -0.0446914 -0.0206415)
(0.011442 -0.00188609 -0.101051)
(-0.215844 -0.0103516 -0.00748981)
(0.0221404 -0.0129387 -0.00436484)
(0.487938 1.11256 -2.37546)
(0.0449812 -0.0392807 -0.102331)
(0.410401 1.5229 0.904889)
(-0.0584768 -0.0732832 -0.0115953)
(-0.0622593 -1.1634e-05 -0.00707723)
(-0.532287 -0.942091 -2.75406)
(-0.0597435 0.00301585 -0.00303327)
(0.110611 0.571545 0.409957)
(-0.168708 0.00140085 0.00146658)
(-0.205106 -0.0173584 -0.0111397)
(-0.263658 0.781064 1.15182)
(-0.0787194 -0.0138584 -0.0445319)
(-0.00757623 -0.00245539 -0.0485734)
(0.0366754 0.0273257 0.000238044)
(-0.0320273 -0.00244945 -0.00134181)
(0.000149429 -0.0038451 -0.059987)
(0.159808 1.48872 0.277526)
(-0.0903678 0.000648291 -0.0037017)
(0.161035 -1.8849 -0.0222632)
(-0.0956986 -0.00709799 -0.00934291)
(-0.393421 0.834575 0.128678)
(0.0798893 0.00115818 -0.00949133)
(0.00324364 0.000650364 -0.044412)
(0.0308159 -0.0050233 0.000522172)
(0.0315504 -0.0030106 -0.000104287)
(-0.0344105 0.00148703 0.00294426)
(-0.000455041 -0.000980319 -0.017918)
(-0.0137773 0.012404 0.0189243)
(0.00706652 -0.0210292 -0.0394556)
(-0.000410195 0.0031609 -0.0439825)
(0.032068 -0.00552378 0.000347224)
(0.0502813 0.00384947 -0.0408785)
(0.452794 -1.89886 -1.29857)
(1.30857 4.70607 -0.31449)
(-0.00365481 -0.0042131 -0.0468198)
(-0.539708 1.46323 -0.565285)
(-0.000864292 -0.00406811 -0.0561984)
(0.0253958 0.0216059 -0.00118248)
(-0.0259321 -0.034518 -0.00431467)
(-0.000672538 -0.00107011 -0.00344314)
(0.0388477 0.0198681 0.00172116)
(0.0266369 -0.00328469 -0.0676957)
(-0.0906552 0.000917294 -0.00575394)
(-0.00739325 0.00632792 -0.0268405)
(-0.105357 0.0102085 0.0097919)
(-0.0225636 -0.000936733 -0.016664)
(-0.0793768 0.00231774 0.0046109)
(0.0205442 -0.00427521 -0.0392787)
(0.0549244 0.00150865 0.00262268)
(0.102808 -0.0471779 0.391129)
(-0.000364435 -0.0170027 -0.0289741)
(0.0191749 0.033207 -0.00208496)
(-0.0909528 0.00391347 -0.00274667)
(-0.113368 0.00350462 0.0118445)
(-0.0878847 0.00852944 0.00495866)
(-0.022442 -0.000199166 -0.0188558)
(-0.000402378 -0.00375935 -0.00663012)
(0.468447 0.0100059 0.340328)
(0.0196174 -0.0042536 -0.00172226)
(-0.00507984 -0.000181432 -0.0530295)
(0.0693692 -0.0147163 -0.091837)
(-0.010547 -0.00115594 -0.0283611)
(-0.0931759 0.014219 0.0142041)
(1.85135 3.00192 -1.74315)
(0.300096 -0.284256 -1.78638)
(-0.0514653 -0.00234835 -0.029008)
(0.0213461 -0.0141691 -0.0407283)
(-0.0711237 -0.00471299 -0.0222923)
(-0.0623799 -0.00250219 -0.0167904)
(-0.0566874 -0.00284432 -0.0261366)
(-0.0595882 -0.0311833 -0.00468335)
(-0.01046 -0.00157387 -0.0304947)
(0.0169028 -0.0050347 0.000291429)
(0.0214247 -0.00364248 -0.00151113)
(-0.0563332 0.00119045 -0.0370735)
(0.0174959 -0.00211768 0.000635416)
(0.0121563 -0.0068555 -0.0392982)
(0.022506 -0.00291277 -0.00228058)
(-0.0932796 0.00157596 -2.44154e-06)
(-0.0375655 0.0177395 0.0174866)
(0.0136948 -0.00102773 -0.0403575)
(-0.107848 -0.0032565 0.000177989)
(0.0190902 -0.00682024 0.00157945)
(-0.0679764 0.00271611 -0.0405713)
(-0.0303929 -0.00126974 -0.0426984)
(-0.269341 -0.042972 -0.0489986)
(0.00580014 -0.0216617 -0.0693695)
(0.0533786 -0.00719697 -0.0732706)
(-0.838579 -2.16336 0.018199)
(0.00526328 -0.0358714 -0.0200443)
(-0.00213938 -0.00134126 -0.0513911)
(-0.0338236 -0.00254701 -0.041594)
(-0.067385 -0.138376 0.0478423)
(0.000956686 0.00337977 -0.0454044)
(0.109141 -0.521347 0.512415)
(0.00146148 -0.36746 0.782051)
(-0.0259984 -0.00479357 -0.00956653)
(-0.0356939 -0.00300568 -0.0406005)
(-0.151826 0.0108729 0.686989)
(0.102677 -0.932909 0.5903)
(-0.0454127 -0.00931063 -0.01566)
(0.000123656 -0.000425952 -0.0510445)
(-0.253824 0.0813796 0.103121)
(-0.0393289 -0.00465402 -0.0377434)
(-0.0348358 -0.0021679 -0.0375636)
(0.0233242 -0.0153921 -0.0381149)
(0.0447486 0.00348179 -0.0871994)
(0.0119834 -0.0178758 -0.0382)
(0.000460894 -0.00236017 -0.0160645)
(0.000867878 -0.00268763 -0.0511604)
(-0.205304 0.00545228 -0.0182457)
(0.00376532 0.0115593 -0.034077)
(0.405518 1.71739 -2.66454)
(-0.00165 -0.000452503 -0.043941)
(-0.00815183 -0.000239165 -0.04253)
(2.12727 -0.475669 -3.5534)
(-0.05972 0.00240182 -0.00191334)
(0.277735 -1.14571 1.62637)
(0.0155023 -0.0191618 -0.0164273)
(-0.00764181 0.139166 1.01069)
(-0.000939825 -0.00192027 -0.0373679)
(0.0150078 -0.00909535 -0.0497583)
(-0.0592144 0.00259956 0.00432469)
(0.000919869 -0.0464688 -0.0166076)
(-0.032889 -0.00125198 -0.0360016)
(-0.058728 0.00339997 -0.00238684)
(-0.00261608 0.00450303 -0.0441653)
(-0.00838234 -0.00320687 -0.0352594)
(-0.00393028 -0.00269105 -0.000179472)
(-0.00401495 -0.00469478 -0.0487893)
(-0.0050786 -0.00194758 -0.0490131)
(-0.0230007 0.00155619 -0.0543381)
(0.0118751 -0.0188732 -0.0567866)
(0.00207489 0.00619495 -0.0327471)
(-0.332715 -0.123123 -0.0626219)
(-0.00324486 -0.00212231 -0.0428386)
(-0.0844107 0.163712 0.393413)
(0.00396805 -0.00592298 -0.0357432)
(-0.0095629 -0.00182424 -0.0213977)
(0.240303 1.96231 0.7347)
(0.00646232 -0.0075226 -0.0390426)
(-0.0432362 0.0928001 0.853794)
(-0.0355245 -0.00517932 -0.000129748)
(-0.0162121 -0.00471352 -0.00394351)
(-0.0401274 -0.00155662 -0.012848)
(-0.0708366 -0.0796842 0.244674)
(0.0185956 0.0179857 -0.061536)
(-0.000200061 -0.0025232 -0.0334501)
(-0.183439 -0.0985132 0.00700424)
(0.159272 -0.254056 -0.0764435)
(0.0450713 -0.0132261 -0.0843904)
(0.186774 -0.00917746 -0.0465201)
(0.325836 -0.913053 -0.489678)
(-0.091064 -0.0875771 0.0107155)
(-0.0191386 -0.00137808 -0.0613557)
(0.0164044 0.0428903 0.0500663)
(0.000550037 -0.000456139 -0.0325352)
(-0.00644885 -0.000939758 -0.0760925)
(-0.387052 -0.284983 0.00301541)
(2.59659 1.21772 -3.26576)
(-0.00298968 -0.00143102 -0.0701356)
(-0.00991202 -0.000310185 -0.048444)
(-0.0402368 -0.00457277 -0.0353283)
(0.324402 -0.251678 -0.25011)
(-0.0571317 -0.0100463 -0.0583189)