/*--------------------------------*- C++ -*----------------------------------*\
| =========                 |                                                 |
| \\      /  F ield         | OpenFOAM: The Open Source CFD Toolbox           |
|  \\    /   O peration     | Version:  v2012                                 |
|   \\  /    A nd           | Website:  www.openfoam.com                      |
|    \\/     M anipulation  |                                                 |
\*---------------------------------------------------------------------------*/
FoamFile
{
    version     2.0;
    format      ascii;
    class       volScalarField;
    location    "1.004594";
    object      alphat;
}
// * * * * * * * * * * * * * * * * * * * * * * * * * * * * * * * * * * * * * //

dimensions      [0 2 -1 0 0 0 0];


internalField   nonuniform List<scalar> 
83563
(
2.06997e-05
3.02269e-05
3.40706e-05
2.60337e-05
4.11192e-05
4.27905e-05
2.48036e-05
0.000216577
7.68856e-05
0.000592877
6.53209e-05
0.000113212
0.00240241
2.09894e-05
0.000232604
0.0005945
2.17134e-05
2.09952e-05
0.000185478
2.09097e-05
2.08364e-05
2.08853e-05
0.000259973
0.00112857
2.17746e-05
2.85303e-05
2.55205e-05
0.000637725
3.12713e-05
2.51212e-05
2.62936e-05
1.07715e-05
0.000215975
2.24107e-05
2.10338e-05
7.87215e-05
2.65051e-05
3.11518e-05
3.16225e-05
0.000105089
2.37442e-05
7.20665e-05
3.58787e-05
4.92415e-05
6.08262e-05
0.000193803
0.000666357
0.000154361
8.12135e-05
0.00956724
0.00747157
8.20283e-05
0.00178149
0.00233676
6.61692e-05
0.00487517
2.81931e-05
0.00168273
0.00220916
0.000106037
0.00215531
0.000850195
5.68722e-05
3.12568e-05
0.00376725
0.00186528
0.0033118
3.80028e-05
1.13262e-05
0.00609285
0.000154288
0.0057756
2.45819e-05
0.00558329
3.248e-05
0.013366
0.00146225
2.47775e-05
2.35525e-05
0.00170013
2.18632e-05
1.5754e-05
2.23761e-05
0.000765689
0.000110183
2.10824e-05
2.27458e-05
0.000698616
2.27946e-05
4.16635e-05
0.000158471
1.6513e-05
0.000248644
0.000162219
0.00078716
0.000211729
0.00136435
0.000243648
5.73715e-05
0.000140052
6.24892e-05
2.57743e-05
8.68933e-05
2.50863e-05
5.79982e-05
3.20226e-05
3.59294e-05
2.09356e-05
0.000522039
2.10872e-05
0.000187683
6.83441e-05
0.000192045
5.99385e-05
3.00051e-05
1.60566e-05
0.0122467
0.000258145
5.68667e-05
1.44184e-05
4.28737e-05
6.19248e-05
9.89194e-05
0.00104326
0.000132663
1.94095e-05
0.00127663
4.18929e-05
0.000166727
5.50611e-05
0.0102108
0.00192664
6.37147e-05
0.00259272
4.02948e-05
2.09536e-05
9.51497e-05
3.23319e-05
2.7096e-05
0.00433006
7.12872e-05
0.00222641
6.51027e-05
7.96181e-05
0.00524794
0.00230748
6.80011e-05
2.52479e-05
6.16783e-05
3.08008e-05
0.00148736
2.29121e-05
2.99212e-05
0.000112554
2.06872e-05
1.85619e-05
2.03411e-05
5.20251e-05
6.95706e-05
8.86358e-05
0.00012261
2.13924e-05
2.75885e-05
1.71662e-05
0.000182865
0.000602742
1.57723e-05
0.0129863
1.8376e-05
0.000212927
1.84364e-05
1.55873e-05
0.00337293
0.000195513
0.00213579
5.13771e-05
4.83172e-05
5.22561e-05
8.08458e-05
1.82463e-05
4.45339e-05
2.33762e-05
0.000109373
0.000176083
0.000290461
0.000571377
0.000222925
3.48267e-05
5.46472e-05
2.01789e-05
2.13632e-05
0.000363978
0.000822322
0.000908848
6.74564e-05
0.00108011
5.02155e-05
0.000200226
2.08969e-05
0.000120966
0.000104856
7.37521e-05
0.000206757
1.75932e-05
0.000274869
0.000243987
3.69096e-05
0.0148501
2.10185e-05
4.19545e-05
0.000158288
0.000445444
1.87607e-05
1.46189e-05
6.96339e-05
0.000149856
7.69666e-05
1.54063e-05
2.42346e-05
7.01174e-05
3.01865e-05
5.44098e-05
4.90322e-05
4.8973e-05
0.000171853
1.61629e-05
0.000350487
2.16673e-05
3.07314e-05
0.000193524
2.21067e-05
3.55136e-05
1.85678e-05
3.6361e-05
0.00468684
2.08875e-05
0.000137306
1.88859e-05
1.47757e-05
2.2852e-05
0.000142727
9.82237e-05
6.73068e-05
1.58838e-05
6.53096e-05
2.55978e-05
0.00151915
1.58118e-05
0.00270285
5.1796e-05
8.83086e-05
3.9908e-05
3.11851e-05
0.000496821
4.59185e-05
4.44818e-05
2.03182e-05
0.000211792
2.19564e-05
3.42417e-05
3.35331e-05
7.80653e-05
0.0078939
0.000123377
4.38029e-05
5.56569e-05
0.000111854
6.45225e-05
1.53218e-05
1.81088e-05
6.81863e-05
0.000102711
8.74079e-05
5.64165e-05
0.00010283
4.44101e-05
0.000218496
0.000165064
2.55054e-05
4.30176e-05
0.000216445
1.90802e-05
2.07959e-05
0.000205386
0.000355827
2.5205e-05
0.00113849
1.93371e-05
2.21239e-05
4.01787e-05
0.000403132
1.78407e-05
0.000228449
2.01311e-05
2.622e-05
6.18557e-05
8.76879e-05
0.000144537
4.18106e-05
3.514e-05
3.24451e-05
4.52632e-05
5.79418e-05
2.24357e-05
2.11873e-05
0.000172945
0.000220011
0.00356252
0.000118227
0.000355697
6.45724e-05
0.000125474
0.00146988
0.000379238
0.00366217
4.92118e-05
0.013691
8.77643e-05
1.7385e-05
5.64218e-05
0.000375034
8.45668e-05
2.28872e-05
3.46847e-05
5.85338e-05
1.8889e-05
0.000283446
0.00353058
7.0718e-05
0.00237456
5.8228e-05
3.28508e-05
1.68378e-05
0.00263724
1.97197e-05
2.27475e-05
6.46626e-05
0.00361148
0.000154869
2.54973e-05
0.00490834
0.0014223
2.01083e-05
2.50706e-05
4.81012e-05
1.91444e-05
0.000178862
4.63232e-05
0.000212781
2.38778e-05
2.00512e-05
0.000104222
3.62732e-05
0.000719998
0.00439077
2.08497e-05
0.000100374
9.72843e-05
5.54269e-05
0.000639505
0.0131317
0.000578498
0.00607197
0.0141206
0.0078013
0.000359918
0.000393999
0.000144612
0.00646193
2.11085e-05
3.53107e-05
7.96585e-05
0.000187624
0.000662174
0.000569649
7.60517e-05
0.0107707
4.35452e-05
2.68747e-05
3.49695e-05
3.61248e-05
6.89351e-05
2.49292e-05
0.000117816
0.0106645
0.00614904
5.55601e-05
6.80098e-05
0.01016
7.20626e-05
0.000250844
2.50641e-05
3.77793e-05
0.00809375
0.000191082
0.000203322
9.32147e-05
0.000144085
3.49668e-05
1.97181e-05
0.000603588
1.77349e-05
2.5307e-05
0.012499
0.000353813
3.99639e-05
0.000486013
3.63455e-05
2.16103e-05
7.21177e-05
0.00369056
0.000153385
1.66667e-05
2.71105e-05
0.00207708
2.2893e-05
3.44956e-05
8.45109e-05
0.00864524
4.87658e-05
2.32943e-05
2.74247e-05
0.00323194
1.93379e-05
0.000159603
0.00401909
6.61924e-05
0.000267492
1.66854e-05
6.14199e-05
3.36876e-05
0.000185924
7.79164e-05
3.22877e-05
0.00726795
0.00016537
0.0160383
2.23512e-05
0.00011732
0.000762859
0.000245595
0.00010663
0.0121446
1.90763e-05
0.00062684
7.77463e-05
9.30787e-05
0.000992048
0.001404
0.00899563
0.000600853
3.01022e-05
5.56921e-05
3.72e-05
0.000174446
0.000251031
0.00032854
2.0176e-05
2.67401e-05
0.000111734
1.78533e-05
0.00195238
3.13971e-05
2.42212e-05
2.99914e-05
3.57101e-05
2.02595e-05
3.63672e-05
5.18427e-05
8.84887e-05
0.00010472
7.35812e-05
2.99117e-05
0.000150068
5.50237e-05
0.000198116
5.77633e-05
5.42815e-05
6.79431e-05
2.96233e-05
6.12236e-05
2.76527e-05
6.20706e-05
6.5199e-05
1.58166e-05
8.05359e-05
6.15734e-05
0.000180111
0.00670401
1.92478e-05
1.72205e-05
4.14463e-05
6.12354e-05
0.00227604
0.000332775
7.026e-05
3.77417e-05
4.82844e-05
3.82588e-05
2.61851e-05
2.04867e-05
7.52226e-05
3.16649e-05
2.3552e-05
6.36589e-05
1.90769e-05
5.3105e-05
6.69856e-05
3.35751e-05
7.32563e-05
1.77554e-05
2.65797e-05
2.14921e-05
2.11278e-05
2.83313e-05
1.98966e-05
5.807e-05
0.00376274
0.00397591
2.93403e-05
5.4926e-05
0.000162369
9.7837e-05
8.12965e-05
0.000129547
2.74148e-05
6.65603e-05
0.00359681
2.38059e-05
2.68878e-05
2.18372e-05
2.17249e-05
5.20466e-05
3.02484e-05
2.94012e-05
2.55468e-05
0.00345033
0.000389531
9.97432e-05
0.00291029
6.49969e-05
1.40477e-05
0.00119381
4.85076e-05
0.000252465
0.000264856
2.94363e-05
0.000480085
0.000828283
5.5931e-05
5.61997e-05
3.60397e-05
9.68729e-05
5.34378e-05
1.55312e-05
9.81717e-05
0.0011096
0.00920485
0.000824421
2.10297e-05
9.45573e-05
0.00569332
2.92885e-05
0.000130355
0.00061356
2.58018e-05
0.000632959
2.376e-05
1.65535e-05
0.000147075
0.00512604
8.66016e-05
2.842e-05
6.70142e-05
0.000795539
0.00012828
2.88481e-05
2.48131e-05
2.26732e-05
2.99068e-05
2.6728e-05
0.000200233
0.00746596
6.44494e-05
2.54128e-05
3.2502e-05
2.21097e-05
5.42422e-05
2.0911e-05
0.000349227
2.12673e-05
2.02807e-05
2.13962e-05
2.65419e-05
5.32421e-05
2.17634e-05
2.398e-05
2.49413e-05
2.10194e-05
1.68754e-05
4.78461e-05
2.16673e-05
2.21573e-05
2.14394e-05
3.82801e-05
4.27186e-05
0.000703261
3.06818e-05
2.66498e-05
2.54011e-05
3.11922e-05
1.83917e-05
2.14107e-05
4.31658e-05
0.00164507
3.26997e-05
6.26768e-05
8.2458e-05
0.000136058
0.000146365
0.00020091
0.00375202
5.32949e-05
1.98063e-05
1.92318e-05
4.24046e-05
7.03785e-05
2.54351e-05
4.05589e-05
2.11904e-05
6.8624e-05
4.3695e-05
3.51743e-05
9.03317e-05
2.27586e-05
0.000690844
6.68226e-05
7.61137e-05
2.12544e-05
2.8861e-05
3.20019e-05
0.000288293
0.000339775
1.81431e-05
6.86612e-05
2.13864e-05
2.20794e-05
7.16894e-05
0.00251867
5.75367e-05
4.80806e-05
7.53523e-05
0.000158276
0.000107762
0.000226506
3.75387e-05
0.000317611
1.56875e-05
2.18063e-05
5.97007e-05
2.60992e-05
0.00263255
5.05236e-05
6.09191e-05
0.00150656
2.09331e-05
4.52568e-05
2.32509e-05
2.38379e-05
0.000378429
6.85065e-05
6.17624e-05
2.47764e-05
0.000110386
0.000203678
4.91574e-05
0.000723667
4.42596e-05
5.12259e-05
0.000828878
0.00187607
8.23687e-05
0.000243983
0.00159932
2.04075e-05
0.000101508
0.000283126
0.000145449
0.00049184
3.81994e-05
4.798e-05
9.12385e-05
3.04365e-05
0.000278784
0.000146129
0.00158297
6.79044e-05
0.000407883
3.97564e-05
2.48545e-05
6.1035e-05
3.70524e-05
2.13401e-05
8.9448e-05
0.00122265
0.000153068
1.35113e-05
5.42732e-05
6.15001e-05
9.93236e-05
2.10973e-05
0.000105754
2.0955e-05
2.98161e-05
0.000124492
1.80612e-05
2.41772e-05
2.92362e-05
0.000108625
0.0151473
2.19323e-05
0.000985582
2.84687e-05
9.68826e-05
1.81955e-05
8.99957e-05
0.00278758
0.000867582
3.81188e-05
0.00466328
1.53244e-05
2.17473e-05
2.48776e-05
0.000430327
0.00176739
0.000168796
2.8305e-05
4.23272e-05
0.0015183
1.47773e-05
3.82957e-05
5.90249e-05
1.8388e-05
0.000103951
6.74407e-05
4.1803e-05
0.000104394
0.000607764
0.00189511
3.19357e-05
4.2056e-05
4.99845e-05
2.07659e-05
0.00450625
9.74564e-05
0.000221305
2.0812e-05
2.58912e-05
0.000239379
5.72976e-05
3.29067e-05
2.50523e-05
5.148e-06
1.77723e-05
9.68581e-05
4.38851e-05
2.09007e-05
2.87742e-05
9.08592e-05
0.000214762
4.25311e-05
2.22617e-05
1.53136e-05
0.000116585
2.90018e-05
6.95907e-05
2.59114e-05
0.000649087
2.30553e-05
3.93521e-05
6.2254e-05
0.00881382
0.00438386
0.00400404
2.50136e-05
0.00291068
3.29787e-05
0.000183744
3.18162e-05
5.8532e-05
6.42832e-05
0.00129946
3.48798e-05
0.00392413
0.000103811
8.34204e-05
0.000133544
3.41932e-05
2.72865e-05
3.08488e-05
0.000134704
2.08392e-05
0.000126321
1.89901e-05
1.53874e-05
2.51258e-05
9.84119e-05
0.00158294
0.000772076
0.000138456
2.11415e-05
5.42516e-05
0.0012512
0.000585169
0.000513754
0.000512139
2.25801e-05
0.000383237
1.77148e-05
2.03764e-05
0.000319237
2.99162e-05
0.000877795
0.000255272
4.94385e-05
0.000116965
0.000120155
0.000140806
2.17471e-06
3.46043e-05
1.96788e-05
0.0149757
4.43738e-05
0.000919276
4.92313e-05
2.09493e-05
2.1136e-05
5.46885e-05
3.48679e-05
8.72861e-05
3.21265e-06
3.34897e-05
2.59365e-05
2.14323e-05
5.20388e-05
2.80047e-06
0.000352386
4.42664e-05
0.000206997
0.00441679
0.000233621
1.66548e-05
1.55488e-05
2.17471e-05
2.83457e-05
2.22926e-05
2.82886e-05
0.000185876
0.000125744
6.88603e-05
2.03051e-05
3.43136e-05
2.84142e-05
1.72613e-05
0.000192878
4.92873e-05
0.000428268
5.32491e-05
5.20585e-05
1.6953e-05
7.65861e-05
0.000380941
0.00036068
4.38432e-05
4.16718e-05
8.59418e-05
4.99413e-05
2.03779e-05
2.79129e-05
2.9406e-05
2.08606e-05
4.76452e-05
3.61551e-05
1.37794e-05
1.97927e-05
0.00435312
0.000170065
3.37197e-05
0.00119517
0.00206754
1.89383e-05
0.000350615
1.90764e-05
2.72965e-05
2.2271e-05
2.10525e-05
0.00011959
1.93169e-05
0.00016023
0.000200986
2.50178e-05
1.5724e-05
4.57204e-05
0.000165524
1.75867e-05
4.75599e-05
5.4669e-05
1.96819e-05
3.81805e-05
0.000177063
1.41706e-05
2.38137e-05
1.7864e-05
3.92277e-05
3.46446e-05
0.00337088
0.00143545
1.91568e-05
0.00146482
2.10778e-05
7.94166e-05
0.000208531
9.52649e-05
0.000205069
9.26691e-05
3.11495e-05
0.000104167
3.73554e-05
0.000973862
3.84766e-05
0.000553866
0.000378617
0.000145744
0.000123371
0.00176668
0.000101177
0.000897298
3.59016e-05
0.000112455
0.00135817
0.000140769
4.00502e-05
0.000169823
5.39865e-05
2.2709e-05
2.1073e-05
6.57412e-05
0.000105009
5.12152e-05
3.01497e-05
1.40097e-05
1.44514e-05
2.33374e-05
2.32885e-05
2.10475e-05
0.000116049
0.00118215
2.02669e-05
2.06011e-05
2.10406e-05
0.000116407
2.10545e-05
3.68464e-05
2.11329e-05
0.000128063
0.00017168
6.61443e-05
2.04359e-05
0.000583148
5.05175e-05
0.000217
5.09871e-05
3.4895e-05
3.25861e-05
4.40065e-05
0.000154879
1.40657e-05
4.40265e-05
2.22729e-05
5.61347e-05
2.93438e-05
6.1377e-05
4.21785e-05
2.38618e-05
2.8436e-05
7.48967e-05
0.000178451
0.00017221
3.29539e-05
5.82719e-05
0.000601966
0.000100493
1.81359e-05
2.97493e-05
2.52572e-05
0.000352941
0.000235441
9.33668e-05
0.000128122
0.000648587
5.60035e-05
2.11256e-05
2.06886e-05
3.05781e-05
0.00104611
3.21292e-05
0.000318274
0.000250699
0.000500863
4.54242e-05
3.90639e-05
2.61455e-05
5.91847e-05
1.55921e-05
4.11392e-05
0.00556797
4.4224e-05
0.000134617
0.000438454
0.0153177
0.00010536
3.32703e-05
0.000376877
0.000122756
0.000113851
2.23527e-05
2.08528e-05
0.000198825
3.08068e-05
2.00212e-05
0.00016446
0.000700138
3.68069e-05
5.36272e-05
5.10799e-05
2.0736e-05
4.17494e-05
2.48844e-05
4.43255e-05
3.02475e-05
2.93616e-05
0.000121974
1.96879e-05
0.000194832
2.56534e-05
0.000171022
5.75068e-05
3.30628e-05
0.00644126
3.20742e-05
0.00666316
0.00193411
1.40739e-05
2.21834e-05
2.24139e-05
0.000119267
1.97638e-05
8.59101e-05
2.16374e-05
0.00459862
2.29167e-05
0.00118853
0.000264976
0.00243317
6.72687e-05
1.7483e-05
9.90133e-05
4.83199e-05
6.58384e-05
0.000112881
5.9138e-05
8.2403e-05
0.00386712
2.57928e-05
0.00278687
6.87717e-05
2.66739e-05
5.37135e-05
9.5845e-05
0.0105291
2.13767e-05
0.000100991
0.000364173
2.08633e-05
9.91547e-05
0.0103426
3.02036e-05
0.000158496
4.63947e-05
0.000692694
0.000337966
0.000176917
0.000135021
8.78113e-05
8.88874e-05
0.000178891
2.28716e-05
0.000126178
0.000133581
8.5285e-05
0.00017134
2.42685e-05
0.000190794
7.0478e-05
7.39285e-05
2.02408e-05
6.95612e-05
2.05256e-05
8.91796e-05
2.28436e-05
1.83092e-05
2.68646e-05
4.43546e-05
2.11785e-05
0.000358291
3.16665e-05
0.00010883
2.8552e-05
0.000115139
6.82959e-05
0.00240677
2.19102e-05
3.48979e-05
1.60626e-05
0.000125573
4.45848e-05
0.000436357
2.07974e-05
0.000338397
2.99547e-05
2.09422e-05
0.000148153
5.45227e-05
3.29791e-05
1.79154e-05
2.22692e-05
2.10723e-05
0.000350987
3.52039e-05
5.58005e-05
1.98912e-05
3.4841e-05
1.80029e-05
2.18439e-05
7.59389e-05
5.09193e-05
6.78689e-05
0.000127897
4.40345e-05
2.16713e-05
5.18202e-05
2.79139e-05
2.64642e-05
2.51789e-05
2.13897e-05
9.4617e-05
1.98704e-05
2.10048e-05
1.6162e-05
4.01211e-05
0.000258467
2.84154e-05
0.000609627
2.60023e-05
2.53017e-05
2.30149e-05
3.13145e-05
4.44056e-05
4.63497e-05
2.96314e-05
2.47552e-05
3.75699e-05
0.000131306
4.12866e-05
5.90308e-05
6.50164e-05
0.000113113
4.09496e-05
0.000224859
1.9013e-05
5.07731e-05
3.67674e-05
0.000312793
1.97793e-05
2.21939e-05
1.78754e-05
1.94396e-05
8.06302e-05
0.00038011
3.64793e-05
0.000143335
0.0157555
0.0044144
0.0120608
0.000524652
0.0163731
1.97219e-05
1.81898e-05
2.97578e-05
0.000166247
3.47759e-05
0.00261713
5.34224e-05
1.48793e-05
0.000139853
0.000252382
2.21692e-05
0.000117936
0.000122282
6.41449e-05
3.29636e-05
8.04909e-05
1.9235e-05
2.777e-05
0.000405261
2.09187e-05
0.000147996
0.00205589
0.000135287
7.05188e-05
2.1298e-05
3.03834e-05
3.40439e-05
0.000233226
1.85791e-05
0.000211603
8.80558e-05
0.000282037
0.000328899
2.54596e-05
1.48001e-05
2.28561e-05
7.26552e-05
3.79386e-05
5.84346e-05
1.6776e-05
3.43031e-05
0.000392919
2.61951e-05
2.22202e-05
1.8412e-05
2.99063e-05
1.75443e-05
7.37304e-05
1.63413e-05
0.000164978
0.000104796
2.31917e-05
4.89006e-05
8.55449e-05
0.00660063
4.06641e-05
1.89744e-05
1.65561e-05
0.000117234
0.00130755
0.0002583
7.18945e-05
2.11526e-05
7.87694e-05
0.000141113
5.68091e-05
8.90112e-05
4.81572e-05
2.28866e-05
0.000284942
1.851e-05
4.99945e-05
5.66702e-05
2.18649e-05
0.000105315
0.000119938
3.48539e-05
2.81768e-05
0.000293638
7.59556e-05
2.56759e-05
0.000106769
0.000697657
8.85153e-05
0.00575136
6.4408e-05
1.85395e-05
7.41064e-05
0.00377952
0.000112598
5.7779e-05
0.000174273
2.27214e-05
0.0034335
5.86629e-05
1.84358e-05
2.18065e-05
4.08947e-05
1.98832e-05
4.56836e-05
0.000134162
5.66063e-05
5.47896e-05
4.25109e-05
0.000223574
0.000334984
2.08268e-05
0.000109456
5.02408e-05
2.17386e-05
2.64477e-05
3.18407e-05
0.000226022
3.31073e-05
2.10329e-05
2.24001e-05
0.00178047
1.91862e-05
1.64447e-05
1.89795e-05
0.000113353
0.013299
2.10773e-05
0.00161491
3.379e-05
2.42279e-05
0.00270688
3.91877e-05
0.00309352
0.0122223
5.88362e-05
5.90226e-05
0.0170404
5.76719e-05
0.0146035
0.000105592
4.86957e-05
2.08204e-05
2.11326e-05
5.50346e-05
0.000745156
2.07964e-05
0.00017069
2.00283e-05
2.51389e-05
0.000158004
2.75154e-05
4.85674e-05
1.84603e-05
0.000135784
0.0198598
3.83488e-05
0.000190461
0.000160973
5.14832e-05
0.000151477
5.69879e-05
9.04154e-05
0.000134785
7.71373e-05
3.38183e-05
0.0019676
2.74246e-05
5.851e-05
2.27129e-05
3.57931e-05
2.74686e-05
3.45778e-05
2.3003e-05
2.06114e-05
5.02349e-05
3.36809e-05
4.20835e-05
2.91094e-05
2.09662e-05
4.7866e-05
0.00969471
0.000136644
2.09067e-05
2.8356e-05
0.00245162
4.33391e-05
0.0129971
0.000236397
2.20895e-05
2.48301e-05
1.90157e-05
2.32175e-05
0.0101671
2.83836e-05
5.99902e-05
6.06431e-05
0.000203723
4.33431e-05
1.81745e-05
5.42257e-05
0.00321663
2.10686e-05
0.0119166
0.000106119
0.000208135
0.000187253
2.83605e-05
3.04307e-05
2.7723e-05
0.000190801
0.000151504
0.000182005
0.000163336
2.27864e-05
2.06968e-05
2.21646e-05
4.00093e-05
4.80943e-05
0.000142354
2.34261e-05
0.000108888
3.3059e-05
7.97407e-05
4.91255e-05
7.11281e-05
4.4982e-05
3.33002e-05
2.19926e-05
3.3699e-05
6.86769e-05
1.96271e-05
4.71625e-05
2.78805e-05
1.9316e-06
5.59376e-05
1.60162e-05
3.59864e-05
4.1834e-05
9.15961e-05
0.000134878
4.54001e-05
3.20076e-05
0.000129706
0.0167319
1.75671e-05
3.65626e-05
0.00308252
2.18898e-05
4.13541e-05
2.10233e-05
2.8858e-05
2.28711e-05
2.09753e-05
2.54895e-05
3.17424e-05
0.00503915
3.2639e-05
6.36613e-05
3.00371e-05
2.79284e-05
0.000218611
2.06426e-05
0.000101095
5.24547e-05
0.00017541
0.00270523
3.92032e-05
5.20242e-05
1.73922e-05
6.03636e-05
0.00126938
1.4428e-05
2.11513e-05
0.000189211
6.63433e-05
0.00487566
0.000397292
4.83808e-05
2.06638e-05
0.000106426
3.73202e-05
0.00488274
2.00318e-05
3.03131e-05
0.000226743
0.00328697
2.33849e-05
0.00583444
0.00012852
0.000144856
0.000181676
0.000143719
3.03691e-05
0.0053337
0.000216131
3.54134e-05
0.000112946
1.62296e-05
0.000152799
0.00326065
0.000122626
2.37274e-05
1.87233e-05
0.000356121
0.000165827
5.02579e-05
2.81404e-05
0.000196351
0.000106548
4.82621e-05
1.46721e-05
4.10743e-05
0.00280717
1.73671e-05
0.000106703
2.6226e-05
3.42666e-05
1.70435e-05
2.33137e-05
2.54831e-05
2.3602e-05
3.79911e-05
0.000129437
5.08174e-05
7.22227e-05
0.0117292
1.87742e-05
2.07678e-05
7.8957e-05
0.000583411
4.62825e-05
0.00021368
3.98894e-05
0.000157702
9.37875e-05
2.55989e-05
4.93008e-05
4.30279e-05
1.99375e-05
4.19565e-05
2.12967e-05
5.52242e-05
6.689e-05
0.000240473
2.02415e-05
2.08964e-05
0.00144209
0.00201559
2.11503e-05
9.47778e-05
0.00261772
0.0024355
4.32903e-05
0.00229984
2.65228e-05
9.93672e-05
3.59657e-05
0.00198825
1.47587e-05
5.97964e-05
2.61783e-05
3.8748e-05
8.77569e-05
2.23734e-05
0.000100417
1.54305e-05
0.00534427
4.70103e-05
2.42065e-05
1.79277e-05
4.47309e-05
0.000128315
4.19775e-05
2.19728e-05
3.63872e-05
7.76405e-05
3.77193e-05
2.10993e-05
0.0130435
0.000186149
0.00937263
0.000113994
2.06065e-05
0.0101356
0.000120643
2.25145e-05
2.09124e-05
2.30992e-05
4.48813e-05
2.15349e-05
6.37654e-05
6.56559e-05
0.000111908
0.00588082
2.40832e-05
2.17246e-05
5.62939e-05
0.0124119
0.0170889
2.51977e-05
0.00990573
0.00213229
0.000269443
0.0109766
2.39711e-05
0.0142439
3.31485e-05
2.83521e-05
0.0175586
0.000142957
0.000123924
0.00244
0.000271117
0.00786153
0.00572988
3.02526e-05
4.85455e-05
1.81547e-05
1.82897e-05
0.000241974
2.8487e-05
6.96111e-05
1.88868e-05
1.616e-05
1.48986e-05
0.00553695
0.00938787
1.86893e-05
2.4609e-05
1.42337e-05
5.06493e-05
0.00551324
0.00804136
5.58492e-05
7.40149e-05
2.07968e-05
8.8293e-05
2.77389e-05
8.08973e-05
4.7397e-05
2.18986e-05
4.55451e-05
4.05789e-05
6.59955e-05
2.77878e-05
2.83255e-05
4.38477e-05
5.96346e-05
4.71897e-05
0.000348643
2.14061e-05
7.06545e-05
5.49843e-05
7.04855e-05
0.000101911
6.95316e-05
1.94813e-05
0.000205595
0.000462856
0.000875051
9.85648e-05
8.57827e-05
0.000257424
0.000170062
0.000113184
0.000217364
0.000100866
0.00328299
0.000811521
2.76451e-05
9.20061e-05
3.70481e-05
0.000578412
0.000154476
0.00234632
1.54951e-05
4.23348e-05
7.28319e-05
8.09832e-05
0.000125613
2.23599e-05
4.2666e-05
3.01769e-05
6.61376e-05
2.42521e-05
0.000202047
7.9137e-05
2.76108e-05
3.67997e-05
6.87345e-05
3.18118e-05
0.000231366
0.000208877
4.55034e-05
2.07643e-05
2.07608e-05
6.7525e-05
4.18825e-05
5.51387e-05
2.14617e-05
2.34959e-05
3.1922e-05
2.29593e-05
0.000334282
2.19391e-05
2.75597e-05
1.67831e-05
5.17295e-05
5.9281e-05
6.29244e-05
2.40607e-05
7.96154e-05
2.1259e-05
3.00977e-05
4.16001e-05
1.8508e-05
1.7199e-05
0.00298929
2.7022e-05
2.303e-05
4.75762e-05
2.86575e-05
2.59702e-05
0.000281755
0.00309952
2.2157e-05
2.12278e-05
3.3916e-05
0.000294605
0.000706907
5.87064e-05
0.0001757
3.72575e-05
0.000233932
4.81516e-05
2.23258e-05
2.07837e-05
0.000202254
2.81443e-05
1.45022e-05
2.09342e-05
2.08897e-05
2.49528e-05
0.00200104
0.000215284
2.14327e-05
6.971e-05
0.00505824
2.08415e-05
5.41617e-05
2.09997e-05
3.6246e-05
1.87363e-05
7.32157e-05
2.6859e-05
1.71726e-05
0.00941924
6.45075e-05
8.74274e-05
5.41818e-05
2.30889e-05
0.000114168
0.00518686
3.43456e-05
2.22602e-05
0.0077098
0.00011585
4.28973e-05
2.59024e-05
7.28151e-05
2.08652e-05
1.9052e-05
8.07013e-05
2.33787e-05
0.000490323
2.33363e-05
6.20139e-05
0.00315776
4.6659e-05
4.44665e-05
7.98113e-05
0.00614648
2.13638e-05
0.00307069
2.15209e-05
0.00422281
5.45371e-05
2.44377e-05
1.76615e-05
0.00013618
6.37079e-05
3.27819e-05
7.23886e-05
2.98083e-05
2.31113e-05
1.81003e-05
3.10789e-05
2.12103e-05
5.79161e-05
5.50563e-05
2.60357e-05
4.31027e-05
0.000141636
3.68808e-05
2.27015e-05
0.00370835
2.73348e-05
0.000105962
0.00016863
2.30307e-05
2.24148e-05
4.43435e-05
0.00010393
0.00313348
5.05352e-05
3.28963e-05
0.00335832
0.00301662
2.08316e-05
6.43355e-05
5.18422e-05
2.55092e-05
2.03878e-05
5.35183e-05
2.99654e-05
6.08881e-05
3.10745e-05
0.00549783
6.51121e-05
2.41849e-05
7.96032e-05
2.12792e-05
2.95166e-05
2.3375e-05
0.00936299
0.0191312
3.19177e-05
2.72123e-05
5.34347e-05
1.8647e-05
1.92992e-05
7.09141e-05
0.00123697
1.99883e-05
0.00369005
2.48115e-05
2.63932e-05
6.70333e-05
3.22574e-05
8.77925e-05
0.001763
6.0677e-05
0.000258953
1.57132e-05
4.87298e-05
6.70526e-05
2.92535e-05
0.000121653
5.49111e-05
2.09593e-05
0.00303379
7.71645e-05
5.05572e-05
3.33857e-05
2.08442e-05
2.11351e-05
0.000118022
2.1207e-05
2.37437e-05
5.13441e-05
0.000201925
2.18224e-05
3.2512e-05
0.00203615
0.000120624
0.00140548
0.000457453
6.53923e-05
0.000104533
0.000518889
4.59442e-05
4.85544e-05
5.29306e-05
0.000342328
7.55555e-05
2.05418e-05
3.52329e-05
3.48513e-05
8.68365e-05
4.37523e-05
0.00011853
0.00236409
2.81003e-05
0.000166435
0.00199969
2.35139e-05
2.2522e-05
5.00079e-05
0.000209693
0.003211
2.18395e-05
1.78506e-05
5.7651e-05
2.13013e-05
0.00012441
0.00380369
4.97535e-05
5.31188e-05
0.00546603
3.22777e-05
4.23226e-05
2.37799e-05
2.07701e-05
0.000486298
0.000192689
9.75974e-05
0.000205909
6.38019e-05
1.64823e-05
2.53307e-05
0.01142
2.08679e-05
2.0977e-05
0.00223673
3.17509e-05
5.41142e-05
2.35719e-05
0.00206734
2.37024e-05
0.00254802
2.26303e-05
1.82783e-05
0.000152029
0.000653709
0.0001423
6.26101e-05
0.000111891
2.61222e-05
2.10035e-05
0.00265237
0.00222615
0.000888289
2.31856e-05
0.00132355
0.000948022
2.68157e-05
1.77641e-05
1.93435e-05
8.30374e-05
5.85366e-05
1.81768e-05
0.000130233
7.12008e-05
0.00188652
0.00129771
0.000945772
0.000229066
1.85315e-05
0.00015098
2.36477e-05
0.000109851
0.00217419
2.01564e-05
2.18785e-05
3.26674e-05
0.000128658
2.04416e-05
0.00064219
0.000476927
0.000158997
2.30484e-05
7.27656e-05
8.20862e-05
2.13043e-05
0.000185332
5.72204e-05
0.00025845
5.57014e-05
0.00101194
4.33731e-05
2.05838e-05
1.87703e-05
2.59045e-05
0.000511753
1.95393e-05
3.07261e-05
0.00129494
0.000735624
0.000233549
0.00135728
2.20084e-05
4.47303e-05
1.61296e-05
0.000208441
3.19661e-05
0.000113997
2.3828e-05
0.000118512
1.80287e-05
0.00120882
3.46076e-05
1.73819e-05
2.13553e-05
0.00247932
0.000467444
1.65223e-05
0.00109266
2.10064e-05
2.1698e-05
3.96885e-05
9.56115e-05
5.26853e-05
4.08406e-05
2.1479e-05
0.000407048
9.24604e-05
2.36668e-05
0.0115047
0.0107718
8.72423e-05
3.91423e-05
8.47139e-05
6.39202e-05
8.53442e-05
5.33837e-05
0.000367752
7.45941e-05
1.86188e-05
8.18085e-05
5.03814e-05
2.53342e-05
3.0875e-05
2.03765e-05
7.69152e-05
1.88454e-05
5.17491e-05
3.68333e-05
0.000119746
1.72012e-05
7.42485e-05
9.9418e-05
2.13065e-05
1.91991e-05
1.73099e-05
7.95525e-05
0.000326893
2.07626e-05
4.48852e-05
2.10299e-05
2.10588e-05
2.56096e-05
0.00010633
4.41938e-05
2.81721e-05
2.13817e-05
3.58882e-05
2.07525e-05
2.15947e-05
2.20711e-05
6.23843e-05
0.000139627
0.000109397
0.000871416
0.000157135
3.4709e-05
2.16858e-05
3.99577e-05
0.00194966
0.000151056
9.05595e-05
2.08214e-05
2.08706e-05
2.40247e-05
2.07444e-05
0.00130367
0.000116837
6.7816e-05
0.00252902
8.14569e-05
3.90235e-05
2.10202e-05
0.00163196
0.00015052
0.00119359
1.81236e-05
0.00334745
8.76276e-05
9.522e-05
1.6689e-05
0.00124336
9.84217e-05
0.000386618
0.000107138
0.000144862
0.000108267
2.38484e-05
0.00108566
1.95637e-05
0.0062562
0.0087948
0.0088133
2.15819e-05
0.000110381
0.000283859
9.11018e-05
2.02542e-05
0.00550513
0.00996757
2.1557e-05
8.87082e-05
2.01536e-05
1.68517e-05
1.62739e-05
0.0104839
0.0119851
3.18073e-05
5.65236e-05
0.000320477
0.0144241
9.95208e-05
2.34287e-05
0.0122804
0.000216177
5.96457e-05
0.00411687
0.00236978
9.47609e-05
2.79968e-05
0.000123198
2.80847e-05
2.01081e-05
2.68876e-05
3.10239e-05
2.00531e-05
9.05651e-05
2.76306e-05
4.64364e-05
4.96271e-05
3.90806e-05
0.00026367
3.88509e-06
0.000638828
0.00392533
1.64241e-05
3.23973e-05
5.93275e-06
8.11497e-05
1.81046e-05
5.89648e-05
2.72963e-05
0.00230821
0.00013323
4.60232e-06
5.51027e-05
0.000101366
7.77357e-05
2.94959e-06
2.0373e-05
0.00129429
0.000181816
0.00016837
0.0104032
6.98879e-05
9.29287e-05
1.66517e-05
0.000156654
2.28391e-05
1.58092e-05
0.000125244
7.34476e-05
4.75406e-05
3.01395e-05
3.38236e-05
1.9973e-05
5.52896e-05
0.000200659
1.95918e-05
9.60308e-05
0.000191781
0.000245779
4.22309e-05
0.000185043
6.14726e-06
3.95235e-05
1.49126e-05
2.60918e-05
2.23474e-05
0.00013465
0.000150994
4.25911e-05
3.70415e-05
4.05954e-05
5.4761e-05
2.81171e-05
0.000245616
1.76158e-05
4.57735e-05
0.000112534
5.41249e-05
0.0162324
0.000108403
9.87291e-05
2.11815e-05
0.0152188
0.00256857
2.71882e-05
8.65793e-05
5.38869e-05
4.90545e-05
0.000129217
2.05397e-05
0.000193905
2.09617e-05
0.000525231
3.18214e-05
3.70694e-05
1.77223e-05
5.90276e-05
7.73422e-05
2.19755e-05
5.19324e-05
1.88873e-05
2.90185e-05
2.18155e-05
2.08082e-05
0.000250082
2.76828e-05
2.7602e-05
3.2543e-05
0.00120227
5.06126e-05
2.00013e-05
3.55952e-05
1.93419e-05
0.000130445
7.88318e-05
0.000120756
8.55662e-05
2.67062e-05
0.000328562
0.000778284
3.75582e-05
3.67901e-05
0.00137642
2.49229e-05
0.000285042
5.22956e-05
2.25677e-05
3.0708e-05
1.84632e-05
0.00744818
4.42932e-05
1.79266e-05
1.68485e-05
2.06154e-05
0.00397418
9.31259e-05
0.000455774
2.8677e-05
7.8632e-05
0.000322005
1.70808e-05
2.16064e-05
0.00358923
0.000112628
0.00354581
3.2879e-05
2.12265e-05
0.00192485
0.000344313
6.93437e-05
4.84415e-05
1.6615e-05
4.60771e-05
2.08522e-05
9.01439e-05
4.89462e-05
5.45268e-05
5.21355e-05
0.000102112
2.81615e-05
0.00165235
0.014422
8.01917e-05
5.56658e-05
2.10786e-05
5.40013e-05
0.0126598
0.000151661
2.3274e-05
4.03089e-05
3.66969e-05
0.00214279
8.45196e-05
0.00106851
3.98677e-05
2.22044e-05
2.24851e-05
0.000265731
0.000455178
2.105e-05
2.11975e-05
5.80212e-05
6.55406e-05
2.80741e-05
4.81368e-05
0.000475098
6.26201e-05
4.9698e-05
0.000193202
0.00262768
5.96631e-05
2.09671e-05
0.000132677
2.61128e-05
1.93387e-05
0.000271734
2.41352e-05
0.000219657
1.96586e-05
3.17758e-05
2.86803e-05
0.000262308
5.82104e-05
2.12309e-05
0.000127375
2.93616e-05
2.12881e-05
3.26966e-05
2.49554e-05
2.39127e-05
7.82718e-05
4.18997e-05
3.03508e-05
9.48537e-05
5.56424e-05
2.85375e-05
0.00707577
0.000109768
5.58164e-05
0.000369683
0.00605672
3.19111e-05
6.69317e-05
2.13183e-05
8.3808e-05
3.71357e-05
9.62694e-05
0.000118489
0.0101495
0.000129025
3.47701e-05
5.80913e-05
0.000166405
2.51578e-05
5.13638e-05
2.13098e-05
2.88255e-05
6.16204e-05
0.00534977
6.18218e-05
2.47113e-05
2.26562e-05
8.12871e-05
2.79009e-05
8.28017e-05
0.00577517
5.87064e-05
0.0115461
2.29125e-05
0.00906868
7.47921e-05
0.00495031
0.000206279
0.000122177
0.010988
0.00318393
4.42409e-05
0.000219139
2.15829e-05
0.000192239
1.81533e-05
0.000113616
2.4762e-05
0.00029453
0.00615542
5.70999e-05
0.000137698
1.64206e-05
0.00267084
1.8174e-05
2.11299e-05
3.09961e-05
0.0001014
2.27011e-05
2.06671e-05
0.000796127
9.68997e-05
1.72089e-05
1.91839e-05
6.32898e-05
2.10098e-05
5.00393e-05
2.14451e-05
2.36613e-05
2.09662e-05
4.42595e-05
1.47326e-05
6.4363e-05
0.00620739
2.04401e-05
0.00046257
0.000326097
0.000123249
0.00013272
0.00368136
4.81626e-05
6.13248e-05
3.724e-05
0.000181695
0.000162453
2.10764e-05
1.97774e-05
2.20745e-05
0.000273166
2.2736e-05
0.00118769
2.86481e-05
4.63756e-05
2.11257e-05
2.94724e-05
6.42457e-05
0.000153696
2.67862e-05
8.17354e-05
2.21071e-05
7.67836e-05
7.25093e-05
1.92189e-05
4.57822e-05
0.000426543
0.000219086
0.00713493
8.31694e-05
0.0112859
6.99115e-05
0.000174474
0.000198185
0.000276888
2.79206e-05
0.000110275
3.02203e-05
0.000667957
0.000133933
0.000170681
0.000193689
8.873e-05
5.46621e-05
9.01138e-05
3.80274e-05
1.56307e-05
6.86588e-05
0.000515672
2.37197e-05
0.00128105
7.52389e-05
3.27689e-05
3.96264e-05
5.47887e-05
3.36866e-05
0.000117021
4.52404e-05
0.000391772
2.10796e-05
0.000917186
6.47592e-05
1.5406e-05
1.79841e-05
0.000112062
0.000110965
0.000133655
0.000248443
3.41108e-05
0.000116143
4.78006e-05
3.19165e-05
1.57221e-05
5.05419e-05
0.0001316