/*--------------------------------*- C++ -*----------------------------------*\
| =========                 |                                                 |
| \\      /  F ield         | OpenFOAM: The Open Source CFD Toolbox           |
|  \\    /   O peration     | Version:  v2012                                 |
|   \\  /    A nd           | Website:  www.openfoam.com                      |
|    \\/     M anipulation  |                                                 |
\*---------------------------------------------------------------------------*/
FoamFile
{
    version     2.0;
    format      ascii;
    class       volScalarField;
    location    "1.004594";
    object      epsilon;
}
// * * * * * * * * * * * * * * * * * * * * * * * * * * * * * * * * * * * * * //

dimensions      [0 2 -3 0 0 0 0];


internalField   nonuniform List<scalar> 
83563
(
3.21687e-05
2.88178e-05
9.38707e-05
0.000182427
9.2048e-05
0.00015497
0.000634528
0.00874043
0.000843198
0.076332
0.000731688
0.00472208
1.80329
2.39359e-05
0.00811865
0.0209398
2.61533e-05
2.39887e-05
0.00812258
2.36875e-05
2.35057e-05
2.3609e-05
0.0152405
0.0525554
2.63197e-05
0.000355891
4.00884e-05
0.0945772
0.000301442
4.258e-05
0.000285939
8.48421e-05
0.00282776
2.80779e-05
2.53875e-05
0.000722643
3.26622e-05
7.92512e-05
7.36859e-05
0.0053774
6.5304e-05
0.000901504
0.000132226
0.00089474
0.0606101
0.0154002
0.089238
0.00742476
1.86577e-05
0.429599
0.394098
0.00134867
0.336371
0.713841
0.00133828
1.41736
9.49311e-05
0.679731
0.75541
0.00456896
0.857695
0.0580374
2.30291e-05
8.14871e-05
2.3164
3.1181
1.02957
0.000909778
0.0424632
0.503523
0.00545644
3.45015
6.00989e-05
2.79019
7.78826e-05
1.30553
0.262759
4.31211e-05
4.13529e-05
0.549027
2.99572e-05
8.06701e-05
6.0191e-05
0.0671803
0.000215119
3.40112e-05
2.87095e-05
0.031101
3.2936e-05
4.01149e-05
0.00615679
4.99658e-05
0.0358866
0.00511563
0.253849
0.0111676
0.260808
0.0387185
1.40552e-05
0.00600878
0.00183948
4.08724e-05
0.00124538
6.46229e-05
0.00040381
0.000129161
0.00017428
2.66852e-05
0.242219
2.4204e-05
0.010975
0.00183339
0.0140804
0.00150566
3.0591e-05
7.82526e-05
0.585013
0.0192253
0.000402055
9.0787e-05
0.000312282
0.00085001
0.00474123
0.120264
0.00876531
0.000167385
0.12078
0.000619424
0.00762956
2.39199e-05
0.765259
0.565357
0.00146431
0.310076
0.000719666
2.38338e-05
0.00465775
3.37104e-05
0.000398491
0.588053
0.00142081
0.41949
2.4286e-05
0.00208756
1.20918
1.10336
0.00141611
4.00248e-05
0.00175665
6.57402e-05
0.114202
2.49068e-05
8.94459e-05
0.00402912
2.8252e-05
3.9228e-05
3.01034e-05
1.54956e-05
7.1497e-05
0.0116503
0.00493765
2.79692e-05
7.27909e-05
0.000176345
0.01176
0.0292081
5.29904e-05
0.500971
5.31251e-05
0.0120068
0.000106135
0.000111228
0.286617
0.0125347
0.186465
2.31579e-05
0.000239497
0.00106867
0.00147226
3.43718e-05
0.000645928
3.39935e-05
0.00506738
0.00573013
0.0250178
0.0962162
0.0117714
0.00101225
0.00459114
4.88469e-05
3.06778e-05
0.0387135
0.104271
0.0469297
3.40716e-05
0.0579061
0.000951623
0.0114609
2.36516e-05
0.00380903
0.00304398
0.000422422
0.0149695
3.44607e-05
0.0249564
0.0214151
0.000589384
0.956728
2.421e-05
0.000605632
0.00643798
0.0912373
6.25288e-05
7.03101e-05
0.00187792
0.00361912
0.00218819
6.50827e-05
0.000172969
8.87447e-05
5.83589e-05
1.55298e-05
0.00121409
0.00068659
0.0231582
7.47015e-05
0.0762256
2.4791e-05
0.000325082
0.0211535
2.76543e-05
0.000334264
3.27997e-05
0.000419355
2.0257
2.36564e-05
0.00562779
5.57298e-05
9.50777e-05
5.29393e-05
0.00659629
0.00139135
2.23646e-05
7.15051e-05
0.00181061
2.80401e-05
0.111676
8.64106e-05
0.467381
0.0002386
0.00325141
3.51432e-05
0.000188638
0.0408304
0.000441432
0.000300893
2.69092e-05
0.0133582
0.000109691
0.000272978
0.000242528
0.000935188
0.262399
0.00475877
5.82726e-05
0.00101909
0.00390193
0.00198292
7.39219e-05
3.57393e-05
0.00249748
0.00664041
0.0020513
0.000417831
0.00509416
0.00028382
0.0187803
0.00619472
4.89729e-05
4.38268e-05
0.0104259
0.00013646
3.13124e-05
0.00797707
0.0101457
2.5221e-05
0.210859
0.000183973
4.10503e-05
2.17706e-05
0.00916682
4.30558e-05
0.0229536
8.83225e-05
6.39397e-05
0.00186815
0.00176758
0.00551275
4.03077e-05
2.60693e-05
2.66028e-05
0.00058685
0.000804172
2.5008e-05
2.42625e-05
0.0129057
0.018741
2.87729
0.00371249
0.0315922
0.00147781
0.000761383
1.21324
0.00955378
0.281804
0.000882131
2.31884
0.00258988
6.82576e-05
3.1062e-05
0.0432262
0.00305391
2.97127e-05
0.000112644
3.46824e-05
3.85936e-05
0.0270488
0.845494
0.00206233
0.177034
0.00205369
5.01249e-05
4.1751e-05
0.71495
3.77894e-05
2.93731e-05
0.000620909
3.74754
0.00601833
3.21546e-05
3.12162
1.63821
0.000125109
2.44916e-05
0.00094625
0.000245838
0.00881085
0.000162784
0.012942
2.51673e-05
2.63191e-05
0.00468327
9.82736e-05
0.55456
1.36981
2.35342e-05
0.0029033
0.00314056
0.000683849
0.071881
1.88814
0.0600014
0.575917
0.685765
0.689893
0.0297508
0.0337467
0.00602983
0.327671
2.92338e-05
0.000555068
0.00136276
0.00754075
0.66803
0.303023
0.00174878
0.51721
0.00107527
7.09944e-05
0.000627466
0.000102729
0.0017154
0.000201021
0.00140605
0.78254
0.3104
0.000344389
0.000759776
0.413698
0.00202684
0.00873897
0.000293351
0.000110572
0.319336
0.0019291
0.0116188
0.00353159
0.00536841
0.000338232
2.80454e-05
0.0298305
5.84085e-05
2.47052e-05
0.979031
0.0350536
0.000146859
0.105273
0.000684112
2.57962e-05
0.00316382
2.02553
0.000352339
0.000128911
5.05102e-05
0.817409
6.69379e-05
0.000112655
1.54533e-05
0.660844
0.000220481
3.0977e-05
4.74238e-05
2.32073
0.000163129
0.00947011
2.80109
0.00180485
0.0247991
0.000112565
0.00189134
0.000552361
0.00479304
0.0019905
0.000467909
0.598936
0.00626674
0.920138
2.93259e-05
0.00421772
0.116068
0.0123265
0.00140787
0.464252
0.000271757
0.0282638
0.00196527
0.00109853
0.067287
0.706139
20.8527
0.0385557
5.87896e-05
0.000951227
0.000101114
0.00712777
0.0156604
0.00586445
9.66635e-05
4.8453e-05
0.00604309
6.62189e-05
0.537821
0.000192661
3.53043e-05
9.87951e-05
0.0002006
8.1239e-05
0.000426853
0.000267397
0.00150296
0.00221643
0.00243184
5.86233e-05
0.00447487
0.00163236
0.0124541
0.000915143
0.000477953
0.000317762
0.00041366
0.000230887
4.65637e-05
0.00126089
5.23161e-05
9.56677e-05
0.00167417
0.00128143
0.00856096
2.34174
3.24913e-05
4.85046e-05
0.0004694
0.000733168
0.190595
0.0348461
5.09093e-05
0.00032019
0.000174526
0.000212783
0.000130778
2.6024e-05
0.00178833
0.000690369
3.19335e-05
0.00111055
4.64585e-05
1.94621e-05
0.00242351
0.000573988
0.00104442
0.000101314
3.54997e-05
2.43705e-05
2.43584e-05
0.000118671
0.000350807
1.89431e-05
0.498711
0.91006
0.000113528
0.000531332
0.0104278
0.0020429
0.0031636
0.00593295
7.76313e-05
0.00331766
1.04848
5.77569e-05
4.40573e-05
0.000267391
2.89207e-05
0.00048426
0.000126151
0.000161384
0.000425927
0.601073
0.0359089
0.00427079
0.540549
0.000653353
0.000255024
0.467212
0.00183947
0.00977357
0.0121842
0.000231095
0.0235775
0.318538
0.0019422
0.00124655
0.000925848
0.00327863
0.00504693
6.14113e-05
0.00295626
0.0572777
2.39288
0.183077
2.4068e-05
0.00416285
0.608621
0.000444042
0.0046492
0.0224723
0.000108452
0.071286
3.44392e-05
6.93884e-05
0.00467132
0.690259
0.00195715
9.27763e-05
0.00097113
0.130525
0.00647048
5.41028e-05
4.67272e-05
0.000490764
6.85132e-05
5.66385e-05
0.347863
0.231527
0.00134754
3.85573e-05
0.000272823
3.65915e-05
0.000306973
2.37989e-05
0.561574
2.4788e-05
0.000255889
2.53534e-05
0.000144796
0.000632036
2.6239e-05
4.317e-05
3.66865e-05
2.42801e-05
4.56415e-05
0.000195002
2.59439e-05
2.74332e-05
2.67084e-05
0.00028024
0.00015579
0.0408211
0.000232255
4.7269e-05
4.18467e-05
8.92582e-05
0.000127019
2.81473e-05
0.000168449
0.307547
0.000233498
0.000561034
0.000552185
0.00505254
0.00570387
0.00614941
0.407968
0.000570263
0.000189016
3.58134e-05
0.000590441
0.00170909
5.89605e-05
0.000371902
3.25972e-05
0.000339316
0.000661835
0.000261928
0.00204577
2.93465e-05
0.0524099
0.00105271
0.00183412
2.52909e-05
5.13085e-05
0.000406112
0.0116893
0.0157145
8.70754e-05
2.50703e-05
2.50891e-05
2.72639e-05
0.00100453
1.7231
0.000917153
0.000730865
0.00210877
0.0104998
0.00689578
0.0199305
0.000579833
0.0170185
0.00010367
0.000232069
0.00139312
4.5865e-05
0.431332
0.000806745
0.00123555
0.391098
2.37464e-05
3.05008e-05
3.56272e-05
4.34117e-05
0.0220127
0.00223061
0.00142999
0.000345466
0.00371316
0.0114136
0.00119561
0.0245323
0.00136826
0.0012188
0.0363097
0.43189
0.0012849
0.0224696
0.764924
2.70598e-05
0.00305691
0.0272363
0.00340286
0.0336717
0.000119923
0.000358555
0.00319139
8.29312e-05
0.0196728
0.0141209
0.216676
0.00157454
0.0503218
0.000857757
0.000313668
0.00127042
0.000248689
2.53292e-05
0.000891453
0.078463
0.00531405
8.73709e-05
0.00046528
0.00118271
0.00236353
2.44843e-05
0.00151922
2.38362e-05
3.01308e-05
0.00248005
3.52585e-05
4.89244e-05
2.19454e-05
0.00307723
0.937421
2.6685e-05
0.0681788
5.65631e-05
0.00145557
0.000213984
2.36781e-05
2.96777
0.686664
0.000133026
2.6113
6.31542e-05
2.6617e-05
3.77962e-05
0.0361526
2.81847
0.00731306
2.30187e-05
0.000107078
1.78315
0.000103142
0.000150585
0.00360123
4.72098e-05
0.00697531
0.000935644
0.00021654
0.00260003
0.0650997
0.386427
9.37584e-05
0.000168946
0.000237538
2.33227e-05
1.61929
0.00273157
0.0113031
2.34038e-05
5.78812e-05
0.0182827
0.000335139
0.000116281
4.56853e-05
0.0192111
4.48147e-05
0.00238778
0.000283505
2.37913e-05
0.000118433
0.00344237
0.00167221
0.000230745
3.39644e-05
4.91238e-05
0.00152373
5.38096e-05
0.000600368
8.11153e-05
0.0370841
4.21541e-05
0.000433719
0.00117973
0.460925
1.16253
3.45817
3.72912e-05
1.41911
0.000464144
0.00623548
8.68676e-05
0.000744751
0.00138784
0.0959888
0.000299929
0.793353
0.0029472
0.00131846
0.00439417
0.000682102
4.62721e-05
0.000293974
0.0034274
0.00023349
0.0067585
5.96577e-05
0.000163466
4.9341e-05
0.00457576
1.43019
0.192391
0.0078871
0.000361915
9.41953e-05
0.356958
0.115668
0.0349045
0.107811
2.8698e-05
0.0251545
0.000170518
3.01966e-05
0.00248841
0.000186237
0.305539
0.0098546
0.00131293
0.00498674
0.00271123
0.000163898
0.00828552
0.000139693
2.83967e-05
1.54007
0.000648066
0.0851336
0.000282797
2.39418e-05
2.43083e-05
1.78756e-05
0.0001022
0.00274152
0.00586849
0.123167
4.07501e-05
2.60764e-05
0.000284236
0.00584764
0.0320334
0.00149583
0.014461
2.96832
0.0102834
7.25376e-05
5.96275e-05
2.58514e-05
6.46972e-05
0.0669261
4.66235e-05
0.0118746
0.00257058
0.00147182
6.27751e-05
0.000535192
7.71798e-05
5.47574e-05
0.00934741
5.03782e-05
0.0271225
9.28135e-05
0.000720916
6.31585e-05
0.00246616
0.0486204
0.0179178
5.18668e-05
0.000170432
0.00236751
0.000775922
2.89446e-05
2.74891e-05
4.34947e-05
2.35931e-05
1.72327e-05
0.000570788
0.000100169
3.06593e-05
0.327451
0.0139907
0.000747134
0.105582
0.638521
0.000114816
0.0466965
6.79749e-05
4.85806e-05
2.85563e-05
2.59049e-05
0.00348819
2.87926e-05
0.00394911
0.00669294
0.000336848
5.9681e-05
0.000269098
0.00373214
9.61679e-05
0.000738891
0.000868029
4.56437e-05
0.00011279
0.00493072
7.45277e-05
8.03917e-05
3.6978e-05
0.000387695
0.000653864
0.716054
0.71848
2.93401e-05
0.207641
2.41596e-05
0.000103989
0.00934004
0.00287312
0.0146034
0.00235718
0.000231944
0.00273338
0.000487752
0.898755
0.000317546
0.0205626
0.0128885
0.0065049
0.00310025
1.08372
0.0036593
0.0472357
9.75791e-05
0.00444551
0.202198
0.00432974
0.00079211
0.012925
1.53904e-05
2.9732e-05
2.49564e-05
0.00140429
0.00339491
0.000807677
0.000618472
0.000138478
0.000118097
0.000292097
3.64623e-05
2.4098e-05
0.00216598
0.253307
4.22322e-05
2.28645e-05
2.44444e-05
0.0036144
2.41058e-05
0.000299502
2.81917e-05
0.00559385
0.0105322
0.000842448
3.00539e-05
0.0482962
0.000858866
0.000946264
0.000471508
5.49565e-05
6.50612e-05
0.000350322
0.00830836
0.000205279
0.000692212
2.78217e-05
0.000625763
4.76673e-05
0.00221332
0.000255422
7.26406e-05
3.94761e-05
0.00101956
0.00733134
0.00752321
2.58296e-05
0.00152971
0.0818183
0.00445061
4.63196e-05
9.9327e-05
4.20753e-05
0.00272878
0.0134021
0.00207347
0.0064243
0.0231605
0.00155025
2.73523e-05
2.30982e-05
9.18479e-05
0.0794993
0.000170459
0.0195063
0.017265
0.0506808
0.000253526
0.000177711
4.19051e-05
0.00117705
0.00018128
0.000295966
0.170826
0.000830326
0.00456108
0.0337832
1.10308
0.00107543
0.000176301
0.0270801
0.00519513
0.00247726
4.4229e-05
2.36189e-05
0.0112167
2.01453e-05
2.62167e-05
0.0135354
0.0490213
0.000920709
2.11485e-05
4.51197e-05
2.32371e-05
5.62464e-05
4.28187e-05
0.000770735
0.000317262
0.000789673
0.00555137
0.000100755
0.0126162
3.24247e-05
0.0119243
1.79552e-05
0.000107984
1.47769
8.70296e-05
4.8487
0.991874
0.000117005
2.31405e-05
2.79088e-05
0.00442345
3.5115e-05
0.0035739
2.94973e-05
0.746752
2.8588e-05
0.384871
0.00214939
0.256741
0.00191255
3.95018e-05
0.00295308
0.000907474
0.000866595
0.00251697
0.00216429
0.00186172
3.0345
0.000341115
0.303449
2.2857e-05
0.000287141
0.0014101
0.00291144
5.31403
2.50718e-05
0.0026505
0.0131395
2.40149e-05
0.00394766
16.8208
0.000124478
0.00453644
2.38298e-05
0.0479216
0.0917522
0.00869288
0.005188
0.00148988
0.00207536
0.00650038
4.08282e-05
0.00709035
0.00768018
0.00152849
0.0118504
4.21283e-05
0.0181952
0.00371085
0.00202647
0.000161778
0.000134904
2.71674e-05
0.00419065
3.07751e-05
0.000236478
4.35811e-05
0.000362119
5.08116e-05
0.0129527
0.0006405
0.00586646
0.000417084
0.00306213
0.00168184
0.59031
2.82866e-05
9.72313e-05
6.24417e-05
0.000781823
0.00105534
0.0472134
2.33814e-05
0.0159546
2.54137e-05
2.79714e-05
0.00492628
1.87191e-05
0.000108422
7.26372e-05
2.9002e-05
2.48077e-05
0.0221169
3.80949e-05
1.97586e-05
0.000508546
0.000426117
3.81979e-05
2.66263e-05
0.00183032
0.0007391
3.22895e-05
0.00475793
0.000679203
3.28895e-05
0.000653568
6.76602e-05
2.43296e-05
3.76159e-05
2.57708e-05
0.00150726
2.69323e-05
2.40331e-05
6.80189e-05
4.29808e-05
0.0163281
2.52158e-05
0.015605
3.06636e-05
5.53381e-05
2.99314e-05
0.000373299
0.000252839
0.000736599
0.000499303
0.000167517
0.000791744
0.00691678
0.00089304
0.000491212
0.0018354
0.00509769
0.000155178
0.0178885
3.49172e-05
0.00104976
2.00755e-05
0.0169333
4.8449e-05
2.42639e-05
6.17153e-05
5.82571e-05
0.00330189
0.0340851
0.000106641
0.00885698
0.86696
0.237006
0.838849
0.108804
1.55443
0.000117408
0.000398822
0.000324077
0.0104702
0.000515371
0.41438
2.28958e-05
0.00010076
0.0032862
0.0202767
0.000154647
0.00366464
0.00228998
0.00126249
0.000151425
0.00189828
2.75608e-05
0.000108026
2.44053
2.37859e-05
0.137418
0.423189
0.00416187
0.00100122
2.53742e-05
0.000211067
0.000205492
0.0132936
3.84165e-05
0.00830803
0.00179756
1.13477
0.02124
0.000185841
0.000184477
3.35934e-05
0.00213761
3.40124e-05
0.0010665
4.32297e-05
0.0480622
0.332541
4.46403e-05
2.87453e-05
0.0276212
0.000322875
0.000163571
0.00235231
0.000109647
0.00176256
0.165218
2.75074e-05
0.00172036
3.15205e-05
0.440891
0.000840799
3.61847e-05
7.48153e-05
0.0025064
0.226947
0.00920681
0.0011226
5.15498e-05
0.00175319
0.00096188
0.000589419
0.00305373
0.000857476
8.5844e-05
0.0212535
9.13804e-05
3.00031e-05
1.79694e-05
0.000100132
0.00344243
0.00158227
0.000164714
5.22025e-05
0.00189767
0.00264462
4.4079e-05
0.00443283
0.0332384
0.00322318
1.62597
6.26352e-05
7.34086e-05
0.00234884
1.00857
0.00408712
0.00135788
0.00676069
3.1061e-05
0.901686
0.000928694
3.90089e-05
2.86994e-05
0.00108377
5.86751e-05
0.000155984
0.00564783
0.00141403
0.000279653
0.00053326
0.0118421
0.0170752
2.71609e-05
0.00552838
0.000806178
3.01046e-05
2.21979e-05
0.000629898
0.0105519
0.000173215
2.40633e-05
2.83039e-05
2.3432
3.5456e-05
4.58129e-05
3.73701e-05
0.00435104
4.86512
2.57879e-05
1.74731
0.000156361
2.50291e-05
0.166579
0.00102002
2.34175
2.06123
0.00159366
0.00488699
3.27091
0.0979992
2.71289
0.00593417
0.00130147
2.79065e-05
2.52371e-05
0.000520038
0.0564711
2.38343e-05
0.0100306
2.67008e-05
3.79482e-05
0.00749954
9.29034e-05
0.000246241
3.2519e-05
0.00356763
3.64636
0.000483228
0.00622129
0.00508082
0.00101048
0.010115
0.000991111
0.00244672
0.00675055
0.00383393
7.85603e-05
0.0287685
4.73269e-05
0.00157493
6.18026e-05
0.000161385
0.000442861
0.000421766
2.79417e-05
2.5334e-05
0.000525943
0.000130374
8.10744e-05
4.41677e-05
2.4705e-05
0.000414359
0.758313
0.00220474
2.41524e-05
0.000327018
0.504498
7.75773e-05
0.4392
0.0158056
4.71573e-05
7.53395e-05
0.00020914
2.9823e-05
1.8866
0.000104792
0.00177616
0.000430471
0.0131335
0.000328211
3.5861e-05
4.69209e-05
0.876303
2.35867e-05
0.648543
0.00326033
0.0135192
0.0116797
2.57929e-05
6.474e-05
0.000290898
0.012953
0.00528536
0.0292536
0.00708756
2.49519e-05
2.86125e-05
2.36766e-05
0.00055568
0.000235272
0.00450628
3.60943e-05
0.00398949
0.000160466
0.000479265
0.00032934
0.000670396
0.000669341
0.000286551
2.75645e-05
2.80518e-05
0.000306109
8.82251e-05
0.000205373
0.000206455
0.00271294
0.000301746
6.79768e-05
0.000346739
0.000969255
0.00277082
0.00605723
0.00220358
0.000431192
0.00506417
1.73875
6.81712e-05
0.000107231
1.40093
2.66587e-05
0.0010921
2.68463e-05
0.000131639
2.34769e-05
2.60428e-05
5.65468e-05
0.000514123
3.76452
0.00051065
0.00101058
0.000406429
0.000385618
0.010035
2.99577e-05
0.00418232
0.00145513
0.0399976
0.910289
0.000261295
0.000324498
9.60566e-05
0.000580097
0.307492
6.86368e-05
2.78005e-05
0.0115996
1.1375e-05
1.62746
0.0312838
0.00104701
2.30304e-05
0.00369079
3.03987e-05
4.21637
0.000290993
6.26492e-05
0.0172084
6.74871
0.000337834
5.13525
0.00633291
0.00474793
0.00497679
0.00537763
0.000257097
3.54632
0.00896714
8.68573e-05
0.00486558
8.81816e-05
0.0179027
1.06359
0.00620272
3.71798e-05
3.85645e-05
0.0313625
0.0110495
1.99636e-05
8.5314e-05
0.0139323
0.00690587
1.76751e-05
0.000100776
0.000376293
0.830954
4.20833e-05
0.0135389
6.98723e-05
0.000401252
5.32632e-05
3.23687e-05
2.5874e-05
3.21185e-05
0.000244928
0.00576572
0.000280664
0.000690748
0.899786
4.70512e-05
3.18733e-05
0.00138032
0.0371692
0.000333031
0.0030749
0.000621021
0.0110302
0.00186248
5.69166e-05
0.000361084
0.000217755
2.68722e-05
0.000147456
0.000264177
0.00044939
0.00178946
0.0138447
4.17123e-05
2.36511e-05
0.173758
0.380849
3.16001e-05
0.00379116
0.67494
0.289914
0.00066149
0.52844
4.25453e-05
0.00473888
0.00066803
1.58792
0.000101488
0.000486334
8.38485e-05
0.000116005
0.000213508
3.03477e-05
0.000318975
7.65287e-05
0.315476
0.000604846
0.000481659
3.92664e-05
2.17809e-05
0.00811051
0.000155473
0.000129003
0.000110904
0.000270525
4.46456e-05
2.51795e-05
0.837731
0.00948635
0.479829
0.00585902
3.33786e-05
0.4594
0.00661757
3.81466e-05
2.37356e-05
0.000390165
0.000805085
0.000269337
0.0017999
0.00216827
0.0055913
4.81449
3.53271e-05
2.59751e-05
0.00423411
0.363663
1.50689
5.04553e-05
0.638431
0.111348
0.0115125
0.861134
3.34347e-05
1.51025
0.000115405
6.07792e-05
1.48355
0.00588312
0.00503792
0.0388425
0.0336962
8.89126
2.1866
6.18351e-05
0.000825343
7.27699e-05
0.000105968
0.0338279
8.21073e-05
0.00250566
3.32698e-05
8.97535e-05
0.000124814
8.52236
15.4197
3.80241e-05
3.32698e-05
9.74208e-05
2.27481e-05
1.30741
9.64978
0.000497866
0.000239476
2.37775e-05
0.00215593
5.61117e-05
0.000312901
2.22668e-05
3.24176e-05
0.000327968
2.57606e-05
0.00181924
2.28242e-05
0.000314492
2.66758e-05
0.00195865
0.000617692
0.0549134
2.50216e-05
0.00137861
1.7088e-05
0.00168381
0.0027474
0.00160643
0.000185413
0.0101179
0.0351731
0.173806
0.00267067
0.0011976
0.0386796
0.00740691
0.00322087
0.010573
0.00232425
0.983222
0.254591
0.000161047
0.00222448
0.000373657
0.133599
0.00842225
1.41693
5.3757e-05
0.000601218
0.00200792
0.00217604
0.00462834
3.22539e-05
3.99406e-05
0.000420161
3.8747e-05
7.08782e-05
0.00829283
0.00233181
0.000332718
0.000848562
0.0011066
3.86736e-05
0.020252
0.0247022
1.93524e-05
2.42617e-05
0.000105777
0.00131551
0.000853785
0.000343039
3.47592e-05
3.11966e-05
3.88263e-05
2.98577e-05
0.0435545
3.28373e-05
4.65563e-05
4.66208e-05
0.00100174
0.00100681
0.00214245
0.0503004
0.00142174
2.63764e-05
7.24774e-05
2.13462e-05
3.40825e-05
0.000173371
0.121592
6.56444e-05
3.05557e-05
0.000801856
2.24809e-05
3.05013e-05
0.00604305
0.40601
2.41649e-05
2.40346e-05
8.52739e-05
0.0229772
0.0623839
0.00159402
0.00486415
0.000108279
0.00710272
0.000610216
3.43588e-05
2.336e-05
0.00839365
0.000411443
8.85374e-05
2.37889e-05
2.73512e-05
0.000117369
0.991544
0.00115077
2.55006e-05
2.3783e-05
10.2984
2.3538e-05
0.000326871
2.39911e-05
0.000251712
3.0886e-05
0.000650363
5.16849e-05
8.42248e-05
30.1293
0.000790074
0.00140947
0.00031102
3.0355e-05
0.00341792
0.143752
9.35765e-05
2.83397e-05
20.6551
0.00727863
0.000455011
8.76894e-05
0.00128755
2.40115e-05
4.27474e-05
1.45769e-05
3.07242e-05
0.0457375
3.57859e-05
0.0010246
2.00434
1.71404e-05
3.56105e-05
0.00144055
7.05475
2.50768e-05
1.31387
2.55101e-05
1.27114
0.0010984
0.000234388
5.6392e-05
0.00622571
0.00126364
2.9215e-05
0.00126457
0.000203625
3.22688e-05
7.19653e-05
0.000214273
2.44952e-05
0.000914112
0.000735136
2.39101e-05
0.000403161
0.0087233
0.000269241
3.9413e-05
2.01671
0.000175902
0.00255707
0.000264772
2.98536e-05
3.75924e-05
0.000264979
0.00157134
0.549074
0.000488473
5.95183e-05
0.326426
0.314673
2.61849e-05
0.000573405
1.42821e-05
8.54434e-05
2.90013e-05
0.000615827
2.00732e-05
0.000984505
6.67423e-05
10.3583
0.000619602
0.000116369
0.00141084
2.81322e-05
0.00015612
6.02342e-05
1.92193
2.26398
0.000164207
0.000110245
0.000450671
0.000138206
3.83846e-05
0.00162264
0.075993
2.97497e-05
1.45568
3.60783e-05
4.25056e-05
0.00094104
7.00386e-05
0.00285507
0.117499
0.00120348
0.0136191
0.000150086
0.00131155
0.000530849
7.6755e-05
0.00304907
0.000532907
2.38863e-05
1.39578
0.00254722
6.27306e-05
0.000396206
2.72477e-05
3.40227e-05
0.00431031
2.53314e-05
5.27178e-05
0.000359845
0.00801918
2.33301e-05
4.79459e-05
0.447631
0.00333478
0.322322
0.0885973
0.00333466
0.00311249
0.0186365
0.0018126
0.00105202
0.000849924
0.0559109
0.00236572
2.76096e-05
0.000116715
2.21635e-05
0.00183608
0.00214597
0.00345126
7.87681
0.000109219
0.00991516
0.128728
3.49674e-05
3.13928e-05
0.000921777
0.0147869
1.407
2.68603e-05
6.73813e-05
0.00109108
2.47702e-05
0.0047305
15.4515
0.000869125
0.000336417
18.3759
0.000208094
0.000169943
3.25514e-05
2.42955e-05
0.0180635
0.0101871
0.00221321
0.00721336
2.21312e-05
0.000144641
9.51873e-05
0.59375
2.35902e-05
2.39078e-05
1.02458
0.000131361
2.82258e-05
4.6023e-05
2.18778
0.000409214
0.503496
3.03881e-05
3.42671e-05
0.00961783
0.0226299
0.00341385
0.00119647
0.00126529
4.14357e-05
2.46207e-05
0.662368
0.635703
1.43163
5.41812e-05
0.989783
1.73171
4.98908e-05
6.79892e-05
0.000138559
0.00390865
0.00116728
7.82682e-05
0.00445194
3.32353e-05
0.861747
0.685617
0.155642
0.0222106
7.00384e-05
0.00464618
0.000566746
0.00447816
0.102482
2.60612e-05
3.04577e-05
0.00046264
0.00919027
2.74938e-05
0.0303689
0.0225838
0.00726676
4.9972e-05
0.00138866
0.00219518
2.42595e-05
0.0121875
0.000480908
0.0138925
0.00103994
0.247588
0.0010936
3.13708e-05
3.76415e-05
0.000559861
0.227321
3.25286e-05
0.000536908
0.0233329
0.0514941
0.0108882
0.139111
2.74919e-05
0.00017714
0.000120918
0.017892
0.000269769
0.00283611
2.34485e-05
0.00865777
0.00014455
0.107781
0.000174325
8.12865e-05
2.502e-05
0.28978
0.109912
4.75554e-05
0.293924
2.42885e-05
4.55261e-05
0.00124127
0.00240442
0.000595296
0.000367034
2.91249e-05
0.0259961
0.0035057
0.000110893
0.486386
0.492501
0.00266132
0.00032544
0.000789861
0.00103193
0.0028306
0.000336657
0.0438386
0.000821107
3.96001e-05
0.00179293
0.00109638
0.000116501
0.000121854
2.79998e-05
0.00213504
3.26485e-05
1.45317e-05
2.14832e-05
0.00287205
8.62774e-05
0.00212885
0.00373717
0.00054386
3.26349e-05
0.000120254
0.00240134
0.0439981
0.000150509
1.99755e-05
0.000218679
2.30593e-05
2.39132e-05
0.0050591
1.90651e-05
2.36212e-05
2.49266e-05
0.000326566
2.32129e-05
2.5113e-05
2.71888e-05
0.00178276
0.0085299
0.00365455
0.270774
0.00622785
0.000105874
2.60229e-05
2.03354e-05
1.14722
0.129817
0.00243344
2.34679e-05
2.36156e-05
0.000122862
2.62733e-05
0.21621
0.00477881
0.00132267
0.271548
1.5491e-05
0.000107096
2.9916e-05
0.232811
0.00816452
0.419804
0.000163662
1.28929
0.00321822
0.00311147
4.81541e-05
0.373144
0.00315135
0.0262571
0.00373769
0.00383084
0.00431101
3.74797e-05
0.134784
4.28655e-05
2.70578
7.73796
8.33723
0.00025615
0.00510854
0.0143389
0.00288175
4.03613e-05
1.81228
12.254
2.5652e-05
0.00357209
4.04647e-05
0.000128584
6.1305e-05
11.9881
0.462205
0.000145973
0.000866479
0.00859187
1.28614
0.00112355
2.44196e-05
0.475538
0.0307629
0.000414862
0.171017
0.217639
0.00326194
8.14034e-05
0.00749574
0.00044974
2.70867e-05
0.00048019
6.54172e-05
3.17825e-05
0.00089702
9.87292e-05
0.000438322
0.000348605
0.000142502
0.0174075
0.0079848
0.0135699
1.02152
5.12955e-05
0.000523288
0.0107963
0.00099459
4.85411e-05
0.00111095
0.000847945
0.872666
0.00443772
0.0094158
0.00103956
0.00250632
1.98771e-05
0.00446968
3.36174e-05
0.156891
0.0182934
0.00713196
0.848162
0.00117343
0.0023884
7.08734e-05
0.00557952
2.93248e-05
7.88831e-05
0.00408748
0.00156981
0.000537972
7.99935e-05
0.000221204
3.22916e-05
0.000682657
0.00698266
3.58596e-05
0.00444464
0.0085492
0.014592
0.000377164
0.0123422
0.00882184
8.37872e-05
0.000113214
4.97672e-05
2.79359e-05
0.00519374
0.00663536
0.000695981
0.00050373
0.000645918
0.000135014
0.000115644
0.0122719
8.63739e-05
0.000141246
0.00411194
0.00104075
1.38624
0.00376392
0.00275714
2.48815e-05
1.24288
0.324846
3.89416e-05
0.00144648
1.60176e-05
9.74133e-05
0.00466629
3.10774e-05
0.00544939
2.38809e-05
0.0174608
0.000910661
0.000118068
4.60315e-05
0.00051421
0.00133483
4.81719e-05
0.000673337
9.66064e-05
0.000104278
2.63926e-05
2.34064e-05
0.017677
0.000289624
4.96808e-05
0.000853249
0.23468
2.29944e-05
3.26276e-05
8.7106e-05
4.36018e-05
0.00619806
0.000769059
0.00518243
0.00231946
4.3451e-05
0.0170056
0.495411
0.000528685
0.000161051
0.161309
0.000473957
0.0032722
0.000723032
2.87971e-05
0.000769411
0.000319936
1.61535
0.000472101
4.10331e-05
3.94597e-05
6.98048e-05
5.63477
0.00338962
0.128055
0.000254434
0.00151453
0.0469679
6.30895e-05
2.58771e-05
3.79384
0.00400271
2.05402
9.21947e-05
0.000569629
1.15381
0.0657614
0.00164876
0.000201922
0.000108599
0.000971419
2.36292e-05
0.00212914
0.000582632
0.00109344
0.000314567
0.00222456
5.08838e-05
0.166805
2.25713
0.00118614
0.00135593
2.42039e-05
0.000316464
0.876222
0.0119773
6.20861e-05
0.000376788
0.000135515
1.08953
0.00145938
0.290134
0.000180213
4.26109e-05
4.27425e-05
0.0161913
0.383573
2.49406e-05
2.45368e-05
1.64673e-05
0.00343394
0.000102384
0.000695534
0.0549325
0.00153144
0.000758196
0.012999
0.488036
0.00115884
2.38442e-05
0.00599304
7.87676e-05
2.94665e-05
0.0140866
3.35371e-05
0.0135597
3.18697e-05
0.000480279
0.000331082
0.0133714
0.00110571
2.45516e-05
0.00424903
0.000127113
2.47997e-05
0.000444963
4.40988e-05
3.57442e-05
0.00069744
0.000224751
9.10578e-05
0.001854
0.000607758
6.35458e-05
4.27664
0.000893464
0.000977526
0.035016
1.26145
4.85062e-05
0.000814896
2.69377e-05
0.00117162
0.000744343
0.00143009
0.00536881
0.33413
0.00144969
0.00016763
2.40221e-05
0.00859142
0.000107018
0.000649596
6.66857e-05
5.5831e-05
0.00110074
2.53306
0.00154733
4.09551e-05
2.88576e-05
1.18258e-05
4.79398e-05
0.00193767
3.04766
0.00131377
17.5501
2.98463e-05
9.01706
0.00106849
1.9561
0.0110852
0.00496853
14.6861
0.360167
0.000524833
0.0071567
2.60294e-05
0.00640263
6.73578e-05
0.00536703
0.000388631
0.0134575
0.127763
0.00115569
0.00677304
4.41299e-05
0.632275
8.24769e-05
2.43577e-05
2.10268e-05
0.00402279
3.43679e-05
2.71105e-05
0.0635349
0.00214834
0.000185553
0.000105594
3.53446e-05
2.5191e-05
0.000395772
0.000159557
3.13722e-05
2.40155e-05
5.23173e-05
7.07647e-05
0.00144847
0.494957
3.73537e-05
0.0596685
0.0560484
0.00378087
0.00563142
2.39991
0.000370646
0.117209
0.000887885
0.0102962
0.0103153
0.000177577
2.90125e-05
0.000211241
0.031322
3.18959e-05
0.0511743
0.000462757
0.0012354
2.5464e-05
2.32298e-05
0.00049325
0.00659935
0.000140386
0.00114042
0.000120628
0.000632592
0.000266162
4.28685e-05
0.000396625
0.123583
0.0234884
0.410964
0.00301048
0.448728
0.00023884
0.00824857
0.0096746
0.03668
4.0426e-05
0.00494255
4.25997e-05
0.196187
0.00470988
0.0202079
0.00700164
0.00434117
0.000152768
0.0028805
3.93705e-05
5.98039e-05
0.00121134
0.0817749
3.22625e-05
0.0820903
0.00105508
0.000851814
2.54626e-05
2.75394e-05
0.000665393
0.000530744
0.000603825
0.0201573
2.42217e-05
0.0362474
0.00150111
0.000101929
0.000217119
0.000724315
0.00211571
0.000788567
0.0143813
0.000533374
0.00448781
0.000539738
0.000386984
0.000156881
0.000625314
0.00301951
5.87441e-05
3.01736
4.8537e-05
0.00133887
2.52923e-05
0.00158971
7.08822e-05
0.00830954
0.00523241
0.0149869
3.00869e-05
2.57716e-05
0.000113836
0.007425
0.00344103
0.746884
0.0034369
0.0503192
0.454986
0.000107392
0.120707
5.36975e-05
2.81002e-05
4.18489e-05
0.000700219
2.82271e-05
0.00345966
0.00536227
0.000303396
0.00123459
0.00227326
0.0016201
3.83222e-05
4.92344e-05
0.000109926
0.000891568
0.000545944
0.0100468
5.32727e-05
0.00153844
0.00950529
0.112324
2.29098e-05
0.0423989
2.39648e-05
0.000119512
0.000157735
0.000511357
0.00547794
0.000201357
0.00514672
0.000599825
0.000132073
4.1217e-05
0.000612683
0.00171627
2.32989e-05
0.00279508
0.00153931
5.94562e-05
2.63083e-05
0.000105174
0.014867
0.00128795
0.0222612
0.000100153
0.00104694
0.00818753
5.42524e-05
0.00121756
0.000437409
2.43623e-05
2.95853e-05
0.0862923
0.000309298
0.000583552
5.48018e-05
2.41973e-05
0.00020812
1.85714e-05
2.36292e-05
2.56637e-05
3.87915e-05
2.36326e-05
5.40909e-05
0.00435117
0.000433236
2.62478e-05
0.0113362
0.00111214
2.39711e-05
5.86996e-05
0.000563339
0.0378646
0.0101521
0.288234
0.00166362
0.000158582
0.208884
0.00283953
0.0096484
0.00394708
0.0178546
6.46069e-05
2.3493e-05
0.237963
7.98152e-05
0.000462732
0.000204574
2.30335e-05
0.0296546
2.3681e-05
2.87144e-05
1.52871e-05
0.00180034
2.37203e-05
2.44255e-05
9.96672e-05
0.00483233
4.10492e-05
0.000108515
0.000391309
0.833778
0.00376484
0.0858455
0.327746
7.18071e-05
0.12088
3.69687e-05
0.00218368
0.0106327
6.2188e-05
8.33404e-05
0.000255991
0.724494
2.89175
2.7802e-05
0.00183648
0.963071
0.00120977
0.00213189
0.00428369
0.00569872
0.00870249
0.00137414
0.321785
0.000696157
2.43691e-05
5.6103e-05
2.70116e-05
0.000148115
0.874615
0.000143131
0.000983324
1.39301
2.38514e-05
0.000298935
3.2426e-05
0.000644036
3.30337e-05
0.00107464
0.00310146
0.000962501
0.00487784
0.432435
3.36398e-05
6.44056e-05