/*--------------------------------*- C++ -*----------------------------------*\
| =========                 |                                                 |
| \\      /  F ield         | OpenFOAM: The Open Source CFD Toolbox           |
|  \\    /   O peration     | Version:  v2012                                 |
|   \\  /    A nd           | Website:  www.openfoam.com                      |
|    \\/     M anipulation  |                                                 |
\*---------------------------------------------------------------------------*/
FoamFile
{
    version     2.0;
    format      ascii;
    class       volScalarField;
    location    "1.004594";
    object      k;
}
// * * * * * * * * * * * * * * * * * * * * * * * * * * * * * * * * * * * * * //

dimensions      [0 2 -2 0 0 0 0];


internalField   nonuniform List<scalar> 
83563
(
7.92891e-05
9.07644e-05
0.000173854
0.000211937
0.000189248
0.000250401
0.000388125
0.00423521
0.000782865
0.0206826
0.000671797
0.00226488
0.202192
6.88832e-05
0.00422934
0.0109651
7.32497e-05
6.89685e-05
0.00378583
6.83942e-05
6.80121e-05
6.82407e-05
0.00613267
0.0236797
7.35829e-05
0.000310076
9.83195e-05
0.0238822
0.000298706
0.000100529
0.000266752
9.30112e-05
0.0024068
7.70967e-05
7.10163e-05
0.000733554
9.04755e-05
0.000152849
0.000148447
0.00231233
0.000121059
0.000783948
0.000211858
0.00064601
0.00587897
0.00531522
0.0239129
0.00329166
0.000119642
0.196944
0.166787
0.00102293
0.0752379
0.125513
0.000915321
0.255067
0.000159101
0.10395
0.125566
0.0021407
0.132142
0.0216071
0.000111239
0.000155177
0.286849
0.234326
0.179544
0.000572097
0.00212844
0.170178
0.0028186
0.433189
0.000118177
0.383379
0.000154623
0.406464
0.0603753
0.000100485
9.59252e-05
0.0941621
7.8642e-05
0.000109522
0.000112699
0.0221405
0.00047386
8.22804e-05
7.85589e-05
0.014396
8.42142e-05
0.000125678
0.00303808
8.82163e-05
0.00918932
0.00280338
0.0434148
0.00473086
0.0580222
0.00944826
8.72631e-05
0.00282015
0.00104291
9.97759e-05
0.00101134
0.000123786
0.000470406
0.000197737
0.000243162
7.26236e-05
0.0345478
6.9431e-05
0.00441378
0.00108878
0.00508011
0.000924823
9.31113e-05
0.000108923
0.259711
0.00685464
0.000464898
0.000111171
0.000355513
0.000706335
0.00210631
0.0344592
0.00331902
0.000175316
0.0382362
0.000497895
0.00346949
0.000111556
0.271221
0.101523
0.000939785
0.0871807
0.000523922
6.86794e-05
0.00204744
0.000101536
0.000319754
0.155096
0.000979183
0.0937173
0.000122214
0.00125412
0.244979
0.155031
0.000954485
9.7717e-05
0.00101273
0.000138327
0.040099
7.34377e-05
0.000159087
0.00207197
7.4284e-05
8.28818e-05
7.6014e-05
8.72502e-05
0.000216862
0.00312749
0.00239362
7.51714e-05
0.00013778
0.000169198
0.00451222
0.0129226
8.87853e-05
0.24782
9.59907e-05
0.00491842
0.000135958
0.000127999
0.0966568
0.00481985
0.0621824
0.000106039
0.000330851
0.000727431
0.001061
7.69024e-05
0.000522273
8.66348e-05
0.00229021
0.00309163
0.0082977
0.0228066
0.00498901
0.000580743
0.00154075
9.64642e-05
7.86642e-05
0.0115523
0.0285127
0.0200881
0.000147411
0.0243892
0.000672239
0.00465928
6.83207e-05
0.00208749
0.00173817
0.000542481
0.0054102
7.56292e-05
0.00805425
0.00703382
0.00045364
0.365857
6.93235e-05
0.00049072
0.00310459
0.0195994
0.000105249
9.84868e-05
0.00111296
0.00226636
0.00126247
9.72548e-05
0.000199141
0.000242617
0.000128939
8.93302e-05
0.000751075
0.000564517
0.00613463
0.00010675
0.0158955
7.1232e-05
0.000307407
0.00622274
7.59981e-05
0.000335264
7.57983e-05
0.000379766
0.299459
6.83157e-05
0.00270315
9.9561e-05
0.000115222
0.00010694
0.00298492
0.00113676
0.000119263
0.000103538
0.00105829
8.23524e-05
0.0397863
0.000113605
0.109239
0.000341816
0.00164803
0.00011513
0.000235834
0.0138617
0.000437838
0.000355778
7.18433e-05
0.00517166
0.000150873
0.000297323
0.000277287
0.000830899
0.139423
0.00235758
0.000155343
0.000733422
0.00203246
0.00109992
0.000103391
7.81201e-05
0.00126893
0.0025398
0.00130761
0.000472086
0.00222508
0.000345373
0.00622949
0.00311165
0.000108614
0.000133483
0.00462358
0.000156855
7.84068e-05
0.00393804
0.00585805
7.75059e-05
0.047702
0.000183443
9.25431e-05
9.08818e-05
0.00592107
8.50487e-05
0.0070414
0.000129628
0.000125894
0.00104543
0.00121055
0.00274843
0.000126192
9.30469e-05
9.03215e-05
0.000501401
0.000664408
7.28123e-05
6.96825e-05
0.00459396
0.00624381
0.311262
0.00203806
0.0103246
0.000950282
0.00095111
0.129802
0.00587368
0.0980145
0.00064313
0.546384
0.00146605
0.000105837
0.000128663
0.0123906
0.00156281
8.01545e-05
0.0001922
0.000138476
8.29408e-05
0.00851661
0.16801
0.0011749
0.0631391
0.00106408
0.000124781
8.14162e-05
0.1335
8.38663e-05
7.94459e-05
0.000616067
0.357387
0.00296984
8.803e-05
0.38059
0.148369
0.000154193
7.61689e-05
0.000656454
0.000211649
0.00386078
0.000266941
0.00510422
7.53496e-05
7.05737e-05
0.0021503
0.000183463
0.0614007
0.237203
6.80743e-05
0.00166447
0.00170033
0.000599053
0.0208469
0.482893
0.0181122
0.180744
0.302117
0.224408
0.0100711
0.0112235
0.00287436
0.142218
7.63414e-05
0.000430914
0.00101329
0.00365956
0.0643934
0.0402634
0.00112287
0.228708
0.000666075
0.00013427
0.000455789
0.000187361
0.00106307
0.000217686
0.00125897
0.279843
0.133623
0.000425454
0.000698735
0.198684
0.00117531
0.0045532
0.000263505
0.000198678
0.155676
0.00186862
0.00472875
0.00176573
0.00270585
0.000334593
7.22424e-05
0.0130751
9.88941e-05
7.6876e-05
0.341021
0.0108512
0.000235649
0.0219293
0.000485827
7.2562e-05
0.00147035
0.265759
0.000715725
0.000142498
0.000113788
0.126655
0.000120253
0.000191811
0.000111064
0.23142
0.000318852
8.25712e-05
0.000110919
0.266207
0.000172719
0.00378541
0.32612
0.00106301
0.00791672
0.000133461
0.0010487
0.000420063
0.00291887
0.00121174
0.000378309
0.202101
0.0031331
0.373576
7.86807e-05
0.00216354
0.0289262
0.00535563
0.00119136
0.230952
0.000221509
0.0130057
0.00120296
0.000983235
0.0252365
0.0975707
1.33083
0.0148763
0.000129293
0.000708264
0.000188566
0.0034293
0.00609713
0.00432571
0.000135769
0.000110688
0.00252937
0.000105646
0.0994775
0.000239142
8.98826e-05
0.00016735
0.000260357
0.000124699
0.000383347
0.000362105
0.00112168
0.00148153
0.00130165
0.00012872
0.00252197
0.000922885
0.00483195
0.000707406
0.000495508
0.000451879
0.00034088
0.000365786
0.000110292
0.000860353
0.000179542
0.000119554
0.0011338
0.000864943
0.00382025
0.38539
7.68161e-05
8.87624e-05
0.000429019
0.000651673
0.0639845
0.0104755
0.000183878
0.000338105
0.00028213
0.000277379
0.000179952
7.09426e-05
0.00112821
0.000454986
8.42806e-05
0.000817156
9.1454e-05
9.88051e-05
0.00123888
0.000427402
0.000850119
0.000130368
9.4405e-05
7.0339e-05
6.97194e-05
0.00017823
0.000256988
0.000101924
0.133217
0.185
0.000177418
0.000525132
0.00400193
0.00137483
0.00156053
0.00269614
0.000141811
0.0014463
0.188787
0.000113968
0.000105785
0.000235063
7.70277e-05
0.000488261
0.000189909
0.000211804
0.000321038
0.140009
0.0115097
0.00200875
0.121987
0.000633509
0.000184061
0.0725671
0.000923251
0.00486698
0.00555309
0.000253615
0.0103905
0.0499101
0.00101364
0.000814269
0.000563705
0.00173334
0.00159787
9.48793e-05
0.00165693
0.0245336
0.454397
0.0377708
6.91432e-05
0.00193043
0.180519
0.000350936
0.00239562
0.0114149
0.000162633
0.0206495
8.79227e-05
0.000104093
0.00254972
0.182903
0.00126645
0.000157881
0.000784541
0.0313207
0.00280208
0.000121426
0.000104639
0.000324489
0.000139175
0.000119627
0.0255536
0.128354
0.000906795
9.61935e-05
0.000289593
8.74225e-05
0.000396928
6.8557e-05
0.0428628
7.05666e-05
0.000221602
7.15819e-05
0.000190636
0.000564187
7.34464e-05
9.89022e-05
9.2999e-05
6.94264e-05
8.52555e-05
0.000297131
7.28661e-05
7.57888e-05
7.35439e-05
0.000318515
0.000250764
0.0164745
0.000259393
0.000109121
0.000100228
0.000162226
0.000148625
7.54084e-05
0.000262289
0.0692237
0.000268707
0.000576541
0.00065646
0.00254931
0.00281009
0.00342317
0.120337
0.000536031
0.000188282
8.06195e-05
0.000486883
0.00106749
0.000119053
0.000377696
8.07687e-05
0.000470128
0.000522995
0.000295203
0.00132412
7.9449e-05
0.0185556
0.000816216
0.00114889
7.12555e-05
0.000118295
0.000350866
0.00564843
0.00710974
0.000122276
0.000127521
7.11924e-05
7.54161e-05
0.000833093
0.202522
0.000706402
0.000576522
0.00122554
0.00396707
0.00265173
0.00653668
0.000454243
0.00715718
0.000123938
0.0002189
0.000887013
0.000106336
0.103559
0.000621298
0.000844766
0.0746155
6.85177e-05
0.000114315
8.84724e-05
9.88425e-05
0.00887605
0.00120284
0.000914513
0.000284981
0.00197438
0.00469038
0.000745956
0.0129903
0.00075715
0.000768814
0.0168708
0.0874802
0.00100038
0.00720202
0.107478
7.21956e-05
0.00172262
0.0085671
0.00218141
0.0125293
0.000208014
0.000403311
0.00166111
0.000154455
0.00720736
0.00441896
0.0569041
0.00100686
0.0139422
0.00056939
0.000271709
0.000856546
0.000295349
7.14539e-05
0.000869547
0.030099
0.00277524
0.000105557
0.000488691
0.000829181
0.00149242
6.98464e-05
0.00123344
6.86827e-05
9.21851e-05
0.00170979
7.75021e-05
0.000105721
7.78896e-05
0.00177825
0.366225
7.43523e-05
0.0252304
0.000123399
0.00115589
0.000191923
0.00014191
0.279466
0.0750582
0.000218885
0.33919
9.5563e-05
7.39427e-05
9.42388e-05
0.0122509
0.216911
0.00341804
7.84569e-05
0.000206958
0.15993
0.000119968
0.000233408
0.001419
9.05138e-05
0.00262049
0.000772454
0.000292445
0.00160305
0.0193913
0.0831822
0.00016821
0.000259137
0.000335014
6.76319e-05
0.262583
0.00158698
0.00486587
6.78238e-05
0.000118898
0.00643743
0.000426353
0.000190289
0.000104008
0.000965436
8.66878e-05
0.00147908
0.000342939
6.85295e-05
0.000179549
0.00172029
0.00185692
0.000304538
8.4514e-05
8.42245e-05
0.00129672
0.000121423
0.000629009
0.000140951
0.0150827
9.58272e-05
0.000401899
0.000833534
0.195745
0.21928
0.361069
9.39008e-05
0.196902
0.000380718
0.00329267
0.00016158
0.000641842
0.000919683
0.0343128
0.000314577
0.171371
0.00170043
0.00101967
0.00236547
0.000471627
0.000109233
0.00029286
0.00209047
0.000214584
0.0028432
0.000103414
0.000154221
0.000108236
0.00206393
0.146088
0.0374731
0.00321417
0.000269021
0.000219932
0.0650053
0.0253303
0.0130402
0.0228621
7.82478e-05
0.00955786
0.000169004
7.62078e-05
0.00274126
0.000229519
0.0503952
0.0048956
0.000783714
0.00234935
0.00175599
0.000467281
0.000412659
0.000213783
7.26163e-05
0.466722
0.000521958
0.02735
0.000362813
6.88266e-05
6.96596e-05
9.60876e-05
0.00018352
0.00150466
0.00042203
0.00623081
9.99739e-05
7.2653e-05
0.000374108
0.00039348
0.0103798
0.000795382
0.00533236
0.351755
0.00480025
0.000106795
9.35354e-05
7.28856e-05
0.000131633
0.00374746
0.000111697
0.00458055
0.00174858
0.000979145
0.000109724
0.000417123
0.00014389
9.44491e-05
0.00413077
0.000153178
0.0104889
0.000216103
0.000595857
0.000100529
0.00133818
0.0132341
0.00782478
0.000146577
0.000259122
0.00138853
0.000613756
7.46023e-05
8.51498e-05
0.000109912
6.81805e-05
8.8082e-05
0.000442294
0.000114166
7.56758e-05
0.116064
0.00474314
0.000488485
0.0345651
0.111645
0.000143198
0.0124481
0.000110647
0.000111939
7.75054e-05
7.17626e-05
0.00198815
7.24481e-05
0.00244994
0.00356854
0.000282554
9.40616e-05
0.00034098
0.00241852
0.000126415
0.000576908
0.000669769
9.20025e-05
0.000201675
0.00287722
9.98651e-05
0.000134536
7.89147e-05
0.000379046
0.000463392
0.150937
0.0986999
7.281e-05
0.0536168
6.93517e-05
0.000279586
0.00429295
0.00160888
0.0053286
0.001444
0.000261357
0.00164121
0.000415384
0.0909123
0.00034016
0.0104389
0.0067844
0.00299688
0.00190138
0.134452
0.0018709
0.0200331
0.000182055
0.00217615
0.0509449
0.00240059
0.000548417
0.00455616
8.85771e-05
7.98622e-05
7.04775e-05
0.00093468
0.00184153
0.000625898
0.000422458
0.000135572
0.000127117
0.000253987
8.95701e-05
6.92166e-05
0.00154151
0.0532085
8.98708e-05
6.66971e-05
6.96974e-05
0.00199499
6.92365e-05
0.000323225
7.50079e-05
0.00260324
0.00413744
0.000725891
7.61328e-05
0.0163349
0.000640388
0.00139274
0.000476819
0.000134617
0.00014155
0.000381843
0.00349027
0.000165226
0.000537241
7.65124e-05
0.000576242
0.000114953
0.00113452
0.000319139
0.00012797
0.00010302
0.000849528
0.0035178
0.00350299
8.96763e-05
0.000921166
0.0216089
0.0020575
8.90493e-05
0.000167129
0.000100221
0.00302065
0.00546212
0.00135279
0.00279066
0.0119427
0.000911886
7.38679e-05
6.71802e-05
0.000162939
0.0280463
0.000227562
0.00767218
0.00640388
0.0154968
0.000329908
0.000256152
0.000101744
0.000811965
0.000163474
0.000339339
0.0949584
0.000589384
0.00240953
0.0118463
0.400081
0.00103651
0.000235494
0.00983994
0.00246016
0.00163879
9.66276e-05
6.82028e-05
0.0045941
7.65951e-05
7.03865e-05
0.00459161
0.0180901
0.00056661
0.000103505
0.000147585
6.74592e-05
0.000148977
0.000100341
0.00056829
0.000301181
0.000471416
0.00253275
0.000136898
0.0048259
8.86188e-05
0.00439278
9.87586e-05
0.000183694
0.299428
0.000162424
0.551962
0.134498
0.000124719
6.96352e-05
7.68795e-05
0.00223481
8.09306e-05
0.00170437
7.76299e-05
0.179792
7.86691e-05
0.0656473
0.00231839
0.0767611
0.00110315
8.06953e-05
0.00166631
0.000644012
0.000734583
0.00164054
0.00110095
0.00120538
0.332409
0.000288628
0.0894848
0.000121848
0.000269279
0.00084689
0.00162878
0.726549
7.11514e-05
0.00159253
0.00676127
6.87892e-05
0.00192428
1.28091
0.000188544
0.00261071
0.000102184
0.01772
0.0169954
0.00381467
0.00257615
0.00111272
0.00132149
0.00331857
9.39316e-05
0.00291055
0.0031158
0.00110979
0.00438416
9.82818e-05
0.00572963
0.00157315
0.00119071
0.000175922
0.000297778
7.25573e-05
0.00188061
8.14998e-05
0.000202315
0.000105155
0.000389795
0.000100802
0.00662952
0.000438197
0.00245767
0.000337344
0.00182711
0.00104297
0.115897
7.65147e-05
0.000179058
9.72804e-05
0.000963972
0.000667525
0.0139774
6.77684e-05
0.00714071
8.48389e-05
7.4372e-05
0.00262779
9.81789e-05
0.000183827
0.000110861
7.81119e-05
7.02636e-05
0.00857598
0.000112551
0.000102048
0.000309834
0.000374808
8.05495e-05
7.41276e-05
0.00114642
0.00059679
0.000143912
0.0024016
0.000531809
8.20538e-05
0.00056579
0.0001336
7.79979e-05
9.45791e-05
7.21477e-05
0.00116137
7.10707e-05
6.90508e-05
0.000101832
0.000127615
0.00631652
8.22782e-05
0.00950341
8.68143e-05
0.000115021
8.06738e-05
0.000332664
0.00032578
0.000568528
0.00037429
0.000197753
0.000531034
0.00293203
0.000590909
0.000523589
0.00106303
0.00233685
0.000245037
0.00616725
7.91213e-05
0.000713279
8.3487e-05
0.00708073
9.51231e-05
7.13291e-05
0.000102062
0.000103383
0.00158754
0.0110839
0.000191778
0.00347026
0.358983
0.0991059
0.308634
0.0232423
0.490577
0.000147936
0.00026199
0.000302041
0.00405929
0.000412039
0.101366
0.000107486
0.000118995
0.00208435
0.00695487
0.000180046
0.00202361
0.00162754
0.000875666
0.000217293
0.00120263
7.07319e-05
0.000168304
0.0962898
6.85506e-05
0.0138171
0.0906223
0.00230831
0.000817108
7.14406e-05
0.000246317
0.000257294
0.00541739
8.20795e-05
0.0040808
0.00122301
0.0547937
0.00822535
0.000211609
0.000160693
8.51623e-05
0.00121808
0.000110408
0.000767861
8.27118e-05
0.00395947
0.0351516
0.000105157
7.76772e-05
0.0021994
0.000302102
0.000164688
0.00128157
0.000130118
0.001659
0.0128295
7.76329e-05
0.000891581
0.000160048
0.167005
0.000569048
8.04907e-05
0.000108151
0.0016665
0.0529588
0.004749
0.000873807
0.000101445
0.00114217
0.00113368
0.000562727
0.001606
0.000625225
0.00013603
0.00756308
0.000126406
0.000119031
9.80814e-05
0.000143849
0.00185298
0.00133896
0.000233029
0.000117902
0.0022976
0.00138037
0.00010344
0.00212138
0.015028
0.00164519
0.296879
0.000195561
0.000113374
0.001283
0.189788
0.0020878
0.000861957
0.0033404
8.16589e-05
0.171075
0.000718365
8.23796e-05
7.6891e-05
0.000647613
0.00010495
0.000260295
0.00267692
0.000870699
0.000380857
0.000463174
0.00501002
0.00735446
7.30843e-05
0.00239288
0.000619465
7.86127e-05
7.44883e-05
0.000435608
0.00475061
0.000232963
6.91385e-05
7.73922e-05
0.198533
8.01122e-05
8.42778e-05
8.18037e-05
0.00215991
0.780195
7.16493e-05
0.163281
0.000223483
7.56939e-05
0.0653753
0.000615333
0.261654
0.486759
0.000942757
0.00165155
0.724352
0.00729367
0.61056
0.00243355
0.000774625
7.40611e-05
7.09652e-05
0.000520113
0.019976
6.84193e-05
0.00402439
7.10427e-05
9.49358e-05
0.00334795
0.000155413
0.000336816
7.52486e-05
0.0021425
0.826967
0.000418814
0.00334965
0.00278372
0.000701596
0.00381051
0.000730909
0.00144663
0.00293746
0.00167298
0.000158468
0.0232027
0.000110776
0.000934203
0.00011517
0.000233565
0.000339296
0.000371642
7.79222e-05
7.02154e-05
0.000499654
0.000203766
0.000179425
0.000110217
6.99417e-05
0.000432984
0.26472
0.00168901
6.90568e-05
0.000296551
0.1081
0.000178232
0.232427
0.00594637
9.91952e-05
0.000132963
0.000193898
8.08934e-05
0.424574
0.000167744
0.00100424
0.000496823
0.00503348
0.000366509
7.84138e-05
0.000155169
0.163216
6.85131e-05
0.270843
0.00181845
0.00516112
0.00454854
8.31225e-05
0.000136486
0.000276507
0.00484301
0.00275274
0.00709546
0.00330975
7.32976e-05
7.47716e-05
7.0412e-05
0.000458822
0.000327219
0.00246403
8.93707e-05
0.00202771
0.000223935
0.000601231
0.00039102
0.000671237
0.000533583
0.000300372
7.56728e-05
9.45013e-05
0.000445926
0.000127913
0.00030266
0.000233382
0.000222494
0.000399696
0.000101368
0.000343679
0.000619423
0.00154972
0.00278133
0.00097346
0.00036146
0.00249333
0.524571
0.000106314
0.000192531
0.202013
7.4256e-05
0.000656738
7.30094e-05
0.000189492
7.12187e-05
7.18202e-05
0.000116729
0.000393378
0.423409
0.000397518
0.000779636
0.000339858
0.000319467
0.0045586
7.64182e-05
0.00200138
0.000850549
0.0081439
0.152565
0.000311132
0.000399352
0.000125657
0.000575224
0.0603297
9.66614e-05
7.45169e-05
0.00455797
8.4416e-05
0.27384
0.0108453
0.000692755
6.70411e-05
0.00192861
0.000103521
0.441231
0.000234814
0.000133983
0.00607646
0.457396
0.000273311
0.532147
0.0027749
0.00255198
0.00293721
0.00270459
0.000271781
0.422838
0.00428657
0.000170637
0.00228092
0.000116232
0.00508873
0.181061
0.00268381
9.13035e-05
8.25377e-05
0.0102877
0.00416539
9.73453e-05
0.000150588
0.0050894
0.00263892
8.97599e-05
0.000118167
0.000382353
0.148482
8.30373e-05
0.00369719
0.0001316
0.000360856
9.25472e-05
8.44446e-05
7.89182e-05
8.46337e-05
0.000296549
0.00265973
0.000367232
0.000686852
0.316585
9.12663e-05
7.90427e-05
0.00101575
0.0143263
0.000381653
0.00251585
0.000484526
0.00406004
0.00128503
0.000117355
0.00041012
0.000297582
7.11096e-05
0.000241901
0.000230744
0.000484141
0.00106447
0.00561348
8.9276e-05
6.83201e-05
0.04868
0.0851977
7.94468e-05
0.00184431
0.129211
0.0816829
0.000520922
0.107159
0.000103237
0.00211078
0.000476817
0.172727
0.000118833
0.000524587
0.000144017
0.000206044
0.000420887
8.00985e-05
0.000550388
0.000105578
0.126052
0.000518555
0.000332313
8.14176e-05
9.59288e-05
0.00313877
0.000248405
0.000163726
0.000195321
0.000445824
0.000126115
7.08337e-05
0.320727
0.00408867
0.206844
0.00251293
8.05828e-05
0.209573
0.00274883
9.0071e-05
6.84699e-05
0.000292211
0.000584833
0.000234249
0.00104239
0.001161
0.00243377
0.516213
8.96468e-05
7.30083e-05
0.00150216
0.206739
0.493505
0.0001096
0.245507
0.0479195
0.00545234
0.299803
8.70281e-05
0.45188
0.000190174
0.000127609
0.496385
0.0028209
0.00243022
0.0300217
0.009296
0.811336
0.343703
0.000133027
0.000615572
0.000111683
0.00013531
0.00879895
0.000148692
0.00128775
7.70037e-05
0.000117008
0.000132566
0.667352
1.16777
8.18841e-05
8.7959e-05
0.000114447
0.000104322
0.260702
0.855096
0.000513002
0.000409364
6.83388e-05
0.0013444
0.000121233
0.000489185
9.98356e-05
8.18815e-05
0.00037589
9.9358e-05
0.001066
7.74094e-05
0.000290373
0.000105115
0.001051
0.000525049
0.0134995
7.11264e-05
0.000959591
9.42126e-05
0.00105991
0.0016278
0.00102832
0.00018479
0.00443697
0.0124605
0.0380531
0.00157855
0.000985656
0.00975946
0.00345117
0.00185755
0.00466557
0.00148861
0.174519
0.0443578
0.00020529
0.00139301
0.000361916
0.0271716
0.00351026
0.177185
8.86405e-05
0.000490701
0.00118286
0.00129072
0.00234311
8.25414e-05
0.000126996
0.000346551
0.000155683
0.000127499
0.00398424
0.00132101
0.000294933
0.000543731
0.000847774
0.000107867
0.00665598
0.00698701
9.12529e-05
6.89764e-05
0.000144077
0.000922193
0.000582263
0.000422995
8.39169e-05
8.32015e-05
0.00010825
8.04741e-05
0.0117407
8.2484e-05
0.000110135
8.59228e-05
0.00070053
0.000751773
0.00112974
0.00339369
0.00103512
7.27673e-05
0.000143559
9.15808e-05
7.71334e-05
0.00016791
0.0590114
0.000129476
8.15381e-05
0.000601178
7.80241e-05
8.65254e-05
0.00406163
0.109006
7.11266e-05
6.94204e-05
0.000165342
0.00800007
0.0206777
0.000941333
0.00284292
0.000195235
0.00396583
0.000527079
8.5131e-05
6.77162e-05
0.0040114
0.000331116
0.000110114
6.85834e-05
7.34526e-05
0.000166298
0.137115
0.00153165
7.18515e-05
0.000125146
0.701702
6.80687e-05
0.000409102
6.89818e-05
0.000293645
7.38912e-05
0.000670343
0.000114524
0.000116871
1.63779
0.000694144
0.00108009
0.000399035
8.13726e-05
0.00192602
0.08429
0.000174277
7.72073e-05
1.22697
0.00282555
0.000429712
0.00014656
0.000941552
6.87866e-05
8.76776e-05
0.000105405
8.23714e-05
0.0145751
8.88344e-05
0.000775296
0.244744
8.69431e-05
0.000122305
0.00104238
0.640366
7.11404e-05
0.195192
7.20184e-05
0.225124
0.000752501
0.000232772
9.69597e-05
0.00283255
0.000873131
9.51781e-05
0.000930145
0.000239491
8.39376e-05
0.000110902
0.000250844
7.00504e-05
0.000707528
0.000618707
7.66835e-05
0.000405538
0.00341982
0.00030652
9.19319e-05
0.26601
0.000213165
0.0016003
0.000650673
8.05932e-05
8.92058e-05
0.000333206
0.00124313
0.126925
0.000482911
0.000136029
0.101209
0.0942635
7.17704e-05
0.000590494
8.36169e-05
0.000143526
7.47171e-05
0.000558209
7.54112e-05
0.000752773
0.000139968
0.733061
0.000617467
0.00016309
0.00103053
7.51848e-05
0.000208748
0.000115342
0.410508
0.639408
0.000222637
0.000168394
0.000477123
0.000156048
8.3621e-05
0.00104408
0.0298587
7.49128e-05
0.224943
9.19575e-05
0.00010297
0.00077217
0.000146161
0.00154022
0.0443758
0.000831673
0.00577957
0.000149311
0.000781875
0.000580708
0.000145723
0.00188475
0.000526037
6.87623e-05
0.200065
0.0013644
0.000173132
0.00035388
7.32384e-05
8.23964e-05
0.00219313
7.12302e-05
0.000108721
0.00041785
0.00391447
6.93476e-05
0.000121346
0.092903
0.00195097
0.0654977
0.0195709
0.00143464
0.00175438
0.00957334
0.000887974
0.000695412
0.000652508
0.0134479
0.00130051
7.31827e-05
0.000197202
8.54552e-05
0.00122825
0.000942198
0.00196576
0.419109
0.000170376
0.00395508
0.0494369
8.81368e-05
8.17278e-05
0.000661011
0.00541753
0.206585
7.44299e-05
0.000106564
0.000771341
7.05936e-05
0.0023599
0.744525
0.000639804
0.000410812
0.973101
0.000252075
0.000260779
8.55261e-05
6.90311e-05
0.00919643
0.0043095
0.00142913
0.00374614
0.000115451
0.000150113
0.000151008
0.253168
6.81864e-05
6.88221e-05
0.1472
0.000198559
0.000120122
0.000101243
0.2067
0.000302977
0.110212
8.06095e-05
7.68647e-05
0.00371958
0.0118531
0.00214429
0.000841433
0.00115593
0.000101132
6.98836e-05
0.128725
0.115616
0.109555
0.000108946
0.1112
0.12451
0.000112429
0.000106782
0.000159192
0.0017519
0.000804319
0.000115923
0.0023425
0.00014952
0.123854
0.0916758
0.0373178
0.00694628
0.000110714
0.00257763
0.000356166
0.00215756
0.0464152
7.04161e-05
7.9332e-05
0.000378383
0.00334494
7.28428e-05
0.0135686
0.0101023
0.00330803
0.000104333
0.000977705
0.00130578
6.98724e-05
0.0046248
0.000510091
0.0058272
0.000740601
0.0486808
0.000670136
7.80359e-05
8.16443e-05
0.000370569
0.0331439
7.74122e-05
0.000395153
0.0168931
0.0189241
0.00490504
0.04223
7.55938e-05
0.000273627
0.000135769
0.00594133
0.000285585
0.0017492
7.26524e-05
0.00311662
0.000156966
0.0350821
0.000238952
0.000115517
7.10439e-05
0.0824807
0.0220428
8.60886e-05
0.0548468
6.94165e-05
9.66001e-05
0.000682816
0.00147483
0.00054504
0.000376568
7.68712e-05
0.0100054
0.00175171
0.00015757
0.230262
0.224474
0.00148254
0.000347192
0.00079596
0.000789817
0.0015121
0.000412254
0.0123455
0.000760656
8.34103e-05
0.00117792
0.000722492
0.000167095
0.000188567
7.33828e-05
0.00124761
7.61812e-05
8.42733e-05
8.64656e-05
0.00180417
0.000118393
0.00122426
0.00187467
0.000331539
7.68849e-05
0.000140269
0.00134439
0.0116696
0.000171868
9.20163e-05
0.000208755
6.77252e-05
7.60917e-05
0.00225616
8.92003e-05
7.92872e-05
7.09471e-05
0.000332837
6.74514e-05
7.15761e-05
7.52951e-05
0.00102677
0.00335728
0.00194497
0.0472397
0.00304381
0.00018641
7.3014e-05
8.76576e-05
0.145383
0.0135482
0.00144407
6.79336e-05
6.82278e-05
0.000167184
7.17325e-05
0.0516138
0.00229863
0.000921833
0.0805734
0.000109174
0.000198821
7.70506e-05
0.0600755
0.00341011
0.0688055
0.000167458
0.200735
0.0016339
0.00167607
8.70603e-05
0.066226
0.00171308
0.00978591
0.0019464
0.00229261
0.0021013
9.19118e-05
0.0371819
8.89779e-05
0.399488
0.800913
0.832129
0.000228779
0.00231165
0.00620616
0.00157655
8.78377e-05
0.306704
1.07284
7.22804e-05
0.00173158
8.77211e-05
0.00014309
9.70153e-05
1.08834
0.228874
0.00020952
0.000680641
0.0051151
0.418481
0.0010283
7.35275e-05
0.234815
0.00793393
0.000483907
0.0823216
0.0699782
0.00171056
0.000146744
0.0029565
0.000346073
7.16987e-05
0.000349605
0.000138485
7.755e-05
0.000876588
0.000160592
0.000438801
0.000404134
0.00022942
0.00659286
0.000540084
0.00912014
0.194645
8.91558e-05
0.000400759
0.000776251
0.000873333
9.10264e-05
0.000789952
0.000468114
0.137812
0.00236466
0.000640304
0.000736514
0.00155137
0.000120836
0.000352719
8.04095e-05
0.0437997
0.00561133
0.00337001
0.288075
0.000880768
0.00144906
0.000105462
0.00287488
7.95416e-05
0.000108485
0.00219966
0.00104527
0.000491933
0.000150964
0.000266104
7.79962e-05
0.000597554
0.00364276
8.14255e-05
0.00201017
0.00393848
0.00582496
0.000388274
0.00465995
0.000713571
0.000176904
0.000126306
0.000110811
7.67874e-05
0.00257301
0.00307927
0.000529915
0.000420445
0.000498448
0.000264434
0.000175276
0.00534171
0.000119869
0.000247278
0.00209301
0.000729891
0.460811
0.00196466
0.00160701
7.05517e-05
0.422428
0.0887451
0.000100006
0.0010885
9.02907e-05
0.000212546
0.00238831
7.76289e-05
0.00316211
6.87592e-05
0.00935022
0.000523644
0.000203454
8.77299e-05
0.000535716
0.000987958
9.99997e-05
0.000575194
0.000131312
0.000169104
7.37538e-05
6.78224e-05
0.00646973
0.00027535
0.000113801
0.000512817
0.0517109
0.000104821
7.84892e-05
0.000171151
8.92232e-05
0.00276971
0.0007571
0.00243299
0.00137335
0.000104736
0.00729241
0.060377
0.000433947
0.0002367
0.0458537
0.000334473
0.00297348
0.00059802
7.83496e-05
0.000472875
0.000236388
0.336787
0.000444947
8.32924e-05
7.91882e-05
0.000116592
0.46023
0.00172829
0.0234825
0.000262892
0.00106183
0.0119651
0.000100855
7.26733e-05
0.358825
0.00206498
0.262306
0.000169221
0.000338276
0.144873
0.0146272
0.0010403
0.000304077
0.000130572
0.000650932
6.82175e-05
0.00134674
0.000519744
0.000751707
0.000393895
0.00146568
0.00011624
0.051249
0.553552
0.000949763
0.000845123
6.94174e-05
0.000401891
0.323067
0.00414632
0.000116854
0.000379264
0.000216826
0.148523
0.0010806
0.0541292
0.000260603
9.45358e-05
9.52911e-05
0.00638433
0.0406225
7.04163e-05
7.00916e-05
9.5001e-05
0.00145924
0.000164831
0.000562984
0.0157212
0.000952842
0.000597073
0.00487609
0.110121
0.000809352
6.87154e-05
0.00274281
0.000139445
7.33264e-05
0.00601886
8.74342e-05
0.00531015
7.68695e-05
0.000380212
0.000299633
0.00576103
0.000780319
7.01692e-05
0.00226399
0.000187807
7.0617e-05
0.000371206
0.000101953
8.98617e-05
0.000718986
0.000298293
0.000161576
0.00129141
0.000565492
0.000130926
0.534887
0.000963598
0.000718679
0.011075
0.267732
0.000120796
0.000718123
7.36457e-05
0.000963481
0.000511419
0.00114258
0.00245365
0.179298
0.00133081
0.000234758
0.000114825
0.00367927
0.000159442
0.000561677
0.000115882
0.000123321
0.000800838
0.357609
0.000951353
9.77854e-05
7.85843e-05
9.52778e-05
0.000112399
0.00123137
0.407529
0.000854238
1.3822
8.03846e-05
0.877969
0.000869473
0.302273
0.0046515
0.00239525
1.23337
0.104178
0.000468514
0.00385437
7.28439e-05
0.00341388
0.000107369
0.00240192
0.000301977
0.00612662
0.0863701
0.000789841
0.00297031
8.26636e-05
0.126308
0.000118975
6.97199e-05
7.84744e-05
0.00196407
8.58468e-05
7.27372e-05
0.0218897
0.00140723
0.000173791
0.000138388
0.000145423
7.07001e-05
0.00043266
0.000179875
8.37308e-05
6.89615e-05
0.000147973
9.91909e-05
0.000938866
0.171976
8.48959e-05
0.0161739
0.0131471
0.00210135
0.00266098
0.288633
0.000410759
0.00822125
0.000559208
0.00420816
0.00398348
0.00018816
7.35859e-05
0.000210014
0.00899461
8.27673e-05
0.0240368
0.00035427
0.000736912
7.12752e-05
8.04368e-05
0.000547419
0.00309636
0.000188562
0.000938846
0.000158756
0.000678419
0.000427439
8.81789e-05
0.000414429
0.0223398
0.00698084
0.165585
0.00153993
0.219058
0.000397563
0.00369131
0.00425969
0.00980613
0.000103216
0.00227135
0.000110277
0.0351957
0.00244332
0.00571346
0.00358292
0.00190899
0.000281121
0.00156817
0.000118963
9.38858e-05
0.000887128
0.0199838
8.50299e-05
0.0316177
0.000866642
0.000514491
9.7646e-05
0.000119379
0.000460915
0.000766206
0.000508751
0.00864922
6.9445e-05
0.0177585
0.000958965
0.000121804
0.000192168
0.000876368
0.00148976
0.000998271
0.00581858
0.000415121
0.00222078
0.000493734
0.000341857
0.00015269
0.000546852
0.00193797
0.000143491
0.728202
9.07734e-05
0.000938303
0.000106333
0.00108243
0.000154508
0.00390911
0.00283599
0.00593602
7.67148e-05
7.16899e-05
0.000127995
0.00331364
0.00187136
0.140667
0.00210961
0.0231447
0.172323
0.000128038
0.0272107
9.42232e-05
0.000128316
9.28468e-05
0.000672977
0.000124617
0.0019068
0.00257265
0.000259871
0.00088569
0.00128251
0.00103742
0.000104292
0.000140187
0.000195551
0.000778327
0.000583026
0.00425777
0.000105205
0.00115019
0.00473734
0.0127272
8.00886e-05
0.0123182
6.89384e-05
0.000134284
0.000209716
0.000519073
0.00256446
0.000196444
0.00244718
0.000551716
0.000142293
8.89529e-05
0.000468504
0.00110301
6.75812e-05
0.00160631
0.000849299
0.000180526
7.36682e-05
0.000121643
0.00592185
0.000882616
0.0082195
0.000121966
0.000681373
0.00322433
0.000169783
0.000717453
0.000447962
6.93464e-05
9.36574e-05
0.0355297
0.000328361
0.000637425
9.43072e-05
7.83094e-05
0.00022627
0.000113958
6.81855e-05
8.93801e-05
9.19392e-05
6.82701e-05
0.000122776
0.0022231
0.000370435
9.07252e-05
0.00574262
0.000814816
6.9129e-05
0.000100523
0.000459305
0.0103738
0.00479132
0.0586634
0.00113966
0.00021044
0.0559094
0.00147023
0.0034077
0.00193692
0.00635425
0.000123546
6.80101e-05
0.0819633
0.000161091
0.000422808
0.000280075
6.74716e-05
0.00920903
6.83627e-05
0.000112507
8.89848e-05
0.00113646
7.65255e-05
6.98946e-05