/*--------------------------------*- C++ -*----------------------------------*\
| =========                 |                                                 |
| \\      /  F ield         | OpenFOAM: The Open Source CFD Toolbox           |
|  \\    /   O peration     | Version:  v2012                                 |
|   \\  /    A nd           | Website:  www.openfoam.com                      |
|    \\/     M anipulation  |                                                 |
\*---------------------------------------------------------------------------*/
FoamFile
{
    version     2.0;
    format      ascii;
    class       volScalarField;
    location    "1.004594";
    object      nut;
}
// * * * * * * * * * * * * * * * * * * * * * * * * * * * * * * * * * * * * * //

dimensions      [0 2 -1 0 0 0 0];


internalField   nonuniform List<scalar> 
83563
(
1.75888e-05
2.57284e-05
2.89789e-05
2.21598e-05
3.50181e-05
3.64139e-05
2.13665e-05
0.000184697
6.54165e-05
0.000504364
5.55128e-05
9.77682e-05
0.00204035
1.7841e-05
0.000198291
0.000516764
1.84641e-05
1.78459e-05
0.000158807
1.77731e-05
1.77109e-05
1.77522e-05
0.000222097
0.000960236
1.85146e-05
2.43143e-05
2.17021e-05
0.000542757
2.66396e-05
2.13608e-05
2.23967e-05
9.17702e-06
0.000184365
1.90524e-05
1.78788e-05
6.70167e-05
2.25559e-05
2.65314e-05
2.69154e-05
8.94892e-05
2.01976e-05
6.13549e-05
3.05504e-05
4.19782e-05
5.13216e-05
0.000165104
0.000576711
0.000131338
6.90476e-05
0.00812573
0.00635275
6.98282e-05
0.0015146
0.00198619
5.63432e-05
0.00413114
2.39983e-05
0.00143073
0.00187846
9.02683e-05
0.00183229
0.000723981
4.83596e-05
2.65954e-05
0.00319695
0.00158486
0.00281792
3.23777e-05
9.60184e-06
0.00517646
0.000131039
0.00489509
2.09144e-05
0.00474096
2.76282e-05
0.0113894
0.00124855
2.10743e-05
2.00263e-05
0.00145345
1.85802e-05
1.33823e-05
1.89912e-05
0.000656715
9.39428e-05
1.79149e-05
1.93467e-05
0.000599723
1.93795e-05
3.54371e-05
0.000134924
1.40174e-05
0.000211776
0.000138263
0.000668253
0.000180369
0.00116174
0.000207504
4.87602e-05
0.000119124
5.32156e-05
2.19211e-05
7.39161e-05
2.13401e-05
4.93186e-05
2.72449e-05
3.05341e-05
1.7788e-05
0.000443481
1.79251e-05
0.000159757
5.81927e-05
0.000164958
5.11248e-05
2.55067e-05
1.36454e-05
0.0103767
0.000219958
4.83806e-05
1.22518e-05
3.64254e-05
5.2825e-05
8.42161e-05
0.000888618
0.000113108
1.65261e-05
0.00108943
3.60188e-05
0.000141995
4.6824e-05
0.00865126
0.00164078
5.42834e-05
0.00220605
3.43278e-05
1.78115e-05
8.10008e-05
2.75245e-05
2.30917e-05
0.00368151
6.07342e-05
0.00188435
5.5351e-05
6.78076e-05
0.00446692
0.00196048
5.79006e-05
2.14711e-05
5.25462e-05
2.61956e-05
0.00126718
1.94878e-05
2.54656e-05
9.58954e-05
1.75786e-05
1.57603e-05
1.72749e-05
4.42146e-05
5.92001e-05
7.55607e-05
0.000104432
1.81831e-05
2.34715e-05
1.46106e-05
0.000155818
0.000514563
1.33884e-05
0.0110332
1.56099e-05
0.000181329
1.56745e-05
1.32569e-05
0.00293362
0.000166799
0.0018663
4.3699e-05
4.11345e-05
4.45639e-05
6.88163e-05
1.54853e-05
3.80061e-05
1.98715e-05
9.31555e-05
0.000150125
0.000247691
0.000486538
0.000190302
2.99863e-05
4.6536e-05
1.7145e-05
1.8154e-05
0.000310255
0.000701708
0.000773879
5.73998e-05
0.000924517
4.27391e-05
0.000170476
1.77618e-05
0.000102962
8.93271e-05
6.26997e-05
0.00017598
1.49382e-05
0.000233944
0.000207924
3.14243e-05
0.0125915
1.78653e-05
3.57849e-05
0.000134741
0.000378927
1.59439e-05
1.2416e-05
5.93642e-05
0.000127732
6.55546e-05
1.30797e-05
2.06346e-05
5.96956e-05
2.56391e-05
4.62459e-05
4.18176e-05
4.17733e-05
0.000146256
1.37293e-05
0.000298324
1.84204e-05
2.61624e-05
0.000164749
1.87969e-05
3.0264e-05
1.57649e-05
3.09523e-05
0.00398421
1.77556e-05
0.000116854
1.60079e-05
1.25671e-05
1.94423e-05
0.000121565
8.35875e-05
5.72395e-05
1.34928e-05
5.56707e-05
2.17679e-05
0.0012757
1.34423e-05
0.00229788
4.40713e-05
7.518e-05
3.39452e-05
2.65355e-05
0.000423536
3.90846e-05
3.78606e-05
1.72629e-05
0.0001802
1.86766e-05
2.91454e-05
2.85326e-05
6.64416e-05
0.0066673
0.000105119
3.72699e-05
4.75047e-05
9.52808e-05
5.49104e-05
1.30146e-05
1.53682e-05
5.80248e-05
8.7427e-05
7.50187e-05
4.80047e-05
8.74703e-05
3.78249e-05
0.00018597
0.00014067
2.16799e-05
3.65895e-05
0.000184538
1.62269e-05
1.76699e-05
0.000174968
0.000304417
2.14363e-05
0.000971232
1.64624e-05
1.87765e-05
3.4145e-05
0.000344211
1.51198e-05
0.000194406
1.71225e-05
2.23093e-05
5.2653e-05
7.46156e-05
0.000123322
3.55561e-05
2.98893e-05
2.75993e-05
3.85554e-05
4.94042e-05
1.90797e-05
1.80117e-05
0.000147175
0.000187219
0.00303047
0.000100696
0.000303674
5.49956e-05
0.00010693
0.00124985
0.000325004
0.00306815
4.21995e-05
0.0115869
7.469e-05
1.47696e-05
4.79648e-05
0.000319654
7.19781e-05
1.94606e-05
2.95148e-05
4.97602e-05
1.60422e-05
0.000241339
0.00300471
6.02401e-05
0.00202666
4.96196e-05
2.79568e-05
1.42888e-05
0.00224352
1.67513e-05
1.9339e-05
5.50136e-05
0.00306742
0.000131896
2.169e-05
0.00417616
0.00120938
1.71034e-05
2.13197e-05
4.0987e-05
1.63994e-05
0.000152256
3.93967e-05
0.000181175
2.03034e-05
1.70317e-05
8.88569e-05
3.08251e-05
0.000611843
0.0036968
1.77219e-05
8.58822e-05
8.28515e-05
4.72295e-05
0.000544141
0.011115
0.000492067
0.00510518
0.0119789
0.00656958
0.000306831
0.000335948
0.000123316
0.00555538
1.79422e-05
3.01076e-05
6.78094e-05
0.00015984
0.000558637
0.000481491
6.48881e-05
0.00910202
3.71339e-05
2.28547e-05
2.97975e-05
3.07546e-05
5.92922e-05
2.12158e-05
0.000101455
0.00900669
0.00517702
4.73039e-05
5.78339e-05
0.00858787
6.13378e-05
0.000213509
2.13026e-05
3.21291e-05
0.00683022
0.000162903
0.000173211
7.94551e-05
0.000122746
2.97895e-05
1.67481e-05
0.000515792
1.50698e-05
2.15296e-05
0.0106908
0.00030232
3.40308e-05
0.000411129
3.10512e-05
1.83699e-05
6.14993e-05
0.00313819
0.00013085
1.41765e-05
2.30705e-05
0.00176624
1.94429e-05
2.93929e-05
7.18401e-05
0.00729366
4.15001e-05
1.98089e-05
2.33483e-05
0.00274824
1.64586e-05
0.00013618
0.00341721
5.63479e-05
0.000227457
1.42413e-05
5.23331e-05
2.87507e-05
0.000159979
6.63894e-05
2.75279e-05
0.00613764
0.000140977
0.0136504
1.89989e-05
9.98838e-05
0.000648803
0.000209423
9.07332e-05
0.0103402
1.62497e-05
0.000538619
6.62704e-05
7.9204e-05
0.00085186
0.00121337
0.00764406
0.000516588
2.55914e-05
4.74623e-05
3.16489e-05
0.000148491
0.000213644
0.000287164
1.71625e-05
2.27573e-05
9.52811e-05
1.51693e-05
0.00165598
2.67152e-05
2.05952e-05
2.55128e-05
3.04125e-05
1.72269e-05
3.09848e-05
4.41321e-05
7.53411e-05
8.91274e-05
6.27045e-05
2.54368e-05
0.000127921
4.69593e-05
0.000168723
4.92143e-05
4.62337e-05
5.78343e-05
2.52814e-05
5.21549e-05
2.35117e-05
5.28347e-05
5.54551e-05
1.34464e-05
6.91056e-05
5.25439e-05
0.000153427
0.00570827
1.63448e-05
1.4619e-05
3.52901e-05
5.21313e-05
0.00193322
0.000283425
5.97731e-05
3.21319e-05
4.10468e-05
3.25426e-05
2.22853e-05
1.74053e-05
6.40586e-05
2.69872e-05
2.00195e-05
5.41148e-05
1.62025e-05
4.51452e-05
5.69973e-05
2.86427e-05
6.22769e-05
1.50979e-05
2.25948e-05
1.82714e-05
1.79598e-05
2.40914e-05
1.69434e-05
4.93567e-05
0.00320266
0.00338468
2.49537e-05
4.67104e-05
0.000138225
8.32705e-05
6.928e-05
0.00011027
2.33144e-05
5.67451e-05
0.00305934
2.02397e-05
2.28599e-05
1.8598e-05
1.84641e-05
4.43065e-05
2.57301e-05
2.50179e-05
2.17781e-05
0.00293514
0.000332024
8.5033e-05
0.00247762
5.5284e-05
1.1956e-05
0.0010144
4.17052e-05
0.000218127
0.000227781
2.50496e-05
0.000412116
0.000703815
4.76119e-05
4.78708e-05
3.08891e-05
8.24745e-05
4.553e-05
1.31928e-05
8.35813e-05
0.000945759
0.00776591
0.000701327
1.78773e-05
8.05675e-05
0.00481882
2.49617e-05
0.000111097
0.000521839
2.19494e-05
0.000538342
2.02019e-05
1.4054e-05
0.000125253
0.00436186
7.37558e-05
2.41804e-05
5.70422e-05
0.000676415
0.000109211
2.45271e-05
2.10892e-05
1.93095e-05
2.54444e-05
2.27399e-05
0.000168943
0.0064041
5.49187e-05
2.15987e-05
2.76654e-05
1.87979e-05
4.61918e-05
1.77742e-05
0.00029444
1.808e-05
1.72718e-05
1.81892e-05
2.25889e-05
4.5326e-05
1.85027e-05
2.03926e-05
2.12174e-05
1.78666e-05
1.43327e-05
4.07472e-05
1.84187e-05
1.88441e-05
1.82259e-05
3.25814e-05
3.63274e-05
0.000598385
2.60731e-05
2.26715e-05
2.16051e-05
2.65358e-05
1.56516e-05
1.81821e-05
3.67564e-05
0.0014023
2.78302e-05
5.33229e-05
7.02385e-05
0.000115765
0.000124598
0.0001715
0.00319461
4.53468e-05
1.68795e-05
1.63334e-05
3.61339e-05
6.00073e-05
2.16352e-05
3.45222e-05
1.80115e-05
5.86235e-05
3.71953e-05
2.99434e-05
7.71331e-05
1.93581e-05
0.000591259
5.69565e-05
6.47702e-05
1.80682e-05
2.45464e-05
2.72822e-05
0.000245645
0.000289501
1.54536e-05
5.83776e-05
1.81813e-05
1.87751e-05
6.21823e-05
0.00214229
4.89671e-05
4.09296e-05
6.41017e-05
0.000134896
9.17734e-05
0.000192947
3.2027e-05
0.000270898
1.33353e-05
1.85831e-05
5.08293e-05
2.2188e-05
0.00223772
4.30631e-05
5.1982e-05
0.0012812
1.77931e-05
3.85598e-05
1.97732e-05
2.02546e-05
0.000322114
5.83764e-05
5.26367e-05
2.11577e-05
9.44841e-05
0.000173474
4.18869e-05
0.000619078
3.77082e-05
4.36469e-05
0.00070549
0.00159474
7.00975e-05
0.000207756
0.00135913
1.73356e-05
8.73654e-05
0.000242528
0.000125856
0.000419594
3.24731e-05
4.08289e-05
7.78144e-05
2.58899e-05
0.000237646
0.000124458
0.00134499
5.7946e-05
0.000347656
3.40172e-05
2.11826e-05
5.19754e-05
3.15686e-05
1.81415e-05
7.63361e-05
0.00103916
0.000130442
1.14776e-05
4.61952e-05
5.23191e-05
8.48127e-05
1.79326e-05
9.01276e-05
1.78115e-05
2.53836e-05
0.000106089
1.53322e-05
2.05608e-05
2.48804e-05
9.24845e-05
0.0128767
1.86451e-05
0.00084031
2.42289e-05
8.26122e-05
1.54924e-05
7.65457e-05
0.00236849
0.000738405
3.24143e-05
0.00396527
1.30143e-05
1.84874e-05
2.11472e-05
0.000373626
0.00150243
0.00014378
2.40671e-05
3.60004e-05
0.00129097
1.25585e-05
3.25605e-05
5.03219e-05
1.56185e-05
8.8602e-05
5.73954e-05
3.55462e-05
8.89532e-05
0.000519848
0.00161152
2.71602e-05
3.57728e-05
4.25241e-05
1.76509e-05
0.00383224
8.29802e-05
0.000188523
1.76897e-05
2.19813e-05
0.000203999
4.88153e-05
2.8026e-05
2.13108e-05
4.36653e-06
1.50917e-05
8.24575e-05
3.7335e-05
1.77656e-05
2.44982e-05
7.73729e-05
0.000185583
3.61736e-05
1.89267e-05
1.29965e-05
9.93169e-05
2.46595e-05
5.93115e-05
2.20433e-05
0.000552091
1.96056e-05
3.35173e-05
5.30036e-05
0.00748161
0.00372253
0.00339294
2.12802e-05
0.00245881
2.81058e-05
0.000156484
2.70497e-05
4.97837e-05
5.48504e-05
0.00110391
2.96946e-05
0.00333157
8.8298e-05
7.09739e-05
0.000114604
2.93488e-05
2.32077e-05
2.62576e-05
0.000114754
1.77489e-05
0.000107648
1.61337e-05
1.30949e-05
2.13687e-05
8.37856e-05
0.001343
0.000656897
0.000117886
1.79973e-05
4.62156e-05
0.00106542
0.000499241
0.000438462
0.000436328
1.92015e-05
0.00032685
1.50753e-05
1.73095e-05
0.000271783
2.54573e-05
0.000748089
0.000218885
4.21033e-05
9.96142e-05
0.000102357
0.000119902
1.84971e-06
2.94453e-05
1.67125e-05
0.0127297
3.78351e-05
0.00079078
4.18923e-05
1.78073e-05
1.7966e-05
4.64853e-05
2.96591e-05
7.43239e-05
2.73151e-06
2.83686e-05
2.20743e-05
1.8218e-05
4.43157e-05
2.38291e-06
0.000302706
3.80638e-05
0.000176964
0.00375157
0.000201665
1.41509e-05
1.32053e-05
1.84945e-05
2.41039e-05
1.88852e-05
2.40834e-05
0.000159022
0.000107048
5.86249e-05
1.72606e-05
2.92591e-05
2.41434e-05
1.46621e-05
0.000164291
4.1917e-05
0.000365065
4.52847e-05
4.43244e-05
1.44009e-05
6.53504e-05
0.000324197
0.00030754
3.72809e-05
3.54569e-05
7.32934e-05
4.36934e-05
1.73053e-05
2.37383e-05
2.49974e-05
1.77328e-05
4.05195e-05
3.08453e-05
1.17107e-05
1.6811e-05
0.00370245
0.000144722
2.87439e-05
0.00101842
0.0017569
1.60738e-05
0.00029865
1.62098e-05
2.32137e-05
1.89323e-05
1.7892e-05
0.000101986
1.64065e-05
0.000136789
0.000171241
2.1331e-05
1.33423e-05
3.88856e-05
0.000141054
1.49557e-05
4.05392e-05
4.65112e-05
1.66902e-05
3.24545e-05
0.000151105
1.20435e-05
2.02632e-05
1.51571e-05
3.33531e-05
2.95564e-05
0.00286343
0.00122029
1.62616e-05
0.00124604
1.79171e-05
6.76533e-05
0.000177585
8.10839e-05
0.000174991
7.96127e-05
2.65049e-05
8.86893e-05
3.18378e-05
0.00082765
3.27947e-05
0.000476949
0.000321413
0.000124262
0.00010495
0.00150129
8.60882e-05
0.000764657
3.05698e-05
9.58733e-05
0.00115522
0.000119789
3.41727e-05
0.000144548
4.58813e-05
1.93064e-05
1.79127e-05
5.59902e-05
8.99023e-05
4.36527e-05
2.59711e-05
1.19454e-05
1.23143e-05
1.98764e-05
1.98027e-05
1.7893e-05
9.87369e-05
0.0010059
1.72122e-05
1.75103e-05
1.78853e-05
9.91032e-05
1.78975e-05
3.13944e-05
1.79612e-05
0.000109034
0.000146281
5.62914e-05
1.73574e-05
0.000497239
4.29737e-05
0.000184488
4.33972e-05
2.96771e-05
2.77166e-05
3.74579e-05
0.000131961
1.19689e-05
3.75268e-05
1.89375e-05
4.77576e-05
2.49495e-05
5.23386e-05
3.58875e-05
2.02899e-05
2.41965e-05
6.37064e-05
0.000151915
0.000146797
2.80208e-05
4.99241e-05
0.000513636
8.56055e-05
1.54077e-05
2.53093e-05
2.14847e-05
0.000300937
0.000200351
7.94338e-05
0.000109101
0.000554244
4.82748e-05
1.7954e-05
1.75852e-05
2.60151e-05
0.000890496
2.73415e-05
0.000271585
0.000213778
0.000426464
3.86371e-05
3.32297e-05
2.22329e-05
5.04105e-05
1.32675e-05
3.50161e-05
0.00475069
3.76522e-05
0.000114562
0.000373856
0.0130596
8.99089e-05
2.83106e-05
0.000321794
0.000104851
9.75705e-05
1.89993e-05
1.7725e-05
0.000169347
2.62103e-05
1.70076e-05
0.000140185
0.000600813
3.13826e-05
4.55918e-05
4.34472e-05
1.76256e-05
3.55128e-05
2.11625e-05
3.77119e-05
2.57325e-05
2.53281e-05
0.000103999
1.67404e-05
0.000166138
2.1798e-05
0.000145642
4.8888e-05
2.81237e-05
0.00546063
2.72821e-05
0.00565504
0.00164141
1.19648e-05
1.88593e-05
1.906e-05
0.000101616
1.67871e-05
7.31519e-05
1.83873e-05
0.0038959
1.94835e-05
0.00100777
0.00022506
0.00206553
5.72662e-05
1.48362e-05
8.46217e-05
4.11335e-05
5.60413e-05
9.62361e-05
5.04034e-05
7.0239e-05
0.00327717
2.19795e-05
0.00237495
5.84606e-05
2.27275e-05
4.5777e-05
8.20083e-05
0.00894021
1.81729e-05
8.61171e-05
0.000313126
1.77338e-05
8.44185e-05
0.00877883
2.57025e-05
0.000135221
3.94353e-05
0.000589711
0.000283326
0.000150658
0.000115129
7.47928e-05
7.5732e-05
0.000152477
1.94494e-05
0.000107529
0.000113766
7.25204e-05
0.000145976
2.06355e-05
0.000162382
6.00221e-05
6.29671e-05
1.72172e-05
5.91568e-05
1.74404e-05
7.59551e-05
1.94248e-05
1.5578e-05
2.28352e-05
3.77629e-05
1.79977e-05
0.000305383
2.69813e-05
9.26646e-05
2.45564e-05
9.81178e-05
5.82103e-05
0.00204789
1.86273e-05
2.96774e-05
1.36401e-05
0.00010697
3.8e-05
0.000372416
1.76777e-05
0.000287633
2.54897e-05
1.7797e-05
0.000126155
4.63441e-05
2.80507e-05
1.5228e-05
1.89343e-05
1.79109e-05
0.000299285
2.9928e-05
4.74349e-05
1.69891e-05
2.96709e-05
1.52872e-05
1.85734e-05
6.46257e-05
4.33693e-05
5.77262e-05
0.000109101
3.74761e-05
1.8424e-05
4.40821e-05
2.37422e-05
2.25047e-05
2.14024e-05
1.81786e-05
8.05362e-05
1.68791e-05
1.78554e-05
1.37209e-05
3.41013e-05
0.000219918
2.41624e-05
0.000520881
2.21209e-05
2.15166e-05
1.95695e-05
2.66806e-05
3.77787e-05
3.94925e-05
2.5252e-05
2.10102e-05
3.20554e-05
0.00011186
3.51895e-05
5.02291e-05
5.54122e-05
9.64116e-05
3.48236e-05
0.00019136
1.61357e-05
4.36187e-05
3.12475e-05
0.000266476
1.68085e-05
1.88719e-05
1.51908e-05
1.65116e-05
6.86953e-05
0.000324389
3.10396e-05
0.000122371
0.013378
0.00372977
0.0102199
0.000446842
0.0139344
1.67761e-05
1.54894e-05
2.53354e-05
0.000141641
2.96482e-05
0.00223168
4.54138e-05
1.26476e-05
0.000118984
0.000214696
1.88656e-05
0.00010057
0.000104105
5.46629e-05
2.8063e-05
6.8572e-05
1.63374e-05
2.35997e-05
0.000341916
1.77806e-05
0.000125036
0.00174654
0.000115224
6.00169e-05
1.81026e-05
2.58709e-05
2.8994e-05
0.000198692
1.57832e-05
0.000180399
7.48897e-05
0.00023812
0.000286679
2.16855e-05
1.25977e-05
1.94304e-05
6.24696e-05
3.22556e-05
4.97562e-05
1.42428e-05
2.93571e-05
0.000334417
2.22942e-05
1.88913e-05
1.57619e-05
2.544e-05
1.49231e-05
6.28399e-05
1.38971e-05
0.000140537
8.96608e-05
1.9719e-05
4.15858e-05
7.31391e-05
0.00569339
3.46615e-05
1.61142e-05
1.40707e-05
9.97246e-05
0.00111223
0.000220464
6.12136e-05
1.79671e-05
6.69696e-05
0.000120254
4.83519e-05
7.60157e-05
4.10292e-05
1.93999e-05
0.00024222
1.5737e-05
4.2501e-05
4.81817e-05
1.85988e-05
8.97676e-05
0.000101975
2.9671e-05
2.39657e-05
0.000250364
6.48442e-05
2.18467e-05
9.1369e-05
0.000611513
7.55775e-05
0.00487852
5.49526e-05
1.57588e-05
6.30725e-05
0.00321422
9.59849e-05
4.92438e-05
0.000148541
1.93212e-05
0.00292118
5.00104e-05
1.56574e-05
1.85405e-05
3.48286e-05
1.6895e-05
3.90926e-05
0.000114191
4.82526e-05
4.66816e-05
3.6207e-05
0.000190762
0.000285088
1.76989e-05
9.32152e-05
4.28396e-05
1.84754e-05
2.24961e-05
2.71122e-05
0.000192491
2.81988e-05
1.78783e-05
1.90454e-05
0.0015139
1.62911e-05
1.39534e-05
1.61163e-05
9.64988e-05
0.0112605
1.79164e-05
0.00137323
2.87477e-05
2.06024e-05
0.00230913
3.34083e-05
0.00263122
0.0103453
5.01932e-05
5.02326e-05
0.0144369
4.88553e-05
0.0123671
8.9818e-05
4.14946e-05
1.76895e-05
1.79595e-05
4.68169e-05
0.000635963
1.76766e-05
0.000145317
1.70121e-05
2.13753e-05
0.000134514
2.33983e-05
4.14637e-05
1.56712e-05
0.000115799
0.0168795
3.26688e-05
0.000162316
0.000137266
4.38418e-05
0.000129193
4.85117e-05
7.69785e-05
0.000115039
6.57022e-05
2.87689e-05
0.00168423
2.33359e-05
4.98728e-05
1.93158e-05
3.04226e-05
2.33955e-05
2.94727e-05
1.95575e-05
1.75147e-05
4.27211e-05
2.86626e-05
3.57375e-05
2.47535e-05
1.78209e-05
4.07201e-05
0.00831704
0.000116453
1.77703e-05
2.4203e-05
0.00208467
3.68537e-05
0.0110702
0.000201342
1.87791e-05
2.11195e-05
1.6179e-05
1.97478e-05
0.00859945
2.41664e-05
5.11014e-05
5.16062e-05
0.00017362
3.68348e-05
1.54314e-05
4.61833e-05
0.00273598
1.79111e-05
0.0101798
9.12822e-05
0.000177329
0.000159424
2.4109e-05
2.58966e-05
2.36545e-05
0.000162969
0.000129032
0.00015489
0.000139103
1.93784e-05
1.75857e-05
1.88459e-05
3.40963e-05
4.09591e-05
0.00012126
1.99156e-05
9.27546e-05
2.81256e-05
6.78813e-05
4.17828e-05
6.04872e-05
3.82824e-05
2.83374e-05
1.8697e-05
2.86522e-05
5.84646e-05
1.66909e-05
4.01431e-05
2.37438e-05
1.64225e-06
4.76498e-05
1.36045e-05
3.06581e-05
3.5627e-05
7.80082e-05
0.00011494
3.87034e-05
2.72705e-05
0.000110483
0.0142434
1.49219e-05
3.11119e-05
0.00262171
1.86151e-05
3.55439e-05
1.78696e-05
2.45494e-05
1.94442e-05
1.78257e-05
2.16867e-05
2.70892e-05
0.004286
2.78505e-05
5.41323e-05
2.55771e-05
2.38198e-05
0.000186375
1.7544e-05
8.61958e-05
4.47445e-05
0.000149236
0.0023013
3.33427e-05
4.42327e-05
1.4794e-05
5.13353e-05
0.0010653
1.22516e-05
1.79763e-05
0.000161192
5.6382e-05
0.00414693
0.000338382
4.12524e-05
1.7564e-05
9.07012e-05
3.17283e-05
0.00415562
1.70533e-05
2.57885e-05
0.00019311
0.00279002
1.99e-05
0.00496299
0.000109429
0.00012345
0.000156014
0.00012242
2.58573e-05
0.00453746
0.00018442
3.01706e-05
9.62342e-05
1.37885e-05
0.00013018
0.00277407
0.000104512
2.01795e-05
1.58986e-05
0.000303715
0.000141323
4.27202e-05
2.39224e-05
0.000167322
9.07562e-05
4.10246e-05
1.24702e-05
3.49661e-05
0.00238788
1.47462e-05
9.08662e-05
2.23074e-05
2.92074e-05
1.44725e-05
1.98272e-05
2.16637e-05
2.00712e-05
3.23145e-05
0.000110424
4.32449e-05
6.1468e-05
0.010025
1.59328e-05
1.76416e-05
6.72723e-05
0.00049697
3.93637e-05
0.00018526
3.40228e-05
0.000134499
7.97954e-05
2.17775e-05
4.19233e-05
3.66005e-05
1.69354e-05
3.57153e-05
1.81388e-05
4.69421e-05
5.69885e-05
0.000204844
1.71968e-05
1.77618e-05
0.00122744
0.00171532
1.79766e-05
8.07495e-05
0.00222625
0.00207127
3.69202e-05
0.00195569
2.25457e-05
8.4616e-05
3.06302e-05
0.00169097
1.25228e-05
5.09263e-05
2.22625e-05
3.29371e-05
7.46723e-05
1.90268e-05
8.54719e-05
1.31088e-05
0.00453289
4.00117e-05
2.06346e-05
1.51935e-05
3.80246e-05
0.000109323
3.57198e-05
1.87015e-05
3.09594e-05
6.61246e-05
3.20626e-05
1.79339e-05
0.0110512
0.000158602
0.00802495
9.70018e-05
1.75089e-05
0.00860446
0.000102764
1.91406e-05
1.77763e-05
1.96964e-05
3.82353e-05
1.8336e-05
5.43319e-05
5.59495e-05
9.53428e-05
0.00498139
2.04741e-05
1.84684e-05
4.79636e-05
0.0105777
0.014546
2.14269e-05
0.00849684
0.00185603
0.000232401
0.00939384
2.03875e-05
0.0121686
2.82045e-05
2.41131e-05
0.0149478
0.000121733
0.000105507
0.00208837
0.00023081
0.00666316
0.00486226
2.57567e-05
4.13205e-05
1.54264e-05
1.555e-05
0.000205982
2.42347e-05
5.95645e-05
1.60404e-05
1.37285e-05
1.26719e-05
0.00470319
0.0079595
1.58702e-05
2.09292e-05
1.21004e-05
4.30573e-05
0.00467864
0.00681954
4.75737e-05
6.29795e-05
1.76771e-05
7.54509e-05
2.35738e-05
6.88307e-05
4.02862e-05
1.86137e-05
3.87733e-05
3.44899e-05
5.62172e-05
2.36284e-05
2.41294e-05
3.72782e-05
5.07566e-05
4.01671e-05
0.000298675
1.81965e-05
6.01136e-05
4.67488e-05
6.00464e-05
8.68001e-05
5.92429e-05
1.65752e-05
0.000175116
0.000397283
0.000749822
8.39724e-05
7.30098e-05
0.000221621
0.000144723
9.64162e-05
0.000185292
8.58069e-05
0.00278789
0.000695567
2.35518e-05
7.85101e-05
3.15489e-05
0.000497358
0.000131672
0.00199411
1.31544e-05
3.60449e-05
6.27143e-05
6.89035e-05
0.000106758
1.9011e-05
3.63417e-05
2.57253e-05
5.62974e-05
2.06416e-05
0.000172278
6.73541e-05
2.35295e-05
3.13565e-05
5.84539e-05
2.70773e-05
0.000196878
0.000177864
3.87258e-05
1.76491e-05
1.76621e-05
5.81822e-05
3.57382e-05
4.69428e-05
1.82335e-05
1.99709e-05
2.71628e-05
1.95209e-05
0.000284836
1.86473e-05
2.34485e-05
1.42521e-05
4.40901e-05
5.05203e-05
5.3615e-05
2.06071e-05
6.78276e-05
1.80676e-05
2.55916e-05
3.53616e-05
1.57107e-05
1.46359e-05
0.00257757
2.29838e-05
1.95827e-05
4.0565e-05
2.43718e-05
2.20908e-05
0.00024569
0.00263394
1.88418e-05
1.8046e-05
2.88531e-05
0.000250687
0.000616845
5.00305e-05
0.000149542
3.16821e-05
0.00019929
4.09743e-05
1.89837e-05
1.76666e-05
0.000172538
2.39824e-05
1.23255e-05
1.77953e-05
1.77534e-05
2.12062e-05
0.00170647
0.000183473
1.82206e-05
5.92665e-05
0.00430307
1.77161e-05
4.60818e-05
1.7851e-05
3.08307e-05
1.59099e-05
6.21842e-05
2.28388e-05
1.45954e-05
0.00801251
5.48876e-05
7.44923e-05
4.6076e-05
1.96322e-05
9.76791e-05
0.00444817
2.92117e-05
1.89306e-05
0.00655972
9.87186e-05
3.65238e-05
2.20458e-05
6.19679e-05
1.7735e-05
1.61849e-05
6.85958e-05
1.98753e-05
0.000418018
1.98469e-05
5.27989e-05
0.00268964
3.9691e-05
3.78051e-05
6.78842e-05
0.00523138
1.81636e-05
0.00260982
1.82986e-05
0.00358832
4.63978e-05
2.0805e-05
1.5004e-05
0.000115987
5.42971e-05
2.79069e-05
6.15746e-05
2.53507e-05
1.96505e-05
1.53816e-05
2.64291e-05
1.80295e-05
4.92868e-05
4.68646e-05
2.21342e-05
3.67137e-05
0.000120661
3.14066e-05
1.9299e-05
0.00315788
2.32489e-05
9.01366e-05
0.000143912
1.95814e-05
1.90515e-05
3.771e-05
8.85123e-05
0.00264062
4.29672e-05
2.79805e-05
0.00282422
0.00254138
1.77044e-05
5.47283e-05
4.40595e-05
2.16984e-05
1.73247e-05
4.55384e-05
2.54975e-05
5.18028e-05
2.64179e-05
0.0046691
5.53805e-05
2.05713e-05
6.77457e-05
1.80842e-05
2.51205e-05
1.98781e-05
0.00789127
0.0162527
2.71671e-05
2.31492e-05
4.54615e-05
1.58575e-05
1.63952e-05
6.04625e-05
0.00105587
1.69775e-05
0.00312839
2.10946e-05
2.24501e-05
5.70243e-05
2.74517e-05
7.47808e-05
0.00150835
5.17262e-05
0.000220743
1.33685e-05
4.195e-05
5.71724e-05
2.48997e-05
0.000104853
4.67329e-05
1.78154e-05
0.00258088
6.57746e-05
4.30049e-05
2.84467e-05
1.7717e-05
1.79594e-05
0.000100429
1.80265e-05
2.01794e-05
4.36686e-05
0.000171972
1.85519e-05
2.76405e-05
0.00173533
0.000102725
0.00119786
0.000389084
5.55494e-05
8.89985e-05
0.000442593
3.91509e-05
4.13718e-05
4.50852e-05
0.000291107
6.43433e-05
1.74581e-05
2.99874e-05
2.96538e-05
7.39476e-05
3.7231e-05
0.000100769
0.00200699
2.39202e-05
0.000141988
0.00170873
1.99937e-05
1.91493e-05
4.26613e-05
0.000178635
0.0027299
1.85621e-05
1.51679e-05
4.90773e-05
1.81069e-05
0.000105955
0.00322872
4.23891e-05
4.51494e-05
0.00463776
2.74816e-05
3.6015e-05
2.02241e-05
1.76525e-05
0.000421386
0.000164076
8.30545e-05
0.000175095
5.42039e-05
1.40213e-05
2.15607e-05
0.00971528
1.77381e-05
1.78303e-05
0.00190331
2.7012e-05
4.60092e-05
2.00445e-05
0.0017576
2.01888e-05
0.00217124
1.92447e-05
1.55174e-05
0.000129465
0.000558762
0.000121218
5.32574e-05
9.50415e-05
2.22149e-05
1.78523e-05
0.00225148
0.00189245
0.000754532
1.97158e-05
0.00112437
0.000805713
2.28024e-05
1.50939e-05
1.64607e-05
7.06694e-05
4.98796e-05
1.54524e-05
0.000110931
6.05401e-05
0.00160208
0.00110324
0.00080528
0.000195518
1.5751e-05
0.000128703
2.01446e-05
9.35555e-05
0.00189197
1.71235e-05
1.85969e-05
2.78524e-05
0.00010957
1.73692e-05
0.000545614
0.000406709
0.000135531
1.96048e-05
6.19532e-05
6.99058e-05
1.81122e-05
0.000157948
4.86941e-05
0.000219979
4.74684e-05
0.000861448
3.69582e-05
1.74705e-05
1.59378e-05
2.2075e-05
0.000434921
1.65804e-05
2.61742e-05
0.00110076
0.000625916
0.000198871
0.00115378
1.87073e-05
3.80402e-05
1.372e-05
0.000177563
2.72096e-05
9.70949e-05
2.02594e-05
0.000100973
1.53403e-05
0.00102771
2.94784e-05
1.47747e-05
1.81555e-05
0.0021129
0.000397861
1.4026e-05
0.000921109
1.78553e-05
1.84475e-05
3.38052e-05
8.14174e-05
4.49124e-05
3.47715e-05
1.82602e-05
0.00034658
7.87756e-05
2.01505e-05
0.00981088
0.00920806
7.43288e-05
3.33359e-05
7.21896e-05
5.4406e-05
7.26986e-05
4.54344e-05
0.0003129
6.3419e-05
1.58119e-05
6.96484e-05
4.28497e-05
2.15695e-05
2.62624e-05
1.73092e-05
6.56139e-05
1.59984e-05
4.39852e-05
3.13206e-05
0.000102001
1.46217e-05
6.33645e-05
8.46352e-05
1.81896e-05
1.63021e-05
1.47252e-05
6.77393e-05
0.000278562
1.76632e-05
3.81482e-05
1.79353e-05
1.79018e-05
2.17911e-05
9.05542e-05
3.75609e-05
2.39523e-05
1.8174e-05
3.05306e-05
1.76399e-05
1.83603e-05
1.87666e-05
5.32223e-05
0.000118925
9.31608e-05
0.000741739
0.000133887
2.95388e-05
1.84374e-05
3.4007e-05
0.00165816
0.000127254
7.7126e-05
1.76986e-05
1.77405e-05
2.04746e-05
1.76262e-05
0.00110892
9.95089e-05
5.78221e-05
0.00215168
6.92463e-05
3.32195e-05
1.78604e-05
0.00139519
0.000128188
0.00101494
1.54208e-05
0.0028128
7.46581e-05
8.12573e-05
1.41661e-05
0.00105785
8.38112e-05
0.000328244
9.12231e-05
0.000123483
9.21804e-05
2.02857e-05
0.000923138
1.66226e-05
0.00530831
0.00746083
0.00747484
1.83899e-05
9.4143e-05
0.000241753
7.76254e-05
1.72044e-05
0.0046715
0.00845355
1.833e-05
7.55448e-05
1.71149e-05
1.43309e-05
1.38174e-05
0.00889251
0.0102001
2.70658e-05
4.81194e-05
0.000274071
0.0122548
8.47003e-05
1.99253e-05
0.0104354
0.000184158
5.07999e-05
0.00356641
0.00202503
8.07315e-05
2.3808e-05
0.00010495
2.39672e-05
1.70809e-05
2.29079e-05
2.63848e-05
1.70301e-05
7.70959e-05
2.35096e-05
3.95352e-05
4.21657e-05
3.32416e-05
0.000224725
3.28777e-06
0.000551657
0.00333794
1.39464e-05
2.76228e-05
5.0231e-06
6.90174e-05
1.53627e-05
5.05533e-05
2.32583e-05
0.00195871
0.000113402
3.91884e-06
4.6963e-05
8.64248e-05
6.61124e-05
2.50509e-06
1.73098e-05
0.00110049
0.00015491
0.000143317
0.00880596
5.94989e-05
7.91239e-05
1.41238e-05
0.000133317
1.94176e-05
1.34276e-05
0.000106536
6.26396e-05
4.0485e-05
2.56411e-05
2.88107e-05
1.69551e-05
4.70753e-05
0.000171034
1.66402e-05
8.18218e-05
0.000163296
0.000209272
3.5974e-05
0.000158347
5.19466e-06
3.36155e-05
1.2682e-05
2.22058e-05
1.89959e-05
0.000114722
0.00012861
3.63126e-05
3.15837e-05
3.46182e-05
4.66123e-05
2.39092e-05
0.000209263
1.49718e-05
3.89617e-05
9.58827e-05
4.60692e-05
0.0137864
9.22948e-05
8.42989e-05
1.80045e-05
0.0129217
0.00218199
2.31142e-05
7.37199e-05
4.58069e-05
4.17377e-05
0.000110015
1.7452e-05
0.000165139
1.78178e-05
0.00045063
2.70993e-05
3.15534e-05
1.50482e-05
5.0231e-05
6.58101e-05
1.8683e-05
4.4222e-05
1.60636e-05
2.46805e-05
1.85494e-05
1.76869e-05
0.000213112
2.35602e-05
2.3461e-05
2.7739e-05
0.00102549
4.30045e-05
1.69933e-05
3.02658e-05
1.64321e-05
0.000111392
6.70794e-05
0.0001028
7.31839e-05
2.27214e-05
0.000281444
0.000662247
3.20567e-05
3.13094e-05
0.0011731
2.12434e-05
0.000243182
4.4516e-05
1.91852e-05
2.61564e-05
1.57192e-05
0.00631955
3.77419e-05
1.52167e-05
1.43024e-05
1.75266e-05
0.00338311
7.93092e-05
0.000387558
2.44469e-05
6.70004e-05
0.00027433
1.45106e-05
1.83686e-05
0.00305443
9.58785e-05
0.00301477
2.7954e-05
1.80798e-05
0.00163713
0.000292815
5.90745e-05
4.12124e-05
1.41292e-05
3.92561e-05
1.77249e-05
7.66671e-05
4.1728e-05
4.65101e-05
4.43906e-05
8.69109e-05
2.38987e-05
0.00141711
0.012218
6.84444e-05
4.74072e-05
1.79182e-05
4.5934e-05
0.0107205
0.000129185
1.9794e-05
3.43581e-05
3.12232e-05
0.00182219
7.2012e-05
0.000908879
3.39168e-05
1.88762e-05
1.912e-05
0.000226565
0.000387193
1.78929e-05
1.80201e-05
4.93261e-05
5.58087e-05
2.38828e-05
4.10125e-05
0.000404935
5.33561e-05
4.2317e-05
0.000164617
0.00223629
5.08736e-05
1.78225e-05
0.000112976
2.22179e-05
1.64223e-05
0.000231454
2.05153e-05
0.000187157
1.66868e-05
2.70895e-05
2.44054e-05
0.000223392
4.95618e-05
1.80491e-05
0.000108568
2.49734e-05
1.80973e-05
2.78708e-05
2.12139e-05
2.03323e-05
6.67078e-05
3.5631e-05
2.58034e-05
8.09576e-05
4.73549e-05
2.42778e-05
0.00602093
9.35314e-05
4.75537e-05
0.000315256
0.00511414
2.70738e-05
5.69557e-05
1.81208e-05
7.13084e-05
3.16245e-05
8.21586e-05
0.000100923
0.00865921
0.00010995
2.95892e-05
4.93972e-05
0.000141808
2.13791e-05
4.37091e-05
1.81235e-05
2.45156e-05
5.24381e-05
0.00454373
5.26433e-05
2.10127e-05
1.92599e-05
6.90871e-05
2.37176e-05
7.04266e-05
0.00490449
4.99899e-05
0.00979721
1.94849e-05
0.00769372
6.3677e-05
0.00420389
0.000175664
0.000103924
0.00932225
0.00271198
3.76415e-05
0.000186825
1.8347e-05
0.000163825
1.54031e-05
9.6744e-05
2.11181e-05
0.000251027
0.00525489
4.85826e-05
0.000117236
1.3936e-05
0.0022709
1.54462e-05
1.79605e-05
2.63588e-05
8.63033e-05
1.92991e-05
1.75638e-05
0.00067875
8.29598e-05
1.46497e-05
1.63231e-05
5.38498e-05
1.78582e-05
4.25687e-05
1.82501e-05
2.01126e-05
1.78223e-05
3.76672e-05
1.25132e-05
5.47695e-05
0.0053779
1.73653e-05
0.000394574
0.000277549
0.000105111
0.000113164
0.0031242
4.09691e-05
5.18988e-05
3.16981e-05
0.000154793
0.000138447
1.79437e-05
1.67976e-05
1.87915e-05
0.000232465
1.93297e-05
0.00101612
2.44095e-05
3.9561e-05
1.79553e-05
2.50673e-05
5.46783e-05
0.000130751
2.27943e-05
6.95608e-05
1.88042e-05
6.54809e-05
6.17797e-05
1.63243e-05
3.89729e-05
0.000363448
0.000186726
0.00600455
7.08939e-05
0.00962448
5.95591e-05
0.000148671
0.000168798
0.000235944
2.37179e-05
9.39421e-05
2.56925e-05
0.000568266
0.000114076
0.000145385
0.000165012
7.55518e-05
4.65583e-05
7.68349e-05
3.23518e-05
1.32652e-05
5.84724e-05
0.000439521
2.01691e-05
0.001096
6.40672e-05
2.79674e-05
3.37014e-05
4.65737e-05
2.87346e-05
9.95516e-05
3.85783e-05
0.000334013
1.79192e-05
0.000783029
5.51361e-05
1.30999e-05
1.53076e-05
9.54307e-05
9.44105e-05
0.000113737
0.000211874
2.90778e-05
9.89052e-05
4.06487e-05