/*--------------------------------*- C++ -*----------------------------------*\
| =========                 |                                                 |
| \\      /  F ield         | OpenFOAM: The Open Source CFD Toolbox           |
|  \\    /   O peration     | Version:  v2012                                 |
|   \\  /    A nd           | Website:  www.openfoam.com                      |
|    \\/     M anipulation  |                                                 |
\*---------------------------------------------------------------------------*/
FoamFile
{
    version     2.0;
    format      ascii;
    class       surfaceScalarField;
    location    "1.004594";
    object      phi;
}
// * * * * * * * * * * * * * * * * * * * * * * * * * * * * * * * * * * * * * //

dimensions      [0 3 -1 0 0 0 0];
oriented        oriented;


internalField   nonuniform List<scalar> 
156950
(
-0.00232282
0.00106346
0.000903526
0.000355836
0.000518327
-0.00138437
0.00019268
0.000673359
-0.000382244
0.00071512
-0.000332876
-0.000197952
7.95979e-05
0.000319609
-0.000201255
0.000461498
-0.000511489
4.23199e-05
7.67015e-06
8.36822e-06
-0.00020632
0.000668451
0.00108214
-0.00204417
0.000293573
0.00147155
-0.00145671
-1.48326e-05
1.98566e-05
-0.000657844
0.000637988
4.97269e-05
4.38121e-05
6.30165e-06
-9.98406e-05
5.62869e-05
-0.000491438
0.000435151
-0.00245281
0.00125009
0.00187118
0.00420971
-0.00540598
-0.00343748
0.00463375
0.000638962
0.000448577
-0.00110504
1.75008e-05
-1.08336e-05
-0.00138404
0.00139488
-0.00158966
-0.00100471
0.00127273
0.00132165
0.000197786
-0.000108557
-0.000131494
4.22648e-05
4.45549e-05
0.000978899
-0.000384492
0.000840867
0.00150961
-0.00235047
0.000784471
-0.000768344
0.00043245
5.06401e-05
-7.09871e-05
-0.000853428
0.000873775
0.00053102
7.9225e-05
0.000174225
-0.00135569
0.00121333
0.00197265
-0.00183029
-0.000732667
0.000550925
0.000181742
0.000379625
-0.000196256
0.000103395
-0.000286764
0.00184814
-0.00137888
-0.000734365
0.000265112
0.000139307
7.50211e-05
-2.44108e-05
-0.000189918
-0.000557648
0.000418858
-2.35727e-05
0.000162362
-0.000414138
0.00205405
0.000208229
-0.000758943
-5.69313e-05
0.000384466
0.000431409
-0.000483648
0.000407648
-1.03745e-05
8.63745e-05
-0.000532429
-1.26588e-06
0.000347902
0.000185793
-0.000808733
-0.000276972
0.000400982
0.000684723
-0.00100443
-5.16816e-06
2.68305e-05
0.00098277
9.62861e-05
-5.50733e-05
-0.000852974
0.000811762
0.000128642
-0.000207399
7.87573e-05
9.47004e-05
-1.97349e-05
-9.83004e-05
2.33348e-05
0.000358
0.000220854
-0.000476239
-0.000102615
0.000417673
-0.000581677
0.000164004
-0.00231209
0.00385062
-0.00396137
0.00242284
9.59527e-05
-0.00068964
0.000706369
-0.000112682
-0.00138365
0.00120333
-0.000233821
-0.000431806
-5.78133e-05
0.000377684
0.000111935
0.000313263
-0.00140829
-0.000283861
0.000677853
0.00766092
-0.0058772
-0.00246157
0.00289619
-0.00137036
-0.00152583
-0.00133916
0.00155275
5.74916e-05
-0.000271087
-0.000189083
0.000509123
-0.000165512
-0.000154529
0.00014995
0.00115758
0.000482401
-0.00178993
-0.000414181
0.00138341
0.00050758
-0.00147681
0.00031832
-0.000362627
-0.000138771
0.000183077
-0.00107038
-0.000633046
0.000201894
0.00120206
-0.000770909
-0.00125453
-0.000144457
0.000765937
-0.00157083
0.00137309
-0.00107024
0.00126798
5.36844e-06
0.000102275
-0.00137395
0.0012663
0.000565314
0.000156222
0.000330898
-0.00105243
0.00102258
0.000429324
-0.00099711
-0.000454792
0.000247245
0.000775334
-0.00150323
-0.00171006
0.00141785
0.00179544
-0.00100728
6.55156e-05
0.000737715
-0.000605195
-0.000198036
-0.000549591
0.000542883
6.70819e-06
-7.77042e-05
0.000160328
-0.000183008
0.000100385
0.000938117
0.000739585
-0.00230265
0.000624947
0.00130316
7.33009e-05
0.000939114
0.00020938
-0.000408909
-0.00226076
0.000520693
0.000236844
0.00296516
-0.00245075
-0.00258227
0.00206785
-0.000581107
-0.00048443
0.000436517
0.00062902
-0.000480099
-0.000217423
0.000774693
-7.71705e-05
-0.00174791
-0.0039811
0.00451641
0.0012126
-0.000357186
0.000157043
-0.000158505
0.000358648
-0.000709302
0.00196835
-0.00103566
-0.000223388
-0.000159461
-0.000303982
0.000463443
0.00159636
0.000618876
-0.00127702
-0.00093822
-3.76454e-05
-0.000623613
0.000546249
0.00036634
0.000108055
0.000214663
-0.000689059
-0.000341271
0.000352247
0.00046443
-0.000475406
-0.000321067
0.000812273
-0.00120977
0.000718568
-0.000294574
0.000315309
0.00210243
-0.00212316
-0.00125243
0.00131064
0.0025768
-0.002635
-0.000618533
-0.000542318
0.000622382
0.000538469
0.00145486
-0.000279239
-0.00278204
0.00160642
0.000415257
0.000192361
-0.000761524
0.000153907
0.00124492
-0.0011904
8.07148e-05
-0.000135229
-6.99977e-05
4.82164e-05
9.13535e-06
1.26459e-05
-0.000972148
0.000188444
0.000783703
-0.000251996
0.000827459
-0.00088176
0.000306298
-0.000526351
0.00083028
-0.00034816
4.42316e-05
3.13736e-05
0.00147002
-0.00150139
0.000159987
-3.85138e-05
0.0015806
-0.00170208
-0.000588425
-0.00115341
0.00429242
-0.00255059
0.000854541
-0.00156607
-0.00117642
0.00188795
7.45495e-05
0.000439267
0.000180408
-0.000694224
0.00148157
-0.00168968
0.000208117
0.000146888
-3.19587e-05
-4.03794e-05
-0.00109263
-0.00301615
0.00352035
0.000102449
-2.2282e-05
-8.01666e-05
0.00168663
-0.00139849
-0.000288142
-0.00234708
-0.000865617
0.00133048
0.00188222
-9.99346e-05
-0.000182913
0.000282848
7.12612e-06
0.000977848
-0.000984974
0.000156455
-0.000337529
-9.46743e-05
0.000275749
-0.000110168
-0.000117586
0.000227754
0.000122403
5.5595e-05
-5.9375e-05
-0.000118623
-9.78878e-05
0.000162163
-0.000174443
0.000553131
-0.00150492
0.000627413
0.000324379
0.000582983
3.20997e-06
7.77778e-05
-0.00069387
0.000241033
0.000375059
-0.00158261
-0.000127446
-0.000961699
-0.0016382
0.00140736
0.00119254
-0.00176119
0.00381009
-0.000423198
-0.0016257
-0.000217295
0.000301472
0.000411506
-0.000495683
0.000152084
-3.85138e-05
-0.00011357
-0.00189161
-0.000125761
0.00209796
-8.05887e-05
-0.0013506
0.00243406
0.00219525
-0.00327871
0.00102163
-0.000992853
-2.87813e-05
-0.000742072
0.000502187
0.000239886
0.00115484
0.00119464
-0.000156471
-0.00219302
2.45154e-05
-0.00316857
0.0052491
-0.00623799
0.00415746
-0.0011364
0.00150309
0.000696334
-0.00106303
-2.65526e-05
0.000169396
4.04414e-06
-0.00249665
0.000309552
0.00218709
-0.00022871
0.00194957
-3.60364e-05
-0.00168482
-0.00114166
-0.00170676
-0.00060317
0.00345158
-0.000922984
0.00226845
-0.00131197
-3.34977e-05
-0.00169774
0.00137397
0.000323773
0.000459601
-0.000160485
-0.000299117
-0.00207445
0.00183331
-0.00237348
0.00261462
-0.000513867
-0.00450944
0.0048711
-0.000593344
0.000926588
0.00100181
-0.00133505
0.000690896
-0.000617302
-0.00050991
0.000436315
-0.0018399
0.0019341
0.000257702
-0.000351894
0.000966194
-7.49126e-05
-0.000840642
0.000896687
-0.000663281
-0.000714936
0.00048153
-4.29845e-05
3.02188e-05
-0.000377349
0.000390115
-0.00185315
-5.89867e-05
0.00196726
-5.5122e-05
0.000671364
-0.00332704
0.00207457
0.00151197
-0.00103925
0.000169734
-0.00064245
-0.00585902
-3.30879e-05
0.00165714
0.00423498
0.00148988
-3.12804e-06
-0.00148675
0.0009553
0.00105392
-0.000497251
0.000339917
0.00197252
-0.00214199
-0.000170448
0.00275367
-0.00143581
-0.00103611
-0.00110848
0.00184646
0.000108866
-0.000846852
0.000142527
0.000132014
-0.000103021
-0.00017152
-0.00131171
-0.000932112
0.00358282
-0.001339
-0.000123873
-0.000212185
0.000336057
3.20337e-05
0.00103844
-0.00119308
0.000122602
-0.000404061
0.000438463
-3.27106e-05
-1.6916e-06
0.000373238
-0.000138856
-0.000249947
1.55655e-05
-0.00166048
0.00166251
0.00161607
-0.0016181
-0.000740275
0.000898769
0.00152489
-0.00168338
0.000269272
-0.000404279
0.00196093
-0.00182592
0.00106751
9.89498e-05
0.000462798
-0.00162926
4.61086e-05
-1.28086e-05
-3.32999e-05
0.00158638
-0.00158627
-1.11086e-07
-0.00403059
-0.00109875
-0.00318117
0.00831051
-0.00168181
0.00180743
-0.000125623
-0.000226621
-0.00035244
0.00106485
-0.000485787
0.00010827
0.000784331
-9.76824e-05
-0.000794918
0.00254324
-0.000799242
-0.000432892
-0.00131111
0.00140614
0.000352552
-0.00113102
-0.000627664
0.00174405
-0.000566426
-0.000330161
-0.000847462
-0.000209904
0.00228784
-0.000251944
-0.00182599
-0.00422369
0.0023821
2.61949e-05
0.00181539
0.00239946
-0.000687905
-1.87909e-05
-0.00169277
0.00170811
-0.000225924
-0.00148218
0.000248729
0.00131634
-0.000860723
-0.000704342
-0.00117662
0.000560674
0.00137315
-0.000757203
0.00227387
-0.00237694
0.000103071
-7.6221e-06
-0.00198161
0.00198923
-5.82806e-05
0.00233215
0.000268161
0.000128726
6.27148e-05
-0.000596788
0.000564332
3.24556e-05
0.000117122
0.00206638
0.000547598
-0.0027311
-0.000100482
-0.00124654
0.00134702
0.00308001
2.49459e-05
-0.00339024
0.000285293
-0.0022014
-0.000188213
0.000180394
0.00220922
-3.01012e-05
0.000906038
-0.00069572
-0.000180217
-0.000870351
0.000915428
0.00249275
-0.00253783
-2.15289e-05
0.000365507
5.56116e-05
-0.000399589
0.000465726
0.000179787
-0.000468106
-0.000177407
-0.000654028
9.63803e-05
9.41976e-05
-0.000209001
-9.81371e-05
0.00021294
0.000280353
-0.000602124
-0.000114838
0.000436609
-0.00200932
-0.00736687
0.00626229
0.0031139
0.00018125
-0.000777348
0.00205541
-0.00145932
-0.00134771
-9.39438e-05
0.00114708
-0.000188302
0.00142555
-0.00143432
8.76834e-06
-4.35515e-05
0.001102
-0.000288714
-0.000769733
-0.00185477
-1.74898e-06
0.00185652
0.000949314
-0.000303398
3.28862e-05
-0.000678802
0.000618091
0.00159816
-0.000616448
-0.0015998
0.00136858
-0.0012911
-7.7483e-05
-0.000100988
-0.00132673
0.000644166
0.000783551
0.00117242
-3.67037e-05
-0.00137921
0.000243493
-0.00170857
0.00148333
0.00125953
-0.00103429
0.000145196
0.00066627
-0.000505827
-0.000305639
0.00146769
-0.00127749
-0.000190203
0.00206338
0.000578024
-0.00227379
-0.000367606
0.00127822
0.000189472
0.000320857
-0.000130279
-8.54443e-05
-0.00141419
0.00139659
0.000103042
0.00131529
-0.0037349
-0.00219067
0.00461027
-0.00053127
-0.000927666
0.00110382
0.000355117
-9.26644e-05
-0.000230609
7.03317e-06
0.00031624
0.00108697
0.00378208
0.00013093
0.000513718
-0.00442672
-0.000317402
0.00180846
-0.00140091
-9.01488e-05
0.00218729
0.00015597
-0.00129213
-0.00105113
0.000448375
-0.00198922
-0.000298458
0.0018393
-0.000423446
0.000324105
6.676e-06
-0.00159387
0.00151249
8.13888e-05
0.000391886
0.00170335
-0.0020883
-6.93677e-06
-0.000330103
-7.58915e-05
0.000175386
0.000279195
-0.000131803
-0.000147392
0.0021159
-0.00162777
-0.00214027
0.00165214
-2.94998e-06
-0.000225481
0.000228431
8.29398e-05
-9.8205e-05
0.00159585
-0.00158058
0.000643553
-0.000145726
-0.000218632
-0.00347346
0.00485589
-0.00472568
0.00334325
-0.000141334
0.000294805
-0.00217076
0.00201729
-0.00187232
0.0019675
-9.51841e-05
7.71447e-05
7.28881e-06
-0.000158399
7.39656e-05
0.000272788
0.00117324
-0.0026202
0.00117417
-0.00270001
0.00351964
-0.000584918
-0.00023472
-9.74733e-05
9.94408e-05
5.25757e-05
-5.45432e-05
0.00156881
5.83548e-05
-2.53224e-05
-0.00160184
-0.00170923
0.00167299
-0.00248872
0.00252496
-0.001711
0.000260108
0.00310197
0.00116086
-0.00929952
0.00503669
-0.000783259
8.41463e-05
-6.77177e-05
0.000766831
-0.000761117
0.00107638
-0.000571842
-0.000527884
2.33472e-05
-0.000635099
-5.2028e-05
-0.000136471
0.000823597
-0.000133359
0.000275434
3.45894e-05
-0.000176665
-0.00151058
0.000159618
0.00135096
-0.000886203
0.000798641
8.7562e-05
-0.00168987
-0.000298391
0.000532829
0.00145544
0.00257864
0.000225672
-1.51689e-05
-0.00278914
0.00273437
-2.02382e-05
0.000300251
-0.00301438
-2.78792e-05
-0.000156725
0.000157671
2.69331e-05
0.00766822
-0.000126401
-0.000890797
-0.00665103
-0.00216036
-3.53136e-05
0.00269608
-0.000500404
0.000185213
0.00111181
-0.000291954
-0.00100507
0.000335251
3.28496e-05
-0.000368101
0.000850142
0.00106295
-0.00106695
-0.000846137
-0.00034679
-3.0096e-06
0.000321921
-0.00114943
-0.000107159
9.63426e-05
0.00116025
-0.00117414
0.00115892
1.52223e-05
0.00130232
-0.000199267
0.000477177
-0.00158023
0.000105189
0.000729297
-0.000834487
-4.16419e-05
-0.00179804
0.000957527
0.000882153
0.00132337
0.000303338
-0.0013459
-0.000280808
0.000688695
4.20274e-05
0.00172001
-0.00245073
-0.0011002
-0.000220834
0.00132106
-2.39205e-08
-9.63683e-05
8.1721e-05
-0.00108556
-0.000720816
-0.000165387
0.000692849
-0.00167136
-0.00417689
0.00515541
-0.000956914
0.000790387
-0.00168358
0.0018501
0.000373506
3.92982e-07
-0.000340879
-3.30192e-05
2.14162e-05
-0.000631212
0.000704814
-9.50183e-05
-0.00167694
0.00101082
-0.000844454
-0.00287228
0.00103313
0.000459152
0.00138001
-0.00244688
0.000604977
0.000302831
0.00153908
0.00193526
-0.00217967
-0.000570502
0.000814913
0.00158892
-0.00317666
-0.00128455
0.00129604
-0.00207356
0.000777518
-0.000315007
0.000345784
-0.00130072
0.00126994
0.000833479
-0.000843013
9.53381e-06
0.001089
0.00126278
-0.00131866
0.000144074
-0.000612956
0.00049373
-2.48481e-05
-0.000709964
-0.00150815
0.00221812
-0.000244525
-0.00114421
0.0015728
-0.000184064
0.00122341
-0.00280372
0.00248796
-0.000907656
0.000359024
1.44815e-05
-0.00175182
0.000554875
0.00135627
-0.000159323
0.0018986
-0.0026734
-0.000645586
0.00142039
-0.00206071
-0.000826808
0.00153981
2.45738e-05
-0.00106534
0.00104077
-1.10446e-06
-0.00041285
0.000413955
-0.000191707
4.03534e-05
-5.37076e-06
-0.000205054
-0.000956702
0.00107657
0.00323771
-0.00254882
-0.000216742
-0.000472143
-2.41826e-05
8.18423e-05
0.00101872
-0.000169637
-0.000294097
0.000106277
0.000357457
0.000171071
-0.000172176
0.000731058
-0.000704002
-5.12385e-05
0.00207588
-0.000761591
-0.00131429
0.000302827
0.000629898
-0.00213572
0.00120299
-0.000378136
0.000283993
-0.000250094
0.000344237
-0.00096636
0.00243471
-0.00094973
-0.000518624
0.000452927
-0.000360592
0.0011786
-0.00127093
0.00210915
9.38567e-05
-0.00246042
0.000257414
1.2234e-05
-0.000689905
0.000386653
0.00208569
-0.00178244
-6.47522e-05
0.000250572
-0.000181343
-4.47656e-06
-1.51291e-05
0.0016521
-0.00165111
1.41385e-05
0.00262562
2.64274e-05
-0.00261187
-4.0179e-05
7.97808e-05
-4.65088e-05
3.86499e-05
-7.19219e-05
-4.18487e-05
2.05117e-06
0.000119578
0.00224173
0.000918352
-0.0010842
0.00153177
-0.000997336
0.000594436
0.00257186
-0.00216896
-0.0023647
0.00246241
-9.77079e-05
0.000133642
0.0014282
-0.00156184
0.00121931
-0.00110064
-9.47467e-05
-2.39243e-05
3.28892e-06
-0.00108078
0.00107749
-0.00143377
0.00174557
-0.00175283
0.00144102
-5.76975e-05
-4.19152e-05
-0.000609254
0.000708866
0.00316558
-0.00321576
0.0034492
-0.00339903
3.36354e-05
-9.09815e-05
-3.35006e-05
9.08467e-05
-0.00274045
-0.00148491
0.00161895
0.00260641
-0.000431516
0.0018307
0.000124106
-0.00152329
0.000675624
-0.00274484
0.000665861
0.00140335
0.00126511
-0.00126625
1.13995e-06
0.00151431
0.000221287
-0.0017356
0.00142547
-0.00103901
-0.00170573
0.00131928
8.15269e-05
-0.000143923
0.000302153
-0.000239756
-5.36405e-05
-0.000392017
0.00083608
-0.000390422
1.64028e-07
0.00126494
0.00226488
0.00147427
-0.00306352
0.0021213
-0.00127179
-0.000849514
-0.000433905
5.53078e-05
-3.99249e-06
0.00038259
0.00206072
0.000291008
-0.00178489
-0.000566837
0.000707331
-0.000434436
0.000870384
-0.00114328
0.00137374
-0.00137431
8.70147e-05
-8.64373e-05
-8.78892e-05
0.000143021
-0.000100364
4.52323e-05
-9.44104e-05
0.000416711
0.00112515
-0.00144745
0.00309418
-0.00143578
-0.00179539
0.000136991
0.00206094
-0.002922
-0.000518821
0.00137988
-0.000452083
0.000297523
-0.000528871
0.000683431
-0.000315753
0.00114923
-0.000682086
-0.000433408
0.000739792
9.72071e-05
-0.00171585
0.00161864
-0.000128753
-0.000100023
0.000164023
-0.000560964
0.00111515
-0.00117095
0.000616759
0.00308308
-0.00315021
-0.00195808
0.0020252
-8.88472e-05
0.000492664
-0.00162706
0.00122324
0.000193895
3.34481e-06
-1.8568e-05
-0.000178672
-0.00180693
0.00184937
5.4758e-05
0.000689015
-0.000274199
-0.00104991
1.94554e-05
-0.00165551
0.00163605
9.37672e-05
-0.000206941
0.000113174
0.00115473
-0.00120355
4.88173e-05
0.000187691
7.8985e-06
-1.69436e-06
0.000918143
-0.00180509
0.000289866
0.000597084
-1.66359e-05
3.80896e-05
0.00164543
-0.00166689
-3.65166e-05
0.000128668
-9.21511e-05
0.00193804
5.38519e-05
-0.00212624
0.00389161
-0.000758806
-0.00313281
-0.000326689
-0.000853521
0.000360977
0.000819232
0.000472089
-7.90425e-05
-9.92284e-05
-0.000293818
0.000121921
0.00258954
-0.00271146
-0.000525346
0.00173908
-0.00148429
0.000270558
-0.000163602
-0.000221714
0.00134747
-0.000962158
-0.000182805
0.00018554
-0.00239109
0.00238836
-0.000159213
0.00123534
-0.000936931
-0.000139194
0.00313796
-0.00380782
-0.00175702
0.00242688
0.00170178
-0.000580808
0.000194315
0.000656215
-0.00137159
0.00385334
-0.000335281
0.000269812
-9.37442e-05
0.000230177
7.83107e-05
-0.00132596
0.00121917
0.00165391
-0.00154713
0.000757598
0.00155736
0.000190166
-0.00250512
-0.000154867
-0.000105744
0.00109408
-0.000833468
0.0027562
-0.00271364
7.31875e-05
-0.000115754
-0.00124692
0.000589264
0.000657653
-0.00129738
3.26815e-05
0.00126469
-5.94141e-05
-0.000237427
0.00240362
-0.00210677
-0.00197158
-0.000347189
0.00225936
-0.00220133
0.00135339
-2.53933e-05
0.000873334
-0.00433211
0.00641196
0.000190617
-0.00227047
-0.000148033
0.000148462
0.00179795
-0.00179838
-0.000529399
0.000557248
-0.000492356
0.000464507
0.000759828
0.00169832
-0.00233791
-0.000120238
0.000173554
0.000390638
-0.000564192
-0.000424031
0.00032449
-0.00165229
0.00175183
-0.00171866
0.000705152
0.00159769
-0.000584179
0.00129133
-0.000685823
0.00091649
-0.00152199
0.00552211
-0.000923885
-0.0025682
-0.00203002
0.00280649
0.00235009
-0.00142512
-0.00373146
-0.000649786
0.000396571
0.000253216
-0.000243645
-0.00063848
0.000882125
-0.00496662
0.00148476
-0.000665216
0.00414708
-0.000669318
-0.000828678
0.00189718
-0.000399181
0.000659659
2.01956e-05
-0.000679854
0.000769457
-0.000117036
-0.0010329
0.000380481
-0.000263295
-1.47825e-05
0.000278078
0.000194027
-0.00235416
0.00152123
-0.00148895
-3.22786e-05
0.00113274
-0.00127034
0.00013761
-0.00152414
0.00192928
-0.000324998
-8.01411e-05
-0.000565756
-0.00111471
0.00158463
9.58381e-05
-8.54502e-05
0.00159738
5.68808e-05
-0.00194229
0.001418
0.000627473
-0.00010318
-3.69184e-05
0.000617722
-0.000600857
0.00190051
-0.00184545
0.00042681
-0.000481873
9.98561e-05
-9.45911e-05
0.000547936
-0.000553201
0.00406291
-0.000337042
-0.00153863
-0.00218723
0.00236695
-0.00234629
-0.000191412
0.00017075
-0.00064918
0.000541376
0.000126273
-1.84694e-05
-0.0011985
-0.000247789
0.00120886
-9.28838e-05
-0.000625212
0.000718096
-0.000726256
0.00152599
0.000147713
-0.00094745
-0.000718691
0.00158797
-0.000400394
-0.000468886
-0.00203836
0.00204299
0.000185913
-0.000190548
-0.0016746
5.96432e-05
0.00161496
0.000358625
0.00107521
-0.00176804
0.000334199
-3.46703e-05
0.000276826
-6.51277e-05
-0.000177028
0.00189756
-0.000126671
-0.00154496
-0.000225934
-0.0015286
-0.00347719
0.000423626
0.00458217
0.000311546
0.000153709
-0.000465255
-0.00112237
0.00111926
3.117e-06
-0.000699995
0.0037063
1.58768e-05
0.00021698
-0.000232856
-1.36771e-05
0.000293265
-0.000314258
-4.04748e-06
0.000212189
6.86843e-05
0.00199386
-9.62942e-05
-0.00113169
0.00163186
-0.000209304
-0.000290858
-0.000727789
-0.00115154
0.00187933
-4.45019e-05
-0.00171106
0.00225554
-0.00259913
0.00205465
-0.00015866
0.000780804
0.000353271
-0.000975415
0.00147183
0.00228066
-0.00268414
-0.00106834
-0.00281224
-0.00118832
0.00280642
0.00119414
0.00277631
7.44184e-05
-0.00280049
-5.02409e-05
-0.00128421
-0.000172094
0.00132985
0.00012646
-0.00011159
7.18315e-05
-0.00230705
0.0023468
0.00207447
-0.00236687
0.000134479
0.000157926
-0.00216946
0.00325203
0.000708217
-0.00179078
4.07356e-05
0.00117835
-0.00121908
-0.00237233
0.00272239
-0.000350062
0.000512437
0.000654881
-0.000852254
-0.000315064
0.000987728
0.00060249
-0.000312426
-0.00127779
-0.0006553
0.000369968
0.000113762
-0.00133026
0.0012165
0.000212423
-3.85765e-05
-0.000201542
2.76953e-05
0.00158898
-0.0015919
-0.00211388
0.00211679
-0.00192827
0.00116402
5.9075e-05
0.000705177
-0.000515338
-0.00158212
0.00159545
0.000502007
0.00141719
-0.00146565
-0.00106661
0.00111507
0.000248747
-3.63239e-05
0.00119688
-0.00171222
0.000413252
0.00594843
-0.00115168
-0.00521
-0.0033306
-0.00050018
-0.000326683
0.00415746
0.00153874
-0.000341856
-0.000233734
0.000160154
7.358e-05
-0.00289434
0.000443806
0.00090413
0.0015464
0.000179675
0.000271091
-0.000450766
8.89838e-05
0.00115431
5.94053e-05
-0.0013027
6.13e-05
0.00130728
-0.000335623
0.00343755
-0.000309709
-0.00279222
0.000190246
-0.000202216
-2.6606e-05
-0.000214663
0.000223553
0.000170785
0.00260506
-0.00244969
0.000498075
-0.000653448
0.00119012
0.00033995
-0.00182075
0.000290677
0.00363551
-0.0017994
-4.98965e-05
-0.00178621
0.000823097
-0.000479978
0.00064273
-0.00098585
0.00021653
0.000341342
-0.000493059
-6.48131e-05
1.86401e-05
-1.65543e-05
0.000331631
-0.000333716
-0.000133802
-0.00107331
0.00021699
0.000990125
-0.0014918
-0.00152477
0.00210346
0.000913102
-8.89036e-06
-0.00299686
0.0029958
9.94994e-06
-1.03769e-05
-0.000666294
0.000676671
-0.00142977
-0.000166089
0.00114327
0.000452583
-0.00151522
-0.000583943
-0.000296483
-0.00107487
0.0019553
0.000110822
-0.000359076
0.000248254
0.00168175
-0.00170728
2.55343e-05
-0.00144061
9.2681e-05
-7.06629e-05
0.00141859
-0.00183435
0.00058689
0.00124746
0.0015872
0.000295078
-0.00241535
0.000533076
-0.00041578
-2.42145e-05
0.000458635
-0.000413554
-2.22641e-06
-0.00111889
0.000223716
0.000609788
0.000285382
1.70307e-06
0.000188538
6.13086e-05
-0.000214994
-3.48519e-05
0.00127964
-0.00018707
9.14933e-06
-0.00110172
0.000408628
-0.000742618
-0.000395559
0.000262568
-0.00197494
0.00210794
0.000221256
-0.000497129
-4.54924e-05
0.000321366
0.000273362
-5.32696e-05
-0.00186059
0.00164049
0.00164754
0.000256507
-0.00190404
0.00372982
-0.0033899
-0.00157208
0.000239151
0.00160965
-0.000276718
0.00229173
-0.00143118
0.00167121
-0.00253177
0.000826464
-0.000557602
0.0018702
-0.00213906
0.00101674
-0.00244391
5.27692e-05
0.0013744
0.00215424
-0.00173327
0.000747671
-0.00116864
0.001406
-8.36118e-05
-0.00132239
-8.30902e-07
-0.00180411
0.00180494
-0.00236485
0.00219757
0.00118402
-0.000130438
0.000223427
-9.29893e-05
-0.000587055
0.000530068
0.000707209
-0.000650222
0.00105453
-0.00141182
-0.000440336
0.000797624
0.000746558
0.000164323
0.00144529
-0.00235617
-0.00235519
0.00145644
-0.000961955
0.0018607
0.00111714
-0.00172145
0.0015766
-0.000972296
0.000637021
-0.000542448
-0.000462648
0.000368074
-0.000673362
-0.000589239
0.0012626
0.00142143
-0.00263518
0.00251724
-0.00130349
-0.00019557
2.06903e-05
7.33795e-05
0.0001015
-0.00115718
-0.000704661
0.00186184
9.19163e-05
0.000811476
-0.000306866
-0.000596526
-0.000804895
0.000326097
0.000478798
-0.00212523
0.00176639
-0.00223653
0.00259538
-6.93178e-05
0.000189261
-3.53518e-05
-8.45912e-05
-0.000106275
-0.000194627
0.000217578
8.33245e-05
-3.7196e-05
-0.00010809
0.000148297
-3.01079e-06
0.000883837
0.000315192
-0.000903764
-0.000295265
-0.00123501
0.00366632
-0.000384308
-0.00204701
-0.000193153
-2.41744e-06
0.000365312
0.000152227
-7.36824e-05
-0.000443857
-0.000115914
4.7321e-05
-0.000196238
8.46781e-05
0.000995397
-0.000418368
-0.000386527
-0.00350749
0.00339056
-0.000465136
0.00058207
0.00130052
-0.000301289
-0.00126179
0.000262555
0.00102749
0.000492642
-0.00287324
0.00135311
-0.00181543
0.00165007
0.000165362
0.000726539
-0.000743328
-0.000352974
0.000369762
-0.000463077
0.0030999
-0.000323542
-0.00231328
-0.000456451
0.000848282
-0.000336523
-0.00105174
0.000197912
0.000784803
6.90232e-05
-2.93019e-05
6.74363e-05
-3.81344e-05
-0.000889667
-0.00241551
0.0030282
0.000276975
-0.00052278
-0.00133777
0.00185839
2.16878e-06
0.000981513
-0.00101867
-0.000285555
0.000322712
-0.000311845
0.00026633
-0.000228794
0.000274309
0.00086115
-0.000394734
-3.13532e-05
-0.000435062
5.11715e-05
-0.00273997
0.00279889
-0.000110094
4.34041e-05
-0.000347628
0.001045
-0.0010231
-2.19067e-05
0.00214807
-0.000846173
-0.00168505
0.000383154
-0.00108362
0.000636039
0.000331669
0.000804865
0.000134572
-0.000939437
-0.00167371
0.00178918
0.00311503
-0.0032305
0.000897803
-0.000367912
-0.000367612
-0.000162279
0.000451064
0.000223948
-0.00263387
0.00195886
0.00117033
0.000647476
-0.00134065
-0.000477162
-0.000888064
-0.000585214
0.00147328
0.000910208
7.05438e-05
0.00110072
-0.00208147
-0.00127638
0.000388313
0.00112471
-1.00814e-05
0.000731903
-0.00188908
-0.00150695
0.00145117
0.000296061
-0.000240283
0.00181046
0.00204128
-0.000118715
-0.00373302
-0.00158168
0.00205595
-0.00196144
0.00148717
0.000469385
0.00809397
-0.0075902
-0.000973153
0.00288336
0.000400966
-0.00157022
-0.0017141
-0.00144955
0.000431736
0.00137305
-0.000355242
0.000840899
0.000677769
-0.000333313
-0.00118535
-0.00319677
0.00244551
0.000751265
-0.00108392
0.00288518
-0.000676555
-0.000738082
0.000304594
-0.00022398
0.000657469
0.000663059
0.00208591
-0.000464444
-0.00228452
0.0017095
-0.000596403
-0.0011131
-0.000204186
0.00221933
2.99084e-05
-0.00204505
0.0014695
-2.0452e-06
-0.00146746
-0.000711128
-4.61808e-05
0.000507683
0.000249626
-0.000707196
0.00127053
-0.000827432
0.000264101
-0.00093491
-0.000659177
0.00051017
-0.000395951
6.75796e-05
0.000195013
0.00393691
0.000517496
-0.00238272
-0.00207169
-0.000120684
-0.00123664
0.00115314
-4.37238e-05
0.00108527
-0.00104155
-0.000946838
0.00118584
-0.000238998
-0.000535499
0.000145851
-0.000254427
0.000644075
0.000547523
-0.00216497
-0.000444472
-0.00085835
3.69462e-05
-0.00177412
0.00173717
0.000153793
6.33974e-05
-0.000217191
0.000288883
-0.000321692
5.29507e-05
-2.01416e-05
-0.00243144
0.000242503
-0.00226321
0.00445215
8.14873e-05
0.000589388
-0.000659868
-1.10078e-05
0.00041301
4.08265e-05
-0.000164954
-0.00630201
0.00310461
0.0106481
-0.00745068
0.00339457
0.000443926
-0.000500051
-0.00333845
-0.000126451
-0.00138161
-0.00138628
-2.2022e-05
-4.80245e-06
2.68245e-05
-0.00165561
-0.000161716
-0.000130274
-0.000532375
0.000554364
0.000108285
0.000291367
-0.000368757
7.739e-05
0.000656074
-0.000572873
-0.00011291
2.97091e-05
0.00127699
-0.00574498
-0.00183402
-0.000471806
-6.1986e-05
-0.000287712
0.000821504
-0.00123237
0.00175654
0.00021582
-0.00073999
0.000438853
0.000218457
-0.000267521
-0.000389789
-0.000140962
-0.000745708
-0.000231152
0.00111782
-0.00100479
-5.11132e-05
-0.000183743
0.00123964
-9.24035e-05
0.000151696
-0.000222673
0.000163381
0.000539558
-0.000136999
0.000161893
-0.000564452
-2.24907e-05
-6.60406e-05
2.07215e-05
6.78098e-05
-0.00105173
0.000881365
-0.0013177
0.00148806
-0.00262843
0.000342384
0.00260598
-0.000319936
-0.000395734
-0.000117651
0.000513385
-0.000934543
0.000636686
-0.000120769
0.000418626
4.72847e-05
4.67401e-05
-0.000116515
0.000493415
-0.000403533
0.000505621
-0.000595503
0.000371876
-0.000482409
-0.00080245
0.000912983
-0.000131589
0.000424882
-0.000293292
-0.000104059
-0.000918843
0.00187744
-0.00075028
-0.000535981
0.000451224
0.000835036
6.07071e-05
-2.34185e-06
-7.98e-05
2.14348e-05
-4.31513e-05
0.000551929
-0.000129229
-0.000379549
-0.000425953
-0.000583198
0.000452599
0.000556552
-0.000466233
0.000108235
-0.00136131
0.00171931
0.00071322
0.00143005
-0.00157883
-0.000564437
-1.39448e-05
-0.00070385
0.000633064
8.4731e-05
0.00230688
-0.00172486
0.00139308
-0.0019751
0.00027181
-0.000306576
-0.000869028
0.000903795
-0.000301908
-0.000658113
0.00096002
-0.000346639
-1.15941e-05
0.000358233
-0.000621313
-0.000892014
0.00151333
0.00122041
-0.00111568
-0.000262228
0.000157491
0.000367339
-0.000183234
-0.000128335
-5.57703e-05
0.00120698
-0.00259019
0.00138322
-0.000407034
0.000312872
0.000524876
-0.000430714
0.00047153
0.000513045
-0.000446239
-0.000538336
0.000333095
-0.0024576
0.00245298
-0.000328474
-0.00027539
0.00143738
-0.0013735
0.000211507
0.00027067
-0.000284414
0.00196765
-0.0019539
-0.00023726
-0.000406606
0.000233933
0.000409932
-0.000538408
-0.000240245
0.000476745
0.000116443
0.000614744
-6.74674e-05
-0.00066372
0.000288952
0.00103137
-0.00124463
-7.56921e-05
0.000921211
-0.00151702
0.000150795
0.000445013
0.000766359
-0.000453735
0.000381199
-0.000693823
0.00191472
-0.00177419
-0.000334372
0.000193843
-2.66294e-05
6.81749e-05
5.73912e-06
0.00288781
0.000141458
-0.00218478
-0.000844488
-0.000161162
0.00134111
0.000134962
-0.00131491
-0.00123149
0.000610173
-6.74587e-06
-0.000879782
0.000515992
0.000370536
-5.33353e-06
1.7315e-05
-0.00113434
-3.1658e-05
0.00114868
0.000837858
-0.000820543
2.71733e-05
0.000810684
0.00200558
0.00113451
-0.00117783
-0.00196226
-3.75297e-06
-0.00143638
0.00144013
-4.73292e-05
7.55307e-05
-5.68373e-05
2.86358e-05
-3.87136e-05
9.74234e-06
-0.000766406
0.00184576
0.000283634
-0.00136299
-0.00431837
0.00242709
-0.000868976
-0.00157771
0.0012152
-0.00185829
0.000672108
0.000317211
0.000842564
-0.00208044
0.00154597
-0.000308102
0.000540922
0.00261665
-0.000568212
-0.00258936
-0.0016668
0.003171
-0.00592873
0.00442454
-0.00153157
0.00207249
-0.00229265
0.00127605
-0.000104086
0.00112069
0.000182766
-0.0010135
0.00111969
-0.00244789
-0.000146448
0.00257599
1.83449e-05
0.000143347
-0.00234268
0.000808176
0.00139116
-0.00170134
0.00169789
-5.49079e-05
5.83611e-05
0.00084306
0.00295453
-0.00257418
0.000985295
-0.000650659
0.000353238
-0.000687875
-0.00185812
0.000858665
0.0011428
0.000380749
-0.00144911
-0.000789757
0.000350344
0.000199621
-0.000564788
1.48236e-05
0.000202143
0.000534018
-0.00041764
-0.000318521
0.000161107
-0.000326595
-0.000127109
0.000292597
0.000316802
-0.000692248
-0.000191179
0.000566625
-4.73183e-05
0.000750396
-0.00111047
0.000407391
-0.000908812
0.000935986
-0.00113936
0.000655781
0.00134224
0.0017457
-0.00202094
0.00168694
-0.0014117
-0.000481592
-0.00148034
0.0010274
0.000739114
-0.00176651
0.00170167
-0.00182277
0.0001211
0.00139535
-3.28498e-05
3.86595e-05
-0.00140116
-0.000318377
-0.000869998
0.000775525
-0.000238723
-0.000626691
0.000118172
-0.000197375
0.00183295
-0.00175375
0.000465868
6.91904e-05
-0.000229731
-0.000305328
-3.61496e-05
0.000386493
-0.00152998
0.00125538
1.58699e-05
0.000258733
-0.00107316
0.00119133
0.000517592
-0.000553742
0.00243753
-0.000427382
-0.000356826
-0.00165332
-0.000302401
0.00038641
0.000676551
-0.000760561
0.00111562
0.000478037
-0.00159366
-0.00176813
-0.00046453
0.00234141
-0.000108751
-0.000300557
-0.000333977
-4.78108e-05
0.000682345
-0.00018541
0.000277157