/*--------------------------------*- C++ -*----------------------------------*\
| =========                 |                                                 |
| \\      /  F ield         | OpenFOAM: The Open Source CFD Toolbox           |
|  \\    /   O peration     | Version:  v2012                                 |
|   \\  /    A nd           | Website:  www.openfoam.com                      |
|    \\/     M anipulation  |                                                 |
\*---------------------------------------------------------------------------*/
FoamFile
{
    version     2.0;
    format      ascii;
    class       volScalarField;
    location    "1.004594";
    object      T;
}
// * * * * * * * * * * * * * * * * * * * * * * * * * * * * * * * * * * * * * //

dimensions      [0 0 0 1 0 0 0];


internalField   nonuniform List<scalar> 
83563
(
300
300
300
300.053
300
300.003
300.186
300
300
302.847
300
300.778
300.011
300
300
300.22
300
300
300.334
300
300
300
300.588
302.759
300
300
300
305.824
300
300
300.026
300.003
300.129
300
300
300.003
300
300
300
300
300
300
300
300
300
300
301.226
300.721
300
305.991
306.068
300
319.867
329.481
300
303.162
300
323.792
323.689
300
329.714
307.826
300
300
327.783
333.947
324.039
300
300
305.267
300.753
300.208
300
306.624
300
304.359
302.408
300
300
300.148
300
300
300.002
303.016
300
300
300
303.775
300
300
300
300
300
302.718
323.986
300
312.833
300
300
300
300
300
300
300
300
300
300
300
332.095
300
300
300
300.513
300.239
300
300
307.879
300
300
300
300
300
300
313.626
300
300
309.035
300.486
300
300
305.958
303.475
300.139
309.455
300
300
300
300
300
304.451
300
301.324
300
300
302.748
335.335
300
300
300
300
300.967
300
300
300
300
300
300
300
300
300
300
300
300
300
300
304.472
300
306.625
300
300
300
300
300.863
300
300.476
300
300
300
300
300
300
300.001
300
300
303.034
305.936
302.333
300.29
300
300
300
306.375
300
308.829
300
306.662
300
300
300
300
300
300.059
300
300
300
302.183
300
307.237
300
300
300
300
300
300
300
300
300
300
300
300.048
300
300
300
300.396
300
300
300
300
300
300
300
300
300
300
306.498
300
300
300.005
300.035
300.024
300
300
300
300
300
300
300.884
300
322.125
300
300
300
300
300
300
300
300
300
300
300
300
300
305.655
300
300
300.335
300
300
300
300
300
300
300.013
300
300
300
300
300
300
300
300
300
300
300
303.565
300
301.534
300
300.001
300
303.853
300.005
300
300
300
300
300
300
300
300
300
300
300
300
300
300
300
313.597
300
300
300
300
338.027
303.977
302.344
300.524
305.723
300
300
300
300
300
300
300
300
300
300
329.622
300
307.497
300
300
300
315.025
300
300
300
309.446
300
300
327.508
333.035
300
300
300
300.12
300
300
300
300
300
300
300
305.149
300.842
300
301.317
300
300
314.797
305.154
315.423
303.567
307.6
304.422
305.206
302.451
300
302.579
300
300
300
300
300.045
300.214
300
306.71
300
300
300
300
300.755
300
300.078
306.155
304.196
300
300
306.903
300
300
300.062
300
305.643
300
300
300
300
300
300
300.376
300
300
305.881
300
300
300.193
300.084
300
300
314.571
300
300
300
309.939
300
300
300
305.27
300
300
300
312.193
300
300.166
311.871
300
301.403
300.002
300
300
301.624
300
300
303.561
300
307.275
300
300
303.359
300
300
306.979
300
302.466
300
300
302.712
302.148
310.399
301.556
300
300
300
300
300
300.204
300
300
300.001
300
308.957
300
300
300
300
300
300
300
300
300
300
300
300
300
300
300
300
300
300.018
300
300
300
300
300
300.732
300
300
303.265
300
300
300
300
322.904
300
300
300
300
300
300
300
300.003
300
300
300.015
300.001
300
300
300.43
300
300
300
300
300
300
300
300
326.334
326.191
300
300
300
300
300
300
300
300
330.975
300
300
300
300
300
300
300
300
329.693
300
300
324.989
300
300
329.799
300.187
303.676
302.311
300
304.422
333.648
300
300
300.267
300
300
300
300
303.603
303.324
321.498
300
300
303.164
300
300
306.311
300
316.012
300.002
300
300
317.365
300
300
300
323.269
300
300
300
300
300
300
300.002
304.193
300
300
300
300
300
300
300
300
300
300
300
300
300
300
300
300
300
300
300
300
300
300
300
306.721
300.03
300
300
300
300
300
300
308.005
300
300
300
300
300
302.378
313.614
300
300.106
300
300
300
300
300
300
300
300
300.005
300
300
305.236
300
300
300
300
300
300
300
300.002
300
300
300
300.048
329.315
300
300
300
300
300
300
300
300
300
300
300
300
325.655
300
300.001
324.819
300
300
300
300
300
300
300
300.001
300.006
300
300
306.987
300
300
305.181
323.761
300
300
327.274
300
300.588
300.013
300.039
304.207
300
300
300
300
300
300
309.274
300
300
300.259
300.07
300
300
300
300
307.964
300
300
300
300
300
300
300
300
300
300
300
300
300
300
308.332
300
307.931
300
300
300
300
322.318
301.601
300
316.75
300
300
300
300.048
332.158
300
300
300
336.795
300
300
300
300
300
300
300
300
301.171
322.635
300
300
300
300
324.677
300
300
300
300
300
300
300
300
300
300
300
300
300
300
300
300.027
300
300
300
300
300
300
300
311.671
300
300
300
305.281
324.302
329.72
300
334.437
300
300
300
300
300.076
308.458
300
323.962
300
300
300.444
300.125
300
300
300
300
300
300
300
300
300
337.597
314.286
300
300
300
314.595
305.584
305.76
304.536
300
303.279
300
300
300
300
305.352
300.757
300
300
300.843
300.244
300
300
300
305.813
300
305.874
300
300
300
300
300
300
300
300.001
300
300
300
300
301.373
300.366
300.303
304.706
302.636
300
300
300
300
300.001
300
300.356
300
300
300
300
300
300
300
300
300
300
300
300
300
316.622
300
300
300
300
300.024
300
300
300
300
300
300
300
300
314.508
300
300
312.626
332.492
300.017
300
300
300
300
300
300
300
300
300
300
300
300.004
300
300
300
300
300.001
300
300
300.034
300.002
300
300.054
300
324.67
328.879
300
318.808
300
300
300
300
300
301.681
300
300
300
334.886
300
302.186
302.425
300
300
329.341
300
309.121
300
300
319.141
300
300
300
300
300
300
300
300.39
300
300.392
300.089
300.075
300
300
300
300
320.621
300
300
300
300
300
300
300
300
300
300
300
300
300
300
300
300
300
300
300
300
300
300
300
300
300
300
300
300
300
300
300
300
300.272
300
300
300
300
300
300
301.586
300
300
307.036
300.201
300
300
300
310.983
300
303.704
300
305.198
300
300
300
300
300
300
303.019
300
300
304.729
307.205
300
300
300
300
301.217
300
300
300
300
300
300
301.099
300
300
300
300
300
300.001
300
300
300.325
300
300
309.728
300
300
300
300
303.987
300
304.116
301.323
300
300
300
300
300
300
300
302.762
300
300.989
301.182
328.051
300
300
300.236
300
300
300
300
300
302.874
300
313.868
300
300
300
300.166
306.52
300
300.071
301.721
300
300
306.017
300
301.868
300
300
300.062
300
300.15
300.454
300
300
300
300
300
300.972
300
300
300
300
300
300
300.211
300
300
300
300
300
300
300
307.662
300
300
300.284
300
300
318.509
300
300
300
301.437
300
300
300
305.069
300
300
300
300
300
300
300
300
304.961
300
300
300.03
300
300
300
300
300
300
300
300
300
300
300
300
300
300
300
300
300
300
300
300
300
304.622
300
300
300
300
300
300
300
300.001
300
300.019
300.001
300
300.003
300.016
300
300
300.001
300.581
300
300
300
300
300
300.003
300
301.308
300
300.001
307.746
303.251
306.327
306.056
306.975
300
300
300
300
300
319.661
300
300
300
306.736
300.023
300.304
302.851
300.818
300
300
300
300.004
300
300
300
304.824
300
300
300
300
300.001
300
300
300
300
300.004
300.045
300
300
300
300.27
300
300
300
300
300
300
300
300
300
300
300
300
300
300
300
300.329
300.002
302.66
300
300
300
300.005
318.675
301.094
300
300
300.001
300
300
300.003
300
300.004
307.619
300
300
300
300
300
303.721
300
300
300
300
300
300.007
300.22
300
305.528
300.001
300
300
328.868
300
300
300
300
330.605
300
300
300
300
300
300.003
300
300
300
300
300
302.493
300
300
300
300
300
300
300
300
300
300
339.624
300
300
300
300
302.814
300
341.331
300
300
312.473
300
333.939
303.526
300
300
305.137
300.008
304.125
300
300
300
300
300
302.95
300
300
300
300
300
300
300
300
300
307.406
300
300
300
300
300.011
300
300
300.167
300
300
301.325
300
300
300
300
300.051
300
300
300
300
300
300.026
300
300
300
303.489
300
300
300
327.633
300
307.845
300
300
300
300
300
303.801
300
300
300
300
300
300
300
325.703
300
305.621
300.356
300
300
300
300
300
300
300
300
300
300
300
300
300
300
300
300
300
300
300
300
300
300
300
300
300
300
300
300
300
300
300
300
300
300
300
300
300
300
300
307.748
300
300
313.999
300
300.155
300
300
300
300
300
300
320.431
300
300
300
300
300
300
300
300
301.264
314.178
300
300
300
300
300.268
300
300
300
300
328.177
300
300
300
300
300
304.984
300
300
300
305.374
300.001
323.51
300
300
300.738
300
300
323.601
300
300
300
300
300
316.88
300
300
300
300
300
300
300
300
300
300
300
300
315.417
300
300
300
300
300
300
300
300
300
300
300
300
304.622
300
300
300
304.298
300
300.16
300
300
300
300
300
300
300
300
300
300
300
300
300
300
311.219
309.371
300
300
312.08
323.573
300
325.135
300
300
300.24
327.846
300.011
300
300
300
300
300
300
300
305.112
300
300
300.003
300
300
300
300
300
300
300
300
307.933
300
304.929
300.014
300
306.618
300
300
300
300
300
300
300
300
300
302.002
300
300
300
307.567
308.024
300
304.039
300.554
302.483
304.307
300
305.106
300
300
308.106
300
300
301.69
300
302.677
304.431
300
300
300
300
300
300
300.004
300
300
300
303.641
303.09
300
300
300
300
304.296
303.652
300
300
300
300
300
300
300
300
300
300
300
300
300
300
300
300
300.967
300
300
300
300
300.755
300
300
300
303.624
301.669
300
300
300.704
300
300
300
300
318.875
301.764
300
300
300.008
301.074
300
326.803
300
300
300.268
300
300
300
300
300
300
300
300
300
300
300
300
300
300
300
300
300
300
300.026
300
300
300
300
300
300
303.892
300
300
300
300
300.01
300
300
300.001
300
300
300
300
300
301.4
300
300
300
300
300
300.117
320.766
300
300
300
306.891
300.156
300
302.93
300
300.611
300
300
300
300
300
300
300
300
300
308.576
300.47
300
300
327.538
300
300
300
300
300
300
300
300
324.613
300
300
300
300
300.006
303.019
300.001
300
325.834
300
300
300
300
300
300
300
300
300
300
300
313.914
300
300
300
323.961
300
331.552
300
327.93
300
300
300
300
300
300
300
300
300
300
300
300
300
300
300
300
300
300
300
317.877
300
300
300
300
300
300
300.006
301.424
300
300
301.834
301.215
300
300
300
300
300
300
300
300
300
303.784
300
300
300
300
300
300
303.1
308.736
300
300
300
300
300
300
308.018
300
330.527
300
300
300
300
300
310.526
300
300
300
300.327
300
300
301.332
300
300
312.828
300
300
300
300
300
300
300
300
300
300
300
300
309.985
300
312.562
300.37
300.236
300
304.464
300
300
300
300.56
300
300
300
300
300
300.036
300
300.003
300
300
310.013
300
300
300.005
300
330.864
300
300
300
300
300
300.005
300
300
300.011
300
300
300
300
300.15
300
300
300
300
300
300
305.972
300
300
330.942
300
300
300
335.607
300
323.669
300
300
300.269
306.6
300
300
300.362
300
300
333.763
322.163
342.449
300
339.765
338.916
300
300
300.101
300.012
300
300
300
300
333.833
330.392
321.936
300.207
300
302.938
300
300
300.604
300
300
300
300
300
307.581
300.431
300
300
300
300
300
300
300
300
300
324.049
300
300.001
300
300
336.618
300
300
308.342
313.86
300
323.173
300
300
300
300
300
300
300
300
300
323.631
300
300
300
313.996
300
300
300.133
300
300
300
300
300
300
300
300
300
300
306.832
306.175
300
300
300
300
300
300
323.65
300
300
300
300
300
300
300
300
300
300
300
300
300
300
300
300.048
300
300
300
300
300
300
300
300
300
300
300
300
300
300
300
300
300
300
300
300
312.339
300
300
300
300
321.491
300.001
300
300
300
300
300
317.585
300
300
311.885
300
300
300
303.783
300
328.21
300
300.799
300
300
300
313.804
300
302.473
300
300
300
300
312.962
300
303.727
304.614
304.517
300
300.002
300
300
300
303.467
304.682
300
300
300
300
300
304.551
307.367
300
300
300.987
306.058
300
300
307.61
300
300
301.596
314.439
300
300
300
300.025
300
300
300
300
300
300
300
300
300
300
300
300.183
316.759
300
300.36
300
300
300
300.315
300
304.561
300
300
300
300
300
300
300
318.212
300
300
304.603
300
300
300.003
300
300
300
300
300.13
300
300
300
300
300
300
300
300
300
300
300
300.004
300
300
300
300
300
300
300
300
300
300
300
300
300
300
300
300
300
307.261
300
300
300
307.183
326.794
300
300
300
300
300
300
300
300
305.343
300
300
300
300
300
300
300
300
300
300
300
300
300
300
300
306.248
300
300
300
300
300
300
300
300.252
300
301.339
311.678
300.037
300
304.814
300
300
300
300
300
300
303.499
300
300
300
300
313.045
300
300
300
300
300
300
300
320.175
300
329.978
300
300
308.63
301.246
300
300
300
300
300
300
300
300
300
300
300
312.141
304.936
300
300
300
300
306.204
300
300
300
300
307.599
300
306.664
300
300
300
300
300
300
300
300
300.428
300
300
302.566
300
300
300
328.287
300
300
300
300
300
300
300
300
300
300
300
300
300
300
300
300
300
300
300
300
300
300
300
300
300
300
308.418
300
300
300
301.233
300
300
300
300
300
300
300
305.538
300
300
300
300
300
300
300
300
300
304.139
300
300
300
300
300
300
303.958
300
305.019
300
304.662
300
303.595
300
300
304.704
314.261
300
300
300
300
300.004
300
300
300
304.339
300
300
300
319.402
300
300
300
300
300
300
307.603
300.004
300
300
300
300
300
300
300
300
300
300
300.003
302.265
300
305.924
305.546
300
300
304.007
300
300
300
300
300
300
300
300
300
300
308.075
300
300
300
300
300
300
300
300
300
300
300
300
300
300
300
304.087
300
306.606
300
300
300
300
300
300
300
300
300
300
300
300
300
300
300
300
300
306.159
300
314.843
300
300
300
300
300
300
300
306.436
300
307.529
300
300
300
300
300
300
300
300
300
300.036
300
300
300
300
300
307.84
300
300
300
300
300
300
300
307.927
300
300
300
300.374
300
328.02
300
306.927
305.548
300
306.094
300
300
300
300
300
300
300
300
300
300
300.038
300
300
300
300
300
300
300
300
300.038
300.002
300
300
300
300
300
300
300
300.003
300
300
300
300
300
300
300
300
300
300
300
300
300
300
300.005
300
300
300
300
300
300
300
300
312.969
300
300
300
300
300
300
300
300
300
300
300
300
300
300
305.168
300.452
300
300
300
300
302.026
321.656
300
300
304.984
300
300
300
300
300
300
311.077
300
300
300
300
300
300
300
300
300
300
300
300
300
300
300
300
326.113
300
305.385
314.455
300
310.293
300
300
300
300
300
300.002
331.8
332.335
300
300
328.585
300
300
300
300
300
300
317.378
300
300
300
300
300
336.202
300.003
300
330.669
300
300
300
300
300
300
300
300
300
300
300
300
300
300
300
300
300
300
300
300
300
300.278
318.779
300
300
300.011
300
300
300
300
300
300.001
300
300
300
300
300
300
300.181
300
300
300.001
300
300
300.978
300
300
318.512
300
300.318
300
308.779
300
300
300
300
300
300
300
300
300
300
300.526
300
300
300
300
300
300.396
300
300.443
300
300
304.244
300.17
300.486
300
300
300.439
300.235
305.437
300.127
300
300
300
300.27
305.427
300
303.869
300
300
300
319.017
300
300
300.001
300
306.429
300.008
300
300.003
300
300.004
300
301.696
300.023
300
300
300
300
300
300
300
300
300
300
300
300
300
300
300
300
300.001
300
300
300
300
300
300
300
300
300
300
332.2
300
300
300
300.525
300
319.227
300
300
300
300
300
300
300
300.002
300
300
300
300
300
307.255
300
309.831
300
300
300
300
309.804
300
300
300
329.482
300
300.524
300
300
300
300
300
300.215
300
300
300
301.66
300
301.167
300
300
300
300
300.089
300
300
300
300.024
300.088
300.348
300
300
300
300
300
300
300
300.001
300
303.633
300.74
300
300
300
300
300.982
305.73
310.1
300
300
300
300
325.121
300
300
300
300
315.316
300
303.53
308.635
300
300
300
300
300
300
300
300
300
300
300
300
300
300
300
300
300
300
300
300.001
300
300
300
300
300
300
307.15
300
300
300
300
300
300
300
300
300
307.638
323.085
300
302.234
300
300
300
300
300
300
300.001
306.48
303.37
300
303.268
304.077
302.678
302.676
304.881
300
300.674
306.072
300.155
307.236
300
301.388
308.165
300
337.469
306.354
300
329.668
300
300
300
300
300.012
300
300
300
300
300
300
300
300
300
300
300
300
300
330.136
300
300
300
300
300
300
300
300
328.997
300
300.008
304.622
300
300
300
300
300
300
300
322.394
300
300.002
300
303.633
300
300
300
300
322.887
336.324
300
300
300
300
300
300
300.702
313.815
300
300
300
300
300.521
300
300
300
300
320.715
320.817
314.867
309.503
316.58
300
300
312.621
320.427
300
300
300
300
303.92
300
300
300
302.304
300
300
300.001
300
300
300
300
300
300
300
300
300.002
300
308.007
301.612
300
300
300
306.549
300
300
315.512
300
300
300
300
300
300
300
300
300
300
300
300
300
300
300
300
300
300
331.506
300
300
302.334
300
300
300
300
300
303.817
300
300
300
300
322.838
300
314.685
318.846
317.83
300
300
300
301.498
300
300
300
300
300
300
300
300
300
300
300
300.004
329.98
300
300
300
300
300.023
300
300
300
327.336
300
300
300
300
323.622
300
300
300
300
300.001
300
300
300
300
300
300
326.008
321.118
300
300
300
300
300.029
300
300
300
300
300
300
300
300
300
300
326.826
300
300
325.375
300
300
328.812
300
300
300
300
300
332.479
300
300
300
300
326.735
300
300
300
300
300
300
300
300
300
300
300.018
301.541
300
321.741
300
316.866
300
300
300.006
300
300
313.297
300
300
300
300
300
300
300
300.001
300
300.072
300
300
301.468
300
300
309.235
300.24
302.666
300.519
300.006
302.244
300.325
317.339
300
300
300.378
300
300
300
300
321.71
300
300
328.313
315.191
309.786
300
300
302.731
303.248
300
300
300
300
300
300
324.124
300
300
300.023
300
300
312.737
300
300
300
300
318.061
300
300
300
300
308.981
300
300
300.002
309.805
308.821
300
300
300
300
300
300
300
300
300
314.527
300
300
300
300
300
304.951
300
300
300
300
300
300
300
300
306.736
300
300
300.005
300
300
316.773
300
326.16
300
301.168
300
300
300
300
303.534
300.365
300
300
300
300.085
300
300
320.496
300
300
300
300
300
300
300
300
300
321.708
300
300
300
300
300
300
300
300
300
300
300
300
306.301
300
300
300.004
300
300
317.267
300
300
300
300.026
305.65
300
300
300
300
300
302.987
300
300
300
300
300
300
300
307.074
300
300
300
300
309.223
300
300
300
300
300
300
300.075
300
300
300
302.052
300
300
300
300.1
300
300
300
300
300.029
315.683
300.422
300
300
300
300
300
300
300
300
300
300
300
300
300
300
300
300.026
312.571
300
300
300
300
300
300
300
300
300
300
300
300
307.029
320.345
300
300
300
300
300
300
300
309.228
300
300
300
315.292
300
300
300.131
300
300
300
300
300
300.002
300
301.381
300
300
325.251
300.046
302.094
300
300
302.188
301.157
300
300
300
300
300
300
300
304.176
300
300
300
300
300
300
300
306.895
300
300
300
300
300
300
300
300
300
300
300
300
300
314.803
300
300
301.709
318.117
300
323.18
300
300
300
300
300
300.167
300.551
300
300
300
300
300
300
300
300
300
310.133
300
300
300
300
300
300
300
300
300
300
300
300
300
300.019
300
300
302.902
300
300
300
300
300
300
300
300
300.291
301.619
307.246
300
300
300
300
300
300
300
300
327.464
300
300
300
300
300
300
300
300
300
300
300
300
327.193
300
323.25
300
300
300
300
300
300
300
300.906
300.006
300
304.319
300
300
317.872
300
300
306.129
300
320.542
300
300
300
302.993
318.231
300
300
300
300
300
300
300
300
300
300
300
300
300
300
300
300
300
300
300
300
300
300
300
300
300
300
307.99
300
300
306.481
300
306.46
300
300
307.258
300
300
300
300
300
300
300
300
300.123
300
310.129
300
300
300
300
300
300
300.022
300
300
300
300
300
324.149
300
300
300
315.296
300
318.282
300
300
300
300
300
300
300
300
300
300
300
300.219
300
300
300
300
311.955
300.057
300
300
300
300
331.143
300
300
300.406
300
326.659
300
300.814
304.635
300.146
300.023
300
300
300
300
300
300
300
300
300
300
300
300
300
300
300
300
300
300
300
300
300
300
300
302.566
300
300
300
331.945
300
300
300
300
300
300.992
300
300
300
300
302.418
300
300
302.362
300
300
300
300
300
300
300.185
300
326.545
300
300
300
300
300
300
300
300.129
300
300
300
300
300
300
300
300
300
300
300
300
300
300.45
300
322.967
300
300
300
300
300
300
307.989
300
300
307.185
300
300
300
300
300
300
300
300
300
300
300
300
300
300
300
303.349
300.002
300
300
300
300
300
300
300
300
300
300
300
300
300
300
300
300
300
300
300
300
300
300.02
300
300
300
323.948
300
300
300.001
300.002
300.003
300
300
300.004
300
300
300
300
307.418
300
300
300
314.002
300
316.823
300
300
300
300
300.136
300
300.001
300
308.256
300
328.012
300
304.39
300
300
300
316.067
300
300
330.256
321.507
300
300
300
300
300
325.425
300
300
300.169
300
300
300.03
300
300.043
300.03
300
300
300
300
300
300
300.387
300
300.004
300
300
316.41
300.018
308.156
300
300
327.136
300
327.423
300
300
302.248
300
300
300
300
300
300
300
300
300
300
300
300
300
300
300
300
300
300
304.785
312.448
300
300
300
300
300
300
300
300
300
302.618
300.027
306.778
332.374
325.077
300
300
300
300
300
300
300
300
300
300
300
300
307.296
300
300
300.001
326.448
300.348
300
302.102
300
300
300
300.001
303.556
300.593
300
300
310.405
300
300
300
300
300
300
300
300
300
300
300
300
300
300
300
300
300
300
300
300
300
300
300
300
300
300
300
300
300
300
300
300
300
300
300
300.031
300
300
300
300
300
300
300
300
300
300
300
300
300
300
300
300
300
300.044
300
300
300.003
300
300.005
300
300
300
300
300
300
300
300
300
300.144
300
300.227
319.437
300
300.076
300
300.106
300
300.051
302.088
300
300
300
300
300
300
300.002
300
300.326
300
300
300
300
300
300
300.012
300
301.601
300
301.873
303.126
302.604
304.02
300
300
325.245
300
304.121
300
300
300
300
300
300
300
300
300
300
300
300
300
300
320.675
300
300
300
300
300
300
300
300
300
300
300
300
300
308.551
300
300
300
300
300
300
300
300
300.031
300
300
300
300
300
300
300
300
307.509
300
300
306.386
300
300
300
300
300
300
300
300
300
306.106
302.965
306.786
300
300
300
300
303.686
300
300
300
300
300
300
300
300
300
300
300
300
300
300
300
300
300
300.257
300
300.056
300
300
300
300
300
300
300
300
300
307.177
300
317.683
300
300
300
300
300
300
300
300
300
300
300
300
300
300
300
300
300
313.898
300
300
300
300
300
300
300
300
300
300
300.976
312.148
300
300
300
317.741
300
300
300
304.125
300
300
300
300
300
300
300
300
300
300
300
300
300
300
300
307.107
300
300
300
300
300
300
300
300
300
300
300
300
300
300
300
300
300
300
300
305.007
300
300
300
300
300
300
300
300
300
300
300
300
300
300
300
300
300
300
300
300
300
300
300
300
300
300
300
300
300
300
300
300
300
300
300
300
300
300
300
300
300
300
300
300
300
300
300
300
300
300.002
300
300
300
300
300
300
300
300
300
300
300
300
300
300
300.068
300
300
300
307.48
300
300
300
300
300
300
300
300
315.085
300
300
325.101
300
304.588
304.597
300
304.61
304.645
304.077
300
300
300
300
304.378
300
300
300
300
300
300
300
300
300
300
300
300
300
300
300
300
300
300
300
300
300
300
300
300
300
300
300
300
300
300
300
305.852
300
300.494
300
300
303.138
332.838
300
340.785
300
300
300
328.006
300
300
300
300.027
300
300
300
300
300
328.218
323.623
300
300
300
300
300
316.448
300
300
300
300.009
300
300
322.293
318.174
333.479
331.419
300
300
302.397
300
300
300
300
324.034
300
300
300
300
300
313.97
300
300
300
322.566
300
306.419
300
300
300
300.013
300
300
300
300
300
300
300
300
300
300
322.313
300
300
300
300
300
300
300.412
300
300
300
300
300
300
300
300
300
300
300
300
300
300
300
300
300
300
300.384
300
300
300
300
300
300.001
307.481
300
300
300
300
300
300
300
300
300
300
300
300
300
300
300
300
300
300
300
300
300
300
320.695
300
325.889
335.125
300
300
300
300
341.748
300
300
300
300
300
331.792
300
300
300
300
300
300
300
300
300
337.376
300
300
300
300
300
300
300
300.002
300
300
300
300
300
300
303.575
300
300
300
300
300
300
300
300
300
300
300
300
300
300
304.881
331.213
300
300
300
300
300
300
300
300
300
300
300
300
300
300
300
300
300
300
300
300
300
300
300
300
300
300
300
300
300
300
300
300
300
300
300
300.001
303.067
300
300
300
300
300
300
300.121
304.213
300
300
300
300.104
300
300
300
300
300
300
300
300
300
300
300
300
300
300
300
300.006
300
300
300
300
300
300
300
300
300
300
300
300
300
300
300
300
300
300
300
300
300
300
300
300
300
300
300
300
300
300
300
300
300
300
300
300
300
300
300
300
300
300
300
300
300
300
300
300
300
300
300
300
300
300
300
303.596
300
300
300
300
300
300
300
300.018
300
300
300
300
300
304.909
300
300
300
302.14
300
300
308.4
300
300
300
300
306.263
300
300
300
300
300
301.533
300
300
300
300
300
300
300
300
300
300
300
300
300
300
301.882
300.304
300
300
300
300.312
300
305.066
300
300
300
300
300
300
300
300
300
328.187
300.07
300
300
300
300
336.107
330.487
304.496
300.004
300
304.218
300
300
300
300
300
306.436
300
306.891
300
304.498
300
300
331.467
315.323
300
300
304.782
300
300.137
303.969
300
303.716
300
300
304.767
307.988
300.098
300
314.061
300
300
300
300
300
300
304.941
304.817
300.004
304.792
300
300
300
300
300
300.089
300.043
300
300
300
300
300
300
300.002
300
300
300.018
300
300
300
300
307.329
300
313.575
319.157
315.413
308.44
300
300
300.01
300
300
304.052
310.681
300
300
300
300.028
300.383
302.799
300
312.486
300
306.736
301.708
300
300
300
300
300
320.811
300
300
309.649
300
300.005
300
300
300
300.004
305.427
300
300
300
300
300
300
300.007
300
300
300
300
300
300
300
300
300
300
300
313.08
300
300
300
300
300
300.016
300
300
300
300
300
300
325.483
300
300.044
300
322.718
300
300
300
300
300
300
300.011
300
300
319.34
308.621
300
303.495
300
300
300
300
300
300.399
305.85
303.843
300
327.974
300
300
300
300
300
300
300
300
300
300
300
315.544
300
300
308.074
300
300
300
300
300
300
300
300.03
300
306.015
313.557
300
300
300
300
301.746
300
303.081
305.527
319.627
300
300
304.986
300
308.185
300.082
300
300
300
300
300
300
300.011
300
300
300.492
300
300
325.64
300
324.342
300.062
300
300.001
300
300
300
300
300
300
300
300
300
300.016
300
300.004
300
300
300.08
300
300
303.11
300.001
303.33
300
302.933
300
300
300.005
300
300.035
300
300
300
300
300
300
300
300
300
300
300
300
300
300
300
300
300
300
300
300.199
300
300
300
300
300
300
300
300
300
300
300
328.068
300
300
300
320.097
300
336.122
323.508
330.577
300
300
300
308.137
300.091
300
301.285
300.014
303.097
300.076
300
301.067
307.451
300
300
328.77
322.465
300
300
300
322.079
300
300
324.574
300
311.353
300
316.842
300
300
300
300.198
300
300
300
300
300
300.017
302.099
300
302.532
300
301.969
301.515
305.548
304.57
300
302.496
300.001
300.026
300.003
300
300
300
300
300
300
300.048
300
300
300
300
300
300
300
300.003
300.406
300
300
300
316.499
325.404
300
300
300.002
300
303.887
300.864
300.002
300.009
300.007
308.824
305.943
300
300.298
300.007
300
300
306.994
300.006
305.763
305.803
300.003
300
300
300
300
300
300
300
300
300
300
300
300
300
311.772
306.458
300.408
317.561
300.077
300
300
300
300
300
300
300
300
300
300
300
306.763
303.111
304.109
302.514
300.013
305.779
306.287
300
300.002
301.479
301.42
306.891
300.968
300
300
300.968
300
300
300
311.304
300
300
301.654
300
304.935
300
300
300
300
300
305.925
300.021
301.124
300.015
300.002
300
300
306.036
300
300.019
300
300.054
305.104
300
303.067
300
300
310.773
300
300
300
300
300
300
300
300
300
300
300
300
300
300
300
300
300
300
300
300
300
300
300
300
300
300
300
300
300
300
300
300
300
300
300
300
300
300
300
300
300
300
300
300
301.636
300
300
300
300
300
300
300
300
300
300
300
300
300
300
300.441
300
300
323.021
300
300
300
300
300
300
300
300
300
300
300
300
300
300.061
300
300
300
300
300
300
300
301.448
300
300
300
300
301.191
300
300
300
300
300
300
300
301.418
313.708
300
300.003
300
300
300
300
300.007
300
300
300
300
307.038
318.936
300
319.476
300
300
300
300
323.326
312.557
301.101
300
300
317.903
300.313
316.623
300
335.502
301.271
300
300.175
300
300
300
300
300
300.245
317.655
300
310.747
300
300
306.478
300
300
300
306.242
300
300
329.656
302.789
300
300
300
300
300
300
300
300
300
300
300
300
300
300
300
300
300
300
300.001
300
300
300
300.001
301.131
313.403
309.864
300
300.003
300
300
300
300
300
306.888
300.004
300
300
300
300
300
300
310.192
300
300
302.522
300
300.049
325.711
300
303.284
324.901
300
300
300
306.214
300
300
300
300
312.41
300
300
322.809
300
325.697
300.303
300
300
300
300
300.102
300
300
300
300
300
300
302.573
300
300
300
300
300
305.391
301.525
304.962
300
300.099
300.052
318.885
303.436
300
304.791
300.042
300
304.803
300
300
300.324
315.477
316.112
300
300.049
300
303.169
300.003
304.027
300
300.375
300
300
304.819
322.976
317.459
300
300
300
302.493
328.356
300
321.487
308.093
300.006
300
300
300
314.038
303.003
308.04
307.122
300
301.728
302.337
303.657
307.79
303.755
300
300.083
305.233
302.618
300.399
300
303.743
300
300.034
305.767
340.057
300
300
300
300
300
320.041
300
321.677
315.178
317.705
300
300
300.004
300
300
337.103
300
327.783
300
300
300
300
300
300
300.081
300
300
300
300
300
300
300
300
300
300
300
300
300
300
300
300
300
300
300
300
300
300
300
300
300
300
300
300
300
300
300
300.001
300
300
300
300
300
300
300
300
300.005
300
300
300
300
300
300
300
300
300
300
300
300
300
300
300
300
300
300
300
300
300
300
300
300
300
300
300
300
300
300
300.025
300
300
300
300
300.065
300.157
300
300
300
300
300
304.143
300
300
305.704
300
301.37
300
303.43
300
300
300
300
300
300
315.057
300
300
300
316.608
300
300
300
311.45
300
300
300
300
300
300
300
300
300
300
300
300
300
300
300
300
300
300
300
300.029
300.091
300
313.099
300
300
300
300
300
300
300
300
310.92
300
300
331.89
300
300
300.013
300
300
300
304.538
300.346
322.566
300
300
300
300
300
312.35
300
311.899
300
305.264
300
302.644
300
307.818
300
308.539
307.229
300
300
300.001
300
300
300
300
300
300
300
300
300
300
300
300.007
300
300.001
300
300
300
300
300
300.398
300
300
300
300
300
300.009
300
300
300
300
300
300
304.058
300
300
300
300
300
300
302.119
300
301.218
300.947
308.113
300
306.286
302.043
300
300.13
327.336
300
321.817
338.881
300
300
300.003
300
300
320.366
300
300
300
300
302.179
302.338
320.215
300
300
300
300
300
300
300
300
313.498
300
310.94
300
300
300
300
300
300
300
300
300
300
305.964
300
312.173
300
300
300
300.022
300
300
300
300
300
315.431
300
300
300
300
300
300
303.661
304.787
317.559
301.244
313.791
314.337
300.034
300
300
300
300.746
303.883
303.48
300
300
300
300
300
300
300
300
300
300
303.668
300
300
300
300
300
300
300
300
303.847
300
300
300
300
300
300
300
300
300
300
300
300
300
300
300.003
300
300
300
300
300
300
300
300.04
300.827
309.156
300
300
300
300
300
300
300
300
300
300
300.274
325.822
300
300
303.064
300
300
303.518
305.399
318.846
300
300
300.018
300.001
305.84
300
300
300
300
300
300.132
300
302.036
300
315.313
300
309.9
300
300
300
300
307.739
300
308.502
300
300
300.588
300
300
300
300
300
300
300
319.565
300
300
300
300.003
300
300
300
300
300
300
300
300
300
300
300.007
300