/*--------------------------------*- C++ -*----------------------------------*\
| =========                 |                                                 |
| \\      /  F ield         | OpenFOAM: The Open Source CFD Toolbox           |
|  \\    /   O peration     | Version:  v2012                                 |
|   \\  /    A nd           | Website:  www.openfoam.com                      |
|    \\/     M anipulation  |                                                 |
\*---------------------------------------------------------------------------*/
FoamFile
{
    version     2.0;
    format      ascii;
    class       volVectorField;
    location    "1.004594";
    object      U;
}
// * * * * * * * * * * * * * * * * * * * * * * * * * * * * * * * * * * * * * //

dimensions      [0 1 -1 0 0 0 0];


internalField   nonuniform List<vector> 
83563
(
(0.019288 0.335236 -9.02312e-05)
(-0.0589585 0.0694261 0.000286866)
(-0.100427 0.0675349 -0.000149885)
(0.0547236 0.0572207 0.000370076)
(-0.000381173 -0.207195 -0.000271815)
(-0.0164529 0.0556699 0.000740473)
(0.431955 -0.0266322 -0.000207595)
(0.374187 -0.00432916 -0.000158977)
(-0.167956 -0.0671125 -0.000523311)
(0.105744 -0.0340739 0.00276972)
(0.106916 -0.0931607 -0.000964161)
(0.413328 -0.0497699 -0.000229175)
(1.12341 0.328206 -0.00394481)
(0.124556 0.0287482 -0.00073104)
(0.332659 -0.00866643 -0.000650196)
(0.036474 -0.353904 0.000580599)
(0.0442549 -0.0240667 -0.000962348)
(0.112975 0.0113968 -0.000777487)
(0.324746 0.0565956 -0.000124454)
(0.119692 0.0196087 -0.000944417)
(0.149562 -0.00208874 -0.000553074)
(0.120802 0.0326681 -0.000721499)
(0.376571 0.150062 0.00112392)
(0.171308 -0.0582833 0.00266986)
(0.0971895 -0.0134294 -0.00111009)
(0.269747 0.0154475 -0.000417975)
(-0.017272 -0.0167797 -0.000376431)
(-0.0485892 -0.215983 0.00689891)
(0.26471 0.020147 -0.000531857)
(0.0133791 -0.110714 0.000512425)
(-0.0999978 0.00659719 0.00167947)
(-0.0811239 -0.0697175 0.000212167)
(-0.149302 0.0487733 0.000520825)
(0.116058 -0.0836922 -0.00021747)
(0.136466 0.111797 0.000165768)
(0.0198574 -0.087962 0.00491066)
(0.00872689 -0.0252418 -0.000723722)
(0.0924236 -0.0290644 -0.00137277)
(0.0788058 -0.0774462 -0.00159745)
(-0.371334 0.341379 -0.000181595)
(0.145435 -0.0156681 -0.000724907)
(0.256526 0.0232067 -0.00059753)
(0.00154513 -0.0895146 -0.00115726)
(0.255172 0.00469687 -0.000719622)
(1.2316 0.0586655 -0.00419847)
(0.442039 0.242431 -0.000393373)
(0.0456474 -0.330436 -0.00192181)
(0.137147 -0.0616699 -0.00118087)
(0.319634 -0.00283521 -0.000379901)
(-0.0987068 -0.22127 -0.000848765)
(-0.0486899 0.0596643 -0.0088087)
(0.250776 0.0144675 -0.0007912)
(-0.0652636 0.381319 5.35993e-05)
(-0.296713 0.400021 0.0253989)
(0.278666 0.167339 -0.000219258)
(-0.129796 -0.695467 -0.00308585)
(0.165407 -0.0770073 -0.000754464)
(0.00751715 0.425569 0.0163823)
(-0.208078 0.558611 0.0273976)
(0.325843 0.19145 -0.00023231)
(-0.461459 0.424817 0.0689835)
(0.0363798 0.190806 -6.57429e-06)
(0.164183 0.00431252 -0.000975406)
(-0.0262061 -0.0844395 0.00139218)
(0.155378 0.15443 0.00945415)
(0.540991 0.785583 -0.017629)
(0.122386 0.284245 0.00667203)
(0.324388 0.191901 -0.000224075)
(1.93562 -0.356205 0.0697269)
(0.145453 -0.128788 -0.00601629)
(-0.00692051 -0.102518 0.0015135)
(1.08731 0.536054 -0.00748274)
(0.082903 -0.0478309 -0.000367214)
(-0.53876 0.320544 0.0125568)
(0.0884838 0.0311982 -0.000117054)
(-0.289045 0.270706 -0.00939856)
(0.273765 0.677844 0.0292954)
(0.0860062 -0.015773 -0.000890431)
(0.0331965 -0.0882621 -0.00059939)
(0.000162745 0.242759 0.0164561)
(-0.0811397 0.308296 0.000158516)
(0.481628 -0.0532714 4.8451e-05)
(0.152365 0.0135959 -2.11965e-05)
(-0.469658 -0.0448869 -0.00014376)
(4.79454e-05 0.217694 -0.000300066)
(0.00939261 -0.184038 -0.000618049)
(-0.0180331 0.00582663 0.000383952)
(-0.212382 0.126308 0.00270455)
(0.0705963 -0.127593 -0.000748164)
(0.000708315 0.206393 -0.000311669)
(0.360929 0.00499034 -0.000304035)
(0.355132 0.00369666 -0.000398763)
(0.778776 0.521703 0.00217793)
(0.179926 -0.000388338 0.00308461)
(-0.0779256 0.179597 0.00641179)
(0.3942 0.0467571 3.26905e-06)
(0.0466082 0.26266 -0.00557607)
(0.777588 0.464931 0.00222096)
(-0.0162778 -0.0258696 -0.0010022)
(0.36909 -0.0585819 0.000170907)
(0.430246 0.23034 -0.000281614)
(0.0180377 -0.0519006 -0.000900927)
(0.197992 -0.120423 -0.000440246)
(0.0245445 -0.0451241 -0.00122019)
(-0.00331096 0.0241857 -0.00327651)
(0.0340462 -0.0132956 -0.00268439)
(0.0307074 0.00829224 -0.00245859)
(0.297331 0.0283654 -0.000398902)
(-0.468801 0.673004 0.0252476)
(0.0744335 -0.0265605 0.000338677)
(0.325853 0.182657 -0.000208156)
(0.323592 0.178607 -0.000196973)
(0.487859 -0.011536 -0.000826792)
(0.0612981 0.103544 0.00254893)
(0.000102861 -0.0468415 -0.00165814)
(0.367176 0.0176227 -0.00037868)
(0.527433 0.439219 0.00145202)
(0.345864 -0.00740265 -0.000231641)
(0.113963 -0.112107 -0.00129953)
(0.436457 0.0351157 -8.10761e-05)
(0.0272124 0.0343966 -0.00379866)
(0.915712 0.0510633 0.00200049)
(0.320088 0.17442 -0.000241562)
(-0.120886 -0.119206 0.00295649)
(0.558115 0.0692564 -0.000408021)
(0.342685 0.0095636 -0.000223118)
(0.398419 0.229542 0.00137512)
(0.230409 -0.161851 -7.13691e-05)
(0.392807 0.0741097 -0.000317241)
(-0.00616047 0.0861211 0.000786273)
(0.376187 -0.312694 -0.00232159)
(0.806255 0.495575 -0.0521187)
(0.142739 -0.195533 6.98765e-05)
(-0.0937951 -0.0148577 -0.0265045)
(0.34684 0.0308364 -0.000102382)
(0.17108 -0.0161017 -0.000526605)
(-0.0557006 0.418275 -0.00174533)
(-0.0595764 0.0192842 0.00100336)
(0.333105 0.0228727 -0.000621876)
(0.542905 -0.0957264 -0.00108162)
(0.14813 -0.265993 -0.000628647)
(0.918569 0.0227999 0.00128603)
(0.334806 -0.000759409 -0.000229085)
(0.155902 -0.253322 -0.0009274)
(0.435503 0.10214 0.0170808)
(0.223051 0.928858 0.0467397)
(0.364689 0.0509564 -0.000771186)
(0.0564753 0.0272955 0.000315043)
(0.350898 0.0553933 -0.000543103)
(0.0517957 0.048453 -0.0020407)
(-0.00160678 -0.198061 -0.00143055)
(0.092945 0.0371502 -0.00101347)
(0.0497575 -0.0466789 -0.000596081)
(0.410251 0.028496 2.1777e-05)
(0.272496 0.0415602 -0.000624904)
(0.314259 0.0177529 -0.000339783)
(0.358904 -0.0111209 -0.000419442)
(0.0128634 -0.0046653 0.000329717)
(0.442337 0.00193006 -0.000194986)
(1.50328 0.721845 0.00887941)
(0.411706 0.0233472 8.3154e-05)
(0.135995 0.0164539 -0.000455868)
(0.168811 0.00613773 -0.000800506)
(0.364299 -0.0052374 -0.000239267)
(0.397545 0.0297451 -5.20703e-05)
(0.0341497 0.259996 -0.00123284)
(0.377297 0.139353 -2.26313e-05)
(0.0690333 0.51167 0.00600839)
(0.404613 0.0195807 -0.000103408)
(0.399608 0.0497152 6.77854e-05)
(0.342157 -0.00507639 -0.000535229)
(0.346461 -0.0120345 -0.000434067)
(0.552559 0.0274901 0.00160677)
(0.482305 -0.00252657 0.000910068)
(0.562017 0.00951939 0.000316743)
(0.0113177 0.0759057 0.00123344)
(0.142298 0.00659 -0.000929307)
(0.413087 0.0539867 -0.000452747)
(0.223637 0.127538 -8.95943e-05)
(0.395972 0.0603131 -5.90888e-05)
(0.331274 -0.0388306 -0.000308885)
(0.0592837 -0.102317 -0.000347292)
(0.416959 0.102905 -0.000288689)
(0.017543 -0.152796 0.00078583)
(0.0351757 -0.105418 0.00487053)
(-0.00888979 -0.371259 0.00685982)
(0.0193652 0.101392 0.00234984)
(0.0971227 -0.0878041 -0.000409719)
(-0.0789923 1.19642 -0.00269043)
(-0.123634 0.365441 -8.84314e-05)
(-0.0481868 0.263873 -0.000221232)
(0.0460705 -0.459446 0.0178033)
(0.45813 -0.00576388 0.000190352)
(0.119336 -0.0516625 -0.00226738)
(0.444877 -0.012289 0.000223541)
(0.193142 -0.0482344 -0.000588639)
(0.29761 0.0338526 -0.000798213)
(0.370331 0.0183791 -0.000220302)
(0.174884 -0.000553349 -0.000763761)
(0.302758 0.0495088 -0.000663873)
(-0.266735 0.273535 0.00065344)
(0.1474 0.0276273 0.00210373)
(-0.217884 0.336269 0.00137361)
(0.355987 0.0249663 -0.000217328)
(-0.243748 0.343299 0.000762112)
(-0.120806 -0.0433389 0.00352192)
(0.275773 0.0523716 -0.000780344)
(0.359291 0.438578 0.00393957)
(0.193703 -0.0466403 -0.000726148)
(0.141943 0.00622061 -0.000601511)
(0.303734 0.0519265 -0.000808558)
(0.114143 0.971647 0.00570583)
(0.254787 0.139829 -0.000631052)
(0.352458 5.97997e-06 -0.000323729)
(0.392558 0.0493163 -0.000312835)
(0.186507 0.0103872 -0.000514112)
(0.350399 0.0140543 -0.000117734)
(0.402569 -0.020744 0.000137116)
(0.130842 0.00324119 -0.000885444)
(-0.124437 -0.0192797 -0.00210432)
(0.357899 0.000936114 -0.000477861)
(-0.0227678 0.0484703 -0.00135953)
(0.323559 0.0253226 -0.000442041)
(-0.132041 -0.0439233 -0.00128507)
(-0.369681 0.875344 0.00785615)
(0.361063 -0.00665463 -0.000210159)
(-0.29862 0.554965 -0.000295816)
(0.0212455 0.0123951 -0.000485134)
(0.347319 0.0562986 -0.000454221)
(0.046097 0.766422 0.00191103)
(0.0165812 -0.0245133 -0.000808998)
(0.321725 0.0164285 -0.000494828)
(0.358643 0.00042387 -0.000326315)
(0.274493 0.0496342 -0.000619534)
(1.57647 -0.328666 0.00373303)
(0.1354 -0.00505685 -0.000643361)
(0.306788 0.0408708 -0.000647802)
(0.125225 -0.118011 0.00113973)
(0.0993863 -0.101582 -0.000492489)
(-0.0601175 -0.0260139 6.45676e-05)
(0.38202 0.0377415 -0.000396065)
(0.209797 0.0105536 -0.000520939)
(0.320889 -0.00580535 -0.000428341)
(0.369372 0.0290028 -0.000277835)
(0.491994 0.146753 0.000585567)
(-0.0208453 0.0599245 -0.00048833)
(1.00526 0.323994 0.0048323)
(0.45522 0.0258931 -5.52608e-05)
(0.101359 0.469957 -0.000786492)
(0.0927358 0.00717209 -0.000618239)
(0.289868 0.105977 0.000195944)
(0.00391112 0.098595 -0.000499223)
(0.0192188 0.246699 0.000558924)
(0.372919 0.00277351 -0.000196307)
(0.0166435 0.237341 -0.000271677)
(0.143772 0.0167867 -0.000712824)
(0.335368 0.01034 -0.000432571)
(0.382792 -0.0705418 0.000280239)
(0.288591 -0.0833035 -9.01345e-05)
(0.026285 0.245255 0.000358812)
(0.0176303 0.244665 0.000633259)
(0.201229 -0.00266169 -0.000791676)
(0.588121 0.368617 0.000873748)
(0.378213 0.0602194 -0.000377941)
(0.0103152 0.118731 -0.000415778)
(0.187566 -0.0100535 0.00154101)
(0.381912 0.0387786 -0.000502014)
(0.38122 0.296001 -0.000740036)
(0.430369 0.0419749 -0.000351526)
(0.371154 0.00936519 -0.00042522)
(0.382331 0.283711 -0.000433092)
(0.388331 0.304063 -0.00072943)
(0.0780016 -0.253048 -0.000681313)
(0.127903 0.0778727 0.00157827)
(0.362653 0.293592 -0.000812361)
(0.165483 -0.0608894 0.000581515)
(0.362216 0.33981 -0.00146238)
(0.333107 -0.00538995 -0.000309479)
(-0.36054 0.145439 0.000390944)
(0.006024 0.103839 -0.000673225)
(0.397817 0.0689955 0.000206589)
(-0.223419 0.405336 0.00096228)
(-0.04122 0.279441 -0.000117552)
(-0.148171 0.28245 0.00126535)
(0.0800311 -0.0663649 0.00143656)
(-0.00712363 0.0441238 -0.000506946)
(-0.186142 0.392323 0.0116983)
(0.421914 0.288812 0.000212232)
(0.111105 -0.11584 0.000186639)
(0.0277665 -0.0383875 -0.00112954)
(-0.0560995 0.0505323 0.00305601)
(0.0461926 -0.118066 -0.000428911)
(0.381451 0.316158 -0.000434368)
(0.33739 0.0229232 -0.000752449)
(0.0535841 -0.0452018 -0.0012925)
(-0.321224 0.239352 0.00134146)
(0.28928 0.00227976 -0.000548819)
(0.484668 0.0265381 0.000289818)
(0.00245096 0.0978723 -0.000704524)
(0.360997 0.000316391 -5.39557e-05)
(-0.0851728 0.00788797 -0.000611653)
(0.293249 0.00423419 -0.000477576)
(0.389009 0.00709841 -0.000250834)
(-0.0228879 -0.00018729 0.000157546)
(-0.00659233 0.00934777 0.000123412)
(0.372306 0.32399 -0.000505833)
(0.373885 0.334653 -0.00125836)
(-0.8424 0.728188 -0.0167742)
(0.39513 0.0143113 -0.000270547)
(0.425397 -0.0233687 2.61414e-05)
(0.171402 0.312317 -0.000394473)
(0.357889 0.0029211 -0.000590057)
(-0.11052 0.718728 -0.024009)
(0.144443 -0.0834474 -2.50069e-05)
(0.299647 0.769511 0.00671876)
(0.0405575 -0.0101244 0.000111045)
(0.646367 0.354336 0.00173851)
(0.162797 0.373086 -0.000381652)
(0.170396 0.365126 -0.000785042)
(0.338104 -0.00232602 -0.000366773)
(0.485916 0.0605294 0.000274913)
(0.148698 0.330444 -0.000458139)
(0.0218026 -0.109541 -0.000934364)
(0.192298 -0.00609444 -0.00128669)
(0.33744 -0.000315068 -0.000370471)
(0.174027 0.364047 -0.000182892)
(0.436369 0.192582 -0.000520801)
(-0.642606 -0.0577269 0.00243352)
(0.354163 0.0345892 -7.09885e-05)
(-0.227742 0.00490161 -0.00347086)
(0.400479 0.0221799 -5.30627e-05)
(-0.0235403 0.0467198 0.00114846)
(0.373978 0.0333013 -0.000341616)
(0.80296 0.12028 -0.00442856)
(-0.0232439 0.354938 -0.000115513)
(0.0859762 -0.0979975 -0.000365372)
(0.129718 0.127967 0.000923844)
(-1.30322 1.05686 -0.0622919)
(0.382676 0.0213207 -4.04451e-05)
(-0.0409331 0.0228525 -0.000648509)
(-0.417036 0.230478 -0.013888)
(0.834368 0.722829 0.0331446)
(0.213824 0.239809 -0.000140962)
(0.00411708 0.0682425 0.000116041)
(0.393021 0.0179927 -6.30616e-05)
(0.103529 -0.115158 0.000113548)
(0.391383 0.00684548 -4.45785e-05)
(0.0524024 -0.0296099 0.000747947)
(0.351789 0.0131642 -0.000379135)
(-0.000439236 0.07146 7.77585e-05)
(0.345181 0.00157504 -0.000348835)
(0.447641 0.0106169 0.000130059)
(0.034787 0.00198622 -0.00104401)
(-0.328646 -0.66523 0.0181633)
(0.881913 0.314796 -0.00251241)
(0.110873 0.0320352 0.00030343)
(-0.112472 0.0541959 0.000339803)
(0.368942 0.0688043 0.000139372)
(0.369855 0.0048487 -0.000378157)
(-0.194914 0.272467 0.00578977)
(0.657704 0.238846 0.00170868)
(-0.121901 0.287235 0.000168555)
(0.856714 0.266065 0.0027048)
(0.371294 0.44065 0.00305599)
(0.808056 0.275869 0.00167636)
(-0.0918794 -0.0905723 0.00668864)
(-0.0874881 -0.171524 0.00181192)
(0.354727 0.00242462 -9.72403e-06)
(0.377672 0.208627 0.00365548)
(0.171593 -0.0105934 -0.000834904)
(0.35179 0.0191768 -0.000313099)
(0.255085 -0.00801847 -0.00105729)
(0.342861 0.0062915 -0.000495462)
(0.291009 -0.710054 0.0206104)
(0.176541 -0.702003 0.0100532)
(0.336124 0.0307068 -0.000541695)
(0.827485 0.298212 0.00245023)
(0.322575 0.0347965 -0.000455405)
(0.127278 0.00401966 -0.000515408)
(0.392915 0.0161641 -7.21263e-05)
(0.0297693 -0.107087 -0.000770379)
(0.262622 0.168692 0.000234924)
(-0.0715565 0.344812 -0.000693221)
(-0.14064 -0.0871067 -0.000863224)
(0.861919 0.250747 0.00374463)
(0.734669 0.327399 0.00475367)
(0.178572 -0.0471385 0.00220982)
(0.0498223 0.184285 0.000584385)
(0.629347 0.348213 0.00460835)
(0.337608 0.110782 0.000400386)
(0.00307673 0.222224 0.000935739)
(0.179123 -0.0138805 0.000746311)
(0.0697896 0.0295591 0.000690119)
(0.681039 0.350042 0.00344124)
(0.458399 0.00786691 0.00065113)
(0.35926 0.0335086 -0.00034422)
(0.408083 0.0452813 0.000125329)
(0.334869 0.00966893 -0.000310901)
(0.323552 0.0169977 -0.000262163)
(0.356746 0.0183238 -0.000340068)
(0.165869 0.165142 0.00938463)
(0.296153 0.0131264 -0.000816807)
(0.128858 0.00903232 -0.00101808)
(0.607456 -0.0894332 -0.00116735)
(0.644802 0.0475918 0.000458019)
(0.151339 0.0101474 -0.000825256)
(0.00215269 -0.701506 0.00920433)
(0.144241 0.0259075 -0.000863263)
(0.0276908 0.19294 -3.86746e-05)
(0.354673 -0.0281429 -0.000525832)
(-0.0201551 0.745123 -0.0136193)
(0.389243 -0.0167901 -0.000498618)
(0.384823 0.284478 0.000628131)
(0.0709828 -0.0254701 3.28294e-05)
(0.0435803 0.5088 -0.00860327)
(-0.354458 0.462861 1.51999e-05)
(0.0696256 -0.0228248 0.00223536)
(0.00755663 0.229174 0.000277583)
(0.695771 0.325239 0.00509932)
(0.0380854 0.0930383 0.000679243)
(0.0526207 0.0730427 -0.000467158)
(0.0010435 -0.0297382 0.00178339)
(0.268547 0.880385 -0.0435839)
(0.334145 -0.00328361 -0.000384202)
(0.399612 0.117894 0.000890206)
(0.080723 0.847495 -0.0110199)
(0.372078 0.107094 0.000903151)
(0.146865 0.0785657 -0.00154673)
(0.477199 -0.0792205 0.000600532)
(0.440292 0.0362052 0.000148279)
(0.382742 -0.0132582 0.000194703)
(0.238484 -0.200602 -3.31143e-05)
(0.399849 0.0201964 -0.000154312)
(0.348359 0.0302176 -0.000136179)
(0.506149 0.310623 0.0033043)
(0.322962 -0.00767658 -0.000340779)
(0.276236 0.401151 0.00587306)
(0.20736 0.103073 -0.000114002)
(0.350689 0.00251279 -8.71599e-05)
(0.0206313 0.208665 -0.0047092)
(0.374086 -0.0301462 -0.0005544)
(-0.00698956 -0.0894973 -0.00075289)
(0.424327 0.352446 0.0025197)
(0.351901 -0.00766014 -0.000198468)
(0.326077 -0.158175 0.000922828)
(0.352079 -0.00120128 -0.000417741)
(0.0202525 -0.0855607 -0.000888428)
(0.338874 -0.148624 0.00109261)
(1.45884 0.0285047 -0.00764896)
(-0.00951705 -0.693918 0.120211)
(0.320094 -0.129195 0.00107004)
(0.0321102 -0.0414302 0.000709831)
(0.362493 -0.0100688 0.000110155)
(0.0931602 -0.0272604 0.000786294)
(0.391473 0.0529869 -0.000251935)
(0.370872 0.0148022 -0.000341073)
(0.502524 -0.0918614 0.000941664)
(0.00943478 -0.0706898 -0.000788994)
(0.0383615 -0.0425968 0.000679475)
(0.422205 -0.124993 0.000397685)
(-0.0344674 0.277948 0.000880668)
(0.598584 0.254314 0.0234935)
(0.13862 -0.0727914 -0.000644286)
(0.0527869 -0.0529625 0.00034557)
(0.0039603 0.20456 -0.000264468)
(0.194812 -0.0464072 -0.0008158)
(0.263113 0.142155 -0.000156027)
(0.339175 -0.000161365 -0.000191003)
(0.15899 -0.00053123 -0.000674923)
(0.316052 0.0190263 -0.000227857)
(0.315846 0.0143822 -0.00026924)
(0.35764 0.00841811 -0.000297275)
(0.0719039 0.0163106 0.000479439)
(0.359974 -0.00525367 -0.000221474)
(0.332299 0.020733 -0.000295939)
(0.401951 0.131787 -0.000482529)
(0.320734 0.0345371 -0.000314177)
(0.000718061 0.219383 -0.000208331)
(0.000563933 0.216646 -0.000204015)
(0.175261 -0.0706551 0.000503331)
(-0.00116134 0.216875 -0.000201234)
(0.0170235 -0.00659275 -0.000152534)
(0.327738 0.0570309 5.42688e-05)
(0.00103506 0.214115 -0.000311608)
(0.360455 0.0144952 -0.000127383)
(-0.0750674 -0.0956736 -4.5985e-05)
(0.381251 -0.0622572 0.000229345)
(0.377323 0.0366569 -0.000370244)
(0.841195 0.00293666 0.0285492)
(0.354888 -0.0252844 -0.000109279)
(0.336633 0.0184195 -0.000250889)
(0.272763 0.14529 -0.000566001)
(0.277872 0.154451 -0.000514078)
(0.265283 0.288721 -0.00978113)
(0.430464 0.0204745 -0.00036854)
(0.458211 0.00333337 -0.000178351)
(0.268823 0.146363 -0.000436205)
(0.021218 -0.0488407 -0.00128629)
(0.0453578 0.160653 -4.99489e-05)
(0.25789 0.15262 -0.00023665)
(0.333621 -0.0376053 -0.000333154)
(0.369633 0.0931848 -8.4475e-05)
(0.484751 -0.0119557 0.000799937)
(0.093766 -0.0987608 -0.000141934)
(0.134938 0.196586 -0.00064054)
(0.377482 0.102145 -6.02333e-05)
(-0.00284845 0.0436109 0.000122529)
(0.360062 0.0819097 -0.00054339)
(-0.166885 0.000439257 -0.00022765)
(0.108322 0.15441 -0.000578175)
(0.34761 0.120429 -0.00203264)
(0.00381616 0.0405179 0.000179983)
(-0.00203019 0.0314407 0.000343092)
(0.0289561 0.00413842 0.000492045)
(0.130606 0.121758 -0.000381325)
(0.456096 0.0157024 -0.000372886)
(0.000865086 0.0457767 0.000211426)
(-0.294734 -0.0496161 -0.00339204)
(-0.0589079 -0.0258819 -0.00326966)
(0.132394 0.141979 -0.000605438)
(0.1094 0.138953 -0.000495127)
(0.546171 0.377203 0.00174331)
(0.28533 0.0279673 -0.000338842)
(0.403174 0.0359886 0.000113166)
(0.378561 0.0642083 -0.000313261)
(0.111947 0.0245071 -0.000480929)
(0.490749 0.0549942 0.000207955)
(-0.438635 -0.2465 0.00714277)
(0.160003 0.104797 0.000391425)
(0.0185647 -0.0016982 0.000541952)
(0.466101 0.0151775 -0.000274278)
(-0.112273 0.274668 0.00015457)
(0.0759383 0.185073 0.000365984)
(0.0553392 0.0902875 0.000478471)
(0.174872 -0.0289645 -0.000395897)
(0.36432 0.0170117 -0.00032637)
(-0.231385 0.176903 -0.0181749)
(0.37399 0.008608 -0.000538536)
(0.508295 0.0685262 0.000326506)
(0.397318 0.169044 -0.00442049)
(0.0284218 0.18899 0.000639804)
(0.530985 0.0420188 0.000295915)
(0.251173 0.185993 -0.00184873)
(0.340814 -0.104082 -0.00053235)
(0.258066 -0.158753 0.00113197)
(0.202024 -0.187013 0.00155667)
(0.13381 0.212089 0.000399305)
(0.224965 -0.165511 0.0010972)
(-0.410468 0.341439 0.0160081)
(0.374563 0.0727299 -0.000577141)
(0.353836 0.0576138 -0.000488784)
(0.438177 0.185359 0.00105228)
(0.353457 0.0637175 -0.000780394)
(0.949782 1.1085 0.0067559)
(0.355829 0.0507962 -0.000559071)
(0.351159 0.0537192 -0.000376066)
(0.0639219 -0.171228 -0.00163434)
(0.79097 0.28843 -0.00119911)
(0.183276 0.472874 -0.00454535)
(0.133282 -0.00300607 -0.000811186)
(0.380299 0.120719 0.000481537)
(0.135771 -0.389072 0.00194821)
(0.377908 0.000350243 -0.000441379)
(0.359558 0.00286046 -0.000271259)
(-0.0321114 0.0696754 0.000420773)
(0.174547 -0.0170618 -0.000456112)
(0.21022 0.455156 -0.00457632)
(-0.0681136 -0.00365354 -0.000460244)
(0.411951 -0.077653 -7.37817e-05)
(0.339344 -0.00191476 -0.000373908)
(0.249096 0.00490932 0.00454704)
(0.185302 0.2033 -0.000108296)
(0.121453 -0.0302265 -0.000705852)
(0.276624 0.152458 -0.000686917)
(0.111786 0.444376 -0.00418436)
(0.40739 0.00902238 -0.000253529)
(0.0543982 0.0153341 0.000601669)
(0.130031 -0.0131476 -0.00128757)
(0.444989 0.468854 -0.00100616)
(0.138344 0.00303838 0.00071718)
(0.15599 -0.0343479 -0.00167138)
(1.84646 -0.61077 0.106911)
(0.581235 0.0871098 0.000746856)
(0.361797 -0.0100231 0.000124183)
(0.00441858 -0.00706187 0.000469799)
(0.264282 0.14468 -0.00034275)
(0.134189 0.0144337 -0.000390685)
(0.118642 -0.0527294 -0.000994673)
(0.132944 0.0227555 -0.00060149)
(1.51733 -1.45825 0.227321)
(0.0845024 -0.048783 -0.000834207)
(0.375623 0.101141 -0.00086776)
(0.0330415 -0.0619435 -0.00113006)
(0.0594979 0.17287 0.000586151)
(0.222553 0.0290653 -0.00120741)
(0.040818 -0.0328419 0.000492351)
(0.086404 -0.0653288 -0.000981691)
(-0.00365539 -0.0243642 -0.00128672)
(0.0893845 0.127068 0.000495213)
(0.292139 0.232644 0.000231468)
(-0.015456 0.114503 0.00331442)
(0.15272 0.0433143 -0.000746175)
(-0.0233453 0.0335012 -0.00126174)
(0.117401 -0.0758799 -0.000817381)
(0.152857 -0.0913214 -0.000488563)
(0.0873198 0.0288144 -7.46315e-05)
(0.287543 0.161087 -0.00250373)
(0.160041 -0.0137575 -0.00180961)
(0.001119 -0.034899 -0.00128135)
(0.0139157 -0.104488 0.00138269)
(0.127951 0.00134106 -0.000460865)
(0.347831 -0.0021837 -0.000279187)
(0.365513 -0.00561513 -0.00035219)
(0.147905 0.00286552 -0.000680103)
(0.563245 0.309234 0.00121607)
(0.0646399 0.220763 0.000546302)
(0.0589491 0.18292 0.000480978)
(0.183205 -0.000974454 -0.000739754)
(0.155667 0.2701 -0.000359764)
(0.359406 -0.0879464 -0.000693614)
(-0.0593619 -0.0723214 0.00392951)
(0.509917 -0.0267988 0.00662239)
(0.0668742 0.167417 0.000485752)
(0.177734 -0.0845088 -0.000129459)
(0.397243 0.0242049 -0.000259741)
(0.262349 0.0584813 0.000519958)
(0.369046 0.0589861 9.98699e-06)
(0.128132 0.0478322 -0.000447959)
(0.0609054 0.155292 0.00051154)
(0.10674 -0.0410139 -0.000545011)
(0.277089 -0.00446397 -0.000401768)
(0.303693 0.170091 -0.000376678)
(-0.000966968 -0.116546 0.00104199)
(0.358188 -0.0342871 5.61026e-05)
(0.00667203 0.00608676 -0.00143262)
(0.474514 0.143455 0.00219788)
(-0.0452833 0.260091 0.000289723)
(0.146036 0.261211 -0.000459087)
(0.131565 -0.0974 -0.000800913)
(0.0131872 -0.027561 -0.0013052)
(-0.00872621 0.267551 0.000570781)
(0.00335909 0.26702 0.00049114)
(-0.00501679 0.274318 0.000532526)
(0.00714343 -0.259865 -0.000474837)
(0.310909 -0.00610046 -0.000357801)
(0.00191428 0.00542151 0.000477404)
(-0.00130927 -0.0190351 -0.00121794)
(-0.00809538 -0.302402 -0.000428852)
(1.39796 0.242937 0.0130647)
(0.153865 0.252801 -0.000437379)
(0.156018 0.252264 -0.000308317)
(0.202009 0.390123 -0.0006407)
(0.513955 0.13822 0.000519512)
(-0.584866 0.70424 -0.0061945)
(0.502209 0.125122 0.000344594)
(0.357144 5.61208e-05 -0.000302951)
(0.328725 -0.0132977 -0.000215634)
(0.380776 0.0553372 -0.000372424)
(0.186351 -0.283501 -0.000370521)
(0.331169 0.00946025 -0.000248782)
(-0.37097 0.131576 -0.000157144)
(0.118736 0.285187 -0.0028778)
(0.181171 -0.244165 -0.000313631)
(0.179076 -0.254518 -0.000571277)
(-0.148579 0.256598 0.0140991)
(0.0352624 0.0718064 0.000367403)
(0.0805904 -0.123362 -0.00061391)
(0.120859 -0.0421081 -0.000630482)
(0.147001 -0.00983245 0.00063609)
(0.00293022 0.298206 0.000313023)
(0.19834 -0.237192 -0.000482006)
(0.355648 0.00220932 -0.000307471)
(0.188351 -0.294777 -0.000434932)
(0.180353 -0.267769 -0.000494498)
(0.418134 0.0261851 1.86208e-05)
(0.332532 0.182394 -0.00033471)
(0.117824 -0.0381533 0.000722761)
(0.32752 0.184028 -0.00027249)
(0.388582 0.0363806 7.69548e-05)
(-0.0446337 -0.011178 0.000581086)
(-0.121059 0.224899 0.0231064)
(0.25656 0.122048 -0.000833745)
(0.391094 0.0355942 7.82849e-05)
(-0.213777 0.13306 0.0358969)
(0.310719 0.000135684 -0.000337462)
(0.046719 -0.102747 0.000844898)
(0.447011 -0.131199 0.000408851)
(0.389802 -0.067522 0.00159403)
(0.0453639 0.122003 -0.00181215)
(0.0498812 0.0616224 0.000300909)
(0.13363 -0.0425197 -0.000396273)
(0.47638 -0.0412714 0.000160511)
(0.0169549 0.133441 -3.03328e-05)
(0.371526 -0.0188922 8.11949e-05)
(-0.488345 0.317424 -0.00169799)
(-0.133395 0.339926 0.00235201)
(0.367096 0.00815444 -0.000393867)
(0.487484 0.0617318 0.000132469)
(0.00454052 -0.096608 0.000936594)
(-0.0110534 -0.0807823 0.00127644)
(0.335302 0.0566829 -0.000458034)
(0.00294297 0.222933 0.00062439)
(0.0515353 -0.0194119 -0.000639067)
(-0.00243818 0.253037 0.000535045)
(0.191721 0.41827 -0.00116068)
(0.353817 -0.0532496 0.000112264)
(0.348568 0.00679665 -0.000223632)
(0.180682 -0.00438672 -0.000777664)
(0.278026 0.0925784 8.47838e-05)
(-0.00219961 0.248997 0.000577858)
(0.150901 0.0207466 -0.00080198)
(0.000847484 0.253949 0.00064115)
(0.0790974 0.136396 0.000305988)
(-0.00937868 -0.0201287 -0.00138857)
(-0.00303937 0.255005 0.000665923)
(0.419827 0.0416511 -0.000133791)
(0.110596 -0.0540863 -0.000939711)
(-0.0253848 0.0292499 -0.00139378)
(0.37681 -0.0804944 -0.000473897)
(0.358846 -0.225594 -0.000286635)
(-0.0172059 0.0161377 3.9491e-06)
(0.255281 0.460567 -0.000851718)
(-0.0562609 -0.215584 -0.000294499)
(0.0166892 0.257767 0.0044638)
(0.363809 0.00140814 -0.000524648)
(0.44518 0.00229655 1.39449e-05)
(-0.616488 0.557391 0.00775381)
(-1.17944 -0.718962 0.0776601)
(0.0841363 -0.043915 -0.00109136)
(-0.105277 -0.473958 0.016687)
(0.395127 0.0845982 -0.000284363)
(0.0262872 0.0141152 0.000260685)
(0.0342885 0.0204134 0.000266964)
(0.473789 -0.0974789 0.000529822)
(-0.98401 0.784748 -0.0388246)
(0.35592 -0.0600047 5.71443e-05)
(0.143992 0.00227999 -0.00091678)
(0.0639288 -0.105945 0.00153982)
(0.161271 1.14829 0.0802256)
(0.392475 0.0877398 -0.000506054)
(0.111863 0.00240225 -0.000843595)
(1.46164 0.563063 0.00379511)
(0.299438 -0.0196909 -0.000393236)
(0.647083 0.165259 0.000600691)
(-0.0667903 0.219175 -0.00046884)
(0.0997365 -0.117641 -0.000572419)
(0.367496 0.0341922 6.19339e-06)
(0.467012 0.0823964 0.000412947)
(-0.300804 1.14737 0.00025856)
(0.100357 -0.0409392 -0.000759536)
(0.125602 0.0116346 -0.000445219)
(0.122238 0.00320424 -0.000273698)
(0.117501 0.0377586 0.000239903)
(-0.510228 -0.924473 -0.0313415)
(0.342459 0.11793 -0.000470437)
(0.356341 0.00118519 -0.000489127)
(0.0959098 0.0252749 -0.000394935)
(0.491426 0.00912867 -0.000149131)
(0.489782 0.0517059 -0.00020554)
(0.091299 0.0224842 -0.00212742)
(0.0934357 0.00894545 -0.00180143)
(0.137259 -0.00508107 -0.00151989)
(0.159774 -1.37024 0.0391647)
(0.368904 0.0851557 -0.000498514)
(0.208724 0.179977 0.000578868)
(0.0633135 -0.111572 -0.000620005)
(0.158273 -0.0582075 -0.000618425)
(0.13214 -0.000753782 -0.00115135)
(0.424857 0.215466 -0.000440405)
(0.415528 0.00649625 0.00350111)
(0.134963 -0.0245347 -0.000665257)
(0.12417 -0.00636645 -0.000597005)
(0.341229 0.00255539 -0.000291681)
(0.125351 -0.00109604 -0.00126164)
(0.0172093 -0.0210753 -0.000217658)
(0.119036 0.0110062 -0.0010855)
(0.156189 -0.00589709 -0.000772876)
(-0.246471 0.346637 -0.00731859)
(0.123924 0.0134621 -0.000248159)
(0.243742 0.123124 0.00026052)
(0.26352 0.123203 0.000221845)
(-0.0032018 -0.283122 0.000233572)
(-0.27929 0.221276 -0.00303427)
(-0.322588 0.105964 -0.000438354)
(-0.00834704 -0.0447996 -0.000821929)
(-0.0833006 0.0895388 0.000122645)
(0.349592 0.0146806 -0.000489557)
(0.37504 0.0207693 -0.000357698)
(0.108603 -0.036023 -0.000711682)
(0.127705 0.150116 -1.25924e-06)
(-0.329574 0.00287093 0.00650003)
(-0.02292 0.332923 -0.00104056)
(0.17267 0.191954 0.000361882)
(-0.208559 0.383238 -0.00193876)
(0.303154 -0.0804399 -0.000850517)
(0.156347 0.164895 0.000807915)
(0.209641 0.0825697 -0.00160547)
(0.0442896 -0.154215 0.000209259)
(0.068261 -0.0442156 5.34671e-05)
(0.155877 0.162624 0.000658324)
(0.370052 0.0186482 -0.000427574)
(0.375406 0.0962256 -0.000685385)
(0.348499 0.324261 0.000802841)
(0.298123 -0.00191243 -0.000926977)
(0.432293 0.0624183 -0.000197627)
(0.151554 -0.00293761 -0.00142871)
(0.441157 0.0222165 -0.000408488)
(0.600923 0.348844 -0.0171438)
(-0.0863886 0.360417 0.00692784)
(0.373239 -0.0116448 0.00048274)
(0.37624 0.0840141 -0.000729306)
(0.332164 0.000194378 -0.000466897)
(-0.26569 0.197492 -0.000275861)
(0.308012 -0.27627 -0.0100435)
(0.163423 -0.383528 -0.00887058)
(0.29606 0.0884039 -0.00685633)
(0.0547363 -0.0524642 -0.000170536)
(0.105629 0.108511 -0.0127352)
(0.283427 0.20624 0.000479949)
(0.369828 0.0994778 -0.000379674)
(2.83473 0.321527 0.0304956)
(0.13315 0.156328 -4.1053e-05)
(0.51654 -0.18976 0.00140538)
(0.279241 -0.143239 0.000628741)
(0.377705 0.123151 -0.000387994)
(0.380927 0.147258 -0.000313082)
(-0.178162 -0.0626421 -0.00140086)
(-0.203427 -0.0282083 7.58814e-05)
(1.92261 -0.437468 0.105496)
(0.101554 -0.107717 -0.000906122)
(0.371719 0.00813971 -0.000192106)
(0.0840088 0.474779 0.000766475)
(0.349973 0.0160868 -0.000155453)
(0.481634 -0.108437 0.00255107)
(0.164017 -0.00944927 -0.000540965)
(0.147216 -0.00434485 -0.000774215)
(0.0526298 0.0891108 0.000409973)
(0.104263 -0.00219818 -1.46096e-05)
(0.0990543 0.0168025 0.00032272)
(0.376983 0.139884 -0.00041999)
(1.60562 -0.110313 0.0261948)
(1.60166 0.456302 0.125191)
(0.0548843 -0.0275967 -0.00155727)
(0.0417485 0.127932 0.000527207)
(0.0063456 -0.109387 -0.000982815)
(1.32314 -0.794857 -0.3155)
(0.444978 -0.0216809 0.000952551)
(0.396228 -0.0798285 0.00105675)
(0.430242 0.00613749 0.000977595)
(0.455708 0.149256 -0.00920451)
(0.435395 -0.0466359 0.000673005)
(0.419732 0.0694967 -0.000387795)
(0.396545 0.119241 -0.000126913)
(0.125966 0.00978284 -0.00162193)
(0.090642 0.0510806 -0.000227173)
(2.02874 0.0356439 0.00218202)
(-0.0333546 -0.0225508 -0.00174008)
(0.388925 -0.0354912 0.000315616)
(-0.00756439 0.234008 0.000796943)
(0.338796 0.0559454 -0.000387249)
(0.130857 0.22578 0.00048355)
(0.797471 0.048222 -6.01379e-05)
(0.0109947 0.218265 0.000528075)
(0.370371 0.0911558 -0.000598887)
(0.359953 0.0372137 0.000120376)
(0.0032542 0.102722 2.81506e-05)
(0.393684 0.0295688 -0.000214523)
(-0.00020274 0.106269 0.000105133)