/*--------------------------------*- C++ -*----------------------------------*\
| =========                 |                                                 |
| \\      /  F ield         | OpenFOAM: The Open Source CFD Toolbox           |
|  \\    /   O peration     | Version:  v2012                                 |
|   \\  /    A nd           | Website:  www.openfoam.com                      |
|    \\/     M anipulation  |                                                 |
\*---------------------------------------------------------------------------*/
FoamFile
{
    version     2.0;
    format      ascii;
    class       volScalarField;
    location    "0.568111";
    object      epsilon;
}
// * * * * * * * * * * * * * * * * * * * * * * * * * * * * * * * * * * * * * //

dimensions      [0 2 -3 0 0 0 0];


internalField   nonuniform List<scalar> 
353077
(
0.00799964
0.377653
3.08079e-05
0.25061
3.14737e-05
9.51079e-05
3.30875e-05
3.08229e-05
3.20365e-05
2.88635e-05
0.691181
0.433436
0.267063
2.96345e-05
2.70945e-05
4.35744e-05
0.753355
0.00583152
4.29284e-05
3.07937e-05
0.573628
2.48298e-05
1.08331e-05
0.000642186
3.07907e-05
3.20456e-05
0.024405
3.03678e-05
2.96858e-05
2.20101
4.22842e-05
3.02476e-05
0.00222403
0.000190012
2.52459e-05
0.000128603
6.79608
23.3737
1.92443
3.24855e-05
3.0777e-05
1.1812e-05
6.72135
1.30996e-05
1.9249
3.11161e-05
6.8594e-06
2.58461e-05
0.00022344
0.00028325
2.99459e-05
3.08284e-05
1.05477e-05
8.13127e-06
0.000147048
0.000101912
3.10544e-05
4.85843e-05
0.000302119
4.74798e-05
2.40423e-05
3.05407e-05
0.00247524
1.42926e-05
1.14396
6.79402e-06
2.71906e-05
2.96177e-05
0.0446678
3.13874e-05
4.7469e-05
0.00520398
0.00804213
3.18782e-05
0.00537487
3.06738e-05
0.0506292
0.868246
1.47506
0.00141685
2.00285
2.95471e-05
0.2125
0.00013016
0.0187925
0.0582226
0.126144
2.55375
3.08288e-05
1.20081
0.583835
4.64061e-05
3.0774e-05
3.16738e-05
0.338597
2.76073e-05
0.0132517
3.11261e-05
3.07413e-05
2.91833e-05
2.95847e-05
3.09186e-05
3.48523e-05
0.0103898
3.48354e-05
3.1899e-05
8.43968e-06
4.83325e-05
2.44549e-05
2.76959e-05
2.93896e-05
1.1576e-05
1.1406e-05
0.0508142
3.18066e-05
2.46695e-05
0.00498594
0.954979
5.21057e-06
3.02805e-05
1.01551e-05
2.71217e-05
0.234731
0.0343524
0.000575613
0.299312
2.574e-05
3.58023e-05
8.50382e-06
0.000412697
0.115277
4.70411e-06
1.8979e-05
3.08186e-05
3.08322e-05
0.0383739
6.36863e-05
3.25275e-05
3.08389e-05
4.75946e-05
0.00058727
0.000463895
3.1118e-05
2.92471e-05
0.000950806
0.00126495
10.039
7.22043e-06
0.00416431
1.31094
0.00080715
0.00164592
0.000301571
5.03172e-05
0.510218
8.53388e-06
1.49703e-05
2.5791e-05
1.29515e-05
0.000212522
0.487052
3.05275e-05
1.82643e-05
8.08883e-06
3.0782e-05
13.9486
8.77286e-06
2.57108e-05
3.16474e-05
3.10129e-05
7.02307e-06
5.79579
0.00778873
3.25467e-05
3.16498e-05
3.10239e-05
2.57908e-05
3.0967e-05
0.00194927
0.00238127
3.08211e-05
3.74467e-05
2.86954e-05
3.0687e-05
3.35281e-05
3.13188e-05
1.32081e-05
4.96169e-05
0.00184812
3.12679e-05
1.87234e-05
3.38134e-05
3.04584e-05
5.24102e-05
2.75172
0.189429
6.0861e-05
0.00618641
0.0041437
0.00093454
0.00109472
0.642104
2.53728
3.08247e-05
8.18653e-05
3.60791e-05
0.000198467
3.59574e-05
3.23969e-05
5.97733e-06
2.87556e-05
0.0141951
0.000150845
8.50299e-06
0.14892
2.68198e-05
35.0576
0.186256
2.83784e-05
0.00011796
0.388623
4.29851e-05
0.000145995
2.38597e-05
1.10382e-05
3.27515e-05
2.22665e-05
0.675869
2.20468e-05
2.90662e-05
3.3242e-05
9.92022e-06
3.07244e-05
2.80649e-05
1.36969
2.75716e-05
6.41845e-05
1.44314e-05
6.70151e-05
2.40383e-05
3.5752e-05
3.19445e-05
0.00027345
3.15194e-05
9.42104e-06
3.07884e-05
3.62522e-05
3.08004e-05
0.00251342
5.35166e-05
1.11449e-05
8.83796e-06
3.15967e-05
20.2675
0.000142853
0.000193991
0.00116817
8.97209e-06
0.091285
3.17734e-05
8.43544e-06
18.3704
1.04347
0.000601891
0.00380369
0.000253907
6.37581e-05
3.01275e-05
3.3916e-05
0.000266075
3.20732e-05
0.834098
0.000174004
3.13252e-05
0.00605468
0.121142
3.20964e-05
3.15781e-05
0.265634
6.18264e-05
0.549516
0.2488
0.000445175
4.15093e-05
0.00396905
3.98276e-05
0.014178
3.63834e-05
4.1159e-05
0.783556
1.8733
0.509223
1.86478e-05
2.01009e-05
0.196105
4.54159e-05
7.88986e-06
2.67829e-05
3.05074e-05
4.95064e-05
0.0626582
1.46223
3.08047e-05
0.101343
4.1317e-05
3.94428e-05
9.07601e-05
4.15719e-05
5.17071
4.9499e-05
2.97696e-05
2.94468e-05
1.48957e-05
1.47805e-05
0.495998
0.34235
7.37801e-05
0.353869
0.00150643
3.39276e-05
1.63955
3.9943e-05
0.676193
6.10025e-05
3.07967e-05
0.340499
0.0049243
0.00199908
0.0038947
2.9936e-05
0.000743899
0.027833
0.205225
0.00811202
0.269238
0.00675557
0.0114014
4.36086e-05
0.00555784
3.14766
0.216977
2.94772e-05
0.0723235
0.00649703
0.000320167
0.00794613
3.00306e-05
0.00140558
4.18072e-05
3.06207e-05
0.000208232
7.50004e-05
2.00526
0.00243242
1.00591
4.40075e-05
2.33335
2.33021e-05
0.0246315
0.000123911
2.73521e-05
1.78094
0.239758
0.658821
3.5958e-05
4.50035e-05
2.73926e-05
4.68953e-05
2.13189e-05
0.0045883
0.0119351
0.367337
0.576345
1.04461
1.3931e-05
5.23687e-05
9.27353e-06
3.05598e-05
2.78492e-05
2.91822e-05
1.90685e-05
3.29251e-05
0.00621489
1.93881e-05
3.07685e-05
2.82457
3.06719e-05
2.54609
3.81302e-05
0.663376
7.41504e-05
1.44269e-05
2.9142e-05
0.0414737
13.9842
0.00284962
0.512346
5.6381e-05
6.84733e-05
3.36266e-05
3.08173e-05
5.36335e-05
3.06921e-05
0.00132678
0.0520448
4.45602e-05
3.07016e-05
0.0083774
0.00532417
4.37203e-05
3.41292
0.014249
2.8063e-05
2.91395e-05
2.93887e-05
0.0237956
6.83752e-05
0.000680982
2.87367e-05
0.618413
1.81648e-05
0.149847
0.160074
3.06579e-05
0.000200054
0.005566
3.05063e-05
0.253883
0.431681
0.427403
24.8473
0.352989
2.58795e-05
0.168776
0.672572
0.449286
3.39886e-05
0.357847
0.000254222
0.249242
0.115825
9.12885e-05
0.102941
0.00305123
0.00181633
8.43047e-05
0.000383256
0.00274418
0.00271649
0.229783
2.98712e-05
0.000162206
0.00386986
0.00188426
1.30996e-05
2.50139e-05
0.285597
3.29894e-05
4.08974e-05
2.66946
0.123392
3.46142
0.159426
0.233429
0.00117182
0.000266591
0.000168501
5.40585e-05
1.5463e-05
5.22311e-05
0.000105234
0.0150464
3.1415e-05
5.25761e-05
6.05335e-05
4.9511e-05
2.77125e-05
0.00551761
0.00858723
0.000119098
3.13361e-05
0.0275001
0.540188
1.55283e-05
0.000167234
3.10375e-05
0.000334049
8.85644
15.6273
0.548956
0.0004522
0.0272746
0.024074
2.56459e-05
1.83167
1.21095e-05
0.116454
0.400333
4.62124e-05
3.0887e-05
2.41263e-05
0.0149359
0.000190425
1.32846
0.356507
0.00166088
6.6893e-06
0.0242405
0.278672
1.61829
0.421204
3.15148e-05
1.76548
3.0367e-05
4.47161e-05
5.13443
2.55137
7.69153e-05
0.00400581
2.88211
0.0858102
0.000585989
3.12004e-05
0.145854
2.73067e-05
0.546162
3.06644e-05
0.546148
3.2213e-05
5.08917e-05
8.21936e-05
0.000445712
1.5523e-05
1.2201
3.4262e-05
3.08224e-05
1.78793
4.36155
4.23854
4.59236e-05
0.000696699
0.135362
2.90244e-05
0.0023751
0.000955262
0.169332
0.000333266
0.0805433
0.000307206
5.38306e-05
0.0325021
4.55374e-05
0.105799
9.8146e-05
34.3895
3.2476e-05
11.1011
0.3158
0.00169967
0.44544
0.000135562
0.190941
0.0317443
6.89808e-05
3.17346e-05
3.23353e-05
1.15364
0.00379284
0.00435614
6.73761e-05
0.712538
3.24774e-05
3.42862e-05
3.114e-05
0.781087
3.38488e-05
2.48964e-05
3.41057e-05
0.000180713
0.296915
1.58319e-05
3.49993e-05
0.468492
5.0517e-05
0.000134403
0.00476955
1.61927e-05
3.48933
0.28843
0.256592
6.84121e-05
3.55679e-05
0.826248
0.414616
0.000800199
3.06449e-05
0.180535
0.00688414
0.00514937
1.90424e-05
1.51492e-05
0.00879231
0.00129115
0.0117862
0.182315
3.44721
0.292517
0.376773
0.758575
6.18894e-06
0.0678473
0.0294904
0.204591
0.24777
4.53821e-05
0.0640526
2.11542e-05
2.28499
0.0104653
0.641053
0.802958
0.00379601
2.31279e-05
0.462694
0.000530173
4.30888e-05
0.15423
0.0715599
0.106126
0.504786
0.000661988
0.000892867
0.456857
3.53547e-05
0.520391
0.340171
3.14359e-05
0.0403542
0.151671
3.24469e-05
3.01605e-05
2.70919e-05
0.674938
2.94716
0.000999415
0.000901138
1.01621e-05
2.96355e-05
0.0355434
1.4742e-05
3.78981e-05
0.00131357
3.08807e-05
7.56966e-06
0.000329517
3.08883e-05
1.27315e-05
3.42786e-05
0.170323
3.60276e-05
0.0158335
3.05921e-05
3.13036e-05
3.77626e-05
0.378743
3.24094e-05
0.0192808
0.18649
2.95741e-05
1.00932
2.94216e-05
8.34585e-05
3.08206e-05
5.62745
1.6938e-05
0.00646003
0.00559493
1.71365
0.00545909
2.98472e-05
2.193
0.342106
0.0494806
3.95993e-05
1.17851
0.0282461
0.000200403
2.23988e-05
0.0991416
0.00322009
3.08326e-05
0.000464913
0.265468
4.80938e-05
3.08015e-05
0.000665157
0.10736
0.0938022
0.000228627
0.000288425
0.00104694
0.00012591
0.197198
6.34364
0.146087
0.0340955
0.00700491
4.07763e-05
0.0234315
3.64384e-05
0.000139587
0.00547965
0.0122787
0.0137145
2.76992
0.00441397
0.162062
0.00331158
0.000827884
0.0235096
0.618669
0.374909
0.216651
1.4467
4.53088e-05
0.0131044
0.0202879
7.43062e-05
0.00504801
0.291098
5.37458e-05
3.2683e-05
0.0215297
9.64402e-05
4.06077e-05
0.718939
0.0506367
0.162001
1.94544
2.81945e-05
0.0842253
3.08122e-05
3.01985e-05
0.397251
0.549713
1.30043
0.462954
0.869371
0.0387577
4.06894e-05
1.03996
6.52747e-05
1.59833e-05
3.08176e-05
1.51065e-05
4.15809e-05
3.07981e-05
0.494495
3.11915e-05
3.08145e-05
0.0865426
4.57987e-05
0.382839
0.0762779
3.22375e-05
3.00165e-05
0.911503
8.00915e-05
6.08886e-06
3.2435e-05
1.49491e-05
0.00049802
3.93864e-05
0.114558
0.000320447
0.0495987
0.00157069
3.07741e-05
1.2885
0.0782418
0.00193924
0.00644615
1.23325
0.851951
0.00944991
0.00152
4.7316e-05
0.00531581
20.8822
0.00718005
3.16616e-05
1.0842e-05
0.536882
3.25009e-05
0.00174807
3.36853e-05
0.00133472
9.94692e-05
2.79938e-05
0.0199488
0.857671
30.2463
2.92098e-05
6.50811e-05
1.8614
2.85328
2.94969e-05
6.06984e-05
4.09499e-05
1.47239e-05
1.81661
4.10888e-05
3.03857e-05
0.183738
7.94473e-05
2.2995e-05
0.59814
3.14925e-05
2.51124e-05
3.16442e-05
8.39365e-06
0.485798
2.90275e-05
0.0856158
2.71771e-05
3.46622e-05
0.000547203
0.146995
0.0152286
1.79624e-05
0.600014
0.0326435
0.245453
0.299418
4.87477e-05
2.73719e-05
3.66253e-05
5.03711
5.39738e-05
0.000280686
4.84463e-05
0.146733
0.465701
0.465265
1.86973
0.000250151
0.00042832
2.37708e-05
0.0306764
0.185636
0.0105943
0.000810699
2.52743e-05
0.000418445
4.20393e-05
2.67796e-05
9.27304e-06
5.01938e-05
3.68691e-05
0.038508
0.757615
3.01956
0.746895
2.17113
3.57067e-05
3.42965e-05
0.517706
3.26934e-05
0.00403179
0.000996188
0.154521
0.00891626
8.12701e-06
0.528838
0.00109927
0.00353516
11.215
0.00126619
0.000997612
2.73533e-05
3.1876e-05
0.0945623
0.0856072
0.579557
1.50912e-05
1.58405e-05
3.05493e-05
2.93878e-05
0.699491
0.87077
3.12358e-05
0.000854818
8.44837
1.78701
1.55382e-05
0.00126966
1.00672e-05
7.89482
8.90184e-06
0.000157023
4.16749e-05
0.0193188
0.000845289
0.720199
0.00138021
3.0678e-05
1.50407
0.274642
2.18824
0.348925
2.55961
0.000566262
0.000611642
0.14946
0.0102478
0.0301995
0.222627
0.230275
0.363335
0.0255172
0.00062907
6.51528e-05
4.63041e-05
5.05683e-05
0.047705
0.00100137
4.41353e-05
3.93118e-05
3.88734e-05
9.07802e-05
0.639405
0.0599457
1.16943
3.02001
3.13462e-05
0.000913111
0.000949068
0.0379192
3.42454e-05
0.141707
0.193754
0.369635
1.97175
7.81045e-05
0.517867
10.1965
0.0346132
3.008e-05
8.34705e-05
0.163845
1.82276e-05
2.68653e-05
0.000969305
0.00102181
3.04126e-05
4.28011e-05
4.33586e-05
0.00998173
0.318393
0.67613
0.534214
5.00183e-05
3.08161e-05
0.246843
0.588287
3.03169e-05
0.17563
0.136944
3.02261e-05
0.875155
9.53113e-05
2.94419e-05
0.102981
3.07742e-05
0.000241795
8.2798e-05
2.85403e-05
24.2973
0.000579308
0.0120736
3.08161e-05
2.81356e-05
4.31139e-05
0.723633
0.000716737
0.670816
0.811502
8.77345e-06
3.07744e-05
2.96994e-05
0.402226
0.04854
11.7262
3.0808e-05
0.000166725
0.00421226
6.557e-05
0.934711
0.000152444
0.315639
0.270346
0.654022
0.691612
0.73929
0.288342
6.26683e-06
0.428537
0.268017
1.62672
0.000721512
3.74849
11.4631
0.155804
3.18794
7.31596
1.54902
8.28904e-05
0.00446948
0.00486451
0.304001
1.03933
6.32758
7.23128e-06
0.366236
6.20087e-05
0.189765
0.0426155
0.189781
3.51773
0.121358
0.000630008
0.297712
0.000116497
0.18798
0.218629
2.2632e-05
0.00132731
3.3149
3.11195e-05
0.779091
3.29725e-05
0.0348253
8.75952e-05
2.88237e-05
2.81734e-05
0.354837
5.52544e-05
1.13987
0.000177037
0.298729
0.000254503
0.000100988
4.00608e-05
0.184936
0.406002
4.7693e-05
0.28435
4.64848e-05
1.76373
1.04238
3.23614e-05
0.0125995
3.18836e-05
9.86807e-05
0.0017491
0.596016
4.55307
3.83332e-05
2.19213
0.215354
0.00295375
5.24454e-05
0.0486062
3.21332e-05
5.27661e-05
3.07612e-05
0.00345106
0.305204
2.8764e-05
0.264588
0.0024864
2.93223e-05
3.03034e-05
0.0366303
0.0163433
1.60735e-05
1.10419e-05
3.79885e-05
3.10962e-05
0.396473
1.11066e-05
8.55481e-05
1.65504e-05
0.587487
4.39317e-05
0.000113538
0.188562
2.63901e-05
8.97785
4.47358e-05
0.856658
0.0914328
4.7981e-05
4.27385e-05
1.18775
8.43096e-05
0.000280149
0.089237
0.805832
2.99456
0.00122696
3.08518e-05
0.000872789
1.00273e-05
5.84602
0.194089
0.980736
0.578469
0.0860554
4.43877
3.09595e-05
0.094876
1.32632
0.379159
0.015455
0.89538
1.51262e-05
0.00843957
0.0362944
0.321735
0.230467
3.06199e-05
0.00152189
2.95613e-05
0.0296646
5.55845e-06
0.972436
3.19472e-05
0.294313
2.85094e-05
0.259417
0.000787739
0.641008
0.388545
1.19384e-05
0.000148109
0.988517
0.000107155
3.1277e-05
0.618613
0.35627
0.347314
0.116463
0.000183719
0.0277654
6.17968e-05
0.000299818
0.87461
1.84101e-05
0.000461381
5.55456e-05
0.0056497
0.595848
3.07719e-05
0.221669
0.678033
0.0119087
0.0110864
1.60926
2.10965e-05
3.14375e-05
0.000577474
0.002828
3.08255e-05
3.07791e-05
3.55545e-05
0.123452
3.22534e-05
0.000117785
0.00304641
0.319109
2.98763e-05
0.0206475
0.777111
2.95423e-05
0.0548703
5.02397e-06
0.17232
0.0539774
2.77965e-05
0.0618798
0.546631
0.000250321
0.789919
2.8494e-05
2.31126e-05
0.518525
3.32104e-05
0.0432973
0.560885
0.0621638
9.03564e-06
0.772903
0.254375
6.75204e-05
0.101564
5.90305
4.64053e-05
3.70857e-05
3.30527e-05
1.23621
0.537757
0.713485
0.111973
0.13882
0.0182283
0.216743
3.08111e-05
3.52777e-05
1.00627
0.927247
0.1572
0.0148788
0.325685
0.214288
0.462741
0.00922627
3.19563
0.726638
3.45498e-05
0.000222657
0.000290241
8.01151e-05
0.00261788
0.162656
2.38701
0.307231
0.0597181
0.191219
0.445628
5.12514e-05
0.000224095
0.260379
1.22612
0.173718
0.808909
0.182693
0.00776994
0.0657877
0.471387
0.000455496
0.0712105
0.000555851
0.000377873
7.96329
0.0492298
0.0135107
1.78108
0.00493185
3.51034e-05
0.713354
0.000484775
3.35541e-05
0.000925116
0.391891
0.000584558
2.92207e-05
4.57438e-05
0.109232
4.73667e-05
2.59972
0.00116849
0.00351222
0.578918
3.1812e-05
0.591483
1.11547
0.3052
0.00839557
2.39885e-05
5.22348
0.000101708
0.182038
3.23906e-05
0.270312
1.93593
0.161218
1.4066e-05
0.00263027
4.13125e-05
2.61928
0.722485
1.7609e-05
0.00520321
0.724555
1.30512
3.50509
0.86372
5.47207e-05
0.831926
0.000192079
0.00328641
1.45923e-05
0.00863688
0.0885884
0.254366
3.0842e-05
0.00058626
2.86911e-05
0.0145431
0.974931
0.0828826
2.5828e-05
6.40621e-05
3.14819e-05
0.104426
0.15306
1.41105e-05
0.00362957
0.442702
0.796913
0.195866
1.49755e-05
4.52869
0.573661
0.274205
1.39584
1.41217e-05
2.20675
1.2803
0.624576
0.287834
0.379732
0.707392
0.282335
2.49652
0.000250688
3.03721e-05
7.96382e-06
0.449216
2.81864e-05
3.35087e-05
0.605611
1.9257
3.34883e-05
0.687203
3.32763e-05
1.53524
3.50436
0.605607
3.24815
2.57079
0.0640058
3.13726e-05
1.50934
0.352807
0.0276194
0.00882548
0.333459
3.40445e-05
4.08375e-05
3.98855
0.512333
2.35824
20.0543
1.92154
2.62344e-05
3.55887e-05
0.0211611
0.0405915
2.61234e-05
0.000144582
0.643962
0.297269
3.0391e-05
3.72335
2.56442e-05
0.0994497
26.1736
6.7637e-05
2.59549e-05
0.000346722
3.07893e-05
3.85117e-05
0.30957
9.23964e-06
8.57155
3.17132e-05
0.120047
0.000196728
2.88553e-05
0.508831
3.08155e-05
4.80371e-05
4.72495e-05
10.3318
0.46926
0.00992258
0.0176068
0.0047805
0.000451493
3.08468e-05
0.051288
0.0103013
4.43027e-05
4.39427e-05
3.05202e-05
0.0364693
0.466915
0.0658894
0.000131085
0.384302
3.24009e-05
0.0606748
11.677
0.00182289
1.06247
3.34046e-05
4.13888e-05
0.0762182
2.84259e-05
3.30811e-05
2.35906
2.36447e-05
0.349327
0.00746455
13.0584
0.177497
10.5417
0.904114
4.33898e-05
0.0474445
0.330683
0.361803
0.31878
0.114709
4.6094e-05
1.62888
0.111244
0.244807
3.07833e-05
1.24049
0.000985978
2.74658e-05
4.93259e-05
4.12154e-05
0.65087
1.60943
0.0276592
0.0868063
0.000798036
3.61969e-05
3.00459e-05
4.7972e-05
0.360841
0.305891
9.86779e-05
1.0084
2.3407
0.0161755
0.000507247
0.325123
0.0161645
8.42245e-06
0.611833
4.09423e-05
5.17976e-05
4.55294e-05
6.00927e-05
0.00023648
0.133844
0.392478
0.246748
0.033109
3.00998e-05
0.00324852
0.48666
0.00593252
0.00526593
2.00326
1.3353e-05
0.20732
0.0333629
0.656491
2.47034e-05
0.347838
2.36515e-05
0.000181926
0.00477598
0.432446
0.469187
0.0362088
0.000103963
0.019653
0.619397
0.00572021
25.4449
32.2626
0.40701
5.18639e-05
0.027025
0.850242
0.0012805
0.746248
0.176432
5.15263e-05
0.00315489
0.00016171
0.000264431
2.31877
2.4774e-05
0.904464
0.360161
0.0165492
2.81398e-05
3.62445
1.67496e-05
4.65443e-05
2.21078e-05
2.92445e-05
0.000295924
0.135422
1.74761e-05
0.940656
0.0888063
1.08187
0.000570084
0.00022358
1.02629
0.761719
0.00123699
2.90494e-05
0.0012212
2.50516e-05
2.04535e-05
0.00135165
0.0216537
0.806268
0.015088
4.95873e-05
0.485572
0.0298807
0.0335694
2.97496
0.0328969
0.480814
0.119922
0.554732
13.6004
0.0168472
0.000318098
0.713862
0.00144089
0.489401
0.0150677
0.0153106
0.0875517
0.183265
0.0284567
0.0319016
0.653456
0.461841
4.52353e-05
3.72906e-05
3.28151e-05
1.15289
0.579409
4.09559e-05
0.287156
0.00089447
0.498431
4.00133e-05
0.0087748
1.32177
0.35132
4.03178
0.00336409
4.22307e-05
0.0493576
3.16815
3.38511
4.39981
3.04192e-05
4.27505
0.603793
2.90008e-05
9.39143e-06
2.85789e-05
1.3202e-05
0.560968
7.79536e-05
0.096644
0.790022
3.40931e-05
0.327289
6.20747e-05
0.000361041
1.19722
1.20473
0.0835429
0.00246924
0.130355
3.66809e-05
27.7263
0.171934
2.15818
3.95477e-05
1.4129e-05
0.210601
0.00456837
3.86279e-05
3.95566e-05
0.897688
4.82402
0.876952
9.79999e-05
0.00890032
58.8654
2.27617
0.392414
0.0163839
3.2107e-05
3.08573e-05
2.63153e-05
0.000178412
1.45276e-05
0.585755
0.00115428
7.00475e-05
5.39232e-05
0.108249
3.95412e-05
3.09373e-05
0.337856
2.3374e-05
3.18974e-05
6.01507e-05
0.513364
0.000181554
25.3164
0.570622
0.894623
19.849
0.00987429
7.61596
0.00151944
1.59854e-05
0.0364691
5.21011e-05
1.63447
0.000479366
8.36393
0.258882
2.22259
0.534337
0.0756476
0.00293593
0.00482479
0.388808
0.00777937
0.000110466
9.68689e-05
1.19664
0.52113
3.18023
0.222808
0.164564
3.68477e-05
0.000231351
0.688496
0.00734685
0.552568
2.6004e-05
0.307869
0.621058
0.000237597
4.59107e-05
5.11653e-05
0.0718383
0.000388292
2.82608
7.25743e-05
0.32881
3.32386e-05
0.334333
0.787096
1.84806
0.00123801
0.462907
0.000123078
0.000217892
0.000113989
1.30738e-05
4.57235e-05
0.00763275
6.6938e-05
0.0608522
0.871389
0.00327306
0.000236415
0.00489101
0.283105
0.275424
0.00272777
4.04414e-05
0.0346897
3.89565
0.881842
2.87163e-05
3.8555e-05
0.00359593
3.98373e-05
1.50194
0.477289
0.0642227
0.0158513
0.0060666
0.00106785
4.04095
0.707352
0.000660027
0.915875
0.521698
0.309147
0.032487
3.85143e-05
3.85333e-05
2.39636e-05
0.467338
4.92811
0.180556
1.31006
0.0017635
0.293607
0.0231071
0.191547
0.338449
2.2385
2.86868e-05
1.44857e-05
1.30301
3.90962e-05
0.000366632
3.02898e-05
0.471564
1.60372
0.996559
0.000453526
0.29506
2.03541
3.07313e-05
0.00044511
0.00615022
1.15885
4.34542
0.0458546
0.00863117
0.00942945
0.00223586
0.00837801
0.508909
0.854341
0.0285965
0.00113482
0.565106
1.40048
4.23492e-05
0.124502
0.232553
0.000576505
2.36838
0.0195521
0.00036315
0.00613443
8.02573
0.000340164
0.0929528
0.0941534
6.84864e-05
0.00141712
0.0275473
5.13005
0.0189563
0.000145242
0.00376972
0.0829136
1.43471
0.00014629
0.00233075
1.24685
0.0100753
0.0482429
2.26359
0.398348
0.021246
0.00568424
0.926552
0.571777
0.000502887
0.00152654
2.32198e-05
0.00451982
1.88042e-05
0.30872
0.601297
0.0235179
0.000506617
4.31376e-05
0.00172311
2.64416e-05
5.88176e-05
3.09026e-05
0.244674
2.93416e-05
1.41777
0.000612464
0.351098
0.454093
1.51995e-05
0.135739
0.0158059
0.23229
3.04389e-05
3.56914e-05
0.000147935
0.000217491
0.335531
0.0423603
0.139276
0.135572
0.00091975
0.0163358
0.863515
2.79318
3.37339e-05
68.2017
3.79884e-05
0.033035
0.000847016
3.08316e-05
4.45907e-05
5.60513e-05
9.18474
0.00368066
3.3025e-05
0.247067
0.262814
0.0293491
4.17454e-05
3.08097e-05
1.00467
0.272391
5.62681e-05
9.58129e-06
3.36949
0.000139098
3.04376e-05
4.46297e-05
3.08074e-05
0.209482
1.06041
2.35769
0.2013
0.00242816
0.65753
0.0379629
1.7246
0.201773
4.31258e-05
0.219243
2.15323
0.944159
0.000399216
0.177168
0.000368098
0.179611
3.38781
4.34939e-05
3.66421e-05
0.27867
2.85158e-05
0.000143955
0.000747562
1.37741
4.47923e-05
4.32253e-05
8.38637e-05
0.0600032
3.15253e-05
1.18174
0.177836
2.74573e-05
2.91912e-05
3.25168e-05
0.00345148
0.0670486
3.0387e-05
3.09491e-05
0.0473966
3.82251e-05
0.034456
0.000285208
0.11298
0.000261989
6.14954e-05
0.0437197
0.251312
0.000964109
5.90508
0.566913
4.23311
1.56514
0.000844597
3.65481e-05
0.000516322
0.00235103
2.23656
0.07921
0.893236
0.233781
4.19523e-05
5.54467e-05
0.000464859
0.0540491
3.67931e-05
2.89312
2.88634e-05
1.35656
0.000261771
0.000146971
0.0663802
3.67615e-05
0.63288
0.53723
0.0551922
0.0114791
1.49532
3.83762e-05
0.0214126
0.000187061
0.0408267
4.20703e-05
1.15015
0.000458367
0.000244613
0.656685
3.24942e-05
1.04019e-05
0.50376
0.964503
0.61596
3.1794e-05
3.07924e-05
1.27265e-05
0.00109504
2.68356e-05
0.394539
0.0257018
0.179219
2.77756e-05
1.26022e-05
0.455577
0.8118
0.00392046
0.00142954
0.576406
3.19359
0.102444
4.8794e-05
0.000227741
0.144041
0.00164043
3.01638e-05
0.000846276
4.13947e-05
2.64155
3.9256e-05
0.758958
0.943025
0.308946
5.02207
7.98214e-05
0.237108
0.000820839
0.000447821
1.43207e-05
0.246444
4.92762e-05
0.508694
0.0183122
7.36027e-05
3.076e-05
2.92156e-05
0.290227
2.91735e-05
3.04786e-05
1.20926
0.329286
0.00189952
0.0385869
0.00901015
3.01939
3.00615e-05
0.733171
0.481767
1.28595
0.475065
0.000399783
3.04634e-05
2.10305e-05
0.417307
3.13925e-05
1.55554e-05
2.86734e-05
0.0170882
1.60507e-05
0.000304783
1.4551
5.83773
0.00224934
0.620148
0.00214593
1.55612
0.91258
0.31342
0.0462717
2.04251
4.43126
0.451112
5.42775e-05
0.483502
5.35086e-05
0.355353
3.23893e-05
0.00169821
10.8507
8.12195
0.000831761
1.58303e-05
0.00163624
0.611598
0.339018
2.58237e-05
3.03505e-05
3.02017e-05
0.448586
0.724557
1.61331
0.748968
0.189175
0.0258002
1.54206
1.99357
0.323271
0.282744
0.00176343
0.0228919
0.0114054
0.846095
3.95177e-05
4.82058e-05
2.23154e-05
9.19738e-05
0.197254
2.92529e-05
0.00275452
4.52156e-05
0.00536432
0.0663818
0.000212592
6.25589e-05
0.204848
2.02697
3.09527e-05
3.19249
0.00333214
0.0922535
0.0945284
2.51393
0.040269
0.517588
0.0140369
0.562773
8.12599
0.0107493
0.42977
0.570627
0.00260672
0.000676826
0.0100978
0.00215276
6.68559
0.000775
0.227812
0.155178
0.841095
0.776021
0.000294782
5.19067e-05
0.868887
0.00563228
3.15606e-05
4.269e-05
0.000424601
0.0852957
0.000804218
0.599284
1.52955
0.880101
0.0404869
0.00735223
0.000267043
5.267e-05
0.128483
1.87205
11.2422
4.30679e-05
3.39706e-05
1.04995
0.698853
3.07119e-05
7.6094
0.00903622
0.2949
2.97873e-05
2.95668e-05
0.768689
1.01673
0.253384
1.45987
12.9128
0.498151
5.26806e-05
0.904013
1.24012
0.975402
0.0180528
1.9533
2.97313e-05
3.09181e-05
2.64583
2.75218e-05
2.88713e-05
0.000223415
3.08669e-05
2.29527
3.17647e-05
2.43545e-05
3.14827e-05
0.210137
3.77239
0.134407
0.275737
2.53086e-05
4.53765e-05
0.870956
4.61911e-05
0.665695
0.591257
0.735834
0.00244922
0.00471306
0.188737
0.000452129
0.423805
0.27099
0.315808
0.000339411
0.262889
0.0228523
0.000137456
3.67101e-05
0.0150766
0.59095
0.0322002
0.207018
3.98188e-05
2.92413e-05
0.0001218
0.103524
3.21435e-05
0.049432
0.276729
4.95234e-05
0.000495354
1.09094e-05
0.0336387
4.6694e-05
7.53112e-06
3.10981e-05
2.94923e-05
0.000106269
0.00771953
4.3852e-05
0.657763
1.13564e-05
4.35535e-05
7.63845e-06
0.112966
13.4546
7.17404
0.00502034
3.15028e-05
6.2593e-05
3.60442e-05
4.49511e-05
7.74389e-05
0.78234
3.70629e-05
3.06937e-05
3.0206e-05
0.751429
1.61876e-05
1.32362
6.11979e-05
0.000906631
0.00871443
1.57035e-05
0.000824584
0.270117
3.1937e-05
3.04942e-05
2.13318e-05
3.29794e-05
3.32262e-05
5.8227e-05
0.00350327
2.13234
0.000498984
4.24621e-05
0.565
0.640202
0.000693631
4.2325e-05
3.02002e-05
3.86281e-05
0.186895
0.232919
0.0495219
3.35118e-05
0.465997
0.256011
0.00212189
2.66778e-05
0.378935
0.634032
15.5068
0.302664
0.0275519
2.63709e-05
3.05563e-05
7.77283
3.20088e-05
0.0550461
0.0320726
2.83394
7.38801
0.00343419
0.170257
0.0142962
1.084
0.00370595
5.0318e-05
3.08383e-05
1.6934e-05
2.89081e-05
0.0422106
0.625292
0.00199926
3.53207e-05
1.32175e-05
7.59207e-05
1.65903
0.000187384
2.90549e-05
9.43248e-05
20.1113
0.000858317
0.0190068
4.17974e-05
0.00110747
4.40928e-05
0.0181036
0.0012522
7.9236e-05
2.92728e-05
0.00132443
0.00882413
0.00149484
0.682688
0.00177565
0.000265203
8.52911e-05
8.06029e-05
0.0122136
0.00371328
0.340474
4.98116e-05
0.118152
3.92213e-05
0.501668
0.143103
0.00106991
1.14463
0.32197
0.23885
0.234291
11.3643
0.254408
0.730444
1.49513e-05
7.49264e-05
1.03439
4.80835e-05
0.201799
2.09919e-05
0.000893112
1.23431
1.62396e-05
0.301178
0.00016001
0.000293427
0.000114427
0.179873
2.38996e-05
1.7506
0.529196
0.251439
0.752729
3.9484e-05
3.14058e-05
0.0413839
1.50862e-05
0.325045
0.521469
1.17579
1.05312
0.000115558
0.535278
0.483842
0.131568
4.25133e-05
4.56629e-05
2.44904
0.965933
0.0204248
0.683481
10.533
0.0679242
3.13134e-05
0.604953
5.27388e-05
5.87723e-05
2.91489
0.199921
3.06759e-05
9.35951e-05
8.75608
5.42294e-05
0.000847029
0.117924
2.7382
3.21495e-05
0.000122432
1.47416e-05
21.4654
0.876721
5.87023e-05
3.741
3.78972e-05
4.20117e-05
3.71427e-05
2.21546e-05
3.14101e-05
3.4706e-05
3.14484e-05
1.15674e-05
0.370328
0.647907
4.53074e-05
3.56496e-05
0.00586702
2.91386e-05
0.000441183
0.000888414
0.530092
1.09985e-05
1.03167e-05
0.654003
0.00256297
1.02214e-05
1.05074e-05
1.02162
0.0483414
3.10291e-05
3.41838e-05
3.38299e-05
0.388255
0.200557
13.3483
9.28642e-06
2.06994
0.137813
3.18415e-05
0.000529448
8.01017e-05
3.0421e-05
7.5901e-05
0.000601051
0.0101919
0.00280425
0.0142458
8.25086e-05
0.0917279
7.41864e-05
0.118762
0.000185738
0.0180771
0.000129316
3.52064e-05
2.97695e-05
0.01552
1.01818
3.17251e-05
4.15283e-05
25.9749
0.000543213
15.7331
0.000360379
3.25633e-05
0.241875
2.91885e-05
8.18866e-05
0.00439538
0.118664
4.00596e-05
3.07434e-05
9.3052
4.11604e-05
3.07594e-05
1.37067
0.00244327
3.92964e-05
6.86195e-05
0.0402485
0.000466506
2.93891e-05
0.343655
0.00023188
3.04022e-05
7.76827
0.0323419
0.010803
1.11719
0.137279
0.942649
0.271721
0.864619
0.00396607
9.79205e-05
2.9058e-05
9.85595
0.000966767
7.96256
0.000230836
0.663424
0.560944
1.73254
2.92337e-05
0.248359
7.89576e-05
0.252245
0.718892
0.000712048
8.31618e-06
0.000165912
0.256791
3.07938e-05
0.0893154
0.00229058
0.257688
0.000920155
0.436917
0.000158653
3.35434e-05
0.0134455
4.08293e-05
0.00055926
5.42212
4.70699e-05
0.679928
0.669689
0.00100162
6.09794e-05
0.0011439
2.10521
0.00347736
0.196153
0.351595
0.0011902
0.000222721
0.778122
5.14563e-05
0.00115469
6.83992e-05
3.09127e-05
9.52724
0.000563056
1.12991
0.12349
2.64214e-05
2.83048e-05
0.166501
5.45814e-05
0.000530148
0.00177557
9.65912e-06
3.08509e-05
0.000553157
0.487318
3.68946e-05
8.42066
3.54215e-05
0.0101358
0.000340213
7.63271e-06
0.476608
3.46987e-05
2.9134e-05
3.69341e-05
0.0240073
1.89301e-05
2.53645e-05
1.01131
1.61657e-05
5.09785
1.85161
1.01777
0.0342133
1.60087e-05
0.000175307
4.14577e-05
0.000204421
0.100063
3.11813e-05
0.0248332
6.17571e-05
0.181983
0.000231007
2.76059e-05
3.76923e-05
0.00247145
0.000438227
0.649453
0.0910571
2.93023
4.44968
0.0127688
3.32684e-05
0.00185901
0.00157158
5.7525e-05
3.82045e-05
0.000991227
0.484259
0.121637
0.000263585
4.61781e-05
0.0189504
2.487e-05
3.64567e-05
5.54959e-05
0.000649134
0.00160572
0.670924
0.412055
0.000210767
3.10173e-05
1.79166e-05
0.518764
0.000293737
0.221272
0.091521
0.000272321
3.53253e-05
0.0356953
0.174601
0.994405
0.487343
0.00371368
1.09602e-05
0.000459396
0.0040969
3.76523e-05
5.83102e-05
0.000611855
3.40926e-05
0.000333858
0.00135993
4.10976e-05
0.000623543
0.000193225
0.00140479
0.0872946
0.396308
1.07127e-05
0.000348968
0.000257983
0.000787046
2.77329e-05
1.88434e-05
3.15347e-05
0.019574
3.04948e-05
2.91896e-05
0.56304
0.211093
3.88951e-05
0.305293
1.36284
0.0067464
1.43282e-05
1.28656e-05
3.81545e-05
3.08091e-05
0.330626
3.74632e-05
2.08592
1.28445e-05
0.917979
7.31246e-05
0.000211793
0.000586121
4.49138e-05
3.02991e-05
2.96075e-05
0.403209
0.00059405
0.176053
0.000440857
0.0561949
0.00214523
0.00172115
0.233103
0.000746228
0.00914367
0.0001736
0.0212857
0.00325846
0.000534168
1.56022
4.28379e-05
0.53315
0.00738717
11.1556
3.04551e-05
0.20582
0.522273
0.943066
0.000283709
0.672199
0.418201
0.318295
1.3673
0.555482
3.08906e-05
9.03113e-06
2.84865e-05
0.00012244
6.9048e-05
2.92861e-05
0.00139295
0.000171042
5.8181e-05
3.07793e-05
2.85338
0.183107
1.04464
0.40139
3.13068e-05
0.498241
3.11325e-05
0.63048
3.03879e-05
0.0010482
4.1338e-05
5.5607e-05
0.0358382
0.000462662
4.35372e-05
0.000922198
6.50194
3.68825e-05
0.106955
0.0543472
0.00242399
1.0704
0.736903
1.30634
6.12394e-05
3.02279e-05
0.566098
3.08053e-05
2.97131e-05
7.55851e-05
0.000199308
1.48053
0.000522921
1.66328
0.565685
0.000184513
0.665771
1.73677
0.00221944
3.33459e-05
0.00240192
2.47019e-05
0.0201328
0.0134712
4.02683
2.53816
4.02682e-05
8.80522e-05
1.86719e-05
0.431016
0.358005
0.984988
0.0133393
2.18407e-05
1.3814
0.0905292
0.497319
0.00414315
2.99589
0.0490912
0.0705118
4.22123e-05
4.15159e-05
2.83438
1.49079
0.0546792
2.90458e-05
0.128393
0.00176972
0.00278503
8.11733e-06
0.382923
8.31025e-06
8.09345e-06
5.68121e-05
0.660883
0.504017
0.00109473
2.20006
0.0290836
5.63006e-05
0.23669
5.16994e-05
0.000205764
0.00136926
0.00357855
6.68667e-06
14.3396
0.201691
0.546701
3.17697e-05
9.39401e-06
0.311071
34.2967
0.198506
0.567627
0.708547
0.00168052
9.1617e-06
0.0210108
3.08108e-05
0.769759
1.68896
0.0292879
8.1886
0.0224717
0.000542807
0.566044
0.000351797
0.683955
0.9803
0.388791
0.00134901
0.283702
3.64362e-05
3.53405e-05
0.0519156
0.778158
0.000207195
0.504748