/*--------------------------------*- C++ -*----------------------------------*\
| =========                 |                                                 |
| \\      /  F ield         | OpenFOAM: The Open Source CFD Toolbox           |
|  \\    /   O peration     | Version:  v2012                                 |
|   \\  /    A nd           | Website:  www.openfoam.com                      |
|    \\/     M anipulation  |                                                 |
\*---------------------------------------------------------------------------*/
FoamFile
{
    version     2.0;
    format      ascii;
    class       volScalarField;
    location    "0.568111";
    object      k;
}
// * * * * * * * * * * * * * * * * * * * * * * * * * * * * * * * * * * * * * //

dimensions      [0 2 -2 0 0 0 0];


internalField   nonuniform List<scalar> 
353077
(
0.00106154
0.039781
7.77476e-05
0.032122
7.89204e-05
0.000161714
9.98044e-05
7.77803e-05
8.13304e-05
8.07083e-05
0.0631222
0.0436816
0.112245
7.88862e-05
8.16046e-05
9.93216e-05
0.054575
0.00829643
9.3901e-05
7.77868e-05
0.316293
8.45564e-05
9.42167e-05
0.00071621
7.77743e-05
7.99238e-05
0.00482587
7.84086e-05
7.8826e-05
0.139125
9.54219e-05
7.83749e-05
0.00311819
0.00017624
9.40811e-05
0.000138917
0.221741
0.425798
0.0774052
8.06965e-05
7.87781e-05
9.39545e-05
0.186419
0.000109202
0.0724525
7.82866e-05
9.69953e-05
0.000104454
0.00015975
0.000336371
7.85486e-05
7.77752e-05
9.38875e-05
9.54198e-05
0.000225041
0.000174234
7.81893e-05
0.000105835
0.000191783
0.000105376
8.52758e-05
7.8275e-05
0.000581431
9.14975e-05
0.447633
9.55659e-05
8.14076e-05
7.88717e-05
0.0349767
7.87652e-05
0.000105277
0.0024135
0.00380847
7.96303e-05
0.00236911
7.8063e-05
0.00505704
0.180552
0.400479
0.000380277
0.390409
7.98047e-05
0.139184
0.000204742
0.00780921
0.00725732
0.0137371
0.118981
7.77761e-05
0.478944
0.365685
0.000100394
7.79168e-05
8.53055e-05
0.0281036
8.07335e-05
0.00223922
7.88235e-05
7.78776e-05
8.05061e-05
8.0975e-05
7.7948e-05
8.72158e-05
0.00135802
8.42842e-05
8.06281e-05
9.4271e-05
0.000113909
8.65104e-05
0.000118905
8.43739e-05
9.89182e-05
9.79435e-05
0.00831549
7.96918e-05
9.05021e-05
0.00121959
0.315385
9.55092e-05
8.03385e-05
0.000101559
8.37228e-05
0.0676478
0.0136931
0.000604992
0.0737135
8.23189e-05
8.63855e-05
9.50948e-05
0.000471935
0.0155264
9.76287e-05
0.000104537
7.81588e-05
7.7783e-05
0.00744416
0.000106637
8.07717e-05
7.77939e-05
0.00014288
0.000526544
0.000520459
7.82925e-05
7.94933e-05
0.000813384
0.000920984
0.80185
9.73188e-05
0.00348986
0.259953
0.000610404
0.00121516
0.000385691
0.000102044
0.0983575
9.46672e-05
9.55267e-05
8.26662e-05
9.30468e-05
0.000287539
0.0400984
7.80934e-05
9.79963e-05
9.50664e-05
7.80854e-05
0.296188
0.000104959
8.44501e-05
7.93256e-05
7.81034e-05
9.81487e-05
0.66949
0.00103809
8.40378e-05
7.93521e-05
7.98536e-05
8.52581e-05
7.94298e-05
0.00209943
0.00151323
7.77707e-05
8.91942e-05
8.15308e-05
8.05488e-05
8.2514e-05
7.86819e-05
9.66669e-05
0.000137737
0.00201266
8.60695e-05
0.000113171
8.56342e-05
7.81163e-05
0.00011506
0.286362
0.403966
0.000120084
0.00287168
0.00199886
0.000943479
0.00114028
0.357095
0.112073
7.7771e-05
0.000168337
8.68816e-05
0.00028311
8.66393e-05
8.07013e-05
9.56199e-05
7.99196e-05
0.0027922
0.000231051
9.50881e-05
0.0215108
8.39112e-05
0.772075
0.11642
8.43282e-05
0.000194507
0.237307
9.81362e-05
0.000226946
8.91086e-05
9.36754e-05
8.11665e-05
0.000107205
0.313234
0.000119637
9.15796e-05
8.36334e-05
0.000100066
7.78759e-05
9.72116e-05
0.072107
8.10306e-05
0.000129388
0.000106371
0.00010803
0.000112821
8.63145e-05
7.97605e-05
0.000304921
7.90011e-05
9.4554e-05
7.77966e-05
8.71948e-05
7.77608e-05
0.00424662
0.000131844
9.5507e-05
9.65e-05
7.94695e-05
0.494963
0.000277845
0.000237904
0.000446243
9.6291e-05
0.00543441
7.94548e-05
9.46326e-05
0.484471
0.378299
0.000984579
0.00070659
0.000241738
0.000126464
8.57369e-05
8.31879e-05
0.000333534
8.54834e-05
0.347294
0.000252555
7.86579e-05
0.00388034
0.012774
8.157e-05
7.92658e-05
0.0595183
0.000123268
0.325635
0.0638917
0.000420089
9.57302e-05
0.00125429
9.31309e-05
0.00792885
8.72944e-05
9.51495e-05
0.0634571
0.242035
0.0461693
9.35063e-05
9.59502e-05
0.0271075
0.000101434
9.85575e-05
9.25866e-05
7.80727e-05
0.000107186
0.0221941
0.0850436
7.77484e-05
0.0865377
9.50919e-05
9.25201e-05
0.000162316
9.60255e-05
0.188923
0.000104308
7.8751e-05
7.90332e-05
9.17373e-05
9.12614e-05
0.28267
0.368171
0.000124328
0.334707
0.000719428
8.4161e-05
0.333768
9.33951e-05
0.416182
0.000151471
7.77609e-05
0.487058
0.00195886
0.000410509
0.000756846
8.53729e-05
0.000445658
0.00318983
0.0245837
0.00393667
0.294564
0.00209621
0.00990628
9.93398e-05
0.00316985
0.276937
0.016822
9.4326e-05
0.00619754
0.00279807
0.000283411
0.00350329
7.87093e-05
0.000825945
9.63915e-05
7.79466e-05
0.000286038
0.000138845
0.255798
0.00129155
0.452757
9.9726e-05
0.108291
0.00010148
0.00377433
0.000162249
0.000112625
0.0906883
0.122243
0.042776
8.66848e-05
0.000100721
8.08559e-05
0.000101906
0.00010742
0.0035967
0.00168121
0.244387
0.329843
0.420331
9.26007e-05
0.000112601
9.43324e-05
7.80249e-05
8.04745e-05
8.39051e-05
9.38614e-05
8.14567e-05
0.0013068
0.000104565
8.32779e-05
0.118724
7.79132e-05
0.129784
0.000180791
0.378936
0.000141901
9.31929e-05
7.95976e-05
0.0140495
0.322534
0.00164906
0.250578
0.000118211
0.00012321
9.54802e-05
7.78692e-05
0.000114109
7.82098e-05
0.000834605
0.0100218
0.000100491
7.8359e-05
0.0034723
0.00193445
9.94787e-05
0.0747855
0.00245408
8.05741e-05
8.56878e-05
9.46876e-05
0.028706
0.000131628
0.000681614
8.44785e-05
0.362257
9.42704e-05
0.468653
0.0214165
7.86426e-05
0.000275119
0.000883784
7.90743e-05
0.0361658
0.26842
0.387483
0.489546
0.0827809
8.32934e-05
0.0165979
0.421072
0.0270286
9.1151e-05
0.221043
0.000201148
0.138887
0.0207195
0.000174322
0.018489
0.00138221
0.00128878
0.000150244
0.000249427
0.00125232
0.00071957
0.024775
7.86456e-05
0.000145766
0.00599062
0.000987482
0.000106522
9.0548e-05
0.197637
8.37458e-05
9.57934e-05
0.240789
0.0781513
0.129157
0.0340236
0.398478
0.000413176
0.000222834
0.000175334
0.000114576
9.4885e-05
0.000110745
0.000134624
0.00244615
7.88209e-05
0.000110738
0.000119842
0.000106825
8.22998e-05
0.00267494
0.00115371
0.000153588
7.86762e-05
0.00321049
0.0399338
9.5152e-05
0.000266419
7.85439e-05
0.000481685
0.264461
0.436242
0.228905
0.000542352
0.0034598
0.00307856
8.31793e-05
0.456148
0.000101077
0.0120947
0.243536
0.000103338
7.92599e-05
0.000113113
0.0056185
0.000274492
0.387653
0.0769906
0.00105271
9.46765e-05
0.0123995
0.0275022
0.111606
0.256432
7.89983e-05
0.218178
7.82013e-05
0.000100709
0.22351
0.320605
0.000169448
0.00163342
0.118812
0.00981093
0.000440842
8.22904e-05
0.105799
8.72863e-05
0.452945
8.52016e-05
0.250084
9.42302e-05
0.000155652
0.000121574
0.000542849
9.4432e-05
0.280376
8.37857e-05
7.77664e-05
0.0942849
0.172843
0.149335
0.00010272
0.000497446
0.0211883
9.14941e-05
0.00131738
0.000708929
0.0111916
0.000382024
0.0644695
0.000356135
0.000147079
0.0380526
0.000156949
0.0105139
0.000151061
0.790028
8.19625e-05
0.390593
0.488779
0.000672001
0.334418
0.000140571
0.133875
0.00579925
0.000120179
8.0762e-05
8.25615e-05
0.41662
0.00193008
0.00235388
0.000130154
0.267276
8.06874e-05
8.79542e-05
8.22257e-05
0.330851
8.45052e-05
9.97139e-05
8.58834e-05
0.000256551
0.0160493
9.40709e-05
8.50576e-05
0.0938857
9.25304e-05
0.000246209
0.000983417
9.54986e-05
0.143435
0.0281938
0.0607451
0.000107392
8.65844e-05
0.0515307
0.206111
0.000697233
7.79378e-05
0.0254221
0.00131461
0.00112192
9.51496e-05
9.62877e-05
0.00223005
0.000360615
0.00192244
0.0161845
0.166363
0.0378051
0.377013
0.376107
9.61367e-05
0.0136591
0.00378304
0.152017
0.333388
9.82505e-05
0.013666
8.98027e-05
0.0817118
0.00158998
0.407509
0.129304
0.0021726
9.02074e-05
0.0327492
0.000259558
9.95309e-05
0.310834
0.0523382
0.0194847
0.0444176
0.000269082
0.000303827
0.27181
8.56577e-05
0.225292
0.0277034
8.71553e-05
0.00715738
0.326432
8.06495e-05
7.90639e-05
8.23565e-05
0.349939
0.100694
0.000999769
0.000770623
9.38851e-05
7.9182e-05
0.00702406
0.000114993
8.94455e-05
0.000954124
7.79088e-05
9.48829e-05
0.000211258
7.81689e-05
9.38089e-05
8.41934e-05
0.0350159
0.00013311
0.00252819
7.81445e-05
7.8696e-05
0.000132311
0.306229
8.06101e-05
0.00297372
0.113064
9.39564e-05
0.0437934
8.18854e-05
0.000155307
7.77754e-05
0.196809
9.4898e-05
0.000930335
0.0020488
0.0955227
0.000907771
7.92415e-05
0.0805684
0.222338
0.0105033
9.28034e-05
0.392199
0.00434626
0.000334165
9.01758e-05
0.00582753
0.000706245
7.77844e-05
0.000168278
0.0430199
0.000105934
7.77519e-05
0.000198679
0.0221437
0.0805053
0.000276951
0.000174613
0.000263751
0.000191507
0.019782
0.233536
0.0240116
0.0052883
0.00242678
0.000100148
0.00623042
8.9571e-05
0.000207109
0.000817668
0.00152962
0.00594565
0.135901
0.000744361
0.359702
0.00179445
0.000641773
0.00272733
0.230046
0.248263
0.0908815
0.0679404
0.000101869
0.00165304
0.00713506
0.0001111
0.00250414
0.207957
0.000110493
8.12491e-05
0.00184156
0.000149601
9.44645e-05
0.119105
0.00624639
0.118817
0.230989
8.0403e-05
0.0112405
7.77483e-05
7.83443e-05
0.464706
0.0449918
0.454624
0.384221
0.363676
0.00547178
9.48827e-05
0.0603931
0.000204774
0.000101983
7.77559e-05
9.61042e-05
9.60635e-05
7.77702e-05
0.465624
0.000146302
7.77506e-05
0.0808156
0.000132461
0.03472
0.00825208
0.000122797
7.85085e-05
0.110299
0.000151293
9.69028e-05
8.06223e-05
9.09799e-05
0.00039041
8.93965e-05
0.0831595
0.0003056
0.00606326
0.000937856
7.77842e-05
0.069348
0.355657
0.00107574
0.00323183
0.411586
0.143301
0.00337789
0.000933903
0.000104029
0.0019032
0.438473
0.0027714
8.03626e-05
9.43942e-05
0.348417
8.07238e-05
0.00091223
8.42976e-05
0.00179067
0.000143557
8.58208e-05
0.00433436
0.38074
0.761811
8.5162e-05
0.000130728
0.460815
0.147667
8.3489e-05
0.000121954
9.47453e-05
9.56796e-05
0.434309
9.51319e-05
9.50336e-05
0.13895
0.000121434
0.000108104
0.462006
8.73635e-05
9.4981e-05
8.30116e-05
9.85328e-05
0.0320224
0.000133708
0.00774147
8.95371e-05
8.44521e-05
0.000603942
0.113181
0.0101246
0.000111819
0.132067
0.00872023
0.0260011
0.0625631
0.000122156
9.46615e-05
9.92571e-05
0.183864
0.000135572
0.0003442
0.000104297
0.461372
0.276851
0.204298
0.287315
0.000324329
0.000520948
9.83457e-05
0.0194116
0.409236
0.00324384
0.000456997
9.05576e-05
0.000512682
9.64752e-05
8.50906e-05
9.74255e-05
0.000106062
8.8868e-05
0.00475502
0.473111
0.163231
0.346684
0.319497
8.78071e-05
8.58881e-05
0.287547
8.25609e-05
0.00172524
0.000581982
0.10919
0.00879949
9.53673e-05
0.469545
0.000678221
0.00151757
0.305633
0.000499809
0.000624844
8.4058e-05
7.9987e-05
0.0107258
0.00834111
0.342781
0.000112575
9.54927e-05
8.16257e-05
8.27004e-05
0.332307
0.408666
7.84983e-05
0.00107973
0.260982
0.342655
9.4269e-05
0.000894103
9.33803e-05
0.30674
9.7548e-05
0.000210984
9.61496e-05
0.00298723
0.000548587
0.0491749
0.000672474
7.83411e-05
0.0893329
0.339689
0.113089
0.208829
0.27264
0.000457544
0.000480304
0.466414
0.00362243
0.00304626
0.16104
0.122493
0.429303
0.0104506
0.00039382
0.000113995
0.000101968
0.000106077
0.0383254
0.000757126
0.000100124
9.21151e-05
9.14949e-05
0.000163202
0.387325
0.00443724
0.415747
0.306534
0.000119554
0.000623002
0.000666369
0.00334199
8.75708e-05
0.0561368
0.43618
0.477011
0.088975
0.000125008
0.315145
0.259475
0.011712
7.84585e-05
0.000145417
0.0161733
0.000124841
8.14066e-05
0.000659619
0.000780103
7.81523e-05
9.78458e-05
9.89244e-05
0.0013407
0.486126
0.456145
0.215764
9.43225e-05
7.77706e-05
0.453158
0.314717
7.82629e-05
0.417978
0.495833
7.83408e-05
0.444365
0.000166058
7.96266e-05
0.061885
7.77837e-05
0.000496444
9.27849e-05
7.98539e-05
0.457973
0.000504813
0.00572638
7.77736e-05
8.02823e-05
9.54062e-05
0.0286871
0.000752743
0.405358
0.08693
9.62584e-05
7.81304e-05
7.87935e-05
0.136985
0.0430999
0.294588
7.77611e-05
0.000206878
0.000739308
0.000129961
0.384517
0.000223997
0.104672
0.032713
0.366567
0.404501
0.396296
0.025128
9.58279e-05
0.0409291
0.060365
0.0799359
0.000211291
0.151298
0.259827
0.37023
0.0980775
0.30233
0.357572
0.000126877
0.000691932
0.000955464
0.0230988
0.386838
0.16979
9.74803e-05
0.0278954
0.000131872
0.0179933
0.00631868
0.145393
0.152397
0.0155089
0.000222625
0.457088
0.000175564
0.017186
0.054087
0.000109799
0.000330655
0.145762
7.83923e-05
0.47841
8.15863e-05
0.00445955
0.00010916
8.34488e-05
8.66011e-05
0.217316
0.000117232
0.069972
0.000135683
0.209782
0.000133615
0.000161389
9.35414e-05
0.0785455
0.355857
0.00010553
0.475013
0.00010212
0.45411
0.0569572
8.04763e-05
0.00332008
7.96403e-05
0.000118485
0.00114908
0.290687
0.194252
9.00682e-05
0.418776
0.0234369
0.00057179
0.000112886
0.00490201
8.0093e-05
0.000113284
7.8354e-05
0.000638071
0.11152
9.33103e-05
0.45859
0.000571871
8.34655e-05
7.8846e-05
0.00554604
0.00216742
0.000107825
0.000106344
8.57609e-05
8.14657e-05
0.484446
0.000106745
0.000105861
9.94683e-05
0.029293
9.91457e-05
0.0001049
0.137702
8.62604e-05
0.310899
0.000101086
0.0608683
0.0308694
0.000106051
9.79224e-05
0.471027
0.000152279
0.000174115
0.0122669
0.350608
0.339221
0.000535257
7.83813e-05
0.000759455
0.000101807
0.209033
0.345957
0.369397
0.316683
0.0825662
0.33784
7.89882e-05
0.0125019
0.444644
0.189953
0.0025744
0.0693201
0.000102597
0.00138155
0.0054404
0.147344
0.166641
7.79378e-05
0.000335765
8.46928e-05
0.00240823
9.47238e-05
0.439961
9.90831e-05
0.0535601
8.12058e-05
0.411266
0.000325278
0.0256023
0.465663
0.000103722
0.000148384
0.0461568
0.000139371
7.88206e-05
0.364288
0.172299
0.199965
0.464429
0.000252222
0.0336979
0.000171317
0.000432579
0.447471
9.18057e-05
0.00030309
0.000117058
0.00117912
0.282451
7.78288e-05
0.0322349
0.382946
0.00338189
0.00237206
0.200438
8.80546e-05
8.78761e-05
0.000574911
0.00166567
7.78415e-05
7.78324e-05
8.64181e-05
0.384483
8.93265e-05
0.000168241
0.00211929
0.0269828
7.89317e-05
0.00291932
0.381073
7.92767e-05
0.00768064
9.78098e-05
0.0183667
0.0062775
9.21976e-05
0.00816945
0.0442707
0.000255081
0.393758
9.11028e-05
0.000126242
0.366484
8.53416e-05
0.0363105
0.0453925
0.0164738
9.44209e-05
0.423747
0.0246149
0.000128379
0.0914465
0.225262
0.000102973
8.85701e-05
8.17027e-05
0.432076
0.39762
0.0504444
0.0128437
0.0113653
0.00267068
0.0628377
7.77444e-05
9.30541e-05
0.346189
0.444512
0.029449
0.00196072
0.403784
0.143036
0.365376
0.00161565
0.323041
0.0393317
8.42708e-05
0.000173019
0.000291658
0.000150057
0.00224248
0.0844655
0.113139
0.0866255
0.00854115
0.0334965
0.262366
0.000100588
0.000179284
0.0695136
0.426714
0.389596
0.473949
0.0192182
0.00138461
0.0285207
0.481081
0.00035049
0.0711037
0.000657987
0.000301484
0.326967
0.00923652
0.00196112
0.222178
0.00157936
8.51924e-05
0.0388914
0.000578787
8.25518e-05
0.000933665
0.221314
0.000675414
8.47159e-05
0.00010376
0.00754564
0.000104971
0.126355
0.00086049
0.00152905
0.044161
7.95696e-05
0.370305
0.073709
0.192666
0.00341533
0.000118009
0.180164
0.000139538
0.149699
8.06156e-05
0.0296752
0.43883
0.310688
9.16682e-05
0.00174529
9.12111e-05
0.381391
0.398491
9.13038e-05
0.00187887
0.262636
0.0951027
0.362071
0.402862
9.08133e-05
0.0747228
0.000138051
0.00184576
9.87855e-05
0.000972917
0.0813965
0.163127
8.15551e-05
0.000172649
8.30417e-05
0.00202468
0.0573722
0.0710755
8.52217e-05
0.000108662
7.94352e-05
0.0846121
0.0137696
9.18212e-05
0.000526329
0.034603
0.396096
0.0674493
9.70355e-05
0.356754
0.235197
0.0197922
0.372604
9.32978e-05
0.228408
0.297063
0.341523
0.358283
0.167604
0.402044
0.0897186
0.331396
0.000133285
7.88961e-05
9.45262e-05
0.0421821
8.41943e-05
8.58466e-05
0.362444
0.28702
8.34825e-05
0.351021
8.39013e-05
0.275255
0.355312
0.340308
0.17623
0.0757545
0.00989031
8.50918e-05
0.080484
0.0310662
0.00449932
0.00156336
0.0286897
8.45004e-05
9.39257e-05
0.189202
0.336283
0.0528183
0.215437
0.0325046
9.73322e-05
9.02741e-05
0.00353182
0.00809949
8.57981e-05
0.000226495
0.376619
0.48216
7.82108e-05
0.413348
9.58651e-05
0.015505
0.542311
0.000136996
9.66387e-05
0.000158266
7.78305e-05
9.10156e-05
0.135889
9.43561e-05
0.283034
7.96913e-05
0.451151
0.000267104
7.95513e-05
0.011385
7.7766e-05
0.000106305
0.000105071
0.263496
0.0332644
0.00228951
0.0024562
0.00200932
0.000210348
7.78191e-05
0.0559791
0.00160862
0.000100395
0.000109058
7.81216e-05
0.00433245
0.283467
0.00690551
0.000216142
0.0237247
8.05506e-05
0.00726756
0.313599
0.00118879
0.428866
8.23083e-05
9.5706e-05
0.00979793
8.19578e-05
8.17491e-05
0.353446
9.32523e-05
0.027476
0.00236033
0.327328
0.019725
0.305447
0.0624747
9.90154e-05
0.0528507
0.0278699
0.0322179
0.201264
0.0320005
0.000102822
0.116246
0.0139781
0.17831
7.77886e-05
0.0825607
0.000795146
9.29646e-05
0.000107581
9.53027e-05
0.39124
0.0856756
0.0272314
0.0100013
0.00057803
8.71441e-05
8.88471e-05
0.000105131
0.480595
0.0930686
0.00016864
0.361807
0.114115
0.0124041
0.000275602
0.0241136
0.00731649
9.71656e-05
0.38032
9.75892e-05
0.000109931
0.000102296
0.000112138
0.000284626
0.039025
0.405876
0.0938097
0.0154519
7.84375e-05
0.00158996
0.0374512
0.00209516
0.00190592
0.331886
9.24496e-05
0.0406563
0.0331122
0.392468
9.23231e-05
0.220891
9.9537e-05
0.000179998
0.002173
0.0503722
0.461166
0.00567414
0.000150412
0.00280956
0.0270588
0.00312748
0.584567
0.716591
0.38188
0.000112151
0.0258955
0.452712
0.00114666
0.0350477
0.019366
0.000109661
0.00467737
0.000122782
0.00038458
0.10424
9.75097e-05
0.339809
0.322428
0.0020005
8.76964e-05
0.285287
0.000112369
0.000103913
0.00011678
8.16587e-05
0.000144278
0.0953084
0.000103858
0.40045
0.0112633
0.0751854
0.000321773
0.000160822
0.0382961
0.314604
0.000942099
8.24038e-05
0.000317856
9.88831e-05
0.00010638
0.000328723
0.00581843
0.0378597
0.00781044
0.000108589
0.157273
0.00576337
0.0406786
0.0816463
0.00322608
0.236028
0.016083
0.451072
0.383301
0.00411074
0.000212049
0.0225299
0.00100493
0.476318
0.00364595
0.00210986
0.0140835
0.443536
0.009081
0.00870019
0.0370522
0.0287218
0.000101898
8.87961e-05
8.67189e-05
0.336836
0.470791
9.50326e-05
0.47908
0.000919683
0.378744
9.35037e-05
0.00349436
0.0748343
0.0304593
0.151076
0.000986758
9.71253e-05
0.013276
0.0735389
0.357358
0.196458
7.82245e-05
0.152328
0.057296
7.96102e-05
9.52334e-05
8.72733e-05
9.29109e-05
0.30786
0.000146429
0.0838552
0.401729
8.83392e-05
0.465152
0.000114232
0.00051152
0.431639
0.476563
0.0104805
0.00150053
0.475698
8.79146e-05
0.790498
0.0196439
0.430824
9.2738e-05
9.34803e-05
0.464168
0.000964701
9.11933e-05
9.27769e-05
0.320949
0.128479
0.316796
0.000285284
0.00424493
1.08645
0.351222
0.262922
0.00641295
8.00296e-05
8.10437e-05
8.84079e-05
0.00022953
9.74339e-05
0.327679
0.000896087
0.000135441
0.000114863
0.0127886
9.26408e-05
7.9721e-05
0.227938
8.95829e-05
8.04272e-05
0.000118849
0.362843
0.000113015
0.596372
0.47824
0.487021
0.480359
0.00445435
0.218629
0.000928918
0.000111911
0.00446207
0.000113035
0.319018
0.000332127
0.306385
0.185302
0.103619
0.297332
0.0594803
0.00164331
0.0024023
0.0220185
0.00135112
0.000184728
0.000194746
0.0350038
0.0888428
0.128899
0.113792
0.110458
8.81759e-05
0.000209541
0.121031
0.00116808
0.0500906
9.27729e-05
0.0308234
0.044477
0.000299972
9.01017e-05
0.000110691
0.060978
0.000150331
0.130238
0.000145956
0.0395856
8.17604e-05
0.0325667
0.184256
0.104055
0.00078056
0.0782045
0.000118072
0.000140946
0.000122086
0.000106926
9.59352e-05
0.00218281
0.000116524
0.0102903
0.383926
0.00150564
0.000300041
0.00162545
0.47514
0.465723
0.00326671
9.4151e-05
0.0105778
0.0870495
0.425103
0.000134626
9.10556e-05
0.00168419
9.3162e-05
0.0968634
0.44632
0.0115618
0.00157747
0.00247299
0.00088537
0.156496
0.38994
0.000447924
0.404796
0.317869
0.0281523
0.0144855
9.09776e-05
9.0934e-05
0.00010317
0.10582
0.184197
0.0225927
0.0621406
0.000430269
0.0304196
0.00174318
0.378397
0.304513
0.0871103
8.0193e-05
9.16125e-05
0.0580007
9.19931e-05
0.000289063
7.85984e-05
0.012773
0.0773792
0.341413
0.000517793
0.204629
0.0803181
7.79872e-05
0.000439439
0.00270674
0.362052
0.176918
0.00996992
0.00342611
0.00362879
0.00149218
0.00336169
0.037698
0.0721051
0.0075133
0.000715852
0.333284
0.306788
9.72353e-05
0.0153097
0.353938
0.000208825
0.122206
0.00624676
0.000150221
0.00286089
0.227352
0.000391445
0.0899078
0.0157675
0.00011664
0.000307588
0.0250117
0.22633
0.00242845
0.000218591
0.00207207
0.0572959
0.202951
0.000210948
0.00117089
0.0614752
0.00310132
0.00476289
0.08337
0.407392
0.00732268
0.0011134
0.368271
0.309996
0.000555383
0.00110882
0.000113562
0.000582777
0.000106549
0.358088
0.344415
0.00394912
0.000546556
0.000115106
0.000414438
9.44299e-05
0.000111947
8.30373e-05
0.0246055
8.6064e-05
0.0638134
0.000473716
0.391327
0.345131
9.07559e-05
0.0237118
0.00621458
0.0201376
7.81984e-05
8.62441e-05
0.000152248
0.000194131
0.0420283
0.0128114
0.116631
0.361754
0.000773244
0.00407125
0.347332
0.133875
8.28663e-05
0.93859
9.01096e-05
0.0110387
0.000213319
7.77809e-05
0.000100815
9.77611e-05
0.275974
0.00132211
8.16399e-05
0.17088
0.154625
0.00338286
9.37583e-05
7.77475e-05
0.0627946
0.382403
0.000103998
0.000105601
0.111962
0.000207276
7.81424e-05
0.000100974
7.77585e-05
0.407545
0.0604142
0.354003
0.0226178
0.000417611
0.244179
0.00330812
0.0469919
0.044558
9.86469e-05
0.0209559
0.273343
0.0691405
0.000493024
0.0261769
0.000489668
0.022005
0.345181
9.9189e-05
8.83324e-05
0.0342912
8.64607e-05
0.000138491
0.000302476
0.0427877
0.000101248
9.87907e-05
0.000120987
0.0159947
8.16034e-05
0.0584464
0.0109604
8.5687e-05
9.59958e-05
8.38117e-05
0.00374858
0.00749369
8.19242e-05
7.94226e-05
0.0184569
9.02441e-05
0.00937907
0.000351259
0.0597772
0.000218551
0.000125693
0.0106461
0.405741
0.000250928
0.178378
0.389378
0.313649
0.466302
0.000441582
8.76883e-05
0.000500436
0.000576645
0.0473158
0.0164714
0.263956
0.0180249
9.66071e-05
0.000104204
0.00062382
0.0127509
9.70873e-05
0.104998
8.65836e-05
0.0586258
0.000173017
0.000223475
0.00638384
0.000150428
0.333043
0.297195
0.0312001
0.00450747
0.289805
8.78339e-05
0.00770087
0.000149657
0.0137469
9.58222e-05
0.0780839
0.000379995
0.00031886
0.12733
8.07182e-05
9.50661e-05
0.0413476
0.0655424
0.0469344
8.00547e-05
7.85873e-05
9.3784e-05
0.000271533
0.00010878
0.0338493
0.00614958
0.375487
8.23482e-05
9.31692e-05
0.0392348
0.034629
0.00226474
0.00120076
0.448573
0.307427
0.069771
0.000115098
0.000295409
0.0219171
0.00103885
7.90701e-05
0.000703081
9.36961e-05
0.302115
9.2207e-05
0.0456077
0.302986
0.167835
0.183519
0.000145292
0.0236978
0.00072756
0.000507888
9.27335e-05
0.0990215
0.000108047
0.188434
0.00316565
0.000140699
7.80506e-05
9.40783e-05
0.196378
8.25273e-05
7.83503e-05
0.464052
0.0334804
0.000404617
0.00529587
0.00418221
0.13492
8.2011e-05
0.0538543
0.266967
0.207065
0.0422761
0.000443924
7.8387e-05
9.16289e-05
0.0649547
9.45135e-05
0.000112342
8.24501e-05
0.00408957
9.34362e-05
0.000367267
0.0765847
0.191554
0.00137475
0.462817
0.00103379
0.479467
0.405148
0.205941
0.0114457
0.300259
0.132095
0.219748
0.000114405
0.0488865
0.000107339
0.0252661
8.44918e-05
0.0012145
0.26241
0.223699
0.000833979
9.2575e-05
0.00064999
0.347094
0.034246
8.28277e-05
7.83129e-05
7.85346e-05
0.390193
0.457795
0.0992175
0.333935
0.0193803
0.00747193
0.399563
0.464015
0.220852
0.0750088
0.000640842
0.00405326
0.00451372
0.347557
8.65731e-05
0.00010616
0.000121868
0.000159911
0.018566
0.000101702
0.00107816
0.000101398
0.00246915
0.0604022
0.000274677
0.000126702
0.138914
0.0923075
7.79967e-05
0.059622
0.00147762
0.00858926
0.0101856
0.286338
0.0370532
0.0419105
0.00285178
0.309922
0.188319
0.00451083
0.0374864
0.172627
0.00125423
0.00069215
0.00308402
0.00113572
0.217398
0.00074221
0.0977632
0.0581914
0.0656899
0.389253
0.000362498
0.000124032
0.0694983
0.00343355
7.90731e-05
9.96442e-05
0.000606214
0.0114425
0.00125588
0.0424982
0.432194
0.338652
0.0103541
0.00562922
0.000335944
0.000113379
0.0150448
0.227925
0.336008
9.9123e-05
8.7667e-05
0.283733
0.36501
7.83384e-05
0.236905
0.00134194
0.384195
9.556e-05
8.51646e-05
0.0475572
0.0406598
0.0175746
0.0544085
0.313566
0.277719
0.000113176
0.373461
0.367644
0.366475
0.00313482
0.0505202
7.94281e-05
7.81422e-05
0.121217
9.18443e-05
8.22337e-05
0.000291851
7.82111e-05
0.115843
8.71046e-05
8.98079e-05
7.89357e-05
0.120174
0.174746
0.105384
0.424961
0.000107425
0.000106838
0.313163
0.000103226
0.374947
0.457034
0.362273
0.000543843
0.00173899
0.0213134
0.000498299
0.221011
0.433573
0.102885
0.00043764
0.0537116
0.00659808
0.000206107
8.79506e-05
0.00148084
0.0460613
0.0290462
0.0149192
9.37396e-05
8.42607e-05
0.000207184
0.452248
8.29868e-05
0.00500328
0.0235695
0.00012365
0.000378514
9.50686e-05
0.0039242
0.000103869
9.8082e-05
9.0156e-05
8.48744e-05
0.000147499
0.00403245
9.94384e-05
0.43108
9.76581e-05
9.90147e-05
9.60215e-05
0.0153948
0.372551
0.242206
0.000832663
7.99579e-05
0.00012602
8.68301e-05
0.000101139
0.000154736
0.361581
8.7413e-05
7.94755e-05
8.24199e-05
0.0273124
9.65387e-05
0.457098
0.000124142
0.000617294
0.00179659
9.45967e-05
0.000440564
0.444307
8.06413e-05
8.36963e-05
8.80275e-05
8.30341e-05
8.19995e-05
0.000120684
0.00088238
0.106961
0.000504376
9.72413e-05
0.0336034
0.334784
0.000760728
9.72402e-05
8.33775e-05
9.11532e-05
0.0367027
0.0729145
0.00792515
9.98554e-05
0.122065
0.0267431
0.000497323
8.46118e-05
0.245355
0.387339
0.414319
0.0710833
0.0094182
8.26168e-05
7.81627e-05
0.348826
8.02837e-05
0.00864758
0.00655584
0.145639
0.261059
0.00184547
0.424173
0.00272237
0.0639836
0.000688101
0.000109663
7.78894e-05
9.1832e-05
7.98784e-05
0.00500552
0.0550674
0.00132826
8.30263e-05
9.52239e-05
0.000136257
0.0559385
0.000335417
8.00369e-05
0.000163963
0.360158
0.000492897
0.00259047
9.62515e-05
0.000729622
9.97159e-05
0.00210858
0.000812374
0.000146869
8.37789e-05
0.000857753
0.003016
0.000929973
0.33706
0.000901428
0.000294542
0.000153973
0.000129708
0.0112908
0.0016128
0.029053
0.000104829
0.0111058
9.04346e-05
0.0164418
0.0188345
0.000678824
0.454019
0.0829868
0.0675248
0.0193774
0.215852
0.0556762
0.23298
9.5444e-05
0.000131038
0.342565
0.000105537
0.0362855
9.5291e-05
0.000251173
0.382719
0.000106815
0.0138922
0.000225791
0.00017262
0.000189073
0.0143544
9.24398e-05
0.0639231
0.459929
0.187918
0.349772
9.48156e-05
8.00004e-05
0.00855886
0.000101682
0.0323446
0.0435845
0.0784641
0.047223
0.000180128
0.292143
0.333643
0.0135407
9.67855e-05
0.000101834
0.263127
0.0595937
0.00268943
0.17248
0.276638
0.330004
8.27762e-05
0.0443106
0.000109824
0.000147604
0.129959
0.149345
8.39434e-05
0.000135545
0.282963
0.000115133
0.000796612
0.105029
0.124052
8.11036e-05
0.000194811
0.000108057
0.225075
0.0565346
0.000122951
0.41007
8.99251e-05
9.6705e-05
8.82533e-05
0.000104637
8.20203e-05
8.50707e-05
8.04161e-05
9.74418e-05
0.0325884
0.440779
9.43633e-05
0.000106039
0.00193669
8.45973e-05
0.000200063
0.000910688
0.0313542
9.42086e-05
9.62959e-05
0.301999
0.00148552
9.56997e-05
9.57569e-05
0.248545
0.00766158
7.81332e-05
8.62768e-05
8.61849e-05
0.446273
0.492863
0.439116
9.81767e-05
0.0814283
0.014495
8.42577e-05
0.000530657
0.000148322
7.90982e-05
0.000141404
0.000667876
0.0011842
0.00163154
0.00201869
0.000115563
0.0114564
0.000139033
0.0150508
0.000538355
0.00926303
0.000246958
8.53516e-05
8.52891e-05
0.00534568
0.400119
9.72032e-05
9.59141e-05
0.533966
0.000157085
0.373118
0.000293521
9.89165e-05
0.160105
8.10272e-05
0.000148685
0.00188256
0.0104164
0.00012121
7.82897e-05
0.289489
9.51368e-05
7.79647e-05
0.0727971
0.00172413
9.22565e-05
0.000131759
0.0315512
0.000553302
8.22741e-05
0.332337
0.000166658
7.85984e-05
0.268886
0.00994429
0.00332121
0.230973
0.00852155
0.371158
0.453442
0.0583273
0.00198412
0.000173054
9.13994e-05
0.316891
0.000915129
0.177145
0.000178051
0.385076
0.354822
0.259937
8.22398e-05
0.0264316
0.000147131
0.0180361
0.383092
0.000573746
9.52926e-05
0.0001443
0.182355
7.78465e-05
0.00926008
0.00050656
0.112359
0.000578219
0.0394383
0.000219807
0.000111952
0.00382545
9.47385e-05
0.000390287
0.237363
0.000103406
0.366734
0.390579
0.000611033
0.000120586
0.000847071
0.0882471
0.00102385
0.0097968
0.226663
0.000678003
0.000207262
0.0572573
0.00010151
0.000671252
0.000118969
7.91191e-05
0.278715
0.000596659
0.0631694
0.013455
9.3491e-05
8.31848e-05
0.0121238
0.000111605
0.000552085
0.00108779
9.88875e-05
7.78321e-05
0.000498959
0.0167914
8.8275e-05
0.350402
8.57406e-05
0.00396649
0.000157401
9.60979e-05
0.0392597
8.45489e-05
9.48253e-05
8.77794e-05
0.0268813
0.000108021
9.99689e-05
0.0294563
0.000121187
0.137501
0.0926894
0.0568934
0.0040458
0.000120374
0.000247742
9.58841e-05
0.000269869
0.380503
0.000106027
0.00316984
0.000134216
0.0251222
0.000159864
9.04166e-05
8.9583e-05
0.00131778
0.000537542
0.373299
0.0093711
0.34212
0.179619
0.00533375
8.20477e-05
0.00108426
0.000953996
0.000117846
9.04559e-05
0.000826359
0.289931
0.0150329
0.000320999
0.000103313
0.00373413
8.78878e-05
8.74963e-05
0.000117238
0.000797186
0.0011794
0.485275
0.016681
0.000238691
7.9954e-05
9.25173e-05
0.297284
0.000345372
0.342811
0.0115552
0.000326612
8.5601e-05
0.0090322
0.345157
0.393115
0.315402
0.00183945
9.89058e-05
0.000419796
0.00182979
8.95249e-05
0.000122372
0.00065391
8.34929e-05
0.000142997
0.000970603
9.26895e-05
0.000646098
0.000254506
0.000846483
0.0582707
0.0604056
9.74084e-05
0.00034225
0.000315139
0.000342612
0.000103196
9.18352e-05
8.12035e-05
0.00284952
7.80727e-05
0.000124958
0.0389706
0.166169
9.15971e-05
0.206802
0.0793032
0.00121973
9.14661e-05
9.23559e-05
9.04065e-05
7.77545e-05
0.0594206
8.91682e-05
0.204521
9.22545e-05
0.436199
0.000137849
0.000360592
0.000620463
8.69331e-05
7.82622e-05
8.99958e-05
0.0410773
0.000675732
0.0205863
0.000522241
0.00795837
0.00112737
0.000972001
0.0523156
0.000883167
0.00359609
0.00029182
0.00851345
0.000473464
0.000699934
0.092373
9.73181e-05
0.0517738
0.00324498
0.365017
7.86882e-05
0.154578
0.0385844
0.0657216
0.000200943
0.302472
0.268959
0.0383932
0.0714722
0.452906
9.20433e-05
0.000103968
9.19485e-05
0.000136351
0.000132174
8.19631e-05
0.000953917
0.000133414
0.000115894
7.78012e-05
0.127025
0.0288112
0.328517
0.201577
7.95149e-05
0.252276
7.83178e-05
0.339398
9.51631e-05
0.000920667
9.56288e-05
0.000117348
0.00389156
0.000349571
9.73228e-05
0.000582108
0.277175
8.77839e-05
0.0122865
0.00703057
0.00256727
0.357598
0.0391357
0.32084
0.000100094
7.83743e-05
0.215637