/*--------------------------------*- C++ -*----------------------------------*\
| =========                 |                                                 |
| \\      /  F ield         | OpenFOAM: The Open Source CFD Toolbox           |
|  \\    /   O peration     | Version:  v2012                                 |
|   \\  /    A nd           | Website:  www.openfoam.com                      |
|    \\/     M anipulation  |                                                 |
\*---------------------------------------------------------------------------*/
FoamFile
{
    version     2.0;
    format      ascii;
    class       volScalarField;
    location    "0.568111";
    object      T;
}
// * * * * * * * * * * * * * * * * * * * * * * * * * * * * * * * * * * * * * //

dimensions      [0 0 0 1 0 0 0];


internalField   nonuniform List<scalar> 
353077
(
295.126
294.979
295.15
294.907
295.15
295.15
295.15
295.15
295.15
295.15
294.914
294.85
302.312
295.15
295.15
295.15
294.876
295.808
295.15
295.15
306.31
295.15
295.15
295.193
295.15
295.15
295.096
295.15
295.15
294.9
295.15
295.15
295.349
295.148
295.15
295.149
295.069
295.043
295.027
295.15
295.15
295.15
295.053
295.15
295.078
295.15
295.15
295.15
295.149
295.165
295.15
295.15
295.15
295.15
295.15
295.15
295.15
295.15
295.149
295.15
295.15
295.15
295.146
295.15
309.509
295.15
295.15
295.15
297.61
295.15
295.15
294.761
294.5
295.15
294.78
295.15
295.148
306.619
309.748
295.149
293.648
295.15
301.51
295.157
293.866
295.141
295.139
295.101
295.15
309.692
308.4
295.15
295.15
295.15
295.146
295.15
295.125
295.15
295.15
295.15
295.15
295.15
295.15
295.15
295.15
295.15
295.15
295.15
295.15
295.15
295.15
295.15
295.15
295.14
295.15
295.15
295.134
307.127
295.15
295.15
295.15
295.15
294.63
294.059
295.15
294.76
295.15
295.15
295.15
295.15
294.182
295.15
295.15
295.15
295.15
295.149
295.15
295.15
295.15
295.15
295.111
295.15
295.15
295.15
295.081
295.052
294.84
295.15
294.73
309.01
295.09
295.034
295.165
295.15
294.115
295.15
295.15
295.15
295.15
295.17
294.279
295.15
295.15
295.15
295.15
295.147
295.15
295.15
295.15
295.15
295.15
294.214
295.15
295.15
295.15
295.15
295.15
295.15
295.277
295.15
295.15
295.15
295.15
295.15
295.15
295.15
295.15
295.15
295.282
295.15
295.15
295.15
295.15
295.15
308.824
309.572
295.187
295.15
295.15
295.15
303.856
307.841
295.117
295.15
295.169
295.15
295.153
295.15
295.15
295.15
295.15
295.107
295.159
295.15
295.122
295.15
294.629
300.499
295.15
295.159
304.481
295.15
295.152
295.15
295.15
295.15
295.15
307.877
295.15
295.15
295.15
295.15
295.15
295.15
293.189
295.15
295.15
295.15
295.148
295.15
295.15
295.15
295.15
295.15
295.15
295.15
295.15
295.15
295.452
295.15
295.15
295.15
295.15
295.064
295.166
295.151
295.15
295.15
295.147
295.15
295.15
295.055
308.364
295.255
295.15
295.15
295.15
295.15
295.15
295.148
295.15
308.899
295.15
295.15
295.589
295.085
295.15
295.15
301.487
295.149
307.039
301.507
295.148
295.15
295.031
295.15
294.44
295.15
295.151
294.823
294.899
301.208
295.15
295.15
293.515
295.152
295.15
295.15
295.15
295.152
297.375
305.588
295.15
300.493
295.15
295.151
295.15
295.152
295.11
295.151
295.15
295.15
295.15
295.15
306.366
309.041
295.151
309.094
295.139
295.15
309.433
295.15
308.946
295.15
295.15
310.491
294.862
295.149
295.146
295.15
295.147
295.135
294.825
294.7
308.066
294.797
295.781
295.15
294.848
309.465
294.875
295.15
295.137
294.614
295.148
294.667
295.15
295.136
295.15
295.15
295.15
295.152
306.918
295.127
308.807
295.15
294.831
295.15
295.116
295.15
295.15
295.039
301.938
295.059
295.15
295.216
295.15
295.15
295.15
295.451
295.129
305.016
307.315
308.875
295.15
295.15
295.15
295.15
295.15
295.15
295.15
295.15
295.129
295.15
295.15
295.063
295.15
295.082
295.158
307.709
295.15
295.15
295.15
293.38
293.245
295.392
306.198
295.15
296.917
295.15
295.15
295.161
295.15
295.15
293.001
295.15
295.15
295.15
295.15
295.15
295.147
294.998
295.15
295.15
295.15
297.03
295.15
295.15
295.15
308.076
295.15
310.141
295.047
295.15
295.15
295.148
295.15
300.459
306.289
309.267
295.099
302.057
295.15
295.061
309.049
294.756
295.15
305.364
295.148
302.322
294.946
295.151
291.583
295.056
295.15
295.15
295.147
295.088
295.138
293.216
295.15
295.15
295.545
295.079
295.15
295.15
304.89
295.15
295.15
308.937
299.012
295.052
292.024
308.957
295.144
295.147
295.148
295.15
295.15
295.15
295.15
295.138
295.15
295.15
295.15
295.15
295.15
294.851
295.15
295.15
295.15
295.116
295.025
295.15
295.15
295.15
295.17
295.123
295.113
305.58
295.15
295.107
295.112
295.15
310.041
295.15
295.133
306.014
295.15
295.15
295.15
295.091
295.15
309.262
301.645
294.745
295.15
295.007
295.005
292.887
305.115
295.15
307.343
295.15
295.15
309.37
309.594
295.15
295.132
295.049
295.087
295.109
295.15
300.081
295.15
309.705
295.15
304.757
295.15
295.15
295.15
295.15
295.15
308.189
295.15
295.15
295.051
295.072
295.07
295.15
295.142
293.468
295.15
295.125
295.15
295.15
295.15
299.62
295.167
295.15
297.581
295.15
295.124
297.725
293.647
295.15
293.203
310.227
295.083
308.216
295.149
300.956
294.878
295.15
295.15
295.15
309.442
294.634
294.697
295.153
307.014
295.15
295.15
295.15
309.407
295.15
295.15
295.15
295.159
295.11
295.15
295.15
300.366
295.149
295.15
295.143
295.15
305.086
293.786
301.564
295.148
295.151
294.686
304.605
295.15
295.15
293.666
295.143
295.072
295.15
295.15
295.14
295.148
295.141
295.088
293.504
300.9
309.064
308.892
295.15
293.741
295.139
302.464
308.449
295.15
293.638
295.15
295.139
295.143
308.859
305.537
294.919
295.15
295.122
295.149
295.15
309.501
298.551
293.978
293.201
295.123
295.144
307.611
295.15
304.911
294.66
295.15
294.994
308.873
295.15
295.15
295.15
309.207
295.131
295.15
295.15
295.15
295.15
294.931
295.15
295.15
295.15
295.15
295.15
295.15
295.15
295.15
295.15
299.378
295.15
295.142
295.15
295.15
295.15
307.701
295.15
295.08
301.026
295.15
295.105
295.15
295.154
295.15
309.343
295.15
295.14
295.045
295.034
295.15
295.15
295.065
305.432
294.166
295.15
309.215
295.126
295.172
295.15
295.118
295.144
295.15
295.15
299.288
295.15
295.15
295.15
295.027
299.785
295.162
295.15
295.149
295.144
295.079
295.071
293.314
295.15
295.146
295.152
294.411
295.151
295.14
295.132
295.134
294.651
309.272
295.127
309.666
294.938
295.099
295.143
305.591
305.575
301.22
294.844
295.15
295.143
294.708
295.15
294.965
305.353
295.15
295.15
295.143
295.154
295.15
304.431
295.123
300.886
306.072
295.15
295.089
295.15
295.15
310.538
295.09
309.046
309.648
308.774
295.12
295.15
294.65
297.954
295.15
295.15
295.15
295.15
295.15
309.917
295.95
295.15
299.4
295.19
295.078
294.456
295.15
295.15
302.466
295.15
295.15
295.15
295.15
298.852
295.15
299.386
298.391
295.135
295.134
295.15
294.509
308.95
295.037
294.861
308.561
302.885
294.75
295.091
295.161
294.907
293.923
294.715
295.15
295.15
307.919
295.15
295.08
295.15
295.383
295.149
295.15
294.836
307.724
293.324
295.15
295.15
309.766
308.439
295.15
295.15
295.172
295.15
309.335
295.15
295.15
300.925
295.149
295.15
310.159
295.15
295.15
295.15
295.15
294.392
295.151
295.149
295.15
295.15
295.15
300.556
296.407
295.15
303.207
294.431
299.929
301.224
295.15
295.15
295.15
309.383
295.15
295.152
295.15
309.983
306.753
305.176
308.866
295.151
295.15
295.15
296.823
310.372
294.878
295.108
295.15
295.15
295.15
295.15
295.15
295.15
295.15
295.15
309.638
295.126
307.853
308.873
295.15
295.15
307.325
295.15
294.909
295.09
301.042
295.638
295.15
310.027
295.133
294.965
310.383
295.144
295.137
295.15
295.15
295.127
295.135
307.501
295.15
295.15
295.15
295.15
307.812
307.946
295.15
295.217
295.096
309.267
295.15
295.053
295.15
294.14
295.15
295.147
295.15
295.135
295.117
295.143
295.076
295.15
295.14
308.881
309.419
304.714
308.954
295.121
295.132
310.291
295.15
295.15
302.62
301.537
310.414
296.535
295.102
295.15
295.15
295.15
297.287
295.074
295.15
295.15
295.15
295.15
309.286
295.123
308.857
310.187
295.15
295.104
295.149
295.123
295.15
299.614
310.1
310.232
294.985
295.15
307.651
309.94
293.942
295.15
295.438
294.973
295.15
295.15
295.089
295.06
295.15
295.15
295.15
295.133
310.353
309.931
305.657
295.15
295.15
310.093
307.647
295.15
310.361
310.176
295.15
309.064
295.15
295.15
298.788
295.15
295.15
295.15
295.15
295.129
295.15
294.702
295.15
295.15
295.15
295.103
295.15
309.975
303.831
295.15
295.15
295.15
303.862
297.413
310.116
295.15
295.209
295.14
295.271
308.764
296.22
302.75
292.863
308.08
309.384
309.751
295.07
295.15
299.015
301.358
295.074
295.148
295.051
295.142
309.37
295.089
309.834
309.534
295.148
295.147
295.149
295.079
309.888
295.088
295.15
300.128
295.154
299.46
295.138
302.315
295.049
294.638
295.148
310.356
295.157
295.119
300.987
295.15
295.146
308.578
295.15
310.026
295.15
295.121
295.146
295.15
295.15
303.505
295.15
294.609
295.15
304.085
295.149
295.15
295.15
300.041
308.198
295.15
310.101
295.149
309.76
293.913
295.15
294.707
295.15
295.15
295.003
306.773
295.092
295.15
309.597
295.133
295.114
295.15
295.132
295.15
295.15
295.15
295.098
302.739
295.15
310.323
295.145
295.15
295.15
295.13
295.138
295.15
295.15
295.15
295.15
310.19
295.15
295.15
295.15
295.15
295.15
295.15
301.169
295.15
309.575
295.15
293.884
298.871
295.15
295.15
309.529
295.15
295.149
295.09
308.291
309.778
295.106
295.15
295.041
295.15
308.843
309.62
308.41
307.086
299.596
309.395
295.15
295.089
309.463
304.394
295.136
295.119
295.15
295.142
295.128
302.666
302.518
295.15
295.148
295.15
295.139
295.15
309.541
295.15
299.302
295.15
310.091
295.148
295.149
309.852
295.15
295.15
294.972
295.15
295.15
309.221
304.245
303.787
310.399
295.15
297.124
295.15
295.15
308.497
295.15
295.13
295.15
295.14
306.858
295.15
299.045
308.223
295.15
295.134
304.856
295.15
295.15
295.15
294.965
295.15
295.15
295.15
309.021
295.15
295.15
295.387
295.06
295.15
294.981
307.941
295.15
295.102
295.15
292.61
295.118
295.15
295.104
294.488
295.169
309.326
295.15
295.151
308.48
295.15
297.271
295.03
294.005
295.15
309.32
295.052
295.15
299.549
308.886
295.15
295.15
295.15
309.143
310.02
295.05
295.093
295.138
295.146
300.833
295.15
295.15
308.278
309.175
299.601
295.141
309.498
301.017
309.181
295.145
309.692
295.147
295.15
295.149
295.148
295.15
295.302
300.391
295.05
301.747
294.826
299.115
306.248
295.151
295.148
300.598
308.731
309.647
309.812
299.077
295.145
298.004
309.548
295.113
298.892
295.15
295.123
293.745
294.263
295.139
308.472
294.981
295.15
295.143
295.15
295.15
295.15
304.448
295.15
295.15
295.15
295.134
295.15
293.533
295.15
294.992
295.098
295.15
309.091
295.098
302.595
294.662
295.151
295.054
295.154
302.787
295.15
295.117
309.715
309.306
295.15
294.972
295.15
309.655
308.701
295.15
295.15
306.887
295.106
309.708
308.842
295.152
295.091
295.149
294.958
295.15
295.135
299.445
302.437
295.15
295.148
295.15
295.127
294.956
298.892
295.15
295.148
295.15
299.038
294.972
295.15
295.144
293.505
307.937
300.743
295.15
309.682
305.238
295.139
308.536
295.15
305.863
308.379
307.374
309.126
302.558
308.538
301.737
309.618
295.149
295.15
295.15
299.462
295.15
295.15
309.43
309.247
295.15
307.712
295.15
308.747
309.718
307.588
293.69
295.141
295.043
295.15
293.139
300.033
295.058
295.132
293.598
295.15
295.15
294.523
307.731
295.15
295.15
295.117
295.15
295.15
295.044
295.089
295.15
295.156
309.202
310.519
295.15
309.819
295.15
293.722
295.128
295.15
295.15
295.148
295.15
295.15
303.455
295.15
295.067
295.15
310.273
295.15
295.15
295.149
295.15
295.15
295.15
309.893
294.295
295.119
295.132
294.907
295.148
295.15
298.606
295.13
295.15
295.151
295.15
295.099
306.016
295.145
295.156
295.143
295.15
295.034
310.417
295.15
309.479
295.15
295.15
294.906
295.15
295.15
309.284
295.15
295.131
294.86
294.437
294.641
309.847
294.611
295.15
298.283
295.034
294.955
303.377
298.073
295.15
292.975
294.727
302.421
295.15
294.435
295.148
295.15
295.15
295.15
309.607
295.137
297.111
295.13
295.101
295.15
295.15
295.15
310.294
300.571
295.156
309.412
294.446
296.169
295.124
294.656
294.479
295.15
309.341
295.15
295.15
295.15
295.15
295.172
298.874
309.447
301.713
296.631
295.15
294.964
295.128
294.887
294.943
308.948
295.15
299.499
296.86
309.627
295.15
303.524
295.15
295.138
294.893
299.706
309.804
295.137
295.606
295.146
295.143
295.15
295.053
295.108
309.476
295.15
296.679
309.398
295.15
295.087
294.108
295.15
295.523
295.15
295.15
293.543
295.15
309.549
309.369
295.148
295.15
309.585
295.15
295.15
295.15
295.15
295.15
299.657
295.15
308.548
295.056
293.771
295.148
295.149
294.644
307.708
295.294
295.15
295.148
295.15
295.15
295.148
293.465
295.109
296.252
295.15
303.817
293.421
298.054
294.571
295.15
304.793
294.064
310.377
295.047
295.048
295.149
295.149
295.278
309.814
294.142
295.114
294.241
309.891
293.557
294.331
295.135
295.122
295.15
295.15
295.15
308.63
309.696
295.15
310.481
295.15
309.839
295.15
294.366
295.148
295.137
295.148
295.064
295.15
294.112
293.648
309.267
308.829
295.15
294.526
294.681
295.15
295.15
295.15
295.15
306.339
295.15
299.34
308.35
295.15
310.214
295.15
295.151
310.044
310.182
295.073
294.814
310.092
295.15
294.972
294.77
309.536
295.15
295.15
309.849
295.073
295.15
295.15
308.674
294.918
308.686
300.601
294.742
295.049
309.514
305.393
294.594
295.15
295.15
295.15
295.148
295.15
307.316
295.15
295.15
295.15
294.566
295.15
295.15
304.827
295.15
295.15
295.206
309.745
295.15
294.67
310.01
310.114
293.665
294.74
294.288
295.039
295.15
295.121
295.15
308.701
295.116
309.899
302.712
294.242
306.774
298.438
294.955
294.896
295.146
295.137
295.15
295.16
295.15
301.895
294.618
301.316
301.057
295.15
295.138
303.278
295.148
299.38
295.15
300.036
293.901
295.15
295.149
295.15
298.005
295.146
309.127
295.15
300.125
295.15
300.005
303.856
294.873
295.087
302.064
295.147
295.145
295.146
295.15
295.15
294.927
295.152
294.596
308.003
295.022
295.15
295.028
310.019
310.473
295.144
295.15
293.045
295.142
310.08
295.15
295.15
294.983
295.15
306.571
310.067
295.13
295.067
294.846
295.15
309.007
308.031
295.078
308.566
308.059
294.071
293.859
295.15
295.15
295.15
303.104
309.085
300.162
292.828
295.122
293.268
295.149
309.528
307.313
294.815
295.15
295.15
294.899
295.15
295.124
295.15
295.069
295.087
307.982
295.15
304.82
295.143
295.15
295.15
294.746
309.811
294.685
293.865
294.645
294.607
295.03
294.659
294.412
294.175
294.028
295.048
307.017
307.498
295.15
294.319
308.752
295.136
294.058
294.717
295.145
294.791
294.741
295.15
300.176
294.001
295.15
295.149
296.646
293.089
295.012
295.15
294.767
299.122
307.068
295.159
294.899
295.112
294.827
295.063
294.71
310.346
294.672
295.117
307.414
306.416
295.15
295.15
295.15
295.127
295.15
309.288
306.717
295.084
295.15
295.15
295.133
295.15
295.15
295.15
295.112
295.15
294.615
295.097
309.223
309.106
295.15
293.408
294.301
294.687
295.15
295.15
295.142
295.138
292.455
293.214
300.363
309.058
295.15
294.508
308.675
295.059
295.15
294.742
295.15
296.479
295.15
295.15
295.15
295.148
309.506
294.987
295.15
302.581
302.435
295.106
295.15
295.15
295.07
309.297
295.15
295.15
295.116
295.282
295.15
295.15
295.15
310.484
295.085
309.718
294.948
295.148
304.421
295.146
295.142
300.394
295.15
295.025
309.575
295.083
295.15
299.809
295.15
294.849
309.781
295.15
295.15
294.911
295.15
295.147
295.15
294.951
295.15
295.15
295.148
293.769
295.15
294.508
295.131
295.15
295.15
295.15
295.38
294.896
295.15
295.15
296.802
295.15
295.952
295.151
298.894
295.132
295.15
294.139
310.395
295.146
293.602
309.629
309.507
309.915
295.088
295.15
295.15
295.068
295.15
294
305.214
295.132
295.15
295.149
295.192
293.81
295.15
295.045
295.15
295.147
295.135
295.15
295.098
295.15
307.343
307.562
297.384
295.617
309.354
295.15
296.218
295.14
296.892
295.15
295.107
295.15
295.15
305.871
295.15
295.15
294.332
294.332
294.591
295.15
295.15
295.15
295.143
295.15
298.649
294.456
309.157
295.15
295.15
294.97
295.15
294.919
294.931
309.023
309.195
299.159
295.15
295.15
291.578
295.15
295.15
295.15
295.15
308.874
295.15
295.082
307.455
301.899
309.457
295.15
294.869
295.15
295.15
295.15
300.596
295.15
304.671
294.912
295.15
295.15
295.15
302.878
295.15
295.15
309.533
295.068
295.147
295.136
294.406
294.072
295.15
295.021
306.916
304.906
295.005
295.15
295.15
295.15
300.418
295.15
295.15
295.15
295.15
295.15
295.15
294.776
309.544
295.15
309.843
295.15
310.006
308.734
304.1
294.23
308.166
295.092
305.369
295.15
299.256
295.15
295.052
295.15
295.15
309.847
294.5
295.15
295.15
295.15
307.409
295.047
295.15
295.15
295.15
309.396
310.576
303.284
308.164
293.942
293.212
310.113
309.768
305.385
301.043
295.052
295.058
294.055
308.209
295.151
295.15
295.15
295.15
295
295.15
295.076
295.15
294.401
297.98
295.15
295.15
301.087
293.935
295.15
295.15
294.977
295.117
294.993
308.752
297.066
294.474
295.151
307.67
294.902
294.414
295.107
303.003
294.959
295.15
294.616
295.137
295.026
295.15
300.279
299.744
294.588
308.548
295.15
295.15
295.092
294.779
295.15
295.15
295.15
293.783
295.235
292.683
309.923
307.881
294.18
295.079
295.149
295.15
294.022
306.23
309.862
295.15
295.15
307.26
307.26
295.15
294.549
295.15
308.992
295.15
295.15
293.923
294.531
295.147
295.12
309.694
307.23
295.15
309.463
308.88
309.615
295.031
295.148
295.15
295.15
305.069
295.15
295.15
295.15
295.15
309.031
295.15
295.15
295.15
301.622
307.798
300.608
310.298
295.15
295.15
308.162
295.15
308.014
309.739
307.626
295.15
295.15
300.047
295.15
305.166
310.151
302.836
295.15
301.58
294.406
295.185
295.15
295.149
294.142
296.722
295.133
295.15
295.15
295.15
310.109
295.15
295.147
294.772
295.15
295.123
295.15
295.12
295.261
295.15
295.15
295.15
295.155
294.601
295.15
309.375
295.15
295.157
295.15
295.011
294.454
295.139
295.149
295.15
295.15
295.15
295.15
295.15
307.915
295.15
295.15
295.15
295.15
295.15
309.556
295.15
299.469
295.04
295.15
295.104
310.161
295.15
295.15
295.15
295.15
295.15
295.15
295.079
293.595
295.15
295.15
295.117
307.072
295.15
295.15
295.15
295.15
299.913
301.063
295.033
295.15
302.716
299.645
295.14
295.15
304.546
308.515
295.136
301.215
294.54
295.15
295.15
295.096
295.15
294.594
295.149
308.439
308.958
295.15
310.173
295.108
294.994
295.148
295.15
295.15
295.15
295.15
295.139
294.32
295.02
295.15
295.15
295.156
295.066
295.168
295.15
295.15
294.974
295.142
295.115
295.15
295.145
295.15
295.142
295.131
295.15
295.15
295.126
295.108
295.118
307.756
295.051
295.15
295.15
295.15
295.739
294.957
295.069
295.15
295.118
295.15
295.15
293.979
295.085
309.425
302.152
301.753
300.019
295.088
301.356
306.973
295.15
295.15
309.358
295.15
300.798
295.15
295.149
308.712
295.15
295.083
295.403
295.149
295.15
295.125
295.15
295.075
309.742
304.576
307.977
295.15
295.15
295.041
295.15
294.995
295.06
295.095
295.052
295.15
306.552
310.044
295.122
295.218
295.188
308.688
295.054
295.125
305.53
295.01
309.79
295.15
295.106
295.15
295.15
295.014
302.611
295.15
295.15
310.565
295.15
295.15
300.423
294.729
295.15
295.15
295.15
295.15
295.097
295.15
309.789
295.15
295.15
295.15
295.15
295.15
295.15
295.15
295.15
294.702
309.4
295.15
295.15
295.15
295.15
295.15
295.15
295.067
295.15
295.15
307.141
295.15
295.15
295.15
307.25
295.15
295.15
295.15
295.15
309.45
310.491
295.086
295.15
295.107
295.141
295.15
295.15
295.15
295.15
295.15
295.186
295.15
298.628
295.146
295.15
295.085
295.15
294.469
295.203
296.019
295.15
295.15
295.15
294.758
308.657
295.15
295.15
295.148
295.15
295.147
295.15
295.15
302.936
295.15
295.15
294.962
295.106
295.15
295.15
295.068
295.15
295.15
294.697
295.15
295.15
295.15
297.379
295.15
295.15
308.18
295.138
295.15
309.08
294.587
295.15
294.008
295.15
309.158
309.861
294.517
295.15
295.15
295.15
310.691
295.15
295.149
295.148
308.281
309.431
308.87
295.15
294.963
295.153
295.041
309.17
295.149
295.15
295.149
303.679
295.15
295.15
295.14
301.073
295.147
294.928
295.15
295.15
295.15
295.15
295.125
294.879
295.154
307.812
308.265
295.145
295.151
295.15
294.836
295.149
295.126
304.026
295.091
295.148
294.379
295.152
295.141
295.148
295.15
309.867
295.15
295.112
294.268
295.15
295.15
295.144
295.15
295.15
295.15
295.15
295.15
295.15
295.15
295.15
294.804
295.15
294.31
295.145
295.15
295.098
295.15
295.15
295.15
297.016
295.15
295.15
295.15
295.15
295.149
295.067
295.102
295.107
295.15
295.15
295.15
295.15
309.467
295.15
295.108
295.15
294.256
295.142
295.15
295.15
295.027
295.14
308.64
295.117
309.62
295.058
294.7
295.15
295.055
295.058
295.15
295.15
295.016
307.395
294.215
295.15
295.15
295.15
295.15
295.15
295.15
295.15
295.15
310.469
295.15
295.145
295.15
295.15
306.934
295.15
309.994
294.625
295.15
295.15
294.404
308.989
309.561
307.47
294.942
295.15
295.15
294.95
295.15
295.15
295.15
295.15
295.15
295.15
295.15
295.15
295.15
295.056
298.835
301.591
295.15
297.665
295.15
295.144
295.15
295.15
295.15
295.15
295.15
295.15
295.016
303.006
295.15
303.344
295.075
295.158
295.15
295.15
295.15
295.15
300.623
295.15
304.88
295.15
309.311
295.15
295.15
295.15
295.149
295.15
295.15
300.787
295.15
293.8
295.15
294.584
295.034
295.126
301.143
295.15
294.787
295.15
294.037
295.146
295.181
295.075
295.15
293.006
294.886
294.104
295.15
301.998
295.092
294.798
295.146
307.3
305.777
294.214
295.106
309.765
295.15
295.15
295.15
295.148
295.154
295.15
295.141
295.147
295.15
295.15
294.277
294.192
308.676
305.055
295.15
306.801
295.15
307.799
295.15
295.15
295.15
295.15
295.068
295.117
295.15
295.087
309.836
295.15
294.779
294.833
295.327
309.105
295.048
309.849
295.149
295.15
306.426
295.15
295.15
295.15
295.137
294.356
295.218
294.148
294.415
295.139
309.398
294.483
295.152
297.069
294.722
295.15
294.542
294.849
295.13
294.924
295.15
295.146
295.15
307.86
307.838
308.474
296.03
295.15
310.174
293.1
305.332
295.013
295.141
295.114
295.085
295.15
295.149
294.226
309.412
298.809
295.15
295.089
295.034
294.987
295.15
306.09
295.15
295.15
295.15
309.058
309.574
295.094
295.107
295.151
295.15
293.927
295.15
295.145
295.146
295.15
295.15
293.553
294.626
309.806
295.15
295.15
300.641
295.011
301.407
307.979
308.45
295.046
295.15
294.667
295.15
308.64
308.799
295.15
295.048
295.142
295.15
308.596
295.15
307.429
308.708
300.857
295.062
293.219
295.151
295.15
294.929
307.667
295.15
293.319
295.15
294.842
295.15
293.311
303.46
295.15
295.15
295.15
295.15
295.15
295.152
295.705
295.15
295.15
295.033
295.28
306.514
295.15
295.15
295.15
295.148
295.15
295.106
295.15
295.15
295.15
310.078
309.093
295.15
295.15
295.15
295.15
295.15
295.15
300.462
307.814
310.419
295.15
295.15
295.134
295.114
295.147
295.15
308.084
297.66
309.482
295.15
295.15
295.12
295.154
295.114
295.088
295.145
295.15
295.15
293.992
295.106
295.15
300.112
294.933
294.333
295.15
295.09
309.808
308.476
294.919
307.515
295.068
295.13
295.15
309.367
302.447
295.136
294.214
307.806
295.15
295.127
295.15
295.15
295.15
295.15
295.15
295.15
295.106
295.075
295.149
295.15
295.144
295.123
295.138
294.649
295.222
295.15
295.15
295.081
295.15
295.15
305.474
295.15
295.113
295.15
301.639
295.15
295.138
294.549
295.15
294.985
294.623
295.15
295.097
295.15
295.15
295.15
295.15
295.15
295.15
295.09
295.15
295.15
295.15
295.15
295.026
295.15
295.15
295.142
294.528
295.15
295.15
295.15
294.274
295.087
295.15
294.338
295.15
295.15
300.48
295.036
299.256
295.15
295.034
295.15
295.15
295.12
294.562
295.15
295.147
295.15
295.15
299.993
295.15
295.15
295.15
295.15
295.15
295.15
295.15
294.714
295.054
295.15
295.15
295.15
295.15
295.15
295.15
295.282
294.694
293.989
307.916
294.71
295.15
295.15
295.15
302.985
301.756
294.493
294.718
295.083
306.429
295.15
309.626
295.15
295.15
295.15
298.229
295.15
295.15
309.502
309.987
295.15
309.146
295.15
295.15
298.604
295.15
294.65
295.15
295.15
295.067
301.648
300.218
295.15
306.221
295.15
310.751
294.448
295.15
295.15
295.152
292.976
299.929
295.138
295.15
295.15
294.975
305.734
295.185
309.975
309.123
295.15
295.15
309.442
295.055
297.948
295.15
306.494
295.15
295.113
295.039
294.919
295.14
309.312
300.718
303.334
295.104
294.999
297.273
295.121
295.15
295.137
295.15
295.15
295.15
295.135
295.15
295.15
310.302
295.15
295.108
309.156
295.149
295.101
295.143
294.211
309.288
309.806
305.356
309.825
295.15
295.15
308.868
295.15
295.15
295.15
295.15
309.29
305.876
306.494
295.065
295.15
298.638
310.167
293.682
297.827
296.07
295.15
295.15
295.15
295.285
297.694
310.612
295.15
295.108
295.15
295.062
301.944
295.15
302.719
308.878
294.935
295.151
298.199
295.15
295.15
295.149
295.15
294.849
295.211
304.088
309.175
295.092
306.133
295.15
301.382
295.15
295.135
304.647
309.741
295.151
307.858
295.341
295.229
295.15
295.04
295.15
298.122
295.15
308.074
300.149
302.089
295.15
302.795
295.15
300.106
309.986
309.522
295.15
306.973
295.15
295.15
295.057
295.15
302.088
295.024
295.147
295.078
295.002
294.802
295.15
309.78
295.15
309.143
295.065
294.936
295.409
295.15
295.15
307.725
295.15
295.15
295.149
295.15
295.15
295.15
295.15
295.15
295.15
295.15
295.15
309.92
295.15
295.15
295.15
305.833
295.15
295.15
295.15
295.15
299.981
295.15
308.479
295.149
295.15
294.364
295.15
298.156
295.147
300.742
295.15
294.591
295.15
295.15
295.15
307.183
295.15
295.15
295.15
305.697
295.15
295.15
295.15
295.15
295.361
295.15
295.138
295.15
294.619
295.113
309.477
295.15
308.617
295.098
295.147
295.03
295.091
295.037
295.15
295.15
295.15
295.15
295.15
295.111
294.53
295.15
295.137
294.682
295.15
295.15
295.15
295.15
295.15
295.15
294.977
301.623
295.148
299.623
295.244
306.408
295.15
298.349
302.368
295.115
294.318
296.431
300.9
301.894
295.049
294.682
308.802
294.84
308.37
295.135
294.13
295.15
295.15
310.293
295.106
295.15
295.15
295.15
295.15
310.542
295.15
295.15
295.115
304.792
295.141
295.15
305.061
301.747
295.15
296.09
295.15
295.15
295.142
295.15
295.12
295.15
295.15
295.145
293.265
295.164
295.15
295.127
294.278
295.15
295.15
295.15
295.15
295.15
295.149
295.15
309.012
295.15
295.15
304.68
294.365
295.084
294.599
295.145
295.15
306.54
295.15
295.15
309.192
293.654
295.145
308.898
308.714
295.122
295.148
295.15
310.036
295.146
295.15
295.142
295.15
310.426
295.15
309.395
295.15
295.15
306.393
295.15
309.857
295.13
293.805
295.15
295.145
294.28
307.33
295.008
296.076
297.279
295.147
295.15
310.265
302.397
295.14
307.659
295.15
301.827
295.15
309.578
309.388
309.98
295.149
295.15
295.297
295.213
295.128
295.019
295.145
295.15
306.853
308.608
296.459
297.832
294.847
307.999
295.15
302.877
295.15
293.52
297.105
302.616
310.513
308.089
306.798
295.15
292.69
295.15
295.15
309.127
294.899
309.301
309.323
295.15
309.512
308.751
295.15
294.425
310.26
295.152
295.433
295.15
295.15
308.962
295.089
295.27
293.741
294.44
302.477
309.882
294.5
291.242
297.137
308.679
309.593
302.955
295.143
294.61
295.133
293.187
294.301
294.101
295.081
294.236
298.344
294.297
295.15
295.15
309.94
297.791
293.921
295.15
297.527
295.15
294.878
295.15
307.574
304.948
308.405
308.665
309.512
295.15
295.15
301.625
294.381
295.15
295.15
296.904
294.648
310.229
308.313
295.061
295.15
301.869
295.15
293.712
294.731
308.808
295.15
295.147
294.599
295.15
295.127
310.373
295.15
309.563
295.312
295.15
295.15
296.333
295.15
295.136
295.15
295.15
295.186
295.15
295.15
309.9
295.15
307.135
295.15
295.125
295.143
295.15
295.15
295.15
295.15
299.175
295.15
295.15
295.15
295.132
295.15
295.15
295.18
305.076
298.212
295.15
294.977
295.15
307.982
295.15
295.15
295.109
295.15
295.141
295.15
308.825
295.15
295.15
295.15
295.15
295.156
309.186
298.163
295.15
295.15
308.709
306.104
309.16
309.094
308.537
309.853
295.166
308.21
295.15
295.15
294.826
309.636
294.17
295.017
298.524
295.15
295.15
295.15
295.15
295.151
295.15
294.856
299.629
295.15
299.152
295.09
295.15
295.15
295.15
309.432
295.131
295.15
295.15
295.15
295.15
295.129
295.143
295.122
295.121
295.15
295.107
295.15
295.056
295.15
295.15
295.15
295.147
301.317
294.442
295.144
308.434
308.765
295.15
295.149
296.949
295.152
295.15
295.15
295.15
295.15
295.122
295.147
295.15
309.087
295.15
294.004
309.522
295.15
299.355
294.971
295.15
295.15
308.112
295.142
295.15
295.15
295.15
302.288
309.909
295.15
308.916
295.15
294.482
295.15
294.618
310.262
295.15
295.15
295.145
294.911
309.459
295.15
295.15
295.148
295.113
308.091
296.275
295.15
309.719
295.15
295.15
295.179
308.587
295.126
295.15
309.724
295.15
299.749
294.509
309.266
307.554
295.15
294.989
295.131
295.15
295.148
295.15
295.15
295.008
295.157
294.912
295.154
295.15
295.15
304.167
308.578
309.154
295.15
309.004
309.867
295.185
309.046
295.149
309.67
295.15
295.15
294.798
295.15
308.388
303.767
295.15
293.987
295.15
295.15
309.972
295.139
294.947
295.15
295.099
295.139
295.15
295.15
295.059
295.15
295.051
295.086
295.123
295.15
295.144
294.308
295.148
292.22
295.15
295.15
295.15
294.548
310.385
308.178
295.15
295.15
309.368
295.03
292.701
296.482
295.008
295.15
307.05
295.139
295.15
308.384
294.891
295.575
295.15
294.735
295.032
295.15
304.158
296.564
295.15
295.15
294.815
294.896
294.122
295.15
309.309
295.147
293.726
294.82
295.064
295.094
295.089
294.315
308.358
295.15
295.15
295.15
295.147
291.353
295.15
295.144
295.15
295.15
295.15
294.609
295.128
294.634
294.945
308.55
302.346
295.15
295.15
295.15
295.15
295.15
295.139
294.554
295.142
301.254
295.025
295.121
294.437
294.802
294.469
294.918
293.875
295.149
293.369
294.387
295.061
295.15
295.15
295.108
295.15
295.07
300.126
295.308
294.948
295.066
309.363
310.406
308.756
295.15
294.894
295.15
295.15
295.064
295.15
295.15
295.097
295.388
295.15
295.006
295.15
295.15
295.15
295.15
295.146
295.162
295.069
296.401
295.15
294.927
295.149
306.836
295.135
295.15
310.387
305.503
294.574
309.464
295.146
294.821
295.082
295.15
295.15
295.112
294.425
295.15
295.117
309.752
295.15
295.15
295.15
295.457
295.126
295.15
295.113
295.15
295.065
295.15
307.315
310.118
295.057
295.15
296.332
308.677
295.132
294.942
295.05
308.075
307.485
300.081
308.231
295.149
295.15
307.07
309.132
310.391
294.879
308.164
294.858
295.106
295.15
294.944
309.822
295.15
295.634
295.15
305.261
295.15
309.031
295.15
300.788
295.15
295.15
295.15
295.15
310.781
295.15
295.795
295.151
295.003
295.15
295.15
310.263
295.15
309.587
298.975
295.117
295.012
300.716
294.778
310.102
295.15
295.15
305.488
310.101
307.725
295.404
298.921
294.341
295.133
309.433
308.125
295.15
295.142
295.15
296.349
295.151
302.472
295.146
310.15
294.489
310.046
302.95
295.15
309.762
309.635
295.15
307.003