/*--------------------------------*- C++ -*----------------------------------*\
| =========                 |                                                 |
| \\      /  F ield         | OpenFOAM: The Open Source CFD Toolbox           |
|  \\    /   O peration     | Version:  v2012                                 |
|   \\  /    A nd           | Website:  www.openfoam.com                      |
|    \\/     M anipulation  |                                                 |
\*---------------------------------------------------------------------------*/
FoamFile
{
    version     2.0;
    format      ascii;
    class       volScalarField;
    location    "2.1795778";
    object      epsilon;
}
// * * * * * * * * * * * * * * * * * * * * * * * * * * * * * * * * * * * * * //

dimensions      [0 2 -3 0 0 0 0];


internalField   nonuniform List<scalar> 
353077
(
0.00255159
0.0651347
1.17478e-05
0.0506067
0.000206664
6.53743e-05
2.50413e-05
1.18058e-05
0.000283054
1.16589e-05
0.478523
0.501195
0.41398
1.10905e-05
1.13628e-05
0.000105433
1.17014
0.101294
5.31766e-05
1.1724e-05
0.518917
1.16241e-05
8.81509e-06
0.0649195
1.17006e-05
1.42855e-05
0.043665
1.14346e-05
1.13487e-05
1.94013
0.0104455
1.16918e-05
0.0288833
0.00540457
1.82513e-05
0.000507581
6.90829
9.38177
0.0418084
1.58295e-05
1.28284e-05
7.39429e-06
2.13843
4.46976e-05
0.201679
1.21295e-05
5.74642e-06
2.42143e-05
0.00151652
0.0677016
1.13619e-05
1.1784e-05
8.2314e-06
6.76053e-06
0.00013809
0.000105578
1.20335e-05
4.80257e-05
0.000837223
5.04065e-05
1.07785e-05
1.18085e-05
0.00359168
9.6584e-06
1.22692
5.34248e-06
1.12557e-05
1.0921e-05
0.114887
1.28403e-05
4.35664e-05
0.000411709
0.000518301
1.39281e-05
0.000506413
1.17806e-05
0.561994
0.763306
1.68522
0.00162011
0.715078
1.2499e-05
0.263833
0.0701921
0.00401225
0.648096
0.898028
3.63822
1.17792e-05
1.02535
0.71017
0.00033821
1.16193e-05
0.000532366
0.278398
1.02277e-05
0.0199337
1.4653e-05
1.16788e-05
1.10567e-05
6.34224e-05
1.1923e-05
0.00014338
0.128805
0.0060035
6.19541e-05
6.46324e-06
0.00122413
1.38268e-05
3.93987e-05
2.36716e-05
1.06446e-05
1.04384e-05
0.0193043
6.91548e-05
2.28029e-05
0.0375274
1.18774
3.61676e-06
1.24769e-05
1.12259e-05
2.84878e-05
0.00144584
0.095709
0.000932992
0.000844014
8.81747e-06
2.74083e-05
6.9108e-06
0.000327473
0.013579
3.96951e-06
4.30321e-05
1.26422e-05
1.18005e-05
0.0110519
0.000252816
1.91759e-05
1.18367e-05
0.000100167
0.00166417
0.000276796
1.25348e-05
1.13868e-05
0.00141203
0.000547267
0.136988
0.000794368
0.000550432
1.60637
0.000708125
0.00140809
0.000868399
0.000180141
9.23851
6.44402e-06
1.26699e-05
1.0956e-05
1.00385e-05
0.00070953
1.00976
1.16935e-05
1.51247e-05
6.12874e-06
1.18306e-05
12.2323
0.0165643
1.11433e-05
1.33486e-05
1.20114e-05
9.33572e-06
2.26104
0.0181891
2.35399e-05
1.70234e-05
0.000354364
1.50616e-05
3.5212e-05
0.014403
0.00262103
1.17594e-05
2.03907e-05
0.000101026
1.56541e-05
1.68618e-05
1.33708e-05
1.46246e-05
0.00168248
0.077724
2.75097e-05
0.00374429
3.54939e-05
1.16335e-05
0.000173292
3.01734
0.185929
0.00041673
0.00628267
0.00393493
0.000946365
0.000974606
0.728706
0.0283555
1.17875e-05
0.000140371
1.88029e-05
0.000565844
1.67883e-05
0.0185366
4.39699e-06
1.12155e-05
0.00176454
0.000534137
6.79117e-06
0.0888842
1.63887e-05
9.65749
0.320666
1.6836e-05
0.000359543
0.399846
0.000195982
0.000389997
3.07732e-05
8.45224e-06
1.60503e-05
0.00147458
0.834508
0.00937119
0.000439265
0.0015768
8.32754e-06
1.17342e-05
0.000690447
5.30086
1.0971e-05
5.43046e-05
0.00751097
5.42771e-05
0.00104823
1.82539e-05
0.000389785
0.0270945
1.73866e-05
7.41173e-06
1.17593e-05
1.9834e-05
1.17549e-05
0.108844
8.60585e-05
8.94966e-06
7.15374e-06
1.39056e-05
13.365
0.071844
0.000632235
0.00182444
7.29323e-06
0.00822271
1.49952e-05
6.1188e-06
2.35621
1.17444
0.0139847
0.0054377
0.000810294
0.00013607
7.32589e-05
0.00508909
0.0019422
0.000546213
0.968979
0.00174295
1.37349e-05
0.010717
0.127783
0.02925
2.29281e-05
0.296566
0.000144116
0.592334
0.308715
0.00335585
3.48166e-05
0.000249565
0.000158534
0.000102391
2.52288e-05
0.000196492
0.166096
0.656795
0.603069
1.05958e-05
1.46138e-05
0.051133
0.000195593
1.06397e-05
1.33654e-05
1.169e-05
0.000189165
0.147634
1.1548
1.17411e-05
0.193604
5.67831e-05
0.000176686
0.0077393
0.000171749
4.25184
0.000209496
1.14647e-05
1.10199e-05
1.09399e-05
1.01042e-05
0.559481
0.435197
0.000239505
0.377934
0.0147366
0.0160839
1.79123
7.99416e-05
0.751176
0.000867992
1.17449e-05
0.368019
0.287521
0.00177572
0.00714731
0.0215134
0.00250176
0.00859638
0.582673
0.494942
0.325695
0.0337079
0.0176986
4.00509e-05
0.081403
3.75466
0.0862197
3.76689e-05
0.0337818
0.0177272
0.00874006
0.215428
1.21011e-05
0.015499
2.65811e-05
1.14833e-05
0.000426824
0.0270267
2.03802
0.0362461
0.868844
0.000510115
1.56251
2.4113e-05
0.0516319
0.000726802
0.00910809
0.259087
0.101035
0.027765
0.0484201
0.000351676
9.72516e-06
2.34655
6.3777e-05
0.0912432
0.0107201
0.436018
0.662698
0.872805
1.0026e-05
3.67739e-05
6.83861e-06
1.14405e-05
9.62181e-06
9.21811e-05
1.35246e-05
0.00435259
0.00978077
0.00568144
0.0111984
2.28264
1.15008e-05
2.88918
0.000805286
0.574832
0.000143058
1.00002e-05
1.18435e-05
0.0234325
1.5658
0.00566609
0.536412
2.66838e-05
0.000260762
0.00520082
1.18293e-05
0.000413585
1.25524e-05
0.00134445
0.224756
0.000228177
1.24654e-05
0.00354276
0.00852789
0.000244384
5.98933
0.00341885
1.15687e-05
1.75371e-05
2.07178e-05
0.132736
4.82304e-05
0.00341036
1.61256e-05
0.693915
1.38319e-05
0.158695
0.131275
1.25408e-05
0.000154726
0.176725
1.30507e-05
0.188103
0.471169
0.421399
18.1065
0.241977
1.08209e-05
0.298077
0.516639
0.236698
6.5027e-05
0.446218
0.0015785
0.342851
0.11007
0.000691508
0.106087
0.00185198
0.00268889
4.25983e-05
0.00643337
0.00202657
0.0260424
3.56875
1.13167e-05
0.0977296
0.107121
0.00170709
1.41937e-05
1.70324e-05
0.392165
0.0169609
3.18266e-05
3.15783
0.222824
2.0616
2.28027
0.168663
0.011609
0.00081224
0.000716797
0.000158398
1.44036e-05
0.000100759
0.000310789
0.0460461
0.000376919
0.000265376
0.000263942
0.00027867
1.27358e-05
0.00332266
0.147669
0.000672381
1.23019e-05
0.00566373
0.578226
1.27853e-05
0.000557769
1.28447e-05
0.0382143
2.32281
0.685237
0.45474
0.00242316
0.0152873
0.0167734
9.20028e-06
1.97188
1.30286e-05
0.025097
0.533455
0.000102555
1.35468e-05
0.0023501
0.000429406
0.000324885
1.44405
0.185324
0.0482465
6.31047e-06
0.000264475
0.343237
2.62236
0.434344
8.82457e-05
1.93644
1.16952e-05
6.69991e-05
5.13209
2.86965
0.000828298
0.000238537
1.27828
0.149654
0.00671369
0.0144595
0.210011
2.36873e-05
0.56007
2.27394e-05
0.762532
1.76982e-05
0.00245275
0.00071936
0.00242416
1.44407e-05
1.38829
0.000552968
1.17808e-05
0.922807
3.76265
3.9646
6.43448e-05
0.0126579
0.877369
0.0173683
0.0283379
0.00141343
0.193077
0.00412044
0.144448
0.0265773
0.00216637
0.0771491
0.003023
0.128332
0.00046387
10.6752
2.58941e-05
4.66013
0.343733
0.00129203
0.507404
0.00036907
0.284331
0.00980572
8.92959e-05
8.12641e-05
4.02219e-05
1.09963
0.00108178
0.00222259
0.0260885
0.624559
1.4533e-05
2.28156e-05
1.67775e-05
0.928677
2.18067e-05
9.68072e-05
2.18117e-05
0.0666661
1.33256
1.361e-05
3.77242e-05
0.530346
0.000544835
0.000376748
0.00410092
1.74192e-05
4.73583
0.0391801
0.285647
0.0126197
0.0297788
1.16018
0.461881
0.00356703
1.14572e-05
0.0189199
0.00279876
0.0518912
1.09799e-05
1.21614e-05
0.0163308
0.000609007
0.00129022
0.144782
0.119782
0.253245
0.460297
0.858557
5.50369e-06
0.0228308
0.00516828
0.304321
0.325929
0.000164347
0.10574
1.34655e-05
1.08857
0.00202162
0.721422
0.54645
0.00160663
1.59432e-05
0.0158088
0.00191526
4.08534e-05
0.18142
0.0264567
0.0188185
0.0292305
0.000203357
0.000414088
0.579128
2.31806e-05
0.269098
0.941822
1.98642e-05
0.051196
0.180673
1.77669e-05
1.26158e-05
1.18473e-05
0.85613
1.31734
0.000791637
0.00321856
7.10955e-06
1.17634e-05
0.0559818
0.00141065
0.0454998
0.00147975
1.18889e-05
5.5114e-06
0.00190252
1.20841e-05
9.50157e-06
0.00507945
0.0366625
6.01537e-05
0.00482353
1.20388e-05
1.33005e-05
0.000117917
0.43691
1.43424e-05
0.0675165
0.381542
1.84766e-05
0.776822
1.38432e-05
0.00525668
1.17793e-05
5.38642
1.55326e-05
0.00133867
0.00464667
0.958812
0.00381692
1.20786e-05
1.6217
0.407628
0.0237292
2.56392e-05
1.38655
0.00382543
0.0571574
0.00150297
2.33059
0.000679087
1.18167e-05
0.00199717
0.668429
4.27494e-05
1.17118e-05
0.00247177
0.0248431
0.200507
0.0123391
0.000838331
0.00334477
0.000592801
0.0947664
6.40673
2.11866
0.031518
0.012335
0.0231596
0.00469472
0.00952769
0.000327824
0.039731
0.0688788
0.131681
3.26081
0.0388818
0.184803
0.826057
0.31342
0.00152472
0.449791
0.514164
0.409403
3.48066
3.9526e-05
0.0040713
0.157848
0.000368557
0.180868
0.419168
0.000121187
0.00908644
0.0693724
0.0395216
0.000203621
0.898473
0.205141
0.274622
2.5825
1.03013e-05
0.902457
1.17526e-05
1.15125e-05
0.460685
1.24214
1.19367
0.575724
1.01382
0.18029
0.000152789
0.829554
0.000158309
0.027231
1.17678e-05
1.18952e-05
2.63728e-05
1.17306e-05
0.541094
5.00105e-05
1.17685e-05
0.231104
0.00010419
0.0143048
0.140571
6.64535e-05
1.144e-05
1.47718
0.000252678
2.84711e-05
1.75218e-05
1.00964e-05
0.000244742
0.0143986
0.185629
0.000238758
0.00857807
0.00102959
1.16675e-05
1.15701
0.0976795
0.000628144
0.00109294
1.10285
1.35925
0.00209819
0.0012512
0.000199169
0.00166059
3.39719
0.00154625
1.24968e-05
8.41782e-06
0.666508
1.82229e-05
0.000647426
3.86989e-05
0.0526688
0.000148127
2.13214e-05
0.0295473
0.634417
28.5291
2.00617e-05
0.0087657
1.96251
2.61606
1.94369e-05
7.9102e-05
0.0002853
1.46287e-05
1.86318
2.11699e-05
5.08263e-05
0.189119
9.90988e-05
5.43693e-05
0.61801
0.00244861
0.000504922
0.00185196
6.85483e-06
1.59741
0.00122824
0.124385
1.33304e-05
1.61994e-05
0.00300198
0.256391
0.017722
4.45961e-05
0.672826
0.0637456
0.295071
0.34441
7.30479e-05
0.000371592
4.22157e-05
5.98013
8.79261e-05
0.000972829
0.000173624
0.151487
0.578466
0.629924
1.68694
0.000804497
0.00146646
0.00156552
0.0219728
0.170274
0.000278121
8.75613e-05
1.97865e-05
0.00150024
6.15586e-05
1.08695e-05
1.0017e-05
0.000224784
0.0136722
0.136606
0.787799
6.69223
0.852365
2.65092
9.20153e-05
3.3301e-05
0.680511
0.00157421
0.00146298
0.00135654
0.333845
0.124475
6.64672e-06
0.581498
0.00266854
0.0021821
12.1978
0.0013182
0.00420809
1.78295e-05
2.09445e-05
0.0290241
0.0168089
0.749999
0.00100571
1.32364e-05
3.1632e-05
1.80911e-05
0.778961
0.786743
1.30446e-05
0.102576
4.34778
1.69623
1.33951e-05
0.000410126
7.20645e-06
10.0823
8.75293e-06
0.000749319
8.60066e-05
0.00619206
0.000706596
1.58657
0.000151207
1.20871e-05
4.5033
0.35885
2.48098
0.401294
2.20969
0.000882396
0.000898359
0.136186
0.0130701
0.0114403
0.341116
0.107487
0.437691
0.0295774
7.60844e-05
0.00042891
0.000197178
0.000192765
0.103798
0.000627277
4.29982e-05
0.000124921
0.00011277
6.97195e-05
0.779419
0.157372
1.11199
3.38275
0.000703766
0.000566261
0.00323149
0.130843
0.00447307
0.0263063
0.18392
0.403998
2.80232
0.00033266
0.615467
12.5408
0.0840022
1.13677e-05
0.000395278
0.033984
0.00102646
9.7107e-06
0.000303163
0.000611578
1.16816e-05
7.1574e-05
5.18768e-05
0.0389916
0.346208
0.647675
0.659198
6.32685e-05
1.18011e-05
0.227116
0.725478
1.16333e-05
0.213995
0.148729
1.16137e-05
0.78342
0.000137751
1.44284e-05
0.23537
1.16916e-05
0.000924893
4.91255e-05
1.0623e-05
10.0885
0.000508
0.502476
1.17395e-05
1.06011e-05
0.0658128
1.50057
0.00566601
0.742466
0.420493
7.19847e-06
1.17465e-05
1.10497e-05
0.37772
0.0509169
12.7634
1.175e-05
0.000961754
0.00963503
0.000145257
1.07891
0.000790961
0.360997
0.373477
0.690979
0.829197
0.818056
0.442204
4.61363e-06
1.05297
0.324381
0.451665
0.00092312
1.81169
10.5649
0.202701
6.96084
5.45581
1.84756
6.18857e-05
0.00117282
0.000421297
0.152529
1.20327
10.9396
0.0128444
0.430826
0.0512126
0.182028
0.00108684
0.315031
1.53735
0.00477216
0.00434054
0.329193
0.00283009
0.0139044
0.245563
0.000300724
0.00928297
3.75043
1.2606e-05
0.839856
0.014013
0.00232245
0.0370748
0.00518157
0.00113653
0.469713
7.27219e-05
2.08356
0.000250764
0.397373
0.000254411
9.66919e-05
3.29214e-05
0.392513
0.52339
5.49729e-05
0.247878
0.00638948
1.56505
0.869555
1.47993e-05
0.0267886
1.49086e-05
6.629e-05
0.0316922
0.661338
2.13367
0.0131715
2.30207
0.0083547
0.00576668
6.50211e-05
0.000320105
2.15518e-05
0.000125949
1.25649e-05
0.00010631
0.367908
1.88117e-05
0.31507
0.000323975
1.54993e-05
1.24801e-05
0.0297896
0.0104248
3.98922e-05
2.78021e-05
0.00426588
2.99763e-05
0.415573
2.33485e-05
0.000320225
2.16044e-05
0.0406293
4.39179e-05
7.44555e-05
0.248705
1.66284e-05
9.26385
4.28871e-05
3.5926
0.0136787
4.99343e-05
4.13477e-05
1.25008
8.4312e-05
0.000175397
0.125083
0.938509
3.1133
0.000233743
1.2483e-05
0.0388379
0.00844658
4.63454
0.205642
1.19235
0.697949
0.224868
5.09907
1.2505e-05
0.0553595
1.30596
0.45856
0.00125344
0.453764
0.000102736
0.00265466
0.0107242
0.130734
0.325701
1.15493e-05
0.00384323
1.75579e-05
0.0778621
3.93783e-06
0.792587
2.43725e-05
0.800752
1.22218e-05
0.287215
0.00048522
0.643211
0.329772
0.00175642
0.00673606
4.70319
0.00075149
1.22189e-05
0.73531
0.486935
0.410323
0.128533
0.000289281
0.151211
0.000852629
0.0001862
0.695397
1.22547e-05
0.000350855
0.000240672
0.0253774
0.710817
1.17566e-05
0.475866
0.75755
0.0153999
0.017935
2.23161
1.24297e-05
0.000589319
0.0003552
0.00488211
1.17974e-05
1.17608e-05
0.013646
0.11734
0.00635616
0.00185505
0.0239072
0.861956
1.21203e-05
0.00158352
0.740451
1.1893e-05
0.000259234
4.5305e-06
2.16193
0.000308295
2.19099e-05
0.000172752
0.166659
0.0315403
0.922252
2.3477e-05
0.000727895
0.646415
2.42592e-05
0.0292586
0.194442
0.044368
6.78513e-06
0.850934
0.0174882
5.49423e-05
0.265586
6.7943
5.39103e-05
2.15587e-05
0.000106052
1.13488
0.59184
0.254512
0.00544895
0.0277762
0.000181027
0.287535
1.17507e-05
0.00817966
1.21145
1.0227
0.205522
0.0180747
0.401662
0.358248
0.579307
0.0050829
3.13945
0.469186
0.000805793
0.00140952
0.00159124
6.85822e-05
0.0568398
0.366458
1.80936
0.392114
0.491278
0.277571
0.530735
0.0141917
0.000438507
0.336637
1.06761
0.213164
0.844492
0.200983
0.213552
0.0214995
0.367318
0.00040537
0.182038
0.000524821
0.000595515
1.70471
0.00688976
0.0428027
2.06704
0.768503
2.22594e-05
0.251408
0.000532737
2.38465e-05
0.000792593
0.573188
0.000527465
6.42909e-05
0.000475391
0.0834936
0.000320897
6.46208
0.00137277
0.000328956
0.167337
0.00151188
0.659014
0.0951658
0.416725
0.000692589
0.000420849
3.02522
0.0184643
0.294959
0.000256911
0.0148799
2.05494
0.197324
9.71927e-06
0.000323293
0.0577017
2.68721
0.798984
1.02601e-05
0.00661165
0.649851
0.0534075
3.41375
0.938718
0.00243229
0.046079
0.000472438
0.00109461
1.51652e-05
0.0942502
0.244628
0.192777
1.48174e-05
0.000132231
1.33879e-05
0.0747134
0.00126672
0.0875525
1.0694e-05
3.45228e-05
1.55566e-05
0.0606899
0.00036165
1.00936e-05
0.0101924
0.0665416
0.654956
0.0231717
1.3115e-05
4.64341
0.781679
0.23294
1.2928
1.16216e-05
2.68352
1.44947
0.719006
0.204876
0.576003
0.771867
0.486991
2.86536
0.000173647
1.20096e-05
5.89461e-06
0.956549
1.52177e-05
0.0242862
0.72345
2.28799
0.0158187
0.741937
0.0383083
1.77837
4.05525
0.672734
0.743839
3.1619
0.00209917
1.77318e-05
1.58576
0.425578
0.0261242
0.000305176
0.0468192
2.72738e-05
4.16381e-05
3.35335
0.650412
3.01676
19.3959
2.0869
3.88271e-05
2.33379e-05
0.623817
0.0311458
0.0002476
0.000344353
0.714006
0.324145
1.15802e-05
4.07357
3.35477e-05
0.0300996
31.7491
0.000663479
3.3936e-05
0.00287362
1.1752e-05
2.7893e-05
0.216417
6.95549e-06
10.637
1.36256e-05
0.112999
0.000107015
1.05594e-05
1.22027
1.17804e-05
4.74035e-05
3.86563e-05
10.0694
1.7557
0.406115
0.0386962
0.0220725
0.0011547
1.18646e-05
0.17783
0.0254777
3.89103e-05
0.032041
1.17768e-05
0.0425465
0.592593
0.00057473
0.0377115
0.265786
2.03094e-05
0.0434925
12.749
0.00173734
1.15477
0.000111964
5.39401e-05
0.0514295
1.59172e-05
0.000127511
2.18811
1.74584e-05
0.392716
0.00252679
12.1814
0.0128448
10.389
0.912237
5.41415e-05
0.173381
0.0953124
0.0534869
0.267379
0.224552
3.48168e-05
0.610136
0.0300224
0.294126
1.17731e-05
1.42239
0.00970526
0.0125995
3.74042e-05
3.13918e-05
0.719521
1.81034
0.117936
0.000495249
0.000542043
2.99726e-05
2.36684e-05
0.000297742
0.310629
0.361832
0.0645841
1.10149
0.256716
0.128026
0.000281385
1.03777
0.348695
9.23206e-06
0.681523
8.80751e-05
0.000537657
4.67536e-05
0.000683925
0.00396633
0.150842
0.421142
0.363733
0.118542
1.15299e-05
0.000986631
0.0363631
0.00150818
0.00160329
2.29213
9.50815e-06
0.0413387
0.0332955
0.728652
0.00285268
0.424772
0.0311717
0.000392286
0.000960561
1.16033
0.422777
0.00260128
0.000149099
0.00356586
0.487954
0.0113754
9.21786
14.8669
0.517712
6.87904e-05
0.150768
0.931786
0.00451131
2.05032
0.0743401
6.26045e-05
0.0933285
6.69729e-05
0.00447049
0.503755
0.000381224
1.14143
0.344257
0.0432753
0.000178515
4.27841
0.000194089
2.48673e-05
0.000142516
1.30134e-05
9.32478e-05
0.130893
0.000283137
0.981892
0.286716
0.293827
0.00106121
0.000124572
2.36186
0.946844
0.0359404
1.41994e-05
0.000165537
9.61306e-05
0.000599887
0.00241483
0.000484188
3.66174
0.0150705
0.00029259
0.652525
0.000639229
0.169771
4.48868
0.0295755
0.552518
0.321004
0.613801
3.0348
0.414842
0.0490823
18.3824
0.0113909
0.418838
0.00057026
0.0938734
0.012096
0.152384
0.000694424
0.0680911
1.63599
1.85525
3.39677e-05
2.98575e-05
0.0167361
1.33938
0.629712
3.65377e-05
0.314903
0.000920922
0.624433
3.73576e-05
0.000963233
0.234767
0.000916424
0.610741
0.00635181
4.21414e-05
0.00568635
5.68772
3.63877
4.24143
1.16274e-05
1.97369
0.0715098
1.14204e-05
7.50372e-06
0.00027151
9.59285e-06
0.569384
7.6124e-05
0.239067
0.842187
0.0179528
0.292575
0.000333489
0.00109884
1.36923
1.30032
0.053944
0.0326853
0.141604
2.98684e-05
26.0033
1.18023
2.00022
3.38167e-05
1.08177e-05
0.180221
0.0408262
3.46097e-05
4.0045e-05
1.07769
0.75561
1.0695
0.000203453
0.000540064
61.0092
2.47508
0.537774
0.000343153
1.3244e-05
0.00074854
2.11718e-05
0.000840486
1.98374e-05
0.6582
0.00105639
3.3837e-05
2.58484e-05
0.013169
0.000133676
0.00050065
0.476554
2.26033e-05
0.00019749
0.00035349
0.613529
0.000102949
1.16034
0.485002
0.921126
16.9858
0.00427363
8.22182
0.0010881
0.0154841
0.133255
0.00011189
1.55557
0.00185086
7.99195
0.302115
4.91929
0.670848
0.0479899
0.0102682
0.0014717
0.395236
0.0112734
0.000264521
0.0412054
1.25449
0.343501
4.61751
0.0824776
0.220119
2.71282e-05
0.00805799
0.495076
0.0147697
1.14961
0.00243424
0.19846
0.0201015
0.000563551
0.000607999
4.06327e-05
0.180234
0.00176109
3.28135
0.000282328
0.219502
0.00381477
0.192977
0.740629
1.65585
4.36684e-05
0.296385
0.000645556
0.00142115
0.000757067
3.11924e-05
7.32314e-05
0.00222113
0.00756094
0.0283971
0.957203
0.00193691
0.000281182
0.00225709
0.310477
0.300495
5.90496e-05
2.54343e-05
0.193544
5.95747
0.787605
7.14341e-05
2.80507e-05
0.00150347
2.70809e-05
1.86669
0.562212
0.0342524
0.00354473
0.00183084
0.00186182
4.7701
0.612952
0.00217423
0.961988
0.612655
0.755674
0.00400356
3.74143e-05
3.63381e-05
0.00277406
0.542189
4.41985
0.202594
2.38605
0.00194799
0.0493497
0.0106126
0.240853
0.412715
1.73701
1.12671e-05
1.01644e-05
8.28303
2.44323e-05
0.00302614
1.17558e-05
1.81109
1.42312
1.21011
0.000528898
0.388215
1.81056
1.18051e-05
0.000366313
0.00108393
1.45458
1.54184
0.0379924
0.000877887
0.00101939
0.00078153
0.00103454
0.0814458
0.294923
0.0269008
0.00112434
0.596623
1.74084
0.000142932
0.0172796
0.29645
0.000355948
2.08184
0.00026355
0.000239608
0.000367825
16.0285
0.00133221
0.215911
0.0215508
0.000349825
0.0224446
0.0246559
24.6579
0.00277262
0.00011361
0.00134182
0.211347
1.53787
0.00883229
0.000749217
1.24681
0.00175342
0.0062294
0.787093
0.443137
0.0887771
0.000276122
0.73809
0.576487
0.000312702
0.00243216
5.59611e-05
0.000219586
4.184e-05
0.405183
0.49516
0.00696277
0.000413663
2.77644e-05
0.000176602
0.000152764
0.0170235
0.000478287
0.154822
0.000398436
0.386126
4.33234e-05
0.426516
0.511295
1.02052e-05
0.578899
0.00847879
0.402994
1.13987e-05
2.3344e-05
0.00104361
0.000100887
0.805448
0.0263989
0.284787
0.173487
0.0011738
0.314863
0.945
3.73259
0.00816956
59.0769
3.69752e-05
0.101875
0.0011929
1.18352e-05
3.70484e-05
0.0265435
10.657
0.00273092
1.66536e-05
0.321792
0.128425
0.0158268
0.00682171
1.17506e-05
1.62771
0.334674
0.000488958
0.0149784
4.2195
0.000781522
1.15622e-05
3.90725e-05
1.17483e-05
0.234159
0.177116
2.20028
0.363856
0.00211139
0.485547
0.00134223
1.91446
0.226081
4.44594e-05
0.399093
2.40413
0.841435
0.000438804
0.142562
0.000242922
0.488663
3.74509
4.30074e-05
0.0487522
0.00654405
1.8017e-05
0.000254855
0.00196237
2.04197
4.06444e-05
4.41008e-05
5.80642e-05
0.0189261
1.50394e-05
2.46841
0.522568
1.40745e-05
2.1739e-05
1.54079e-05
0.092286
1.08003
0.00180075
1.47838e-05
0.127395
3.86848e-05
0.185527
0.00131326
0.218344
0.000235581
4.32038e-05
0.580142
0.280188
0.00289098
5.88264
0.631755
4.71694
1.36682
0.0164048
3.77338e-05
0.000845401
0.0339596
2.2827
0.301592
1.09984
1.07039
0.000123176
0.00461037
0.0894533
0.265927
0.0026323
4.15368
0.000156659
1.43987
0.0322393
6.51496e-05
0.0231795
0.00365245
0.766218
0.602094
0.165439
0.0847866
1.56033
0.026113
0.104401
0.0267148
0.113928
0.000372559
0.998685
0.000190347
0.000149896
0.781637
2.64888e-05
7.65745e-06
0.871819
0.0191715
0.0156
1.41093e-05
1.23402e-05
9.47349e-06
0.042857
0.000901754
0.46436
0.00970996
0.229059
1.23197e-05
9.25854e-06
0.332782
4.63786
0.019309
0.000518279
0.483416
2.98901
0.051129
2.69901e-05
0.000109673
0.0400051
0.00216261
1.15862e-05
0.0084861
3.88117e-05
3.12997
2.94979e-05
0.365036
0.761196
0.418044
4.46249
7.5674e-05
0.0975192
0.00567675
0.00174588
1.0161e-05
0.467835
2.3748e-05
0.238928
0.142632
5.69741e-05
1.19318e-05
1.77305e-05
0.253435
1.37155e-05
1.19925e-05
1.26123
0.369539
0.0713327
0.20459
0.0116816
2.15241
1.39995e-05
1.28903
0.606409
1.73694
0.363385
0.000569277
1.19401e-05
0.00210666
0.430203
1.91586e-05
5.38095e-05
1.30828e-05
0.0548176
1.28834e-05
0.000867033
0.121024
5.19401
0.00378374
0.674449
0.00224508
1.36696
1.00668
0.439048
0.00628999
1.75512
7.50513
0.488931
5.70923e-05
1.15232
0.000157039
1.8657
0.000112579
0.00372711
11.853
11.4379
0.00185691
1.27067e-05
0.0246524
0.68621
0.475298
9.41925e-06
1.10394e-05
1.17306e-05
0.572744
0.79125
2.56298
0.930758
0.0355547
0.00377712
1.2673
1.66601
0.405906
0.361457
0.00123413
0.321426
0.000531489
0.966444
0.0121272
4.56938e-05
5.84371e-05
7.20826e-05
1.46668
4.61313e-05
0.00215455
3.84841e-05
0.000687488
0.157184
0.000219599
4.13429e-05
0.29625
0.662381
1.24965e-05
4.46042
0.00044587
0.0161131
0.0189387
3.01001
0.164219
0.127965
0.0307783
0.692919
19.0919
0.000816647
0.229148
0.931173
0.000504268
0.000600619
0.000531645
0.000191405
2.50984
0.00111659
0.479434
0.33157
1.56915
0.8759
0.000396159
0.000181956
0.629446
0.0118902
1.29477e-05
0.000213186
0.000401772
0.00279603
0.0852293
0.0163397
1.27627
1.07436
0.317848
0.000194052
0.00119801
0.000113796
0.00228718
2.39148
11.8054
0.00013176
0.028572
1.33808
0.618111
1.23557e-05
15.1961
0.00066005
0.388658
2.13701e-05
1.76169e-05
0.359985
0.214346
1.55418
2.47172
10.6724
0.63811
2.50302e-05
1.02205
1.31307
1.13653
0.016371
2.18109
1.21041e-05
1.19405e-05
1.33686
1.62685e-05
1.32193e-05
0.000118346
1.2006e-05
2.63137
1.83054e-05
1.86411e-05
4.43567e-05
0.2521
4.51743
0.26558
0.316264
3.04676e-05
5.73427e-05
1.0578
5.36473e-05
0.746959
0.522705
0.764828
0.0239776
0.0105799
0.182905
0.000253286
0.369301
0.256162
0.384839
0.000417327
0.298243
0.000389037
0.000569979
0.000182603
0.0257412
0.820997
0.12317
0.0403856
7.39102e-05
2.44271e-05
0.000336026
0.0904591
3.78106e-05
0.0972227
0.755911
0.00189563
0.0311556
1.01262e-05
0.0265778
4.58406e-05
6.8332e-06
0.032865
2.71415e-05
0.00523328
0.00010492
6.97199e-05
0.726134
1.0651e-05
0.000314384
6.47189e-06
0.128762
8.54753
3.76367
0.00224013
1.62848e-05
5.42038e-05
3.65513e-05
3.52754e-05
0.00242943
0.831893
1.70628
1.27432e-05
1.79173e-05
0.969704
1.7462e-05
1.3921
8.1876e-05
0.000715485
0.00154357
1.44447e-05
0.000309274
0.248985
4.27918e-05
2.06867e-05
1.11957e-05
3.39606e-05
2.51343e-05
0.000120098
0.00092598
4.65806
0.0010694
0.0356652
0.306598
0.550524
0.00100792
2.652e-05
2.63609e-05
3.83153e-05
0.253346
0.306933
0.132472
0.000545009
0.566918
0.358235
0.0702673
0.00605897
0.38952
0.709131
19.0762
0.391659
0.000357503
1.10767e-05
1.17659e-05
6.9077
3.13912e-05
0.018651
0.0714839
3.26643
5.45039
0.118106
0.161935
0.0239349
0.712947
0.00193658
2.64207e-05
1.18529e-05
1.24976e-05
1.18185e-05
0.0772261
3.06685
0.00373319
0.00233102
1.0672e-05
0.0155961
4.41094
0.0655919
1.14636e-05
0.000134415
8.39715
0.0046294
0.748292
2.25945e-05
0.00188087
8.95776e-05
0.00456174
0.00343752
0.000104005
1.3287e-05
0.00703474
0.0355086
0.00749225
0.826973
0.033307
0.000844803
0.000142154
0.000400851
0.0598854
0.0349174
0.446819
5.95595e-05
0.553037
0.0403159
0.546133
0.00717351
0.0169094
1.11644
0.350576
0.272343
0.193711
11.2307
0.300015
0.666407
1.15971e-05
0.000396116
1.22968
0.000215754
0.232601
1.77066e-05
0.000781921
1.37306
1.96039e-05
1.3563
0.000803062
0.000755559
0.000154951
0.753973
1.94318e-05
1.73878
0.469295
0.380805
0.765901
2.62942e-05
1.63205e-05
0.0949713
1.8019e-05
0.359463
0.663209
0.743238
1.0805
0.000124866
0.686155
0.63068
0.258486
0.000323902
0.000423669
2.73312
0.624323
0.373011
0.747122
6.79555
0.0651186
0.000121496
0.138337
0.000136006
0.00291777
2.91817
0.295281
0.000286728
0.000227359
9.5047
0.000211363
0.000553315
0.24321
7.34269
0.000631717
0.000929838
3.34313e-05
30.4342
0.225921
0.000259922
3.94728
1.85066e-05
0.000251234
3.24488e-05
4.17829e-05
7.12834e-05
1.96415e-05
1.39848e-05
9.75159e-06
1.10455
0.715947
0.022086
3.4722e-05
0.0299773
1.3861e-05
0.000449837
0.000608123
5.19162
9.01245e-06
8.91841e-06
0.851535
0.00500965
8.361e-06
1.01871e-05
0.832639
0.186798
1.25046e-05
2.09929e-05
3.04904e-05
0.325543
0.219544
8.8776
0.0147922
0.80316
0.202054
6.42862e-05
0.000773776
9.48371e-05
1.24444e-05
0.000136868
0.0755619
0.011661
0.00231768
0.00420078
0.000364704
0.136745
0.000104772
0.486965
0.00355496
0.082127
0.000115383
0.000416308
1.87688e-05
0.0551111
0.992619
2.3106e-05
2.54853e-05
1.98352
0.000104535
15.7858
0.000417018
2.56996e-05
0.236364
1.17715e-05
0.000131222
0.00819055
0.0150533
5.06878e-05
1.19979e-05
11.875
2.52897e-05
1.19502e-05
0.26746
0.00301043
2.31485e-05
8.9441e-05
0.0183745
0.000555731
1.37355e-05
0.426579
0.0002575
1.19231e-05
9.42608
0.153083
0.014016
0.0314142
0.409336
0.919331
0.227879
0.00595765
0.00459417
0.000195426
1.7168e-05
10.8315
0.0108512
16.2037
0.00106753
0.719685
0.545134
2.04128
1.37004e-05
0.237738
0.00820101
0.520812
0.803373
0.00809861
8.08484e-06
0.000499528
0.381771
1.17835e-05
0.170053
0.00356675
0.510564
0.00348759
0.582373
0.0001306
0.000157222
0.0161515
2.38942e-05
0.00261768
6.39412
0.000311352
0.745318
0.734945
0.00296646
0.000474328
0.00154196
7.66365
0.00305303
1.09199
0.433565
0.00328234
0.000526481
3.1505
5.20919e-05
0.00540262
7.38275e-05
1.31426e-05
11.5997
0.000822741
0.128482
0.698437
2.11298e-05
1.40443e-05
0.0555865
0.000182285
0.000602314
0.00303872
1.02669e-05
1.18843e-05
0.00137683
0.513354
2.85653e-05
8.16267
2.51363e-05
0.0899366
0.00269688
7.42178e-06
0.214575
2.15689e-05
0.00262327
0.00456246
0.142674
0.00026998
0.00373555
2.39587
0.000800437
10.5235
3.7202
0.342713
0.0862142
0.000426349
0.000156849
8.74667e-05
0.000177055
0.131144
0.00255877
0.201625
0.000319397
0.0388383
9.71964e-05
0.00103631
2.1461e-05
0.000321907
0.00143706
0.797356
3.23368
3.10253
4.37995
0.0264686
0.000306495
0.000792696
0.000500942
6.20723e-05
2.97847e-05
0.0398534
0.546509
0.177697
0.000185559
2.71291e-05
0.0354472
1.39851e-05
0.00165206
4.38277e-05
0.000389969
0.00215627
0.721526
0.427033
0.0280795
1.47472e-05
1.09598e-05
0.621259
0.000161284
0.214731
0.130794
0.000160719
0.00146591
0.000259561
0.219304
1.08488
0.59119
0.000725027
1.1671e-05
0.000441545
0.0708045
2.61389e-05
0.000121762
0.000363896
1.93466e-05
0.000153248
0.00174667
0.00807157
0.000518342
0.000185696
0.0262134
0.0286676
0.0551483
1.22572e-05
0.000475649
0.000167672
0.00233709
0.000246009
1.21728e-05
1.4784e-05
0.0212644
1.17439e-05
0.000487094
0.0607904
0.347236
2.42855e-05
0.319788
1.80148
0.00601386
1.01643e-05
9.39564e-06
8.66537e-05
1.17653e-05
0.645401
3.10876e-05
2.52057
9.26315e-06
0.788104
5.71631e-05
0.000586384
0.000453431
2.63427e-05
1.16387e-05
0.000813902
0.423775
0.000573565
0.00208633
0.000392835
0.482619
0.000117087
0.00303252
0.233549
0.000658773
0.130026
0.000258019
0.00116828
0.00494277
0.0389315
1.36893
0.0001789
1.75511
0.0967311
10.1196
1.21272e-05
0.241337
0.442755
0.227381
0.00085329
0.774858
0.554449
2.00743
1.85291
0.612751
0.019581
0.0123082
1.71005e-05
0.00383953
0.0515849
1.37664e-05
0.00379429
0.00410777
0.000103749
1.17478e-05
4.43467
0.176475
1.15116
0.485229
0.00499358
0.561831
8.83559e-05
0.702847
0.00502668
0.121537
3.5447e-05
0.000224492
0.00504936
0.00385959
6.3572e-05
9.37254e-05
6.21472
0.00923171
0.123048
0.610376
0.106651
1.16406
1.12029
1.53839
0.00470775
1.18442e-05
0.640135
1.17821e-05
1.17845e-05
3.36232e-05
0.00144563
1.001
0.00712707
0.727906
0.0207328
0.00814312
0.76576
1.67494
0.00613734
6.01363e-05
0.0571493
0.000290473
0.00536728
0.186891
1.43541
0.440877
0.000362921
5.71504e-05
1.14382e-05
0.554834
0.446433
1.08872
0.129383
0.000291647
1.57387
0.827101
0.402386
0.000255512
1.38793
0.0109053
2.65514
3.78069e-05
2.34006e-05
1.60753
1.56324
0.169356
1.08972e-05
0.363675
0.00260753
0.0102661
5.96814e-06
0.539714
6.81655e-06
5.84673e-06
0.00012327
0.731912
0.676109
0.000159059
1.63756
0.127858
0.000150251
0.603046
7.02318e-05
0.00207282
0.00541372
0.00687116
4.90789e-06
4.33913
0.0974275
0.718091
1.56686e-05
7.61708e-06
0.176246
16.7635
0.356363
0.643686
0.782434
0.000158279
6.61892e-06
0.0015192
1.17608e-05
0.932857
1.97205
0.0432305
18.4414
0.0224126
0.000821985
0.691654
0.000795588
0.781954
1.11816
0.592236
0.000410074
0.0113872
0.00834033
3.88137e-05
0.0213785
0.905279
0.000117876
3.50606
8.12316e-05
0.0180324
1.08971e-05
0.0202315
0.131527
9.37117e-06
3.19693e-05
1.89622e-05
2.69266e-05
1.27321e-05
0.0124845
0.000585329
0.000619859
1.78213e-05
0.000174074
0.0596577
0.575424
2.31693e-05
3.001e-05
1.28693e-05
0.00783805
1.18402e-05
9.71744e-05
0.000431358
0.00068492
6.13814e-05
0.678388