/*--------------------------------*- C++ -*----------------------------------*\
| =========                 |                                                 |
| \\      /  F ield         | OpenFOAM: The Open Source CFD Toolbox           |
|  \\    /   O peration     | Version:  v2012                                 |
|   \\  /    A nd           | Website:  www.openfoam.com                      |
|    \\/     M anipulation  |                                                 |
\*---------------------------------------------------------------------------*/
FoamFile
{
    version     2.0;
    format      ascii;
    class       volScalarField;
    location    "2.1795778";
    object      k;
}
// * * * * * * * * * * * * * * * * * * * * * * * * * * * * * * * * * * * * * //

dimensions      [0 2 -2 0 0 0 0];


internalField   nonuniform List<scalar> 
353077
(
0.000783939
0.00643283
4.72697e-05
0.00559884
0.000450476
0.000156319
8.28711e-05
4.74079e-05
0.000634386
8.21007e-05
0.0323629
0.038061
0.137101
5.99442e-05
6.20908e-05
0.000196999
0.07254
0.117501
0.000131548
4.89103e-05
0.311325
7.53159e-05
8.21247e-05
0.0733501
4.86885e-05
5.41349e-05
0.00645042
5.57675e-05
5.5324e-05
0.098455
0.00443609
5.22205e-05
0.0250928
0.0011505
7.57836e-05
0.000562818
0.205428
0.195587
0.00312552
5.8247e-05
5.95609e-05
6.87554e-05
0.0759502
0.000247444
0.0104842
4.82286e-05
8.61939e-05
0.000131302
0.000588457
0.0814081
5.19569e-05
4.71826e-05
7.95859e-05
8.43729e-05
0.00022291
0.000200524
4.82683e-05
0.000114424
0.000614179
0.000112365
7.34114e-05
4.99925e-05
0.0013099
7.04618e-05
0.465448
8.14273e-05
6.12481e-05
5.53909e-05
0.100655
5.01859e-05
0.00011359
0.000425776
0.000382845
5.35624e-05
0.00049231
4.86155e-05
0.0340823
0.160917
0.440633
0.000864022
0.0939704
6.3762e-05
0.192343
0.0892699
0.00153966
0.0516705
0.0608291
0.151848
4.7188e-05
0.440444
0.41624
0.000556851
5.03273e-05
0.00120906
0.0226056
6.6165e-05
0.00319618
6.48632e-05
4.93663e-05
6.11816e-05
0.00020727
4.78223e-05
0.000223316
0.00981438
0.0114474
0.000195653
7.89187e-05
0.00221701
5.91581e-05
0.000201439
0.000102924
9.35499e-05
9.23757e-05
0.00342731
0.000195487
0.000134267
0.00601541
0.375831
7.48716e-05
5.84313e-05
0.000108616
0.000101222
0.00134432
0.0255502
0.000938405
0.000793401
7.43923e-05
8.56073e-05
8.28153e-05
0.000490429
0.00253299
8.71751e-05
0.000180766
5.18987e-05
4.73443e-05
0.00326491
0.000426516
6.49178e-05
4.74212e-05
0.000333753
0.00128836
0.000440849
5.02484e-05
5.49123e-05
0.0011014
0.000540084
0.0121288
0.00224577
0.00087983
0.29837
0.000678715
0.00108119
0.00112326
0.000332417
0.842405
7.85047e-05
8.54745e-05
6.41068e-05
7.85224e-05
0.000908574
0.0649637
4.96428e-05
0.000157182
7.90092e-05
4.87715e-05
0.243647
0.0160589
8.48892e-05
5.51323e-05
4.78935e-05
0.000118742
0.263355
0.00256582
0.000130823
7.50633e-05
0.000706523
0.000104233
0.000107876
0.0245514
0.00167399
4.73128e-05
7.02802e-05
0.000236475
9.27705e-05
6.11076e-05
5.50462e-05
0.000103502
0.00261893
0.0949663
0.000119044
0.00490889
0.000122444
5.0415e-05
0.000458139
0.307734
0.399334
0.000621832
0.00316405
0.00192085
0.00117714
0.0013063
0.39566
0.00566199
4.72311e-05
0.000459642
6.55378e-05
0.000846549
6.06405e-05
0.0321897
7.79167e-05
6.21784e-05
0.00124434
0.000781592
8.18558e-05
0.0145304
9.38723e-05
0.269319
0.185644
9.03605e-05
0.00056051
0.243708
0.000201834
0.000623275
0.000124773
7.84076e-05
5.90563e-05
0.00175938
0.364617
0.00677889
0.000928642
0.00326656
8.90384e-05
4.93574e-05
0.00127241
0.163332
6.72073e-05
0.000135268
0.00690032
9.44206e-05
0.0014014
6.37717e-05
0.000862174
0.0158025
5.92326e-05
8.05818e-05
4.82108e-05
7.18146e-05
4.77209e-05
0.123007
0.000199548
8.25108e-05
8.38093e-05
6.1892e-05
0.227648
0.0900309
0.000817271
0.00154341
8.38671e-05
0.00203058
5.70331e-05
7.63979e-05
0.0797442
0.415571
0.00793594
0.00211303
0.000957152
0.000256328
0.000274136
0.0103501
0.00125723
0.00124763
0.388033
0.00181971
5.19784e-05
0.0173677
0.0121361
0.0465433
7.77415e-05
0.0664304
0.000335989
0.353072
0.072219
0.00161983
0.000100671
0.000192458
0.000275019
0.000141721
7.91891e-05
0.000332389
0.0123866
0.0554543
0.0516388
0.00011633
0.000132996
0.00668438
0.000294935
0.000120332
8.61197e-05
4.88013e-05
0.00030167
0.0391251
0.072689
4.74465e-05
0.128609
0.000132569
0.000249782
0.00405381
0.000231134
0.14242
0.000309755
5.74153e-05
5.93166e-05
7.46825e-05
7.08257e-05
0.320246
0.421869
0.000370961
0.34761
0.00256901
0.0280045
0.36282
0.000161512
0.447459
0.00168604
4.76225e-05
0.509489
0.0331807
0.00104034
0.00187762
0.0337092
0.00166322
0.00140365
0.0459393
0.0498034
0.32947
0.00612338
0.0165352
0.000108609
0.0146831
0.319292
0.0072136
0.000160292
0.00306709
0.00485549
0.00181746
0.0263047
5.04518e-05
0.00259523
8.49748e-05
5.20805e-05
0.000489891
0.0442058
0.257
0.00463506
0.414233
0.000432211
0.0696583
0.000155154
0.00729712
0.000823041
0.00872686
0.0166573
0.0649079
0.00394289
0.0663551
0.0004425
6.60784e-05
0.37771
0.000250933
0.0261309
0.00203111
0.280775
0.372395
0.374491
7.43722e-05
0.000102872
7.70003e-05
5.28989e-05
6.58252e-05
0.000261194
0.000103699
0.00882602
0.00226535
0.00923728
0.0184831
0.104595
5.14941e-05
0.132151
0.00158322
0.344103
0.000344804
7.29907e-05
6.1138e-05
0.00664404
0.0373357
0.00942612
0.257823
8.02699e-05
0.00026865
0.00915098
4.94039e-05
0.000496416
5.20107e-05
0.00106747
0.0266893
0.000320315
5.2449e-05
0.00212818
0.00264565
0.000329056
0.142267
0.000556593
5.70238e-05
6.99536e-05
7.4998e-05
0.132173
0.00012796
0.00233769
6.62127e-05
0.396209
0.000119034
0.483457
0.0186649
5.22835e-05
0.000295989
0.0149127
6.80445e-05
0.0422514
0.285313
0.380711
0.395924
0.078133
8.34425e-05
0.026729
0.357869
0.0139142
0.000202989
0.264389
0.000603742
0.170667
0.0274604
0.00140649
0.0188591
0.00105229
0.00188879
0.000116164
0.00138042
0.00102802
0.0042196
0.154756
5.37078e-05
0.0180105
0.11888
0.00103023
0.000112373
0.000102632
0.248832
0.0289819
0.000105546
0.272002
0.111294
0.0912425
0.115082
0.332015
0.00213867
0.000615999
0.000601907
0.000154998
9.05135e-05
0.00021761
0.000389589
0.00580633
0.00086016
0.000383242
0.000396198
0.000388535
6.8112e-05
0.000956596
0.0159124
0.000499426
4.8865e-05
0.0010236
0.042072
8.35913e-05
0.000728412
5.39797e-05
0.0559156
0.0661949
0.0328746
0.193116
0.00247678
0.00267356
0.00287191
7.04182e-05
0.480848
0.000106139
0.00322145
0.307936
0.000198482
6.36607e-05
0.00240034
0.000649545
0.000470586
0.412857
0.0592559
0.0129977
9.10975e-05
0.000609417
0.0345422
0.127655
0.267103
0.000223397
0.222146
4.96228e-05
0.000129429
0.223411
0.34913
0.000585195
0.000274988
0.0613351
0.0169329
0.00240976
0.0262719
0.16783
0.000107239
0.46115
0.000112046
0.318421
7.51294e-05
0.00206619
0.00048952
0.00241757
9.00465e-05
0.307875
0.000427311
4.72485e-05
0.0426948
0.135377
0.137495
0.000135496
0.00282415
0.0740131
0.0270889
0.00523857
0.00117761
0.0140176
0.00361032
0.0974759
0.0407782
0.00251426
0.076489
0.00257979
0.0126744
0.000422823
0.157982
0.000127978
0.11642
0.512363
0.000513451
0.36128
0.000463255
0.175767
0.00230367
0.000170996
0.000252969
0.000167406
0.404859
0.000714136
0.00122863
0.0233704
0.241803
5.48285e-05
0.000107797
8.86636e-05
0.367602
0.000105151
0.000278805
0.000105137
0.081078
0.0556518
8.50779e-05
0.000107471
0.100979
0.00028878
0.000488962
0.000895504
0.000100304
0.175638
0.00280644
0.0721144
0.00550866
0.0493078
0.0646735
0.219967
0.002375
5.09523e-05
0.00334263
0.000629371
0.00861034
0.000123344
8.31679e-05
0.00348396
0.00022681
0.000337899
0.0131518
0.00907649
0.0343062
0.422979
0.413639
8.89125e-05
0.00618326
0.00117497
0.195133
0.389176
0.000317087
0.0160647
9.08781e-05
0.0403364
0.000656922
0.441677
0.0931536
0.000646134
9.78837e-05
0.00145396
0.000483385
0.000133166
0.340592
0.030012
0.00419995
0.00666612
0.000330817
0.000188682
0.322204
7.87169e-05
0.13518
0.0545292
7.12094e-05
0.00809775
0.358971
6.41327e-05
5.56478e-05
6.32794e-05
0.401268
0.0637709
0.000936143
0.00297384
7.39909e-05
5.45913e-05
0.00897393
0.00241119
0.0591051
0.00119464
4.8762e-05
7.67905e-05
0.000484729
5.12734e-05
7.71815e-05
0.00941657
0.01257
0.00018721
0.00107981
4.99796e-05
5.71034e-05
0.000282491
0.334571
5.47703e-05
0.00896228
0.187164
6.86561e-05
0.0323658
5.84455e-05
0.0101232
4.75027e-05
0.191124
8.95948e-05
0.000332608
0.00303137
0.0553674
0.0013226
5.17817e-05
0.0562222
0.25432
0.00617843
8.2867e-05
0.434338
0.000581582
0.0771235
0.00304318
0.101297
0.00023773
4.73939e-05
0.000457717
0.079341
0.000115759
4.77028e-05
0.000519731
0.00561494
0.132302
0.0228141
0.000282947
0.000686677
0.000674347
0.00869737
0.209332
0.118955
0.00569679
0.00354346
0.0364355
0.00192003
0.0183674
0.000475033
0.00576483
0.0085464
0.0188748
0.151452
0.00599135
0.386226
0.0669646
0.0336334
0.000651981
0.181223
0.318087
0.129682
0.155914
0.000110789
0.000962365
0.0218811
0.000589461
0.0240269
0.271603
0.00014058
0.016756
0.00597147
0.0467535
0.000329652
0.146668
0.0173516
0.213458
0.28381
6.30796e-05
0.0619377
4.71606e-05
5.36552e-05
0.507023
0.0707268
0.431252
0.437186
0.409219
0.0206003
0.000327026
0.0517112
0.000369319
0.022378
4.71341e-05
8.1955e-05
7.88187e-05
4.79357e-05
0.492473
0.000200724
4.71412e-05
0.194459
0.00032511
0.0025792
0.0154815
0.000199276
5.52281e-05
0.161824
0.000567761
0.00027271
6.34121e-05
7.00379e-05
0.000327138
0.00350832
0.149949
0.00032948
0.00102425
0.00105258
4.90747e-05
0.0538883
0.399893
0.000637
0.00087166
0.379375
0.187438
0.00126818
0.000936516
0.000304665
0.000882127
0.0702853
0.00119511
5.08895e-05
7.97406e-05
0.402985
6.40452e-05
0.000470549
0.000169238
0.0206298
0.00026206
0.000107728
0.00552538
0.315689
0.456103
0.000100006
0.00657928
0.477443
0.139406
0.0001048
0.000173171
0.000349784
9.53281e-05
0.437444
6.7118e-05
0.000166806
0.157021
0.000206769
0.000228247
0.47249
0.00457385
0.00109153
0.00366875
8.60856e-05
0.077528
0.0016217
0.0132223
7.61311e-05
5.91202e-05
0.00258988
0.204893
0.0111656
0.000205303
0.146272
0.00957138
0.0293767
0.0717414
0.000225248
0.000839313
0.00017666
0.206024
0.000243745
0.0012073
0.000217665
0.469659
0.32759
0.256162
0.266942
0.00104079
0.00177933
0.00311057
0.0338412
0.390631
0.000313998
0.000130218
0.000101846
0.00156233
0.000154044
0.000100835
0.000102596
0.000354409
0.0219285
0.0132706
0.483743
0.222334
0.389602
0.367165
0.000283745
0.000126944
0.352816
0.00336451
0.00114815
0.0012162
0.189082
0.129126
8.34058e-05
0.496079
0.00122603
0.00145719
0.323138
0.00126222
0.00210706
8.77905e-05
8.4031e-05
0.00460713
0.00331187
0.404099
0.00186078
8.47351e-05
0.000167604
8.4787e-05
0.362857
0.387968
5.08191e-05
0.118058
0.149653
0.331346
8.54105e-05
0.000477612
7.47278e-05
0.336295
9.65127e-05
0.000841978
0.000169729
0.00265616
0.000668851
0.0733537
0.000195222
6.04111e-05
0.165982
0.398515
0.122931
0.253886
0.239715
0.000816956
0.000678913
0.44414
0.00562253
0.00130909
0.247621
0.0798034
0.477578
0.0114657
0.00015713
0.000519515
0.00029217
0.000296721
0.1044
0.000708223
0.000112997
0.000224168
0.000207482
0.000164297
0.442145
0.012619
0.375417
0.33134
0.00111591
0.000449378
0.00150496
0.0124399
0.0083785
0.0192628
0.423968
0.501507
0.111649
0.000194722
0.355382
0.297663
0.00794249
5.23505e-05
0.00047898
0.00351934
0.00221173
6.94252e-05
0.000327816
0.000365945
5.08192e-05
0.000155288
0.000124412
0.00731547
0.510719
0.445197
0.254133
0.000141696
4.75567e-05
0.433696
0.367661
5.12038e-05
0.465391
0.517653
5.17023e-05
0.41788
0.000322537
8.69427e-05
0.103055
4.81497e-05
0.00122905
0.000115491
6.04488e-05
0.239225
0.000577302
0.0448479
4.74364e-05
6.29197e-05
0.0816184
0.0685078
0.00461328
0.431387
0.0560821
8.4362e-05
5.01584e-05
5.88425e-05
0.128732
0.0635466
0.311613
4.76918e-05
0.00106332
0.00169556
0.000296357
0.428774
0.00114905
0.110913
0.0348402
0.385693
0.452792
0.422474
0.0359709
7.8123e-05
0.0742688
0.0667899
0.0274237
0.000426512
0.0848519
0.306527
0.427004
0.210051
0.248682
0.40598
0.000151625
0.000754775
0.000505029
0.0138762
0.429451
0.304159
0.0143234
0.0310566
0.0757928
0.0174859
0.000524324
0.23531
0.0772986
0.00179957
0.000978079
0.484007
0.00487011
0.00199024
0.0578592
0.000616912
0.00171223
0.158188
5.22291e-05
0.502338
0.0237118
0.000636482
0.0134062
0.00919854
0.00219757
0.277824
0.000149368
0.10884
0.000160567
0.266615
0.000162589
0.000167482
9.78747e-05
0.113839
0.412537
0.000135107
0.439735
0.00274571
0.419997
0.0471312
5.57637e-05
0.00435757
5.7111e-05
0.00013896
0.0111908
0.322619
0.117106
0.00554383
0.426948
0.00232401
0.000937294
0.00014501
0.000189589
7.64471e-05
0.000141835
5.18751e-05
0.00011456
0.129526
7.0302e-05
0.504374
0.000180553
6.4059e-05
5.22059e-05
0.00447683
0.00147021
0.000245735
0.0001969
0.00846286
0.000151875
0.496451
0.000175232
0.000177302
0.000167875
0.00559923
0.000111767
0.000115933
0.19587
0.000111633
0.317385
0.000116397
0.158484
0.0106061
0.00012718
0.000113175
0.484745
0.00015267
0.000161264
0.0124413
0.39224
0.34407
0.000350358
5.14707e-05
0.00944349
0.00910537
0.179082
0.357839
0.424577
0.367739
0.194679
0.374331
5.28879e-05
0.00683773
0.440715
0.21926
0.000307047
0.0382434
0.000399003
0.000578429
0.00142879
0.0779299
0.216665
5.11313e-05
0.000897091
6.94434e-05
0.0067311
7.5284e-05
0.384954
8.27142e-05
0.103936
5.87307e-05
0.436772
0.000644414
0.0287845
0.423526
0.00290666
0.00166064
0.133534
0.00035995
5.05876e-05
0.402559
0.214761
0.240856
0.489484
0.000426777
0.145562
0.000986466
0.000377387
0.392292
6.9991e-05
0.000282639
0.000173613
0.00475804
0.322661
4.85716e-05
0.0535316
0.415202
0.00400698
0.00363585
0.246971
6.18902e-05
0.00137593
0.000535244
0.001062
4.79835e-05
4.84296e-05
0.024309
0.373501
0.0120936
0.000717841
0.030782
0.0459641
5.17491e-05
0.000491995
0.376684
5.28936e-05
0.000198465
9.12948e-05
0.0991546
0.000377005
0.000122873
0.000187486
0.0186587
0.0404307
0.435043
0.000147086
0.00125726
0.419927
0.000126933
0.0397345
0.0142114
0.00941811
7.80112e-05
0.449488
0.00168277
0.000139608
0.205079
0.247276
0.00012534
7.31631e-05
0.000248151
0.406778
0.422833
0.0156126
0.000833802
0.00434068
0.000234053
0.076324
4.7091e-05
0.0111789
0.395362
0.468188
0.0415275
0.00180377
0.45912
0.23774
0.417942
0.000841055
0.318785
0.0250712
0.00184555
0.00145181
0.00115514
0.00017079
0.0641191
0.138172
0.0959597
0.109852
0.0374286
0.0504155
0.314751
0.0252497
0.000525928
0.0892337
0.390723
0.438981
0.482446
0.0204584
0.0113264
0.0230176
0.415317
0.000507035
0.15881
0.000813673
0.000667852
0.0573147
0.00125632
0.00782813
0.252566
0.0508443
7.37173e-05
0.0162011
0.000788136
7.81477e-05
0.00106736
0.289786
0.000733343
0.000239916
0.00100604
0.00632137
0.000417769
0.223868
0.000951969
0.000315533
0.0166973
0.00299904
0.400742
0.00742334
0.253695
0.000751969
0.000796962
0.115754
0.0311714
0.225931
0.000556213
0.00213053
0.459929
0.347034
7.16498e-05
0.000453409
0.0780453
0.387499
0.427898
9.58201e-05
0.00233131
0.235278
0.00532089
0.350247
0.431381
0.00510055
0.00514119
0.000373471
0.000409379
0.00010137
0.0116073
0.196317
0.146105
9.05001e-05
0.000146432
9.73285e-05
0.00797272
0.000343198
0.0906081
9.54076e-05
0.000100104
6.26054e-05
0.0698685
0.000238151
7.34493e-05
0.00182592
0.009822
0.335278
0.0162445
8.88322e-05
0.359951
0.296929
0.0205239
0.352449
8.19619e-05
0.267996
0.32378
0.384072
0.294553
0.240631
0.43191
0.111048
0.364474
0.000146351
6.87203e-05
7.73547e-05
0.0695864
7.89311e-05
0.0380093
0.403133
0.32299
0.0268474
0.372824
0.0560202
0.304775
0.392456
0.369792
0.0608718
0.0949688
0.000501043
0.000109016
0.0828236
0.0351664
0.0038388
0.00018494
0.00777049
0.000122903
0.000116642
0.190945
0.39911
0.0735025
0.243623
0.0506721
0.000126522
0.000115036
0.0486649
0.00680952
0.000554152
0.000631835
0.406769
0.506485
5.10756e-05
0.438863
0.000114795
0.00639515
0.660021
0.00133255
0.000115658
0.000654985
4.91127e-05
8.80235e-05
0.107084
7.80833e-05
0.26427
6.07062e-05
0.437006
0.000199859
6.11195e-05
0.0285944
4.75381e-05
0.000117437
0.000103785
0.259004
0.0856026
0.0356146
0.00526174
0.00545366
0.000519686
4.75516e-05
0.167412
0.00385664
0.000107717
0.0325771
4.96816e-05
0.00567692
0.343667
0.00023861
0.0548801
0.0187822
6.78577e-05
0.00615249
0.332416
0.00115054
0.45059
0.000263476
0.000131017
0.0067138
7.73071e-05
0.000290353
0.335791
9.99296e-05
0.027082
0.00124252
0.263104
0.00145079
0.302467
0.0568504
0.000127311
0.162518
0.0106212
0.00894967
0.1875
0.0464242
0.000101136
0.0404225
0.00465941
0.219572
4.77707e-05
0.0731864
0.00526223
0.0131848
0.000106332
9.48229e-05
0.419962
0.114009
0.0600658
0.000592549
0.000569769
8.14805e-05
0.000122103
0.000184134
0.440812
0.110995
0.0828614
0.387748
0.0135964
0.0392431
0.000251981
0.0581433
0.0352384
0.000103321
0.409947
0.000202069
0.000226746
0.00011388
0.000307923
0.00750886
0.0469357
0.425512
0.121826
0.0311332
5.41825e-05
0.000870795
0.00412416
0.00102087
0.00086205
0.364637
7.37227e-05
0.0138863
0.0476138
0.421574
0.00525128
0.268257
0.0421747
0.000257012
0.000905579
0.0969137
0.437279
0.000934703
0.000167852
0.0010212
0.0237919
0.0051109
0.217765
0.346426
0.441206
0.00014893
0.150414
0.48331
0.00264702
0.0778508
0.00893794
0.00014351
0.108548
0.000151571
0.00514179
0.0376331
0.000971517
0.3964
0.317043
0.00624513
0.000535095
0.323986
0.000600719
8.00636e-05
0.000405511
7.27714e-05
0.000188652
0.119693
0.000675333
0.407168
0.0276062
0.026612
0.00100781
0.000187719
0.0882986
0.367877
0.0383498
6.09945e-05
0.000220503
0.000325745
0.00101487
0.000473377
0.000504394
0.141577
0.00781368
0.000367266
0.190063
0.000445701
0.160433
0.119609
0.00522912
0.276364
0.0336863
0.479015
0.0953241
0.0349496
0.00635168
0.4059
0.019335
0.435611
0.000413108
0.0106645
0.00269052
0.399737
0.000781146
0.0104922
0.0744538
0.0882071
9.97211e-05
8.61239e-05
0.0289875
0.375121
0.496882
0.000101041
0.504833
0.00113554
0.43492
0.000103483
0.0009717
0.0142103
0.000388664
0.026263
0.000936635
0.000110862
0.00154624
0.111412
0.373579
0.19169
5.10197e-05
0.0730027
0.0098031
6.04278e-05
8.20019e-05
0.000758043
7.50993e-05
0.319788
0.000167626
0.177319
0.418202
0.0286656
0.438023
0.000387012
0.00128908
0.467771
0.498884
0.00981279
0.00990983
0.497366
9.04319e-05
0.522387
0.0703895
0.407727
9.74005e-05
7.82385e-05
0.424304
0.00580721
9.85173e-05
0.000107449
0.367881
0.0191704
0.365641
0.000464468
0.000269175
1.14561
0.37622
0.332196
0.000220402
5.11708e-05
0.00150334
0.000121979
0.000839328
0.00012
0.359391
0.000842182
9.7568e-05
7.96748e-05
0.00219017
0.000325922
0.00110099
0.300806
0.000120764
0.00046979
0.000485782
0.402819
0.000130642
0.0387067
0.437351
0.493582
0.33894
0.00207975
0.250311
0.000601488
0.0109767
0.012238
0.000239971
0.303985
0.00116998
0.297284
0.220897
0.17293
0.355105
0.05752
0.00455923
0.000930583
0.0271726
0.00258253
0.000414329
0.0603557
0.0434285
0.0760927
0.140692
0.0616258
0.154131
8.01542e-05
0.00292237
0.116408
0.00189764
0.0813412
0.00426174
0.0229859
0.00449849
0.00071102
0.000456901
9.99546e-05
0.125651
0.000467482
0.143799
0.000318052
0.0389292
0.00775738
0.0225535
0.193378
0.0983425
0.000116361
0.064899
0.000225732
0.000422506
0.000270935
0.000191182
8.27827e-05
0.000965355
0.0151025
0.00386849
0.414138
0.001116
0.000440784
0.000975815
0.500322
0.488048
0.000251116
8.23577e-05
0.0308221
0.138865
0.398682
0.000247818
8.82195e-05
0.00100336
8.62044e-05
0.111981
0.490952
0.00774096
0.00125104
0.00117184
0.00128383
0.174692
0.356047
0.000949164
0.414469
0.351935
0.0516191
0.00128957
8.59856e-05
8.5764e-05
0.00431914
0.112229
0.171302
0.0243728
0.0918498
0.000470549
0.00925673
0.0012713
0.430001
0.34075
0.0713072
6.08132e-05
7.23445e-05
0.18713
8.01176e-05
0.000944159
5.22154e-05
0.0505603
0.0660837
0.394201
0.000713443
0.256885
0.0774418
5.05947e-05
0.000461569
0.000843482
0.418987
0.0652835
0.00904984
0.000746617
0.000824851
0.000598348
0.000832931
0.00946553
0.0205066
0.0073738
0.000721316
0.348323
0.357541
0.000232546
0.00451725
0.406952
0.000215384
0.110994
0.000160271
0.000191409
0.000255684
0.399621
0.00106887
0.175912
0.00591735
0.000567631
0.00365565
0.0378395
0.608016
0.000454014
0.000217574
0.000905301
0.0990672
0.213752
0.0149995
0.000547923
0.0670613
0.000971579
0.000978136
0.0366936
0.433699
0.0119789
0.000179099
0.31869
0.308402
0.000472237
0.00169482
0.000204233
0.000158848
0.000197322
0.420496
0.300019
0.0011978
0.000599895
0.000145753
0.000196502
0.00039083
0.00438757
0.00104194
0.01528
0.000918651
0.02045
0.000110971
0.437361
0.370312
6.9592e-05
0.054714
0.00355889
0.0218829
5.33444e-05
7.76974e-05
0.000452629
0.000229172
0.0349391
0.00623313
0.218474
0.413757
0.00100574
0.0379217
0.370011
0.162432
0.0145673
0.850272
9.23752e-05
0.023291
0.000363949
4.73277e-05
0.000103048
0.00700006
0.304572
0.000469288
6.04487e-05
0.233944
0.0946443
0.00438262
0.00221312
4.72139e-05
0.0856843
0.428702
0.000181431
0.0142595
0.124343
0.00118183
5.2124e-05
0.000106731
4.76853e-05
0.433817
0.0183241
0.336694
0.0275455
0.00063395
0.200632
0.000500798
0.058756
0.0570331
0.000103503
0.0311895
0.294318
0.062249
0.00062885
0.0226249
0.000445301
0.0435622
0.367704
0.000103095
0.0675492
0.00135916
7.19073e-05
0.000162643
0.000537085
0.0859651
0.000105232
0.000104161
0.000139049
0.0054799
6.20221e-05
0.104999
0.0311979
7.06543e-05
7.88662e-05
6.50501e-05
0.105114
0.0544106
0.00369337
6.01208e-05
0.0324439
0.000104458
0.0285784
0.00139285
0.0874698
0.000158345
0.000116267
0.059525
0.431972
0.000457151
0.109081
0.41721
0.337271
0.42863
0.00425791
0.000108966
0.00069474
0.00707294
0.0535178
0.0399388
0.313436
0.0416202
0.000203018
0.00171504
0.104728
0.036721
0.00443454
0.141264
0.000558518
0.0550653
0.00711468
0.000148515
0.00266302
0.00323387
0.387227
0.333898
0.0542167
0.0169559
0.297837
0.04
0.0219828
0.00662523
0.0271283
0.000236219
0.070848
0.000350365
0.000264041
0.15291
8.21943e-05
7.75036e-05
0.0591913
0.00273522
0.00404008
5.53924e-05
5.52667e-05
7.70318e-05
0.00607925
0.00177318
0.0376876
0.00157736
0.429
7.06155e-05
7.58629e-05
0.0305138
0.163527
0.00311492
0.000605354
0.399341
0.297449
0.0586892
0.000106867
0.000207715
0.0093476
0.00133601
5.93968e-05
0.00286157
0.000107106
0.334217
9.09844e-05
0.0249835
0.254158
0.2193
0.169648
0.000167781
0.0101262
0.00258165
0.00175171
7.3775e-05
0.14682
7.70591e-05
0.102088
0.0161063
0.000142113
4.90897e-05
6.7429e-05
0.185787
5.85345e-05
5.06264e-05
0.47193
0.0313577
0.00952991
0.0191804
0.00408126
0.10776
5.74152e-05
0.0666672
0.324043
0.257719
0.035105
0.000694297
5.04255e-05
0.00438501
0.0762052
6.79921e-05
0.000257766
5.76185e-05
0.0116192
8.07095e-05
0.000965406
0.00699615
0.17724
0.00254771
0.48859
0.00145731
0.441294
0.43865
0.282867
0.00160549
0.258231
0.231506
0.243956
0.000141497
0.0868277
0.000279484
0.0838995
0.000258135
0.00223747
0.278243
0.36036
0.00153335
7.99738e-05
0.00399546
0.382536
0.0444223
8.01159e-05
6.25535e-05
5.56138e-05
0.450844
0.482396
0.134885
0.38408
0.00623515
0.00207597
0.347126
0.414012
0.252251
0.0929926
0.000291969
0.0327219
0.000478922
0.379136
0.0178553
0.000122578
0.000231808
0.00016174
0.0850299
0.000212169
0.000446979
0.000108801
0.000737918
0.14526
0.000300557
0.00011326
0.217725
0.0438156
4.92466e-05
0.0887724
0.000386827
0.00209421
0.00230517
0.319928
0.154522
0.0164639
0.00588212
0.362099
0.438331
0.000622526
0.0219998
0.233938
0.000420088
0.000752042
0.000434813
0.000341953
0.0900377
0.00102463
0.154295
0.0948705
0.0905237
0.428244
0.000538943
0.000384422
0.0540691
0.00290594
5.04751e-05
0.000456621
0.000660056
0.0011705
0.103769
0.00427873
0.382004
0.387313
0.0341929
0.000494604
0.000529197
0.000247889
0.00102344
0.272054
0.347036
0.000287535
0.0444198
0.328372
0.342953
5.2144e-05
0.382836
0.000737855
0.45162
7.65783e-05
6.93541e-05
0.0146789
0.00919735
0.0633371
0.0850035
0.276203
0.337392
8.07293e-05
0.405817
0.382737
0.401849
0.00302986
0.0639438
5.41514e-05
4.85214e-05
0.076926
6.46891e-05
5.76672e-05
0.000222207
4.90874e-05
0.126825
9.51011e-05
9.59589e-05
0.000117681
0.15209
0.196997
0.191835
0.461729
0.000121562
0.000184534
0.356734
0.000132234
0.411145
0.425236
0.380832
0.0032694
0.0035071
0.0208542
0.000395323
0.205355
0.418445
0.116488
0.000605541
0.0612062
0.000264001
0.000857848
0.00042511
0.00385211
0.0478263
0.121274
0.00447901
0.000233748
0.000125385
0.000566167
0.420615
0.000161019
0.00807721
0.0458851
0.00318707
0.00519989
9.04959e-05
0.00492812
0.000139293
9.19223e-05
0.0472957
0.000118035
0.0105197
0.000105693
0.000162965
0.458011
9.359e-05
0.000379181
8.59881e-05
0.0159901
0.189613
0.122999
0.000841984
6.99856e-05
0.000137401
0.000105643
9.91836e-05
0.00120507
0.376744
0.294038
7.07611e-05
8.74317e-05
0.0418398
0.000101602
0.476984
0.000177699
0.000491412
0.000539531
8.95258e-05
0.000201983
0.422596
0.000167854
0.000100509
7.99855e-05
0.00014334
7.66483e-05
0.000218724
0.000418615
0.192445
0.00093709
0.053617
0.0206296
0.300303
0.00121924
8.37412e-05
0.000124074
0.000109546
0.0511902
0.0891141
0.0153152
0.00118511
0.139581
0.0334341
0.00810404
0.0106491
0.258431
0.418007
0.560376
0.0841084
0.000287871
7.29224e-05
5.44094e-05
0.265806
0.000101135
0.0042755
0.0122394
0.160019
0.213211
0.0160138
0.412532
0.0038632
0.0430022
0.00066468
8.39801e-05
4.94634e-05
7.50066e-05
5.95156e-05
0.00778135
0.157961
0.00109588
0.00477144
8.25714e-05
0.0173107
0.139313
0.0850883
5.94208e-05
0.00025776
0.205656
0.003006
0.0501029
7.58567e-05
0.00103812
0.000178857
0.00103168
0.00218837
0.000211142
6.32856e-05
0.0038037
0.00530142
0.00361094
0.386102
0.00877797
0.000569055
0.000271313
0.000558189
0.0768631
0.00918706
0.0355689
0.000127359
0.038604
0.0581783
0.0196711
0.00207435
0.00459834
0.44818
0.0866657
0.0766303
0.0170557
0.220338
0.0598882
0.215074
8.0574e-05
0.000607943
0.383929
0.000311233
0.0441992
0.000113943
0.00035339
0.415258
0.000121109
0.0714592
0.00107089
0.000427015
0.000285361
0.0455886
0.000108499
0.0615506
0.42961
0.260247
0.361331
8.94099e-05
6.42911e-05
0.0174019
0.000114495
0.0337636
0.0524152
0.0579599
0.0594001
0.000218306
0.352077
0.389488
0.022324
0.000363133
0.000457932
0.284305
0.0446818
0.0192187
0.189572
0.178471
0.323557
0.000285602
0.0167624
0.000223597
0.00371998
0.118287
0.222216
0.000611732
0.000318397
0.298814
0.000312721
0.00065134
0.197986
0.235354
0.00126602
0.00149841
0.000186571
0.31706
0.0191451
0.000558894
0.430918
6.53171e-05
0.00032966
8.01591e-05
0.000184737
0.00021162
7.64929e-05
6.34461e-05
8.69605e-05
0.0705623
0.468904
0.0368115
0.00014058
0.00877837
8.09529e-05
0.000583189
0.000844523
0.173399
8.25125e-05
8.73858e-05
0.368943
0.00262892
8.37022e-05
9.38409e-05
0.211821
0.0222548
4.927e-05
0.00011235
0.000134317
0.40255
0.51817
0.259256
0.0173272
0.0396764
0.013494
0.000161024
0.000909457
0.000204359
5.84539e-05
0.000262586
0.0858255
0.00520368
0.0011935
0.00094782
0.000211344
0.0143206
0.000214336
0.0405239
0.00382469
0.0252586
0.000252225
0.000299163
7.18224e-05
0.00766852
0.397046
7.86769e-05
8.27787e-05
0.0555266
0.000158461
0.467256
0.000431088
8.44619e-05
0.16905
6.32185e-05
0.000254034
0.0016072
0.00224554
0.000164695
4.93021e-05
0.320277
8.20325e-05
4.8912e-05
0.0138711
0.00203425
7.65084e-05
0.00017788
0.0283799
0.00074568
5.81679e-05
0.378375
0.000233215
5.1199e-05
0.305716
0.0225884
0.00394827
0.0127564
0.0265735
0.369321
0.411015
0.00212563
0.0022262
0.000377382
6.43531e-05
0.337396
0.00572669
0.402671
0.00116315
0.402806
0.34917
0.290143
5.83148e-05
0.0235531
0.0153574
0.038421
0.415388
0.00337428
9.3542e-05
0.000460411
0.260378
4.92267e-05
0.020991
0.000829447
0.176536
0.00140224
0.0471794
0.000252719
0.000530817
0.00443429
7.87849e-05
0.00138021
0.241305
0.000445326
0.386469
0.415599
0.00125879
0.000751539
0.00117527
0.227654
0.00129384
0.0441881
0.279153
0.00172819
0.000665632
0.102454
0.000102238
0.00187709
0.000105519
6.02769e-05
0.317725
0.000891524
0.00903503
0.0429686
0.000100788
0.000102677
0.00490119
0.000266257
0.000711757
0.00162589
0.000103052
4.80211e-05
0.00113598
0.0198327
8.99208e-05
0.252688
8.12549e-05
0.0176162
0.000770976
9.43582e-05
0.0212013
7.32914e-05
0.00529525
0.00954154
0.14381
0.000757968
0.00694373
0.0730047
0.00163777
0.316487
0.15135
0.0234494
0.0100901
0.00107627
0.000287775
0.000175328
0.000320942
0.440341
0.00376259
0.0181805
0.000347837
0.00403537
0.000185025
0.00212746
7.28457e-05
0.000339274
0.00117994
0.425882
0.14949
0.350932
0.164819
0.00552322
0.000200807
0.000755753
0.000680065
0.000147687
8.8215e-05
0.00960726
0.322732
0.0204119
0.000330088
8.62553e-05
0.00509188
0.000107239
0.000820254
0.000117333
0.00062559
0.00144405
0.508122
0.01886
0.00829072
7.90488e-05
0.000108969
0.341771
0.000290913
0.336637
0.0175822
0.00029308
0.00331922
0.00020288
0.390512
0.421173
0.362548
0.000688453
0.000103156
0.000468659
0.00759199
8.39267e-05
0.000284804
0.000557649
6.77366e-05
0.000153162
0.00114723
0.0160825
0.000765634
0.00032219
0.0038365
0.0373946
0.0162273
0.000106588
0.000380779
0.00030586
0.00214997
0.000545515
0.000115393
8.79391e-05
0.00335152
4.90468e-05
0.000817283
0.00567673
0.246775
7.878e-05
0.222647
0.0957426
0.00361337
7.27579e-05
7.49008e-05
0.000168159
4.73364e-05
0.0926237
9.34829e-05
0.242733
7.41943e-05
0.397077
0.000137043
0.000943038
0.000702788
6.84721e-05
5.07657e-05
0.00176091
0.042432
0.0008593
0.00107772
0.000622897
0.0335874
0.000219691
0.00209045
0.0525568
0.000993851
0.0212218
0.000485211
0.000382119
0.000880083
0.0562558
0.0599506
0.000300056
0.0564742
0.0189791
0.368944
5.13216e-05
0.182529
0.0272237
0.0254747
0.000487422
0.341759
0.333923
0.101145
0.092984
0.479648
0.0304327
0.0128039
6.54293e-05
0.00176436
0.0729884
5.87185e-05
0.00239168
0.00101657
0.0001647
4.84624e-05
0.217732
0.0161828
0.356986
0.230747
0.00913799
0.272349
0.000211095
0.368923
0.00944809
0.0132735
0.000101554
0.000348724
0.00089013
0.00105021
0.000148915
0.000193659
0.268962
0.0035796
0.0106493
0.0410525
0.115254
0.383707
0.0625986
0.356048
0.00252667
5.03045e-05
0.247319
4.75031e-05
5.26543e-05
0.000104421
0.000544633
0.0679449
0.00470184
0.0489119
0.00474044
0.00228422
0.443713
0.0977358
0.00340313
0.000226866
0.0145958
0.000642615
0.00139059
0.0262933
0.0946754
0.0234922
0.000747043
0.000143486
6.38845e-05
0.41439
0.337604
0.312732
0.131636
0.000866898
0.387906
0.0789559
0.213641
0.00020472
0.0644756
0.00220185