/*--------------------------------*- C++ -*----------------------------------*\
| =========                 |                                                 |
| \\      /  F ield         | OpenFOAM: The Open Source CFD Toolbox           |
|  \\    /   O peration     | Version:  v2012                                 |
|   \\  /    A nd           | Website:  www.openfoam.com                      |
|    \\/     M anipulation  |                                                 |
\*---------------------------------------------------------------------------*/
FoamFile
{
    version     2.0;
    format      ascii;
    class       volScalarField;
    location    "2.1795778";
    object      T;
}
// * * * * * * * * * * * * * * * * * * * * * * * * * * * * * * * * * * * * * //

dimensions      [0 0 0 1 0 0 0];


internalField   nonuniform List<scalar> 
353077
(
295.151
295.15
295.15
295.15
295.202
295.16
295.15
295.15
295.215
295.15
295.151
295.151
308.811
295.15
295.15
295.413
295.151
305.901
295.151
295.15
310.187
295.15
295.15
302.552
295.15
295.15
295.151
295.15
295.15
295.152
295.146
295.15
298.142
295.15
295.15
295.351
296.041
295.15
295.15
295.15
295.15
295.15
295.15
295.15
295.15
295.15
295.15
295.15
295.15
302.571
295.15
295.15
295.15
295.15
295.151
295.151
295.15
295.15
295.302
295.15
295.15
295.15
295.232
295.15
311.531
295.15
295.15
295.15
305.054
295.15
295.15
295.051
295.097
295.15
295.006
295.15
295.151
308.707
311.555
295.241
295.137
295.15
308.247
303.532
295.08
295.152
295.152
295.152
295.15
311.361
311.19
295.589
295.15
295.318
295.15
295.15
295.151
295.151
295.15
295.15
295.166
295.15
295.15
295.154
296.771
295.161
295.15
295.439
295.15
295.15
295.151
295.15
295.15
295.15
295.163
295.151
295.381
310.887
295.15
295.15
295.151
295.153
295.15
295.08
295.156
295.15
295.15
295.15
295.15
295.156
295.14
295.15
295.162
295.15
295.15
295.151
295.56
295.151
295.15
295.15
294.852
295.16
295.15
295.15
294.874
295.029
295.149
295.379
295.013
311.254
294.991
294.9
295.193
295.711
295.127
295.15
295.15
295.15
295.15
295.223
295.15
295.15
295.15
295.15
295.15
295.202
297.677
295.15
295.15
295.15
295.151
295.087
295.233
295.15
295.15
295.228
295.15
295.155
298.617
295.153
295.15
295.15
295.17
295.15
295.15
295.15
295.15
295.485
303.631
295.151
295.94
295.15
295.15
295.191
311.367
311.152
295.557
295.159
295.156
295.168
295.395
310.901
295.248
295.15
295.166
295.15
295.177
295.15
298.527
295.15
295.15
295.146
295.19
295.15
295.148
295.15
295.116
308.539
295.15
295.201
308.781
295.15
295.181
295.15
295.15
295.15
295.513
310.897
296.217
295.324
295.473
295.15
295.15
295.4
295.106
295.15
295.15
296.177
295.149
295.425
295.15
295.241
295.132
295.15
295.15
295.15
295.15
295.15
305.493
295.15
295.15
295.15
295.15
295.334
303.074
295.253
295.205
295.15
295.209
295.15
295.15
295.403
311.143
297.385
295.192
295.26
296.363
295.168
296.282
295.447
295.32
311.276
295.239
295.15
297.593
295.155
300.125
295.153
308.503
295.15
310.29
308.778
295.197
295.15
295.15
296.158
295.142
295.15
295.755
295.154
295.15
308.664
295.15
295.15
295.149
295.658
295.15
295.15
295.15
295.608
303.7
308.051
295.15
306.902
295.15
295.456
295.149
295.357
295.699
295.646
295.15
295.15
295.15
295.15
310.468
311.434
295.452
311.013
295.42
298.153
311.462
296.684
311.286
295.36
295.15
311.825
294.873
295.273
295.318
298.582
295.371
295.333
295.458
294.918
310.269
294.799
299.874
295.151
294.926
311.387
295.132
295.15
295.292
294.846
295.409
294.907
295.15
295.519
295.15
295.15
295.15
300.24
309.768
295.583
311.092
295.149
295.151
295.15
295.29
295.405
297.206
295.547
302.359
295.628
301.793
295.452
295.15
295.107
295.164
303.073
295.73
309.751
310.704
311.049
295.15
295.153
295.15
295.15
295.15
295.174
295.15
296.12
295.561
296.192
297.471
295.345
295.15
295.49
295.388
310.499
295.158
295.15
295.15
295.046
295.15
296.725
309.911
295.153
295.242
295.974
295.15
295.347
295.15
295.171
295.06
295.614
295.15
295.155
295.152
295.525
295.204
295.15
295.15
295.15
295.15
305.358
295.151
295.21
295.15
310.983
295.151
311.751
295.266
295.15
295.153
295.152
295.15
307.331
309.837
311.028
295.412
307.768
295.15
295.286
310.958
295.151
295.15
309.413
295.4
307.611
295.145
295.263
295.131
295.129
295.158
295.15
295.427
295.137
295.373
295.149
295.15
295.15
304.751
295.146
295.15
295.15
308.862
298.159
295.15
310.793
304.156
295.758
295.062
310.819
295.351
295.413
295.469
296.289
295.15
295.15
295.466
295.349
295.247
295.512
295.513
295.474
295.15
295.148
295.19
295.396
295.15
295.73
295.152
295.15
295.419
295.15
301.299
295.302
295.154
307.922
295.402
295.86
295.832
295.15
311.689
295.15
295.223
310.17
295.745
295.15
295.66
295.15
295.212
311.36
307.348
295.098
295.15
295.15
295.745
295.131
309.658
295.17
309.779
295.15
295.15
311.353
311.475
295.15
295.15
295.948
295.917
295.05
298.113
307.169
295.15
311.36
295.15
310.16
295.15
295.594
295.944
295.384
295.15
310.442
295.158
295.15
295.973
296.119
296.006
295.15
295.86
295.05
298.373
295.737
295.15
295.168
295.301
305.87
300.447
295.692
302.842
295.698
295.159
295.27
295.144
295.15
295.149
311.73
295.15
310.464
295.766
305.759
295.15
296.564
295.165
295.154
311.317
295.065
295.08
298.258
309.204
295.15
295.15
295.15
311.228
295.15
295.186
295.15
302.146
296.549
295.15
295.156
306.411
295.096
295.378
296.653
295.15
310.32
295.15
308.107
295.121
300.335
295.163
309.398
295.147
295.15
295.113
296.652
295.151
295.15
295.15
295.19
296.501
296.601
296.248
295.106
307.783
311.343
311.299
295.15
295.15
296.338
306.879
311.048
295.831
295.15
295.15
295.154
296.384
311.247
307.271
295.138
295.15
296.251
296.493
295.15
311.083
299.831
295.15
295.15
295.15
296.058
310.99
295.15
306.016
295.16
295.15
295.948
310.726
295.15
295.15
295.15
311.389
295.155
295.171
295.273
295.15
295.15
296.196
295.44
300.269
295.166
295.15
295.15
296.543
295.15
295.15
296.434
299.277
295.15
295.312
295.15
295.15
295.15
310.369
295.15
295.162
309.121
295.15
296.576
295.15
296.395
295.15
311.439
295.15
295.786
295.15
296.496
295.155
295.15
296.491
309.438
295.15
295.156
311.372
296.402
303.254
295.565
295.109
296.525
295.15
296.657
308.671
295.15
295.15
296.633
295.15
305.734
298.035
296.646
296.682
294.974
296.064
296.162
295.122
295.166
295.412
299.187
295.149
297.345
295.046
295.58
295.681
295.068
311.355
295.551
311.237
295.043
295.024
295.558
307.769
310.091
308.559
295.395
295.192
295.548
295.062
295.559
295.025
309.592
295.381
297.044
295.387
300.305
295.849
309.055
295.343
307.962
310.874
295.15
295.153
295.15
295.15
311.863
295.629
311.2
311.618
311.279
295.692
295.226
295.158
295.403
298.344
295.15
295.15
295.152
295.15
311.495
295.174
295.15
307.941
295.229
295.595
295.15
295.167
295.15
310.002
295.211
295.17
295.151
295.15
295.173
295.143
306.842
295.176
295.15
295.612
295.15
295.15
311.054
295.105
295.132
311.025
310.001
295.107
295.105
295.568
295.092
295.148
295.097
295.15
295.15
310.778
295.15
295.096
295.155
300.376
295.15
295.15
295.151
310.314
295.075
295.15
295.135
311.624
310.33
295.15
295.15
295.402
295.15
311.449
295.152
295.164
307.249
295.15
295.158
311.712
295.626
295.259
295.544
295.15
295.148
295.412
295.25
295.15
295.15
295.36
308.513
296.979
295.154
308.579
295.11
307.077
307.817
295.15
295.268
295.15
311.525
295.15
295.244
296.92
311.5
310.655
310.001
310.489
295.225
295.256
295.498
299.716
311.592
295.165
295.149
295.15
295.176
295.165
295.15
295.15
295.595
297.242
295.192
311.497
295.184
310.942
311.323
295.171
295.152
310.772
295.513
295.15
295.15
309.127
305.494
295.15
311.648
295.15
295.15
311.731
295.231
295.15
295.15
295.15
295.248
295.207
310.937
295.339
295.15
295.154
295.15
310.721
310.885
295.15
305.107
295.248
311.325
295.15
294.965
295.15
295.15
295.15
295.502
296.263
295.187
295.076
295.187
295.15
295.15
295.189
311.302
311.514
309.441
310.517
295.043
294.996
311.564
295.206
295.15
308.81
303.566
311.865
298.864
295.15
295.709
295.749
295.771
305.28
294.974
295.153
296.171
296.32
295.15
311.331
295.523
310.764
311.715
295.345
294.973
295.15
295.566
296.16
298.628
311.352
311.771
295.58
295.15
310.869
311.553
295.149
295.15
295.244
295.169
295.386
295.15
295.11
295.118
295.15
296.049
296.049
295.15
311.781
311.354
310.289
295.837
295.15
311.475
310.971
295.15
311.767
311.757
295.15
311.156
295.175
295.151
305.286
295.15
295.195
295.609
295.15
295.159
295.159
295.136
295.15
295.15
302.194
295.711
295.473
311.584
304.231
295.15
295.15
295.15
307.362
302.464
311.668
295.15
295.289
296.022
295.263
311.27
295.227
308.95
295.119
310.756
311.509
311.505
295.439
295.15
308.858
308.671
296.013
295.15
295.725
295.152
311.427
295.584
310.697
311.5
295.15
295.696
295.15
295.617
311.624
295.595
296.876
308.369
303.13
308.097
295.15
309.094
296.034
295.15
296.173
311.804
295.876
296.376
308.442
295.28
296.023
310.814
295.15
311.661
297.755
295.15
295.056
296.26
295.58
309.102
296.16
295.15
295.544
309.167
295.64
295.819
295.15
307.321
311.191
295.59
311.514
295.102
311.452
295.15
295.15
295.15
295.15
295.396
295.068
310.031
295.274
295.081
311.555
295.15
296.159
295.884
296.028
295.151
295.194
295.15
295.149
307.727
295.15
311.804
296.405
295.15
295.15
296.639
296.575
295.154
295.151
296.423
295.154
311.753
295.15
295.27
295.15
295.338
295.228
295.205
308.312
295.15
311.402
295.279
295.155
297.372
295.395
295.333
311.533
296.323
296.169
296.278
311.166
311.407
295.15
295.15
295.138
296.277
309.995
311.274
311.17
310.752
307.895
311.415
295.15
296.217
311.322
309.197
296.529
295.15
295.18
295.358
295.461
303.109
307.219
295.15
295.266
295.15
295.334
295.15
311.266
295.15
308.773
295.15
311.577
295.151
295.162
311.274
295.533
295.222
295.151
295.212
295.15
311.416
309.888
308.75
311.812
295.152
306.3
295.235
295.153
310.935
295.15
295.133
295.332
295.164
310.579
295.15
305.551
310.905
295.157
295.154
310.603
295.15
295.305
295.161
295.14
295.15
295.15
297.729
310.886
296.493
295.263
299.526
295.434
295.15
295.15
310.657
295.15
295.366
295.15
295.216
296.276
295.15
295.417
295.149
299.867
311.416
295.15
295.376
311.226
295.15
300.604
295.334
295.115
295.15
311.412
295.327
295.15
308.549
310.844
295.461
295.15
295.186
311.131
311.586
295.354
295.36
295.222
295.15
306.707
295.15
297.025
311.145
311.414
306.221
295.15
311.407
308.924
311.499
295.15
311.305
295.153
295.383
295.386
295.151
295.151
301.926
309.029
295.394
307.086
295.343
305.874
310.549
298.423
296.022
306.471
311.083
311.47
311.598
305.845
295.15
299.042
311.247
295.15
306.066
295.172
295.15
295.15
295.15
295.108
311.26
295.122
295.15
295.154
295.177
295.15
295.169
310.065
295.168
295.161
295.29
295.325
295.447
295.044
295.159
295.115
295.419
295.542
311.253
295.15
308.585
295.127
295.293
295.693
299.206
309.204
295.205
295.15
311.627
311.216
295.15
295.135
303.012
311.517
311.198
295.15
295.151
308.981
295.15
311.468
311.261
295.991
295.15
295.152
295.15
295.15
295.194
308.547
306.65
295.15
295.151
295.15
295.16
295.15
304.105
295.15
295.15
295.15
303.222
295.15
295.15
295.159
295.152
310.387
298.293
295.15
311.566
310.209
295.156
311.11
295.15
310.373
311.163
310.864
310.958
309.573
310.963
308.394
311.592
295.152
295.15
295.15
309.331
295.15
298.958
311.215
311.393
298.035
310.902
300.602
311.051
311.583
310.897
295.15
295.16
295.152
295.15
295.119
306.321
295.154
295.15
295.152
295.15
295.15
294.741
311.004
295.182
295.168
295.111
295.15
295.15
295.333
295.163
295.207
295.168
311.288
311.824
295.15
311.535
295.15
295.15
295.155
295.355
295.15
295.154
295.15
295.15
305.883
295.15
296.108
295.15
311.498
295.159
295.15
295.158
295.15
295.15
295.15
311.467
295.162
295.401
295.15
295.15
295.558
295.15
307.567
295.15
295.15
298.846
295.15
295.15
310.283
295.455
300.989
295.352
295.152
295.15
311.775
295.169
311.46
295.186
295.492
295.15
295.15
295.192
311.317
295.15
295.478
295.105
295.15
295.15
311.459
295.15
296.124
307.032
295.15
295.15
307.909
304.382
295.15
295.121
295.15
308.787
295.15
295.15
295.27
297.276
295.15
295.15
311.431
295.152
303.644
295.658
295.15
295.242
295.15
295.15
311.553
306.749
302.526
311.282
295.15
302.909
295.15
295.151
295.102
295.15
311.35
295.185
295.15
295.15
295.15
296.251
304.649
311.283
308.535
303.464
295.15
295.12
295.152
295.081
295.074
311.248
295.15
298.532
301.047
311.455
295.677
309.028
300.162
295.149
295.111
309.031
311.36
295.15
295.163
295.15
295.366
295.262
295.998
295.153
311.51
296.025
307.072
311.381
295.177
296.581
295.149
295.707
304.929
295.615
295.933
295.15
295.239
311.448
311.045
295.256
295.19
311.513
295.19
295.15
295.169
295.15
295.492
305.888
295.253
311.187
295.411
295.15
295.21
295.739
295.15
310.213
300.684
295.15
295.563
295.164
295.34
296.434
294.981
295.426
297.104
296.412
309.607
294.999
307.75
295.152
295.15
309.402
295.15
311.751
295.937
295.17
295.541
295.441
298.2
311.356
295.056
295.651
295.15
311.345
295.055
295.135
295.489
295.446
295.151
295.317
298.063
311.222
311.603
295.594
311.825
295.161
311.621
295.547
295.022
295.151
295.15
295.151
295.15
295.719
295.15
295.15
311.47
311.254
295.15
295.15
295.15
295.15
295.15
295.23
295.15
310.418
295.15
307.111
311.119
298.268
311.56
295.682
295.192
311.671
311.722
295.151
295.137
311.736
295.3
295.15
295.175
311.382
295.445
295.15
311.408
295.187
295.467
295.684
311.097
295.15
311.105
296.641
295.15
295.153
311.418
310.255
295.15
295.15
295.313
295.151
295.441
295.15
310.773
295.167
295.15
295.151
295.143
295.193
295.276
309.997
295.151
295.2
295.241
311.355
295.287
295.15
311.419
311.682
295.15
295.123
295.151
295.14
296.934
295.248
295.202
310.923
295.123
311.243
308.93
295.15
310.536
301.941
295.096
295.136
295.159
295.278
295.151
301.623
295.171
307.611
295.15
301.972
307.781
295.15
295.092
308.298
295.162
309.25
295.808
306.84
295.15
295.151
295.048
295.151
304.488
295.155
311.27
295.341
306.957
296.206
306.75
308.755
295.152
295.15
307.631
295.152
295.154
295.152
295.157
295.153
295.107
297.07
295.121
311.039
295.138
295.152
295.116
311.702
311.835
295.15
295.166
295.15
295.217
311.574
295.15
295.187
295.135
295.161
310.114
311.724
295.206
295.15
295.131
295.176
311.378
310.479
295.057
311.052
310.821
295.15
295.034
295.171
295.191
296.083
309.196
311.328
308.443
295.115
295.15
295.131
295.357
311.56
309.931
295.138
295.15
295.15
295.151
295.165
295.116
295.15
295.04
296.292
311.116
295.184
309.873
295.205
295.15
295.158
295.149
311.618
295.15
295.15
295.149
295.149
295.127
295.149
295.293
295.152
295.15
295.116
310.121
311.129
296.128
295.137
311.337
295.15
295.15
295.149
295.15
295.149
295.137
295.152
307.673
295.15
295.527
295.224
300.019
295.137
295.15
295.161
295.089
306.144
309.829
297.5
295.085
295.3
295.117
295.151
295.15
311.711
295.149
295.15
310.193
309.665
295.152
295.159
295.151
295.143
295.152
311.48
309.825
295.15
295.161
295.151
295.15
295.177
295.148
295.254
295.573
295.243
295.15
295.15
311.375
310.99
295.15
295.098
295.083
295.15
295.15
295.15
295.129
295.15
295.121
295.143
308.333
311.426
295.164
295.159
310.824
295.152
296.894
295.52
295.15
303.96
296.466
295.15
295.15
295.106
311.299
295.15
295.15
309.186
303.852
295.466
295.164
295.15
295.605
311.496
295.15
296.764
296.402
295.256
295.15
295.15
295.15
311.757
295.428
311.448
295.437
296.205
308.749
296.306
295.225
307.794
295.15
296.461
311.531
296.417
295.176
306.131
295.157
295.152
311.602
295.15
301.851
295.15
295.15
295.155
295.151
295.226
295.15
295.15
295.15
295.089
295.15
295.15
295.407
295.15
295.15
295.15
304.499
295.15
295.599
295.15
303.432
295.15
302.903
295.253
304.862
295.149
295.15
295.158
311.722
295.234
295.15
311.454
311.44
311.48
295.15
295.15
295.181
295.161
295.154
295.151
310.286
295.544
296.417
295.186
304.575
295.151
295.934
295.318
295.209
295.197
295.186
295.154
295.771
295.856
310.611
310.663
303.781
302.53
311.392
300.027
303.861
295.175
304.036
295.15
295.426
295.15
295.156
309.785
295.153
295.15
295.15
295.15
295.15
295.15
295.15
295.15
295.218
295.349
305.856
295.15
311.483
295.15
295.15
295.152
295.3
295.135
294.992
310.942
311.33
302.009
295.15
295.154
295.066
295.174
295.15
295.152
295.15
311.313
295.15
295.151
309.572
308.719
311.383
295.15
295.15
295.152
295.173
295.15
307.443
295.15
304.856
295.149
295.162
295.15
295.15
307.977
295.15
295.15
311.476
295.151
295.151
295.151
295.058
295.15
295.15
295.151
310.46
310.526
295.151
295.153
295.15
295.665
306.578
295.15
295.167
295.15
295.383
295.15
295.151
295.15
311.376
295.242
311.46
295.156
311.475
311.25
309.701
295.15
309.612
295.809
309.489
295.15
309.162
295.849
295.346
295.198
295.183
311.632
295.15
295.185
295.15
295.183
310.854
295.518
295.15
295.15
295.15
311.441
311.756
310.078
310.964
295.273
294.789
311.239
311.445
308.941
306.7
295.15
295.34
295.121
310.755
297.704
295.15
295.173
295.15
295.326
295.161
295.142
295.15
295.085
306.926
295.151
295.15
307.881
295.15
295.15
295.162
295.088
296.183
295.153
311.069
307.016
295.15
295.177
310.943
295.051
295.117
295.523
310.029
295.084
295.161
295.089
295.15
295.894
295.157
309.074
308.582
295.85
311.147
295.154
295.234
295.411
295.124
295.15
295.256
295.169
295.15
304.522
295.127
311.427
311.045
295.129
295.147
295.962
295.204
295.15
310.914
311.654
295.215
299.938
310.895
310.392
295.15
295.178
295.15
311.351
295.15
295.15
295.15
295.15
295.188
295.16
310.927
310.589
295.15
311.487
311.146
311.554
295.15
295.158
295.15
295.15
307.388
295.15
295.15
295.153
295.15
311.479
295.15
295.15
295.16
307.786
311.004
308.784
311.735
295.15
295.15
310.793
295.707
310.83
311.33
310.715
295.15
295.174
308.41
295.158
308.395
311.356
309.106
295.164
308.768
295.149
295.216
295.203
295.188
295.151
306.11
295.227
295.17
295.15
295.172
311.472
295.153
295.152
295.151
295.593
295.155
295.15
295.672
295.307
295.15
300.262
295.15
296.497
295.148
295.15
311.429
295.15
295.773
295.15
295.31
295.15
295.156
295.152
295.151
295.15
295.15
295.15
295.215
310.989
295.112
295.15
295.15
295.16
295.15
311.567
295.157
295.157
295.15
295.15
295.15
311.447
295.156
295.15
295.15
295.151
295.153
295.15
295.15
295.026
295.153
300.678
295.154
310.084
295.199
295.15
295.151
295.15
306.585
307.073
296.402
295.349
308.087
306.539
295.697
296.423
309.622
311.137
295.154
307.244
295.143
295.15
295.15
295.155
295.154
294.936
295.154
311.026
309.846
295.159
311.534
295.15
295.15
295.151
295.15
295.15
295.15
295.15
295.151
295.27
295.125
296.014
295.15
298.903
295.82
302.54
295.15
295.15
295.212
295.151
295.458
295.15
295.15
296.637
295.538
295.15
295.15
295.15
295.151
295.522
295.15
310.843
294.857
295.15
295.15
295.601
303.485
294.891
295.151
295.15
295.152
300.956
295.151
295.15
294.85
311.298
308.88
308.7
308.185
295.187
308.671
309.155
295.15
295.609
311.177
296.136
308.414
295.15
296.725
311.237
295.15
295.296
295.219
295.15
295.156
295.152
295.15
296.537
311.369
309.966
310.911
295.154
295.151
295.406
295.15
295.152
295.152
295.153
295.955
295.15
310.564
311.665
295.26
295.848
295.709
310.793
295.152
295.426
309.181
295.795
311.208
295.177
295.238
296.28
295.875
295.59
308.85
295.219
295.15
311.788
295.871
295.151
308.132
295.15
295.302
295.301
295.15
295.206
295.406
295.223
311.602
295.15
296.624
295.219
295.151
295.166
295.15
295.15
295.15
295.15
311.439
299.518
295.15
295.317
295.15
295.256
295.169
295.724
295.15
295.15
310.807
295.163
295.15
295.15
309.3
295.64
295.15
295.15
295.152
311.223
311.819
295.154
297.191
295.152
295.223
295.175
295.182
295.2
295.15
295.15
302.617
295.398
295.163
295.15
295.15
295.843
295.15
295.164
296.22
301.685
295.164
295.148
295.15
295.15
311.167
295.15
295.15
295.16
295.15
295.164
295.351
295.15
308.062
295.15
295.15
295.15
295.283
295.161
295.15
295.329
295.15
295.15
295.15
295.165
295.154
295.15
298.986
295.155
295.15
311.053
295.15
295.15
310.956
295.1
295.164
295.134
295.486
311.195
311.395
295.15
295.17
295.185
295.15
311.842
295.521
295.555
295.419
311.15
311.127
311.234
295.15
295.151
297.231
295.705
311.234
295.15
295.15
295.971
309.365
295.15
295.364
296.424
309.066
295.15
295.558
295.152
295.188
295.165
295.15
295.15
295.15
295.469
310.994
311.126
295.15
295.435
295.155
295.229
295.154
295.767
309.134
295.15
295.39
295.13
295.15
295.15
295.15
295.15
311.524
295.154
295.31
295.15
295.15
295.15
295.152
295.593
295.155
295.156
295.15
295.15
295.153
295.159
295.15
295.15
295.15
295.148
295.233
295.15
295.243
295.15
295.765
296.38
306.949
295.21
295.957
295.204
295.314
295.534
295.309
295.394
295.737
295.246
295.152
296.766
295.152
311.518
295.691
296.542
295.277
295.15
295.15
295.386
295.15
295.137
295.149
311.299
295.541
311.57
295.15
295.115
295.148
295.144
295.149
295.15
295.15
295.14
310.647
295.15
295.153
295.15
295.171
295.15
295.139
295.155
295.16
295.172
311.81
295.164
295.237
295.15
295.15
310.273
295.154
311.328
295.15
295.153
295.604
295.15
311.317
311.541
310.519
295.112
295.15
295.154
295.15
295.15
295.183
295.165
295.15
295.152
295.189
297.266
295.161
295.152
295.15
300.177
298.674
295.15
295.228
295.153
295.202
295.25
295.15
295.15
295.152
295.15
295.267
295.151
309.201
295.15
308.901
295.53
295.398
295.15
295.15
296.573
295.15
308.72
295.153
310.481
295.15
311.337
295.15
295.2
295.166
295.148
295.15
295.412
308.243
295.175
295.15
295.167
295.15
295.15
295.151
307.886
295.177
295.021
295.181
295.147
295.537
301.202
295.152
296.036
295.128
295.006
295.15
295.15
307.444
295.152
295.15
295.15
310.412
310.218
295.149
295.151
311.562
298.378
296.647
295.15
295.138
302.452
295.15
295.152
295.15
295.15
295.15
295.15
295.128
311.035
309.423
296.333
309.777
295.168
310.895
296.419
295.159
295.15
295.818
295.15
295.149
295.499
295.15
311.446
295.141
295.15
295.15
304.811
311.165
295.932
311.692
295.102
295.15
310.004
295.15
295.15
295.151
295.124
295.15
296.13
295.15
295.136
295.151
311.262
295.15
295.341
295.484
295.149
295.233
295.089
295.151
295.151
295.15
295.321
295.15
295.15
311.085
310.633
310.681
305.631
295.281
311.722
295.198
308.341
295.15
295.15
295.15
296.212
295.164
295.149
295.15
311.525
306.65
295.15
295.148
295.12
295.15
295.15
310.328
295.15
295.15
295.15
311.107
311.634
295.147
295.157
295.466
295.15
295.14
295.15
295.209
295.409
295.155
295.15
295.15
295.151
311.682
295.15
295.15
307.129
295.154
308.768
310.99
310.865
295.15
295.15
295.149
295.15
310.994
311.311
295.157
295.15
295.154
295.156
311.276
295.152
310.528
311.039
306.89
295.15
295.15
296.948
295.151
295.151
310.63
295.16
295.149
295.15
295.15
295.15
295.149
303.321
295.15
295.15
295.15
295.15
295.15
298.011
295.271
295.191
295.15
295.15
302.337
310.51
295.15
295.15
295.15
295.328
295.15
295.15
295.15
295.17
295.158
311.531
311.299
295.15
295.15
295.15
295.15
295.15
295.15
295.185
310.638
311.783
295.166
295.15
295.477
295.07
295.042
295.15
310.698
304.451
311.337
295.175
295.173
295.15
298.14
295.15
295.06
295.038
295.175
295.164
295.15
295.151
295.178
305.211
295.149
295.118
295.199
295.047
311.283
310.99
295.058
310.529
295.148
295.15
295.174
311.082
305.474
295.347
295.142
310.629
295.151
295.189
295.166
295.799
295.168
295.15
295.15
295.154
295.155
295.154
295.152
295.15
295.152
295.152
295.154
295.15
297.287
296.997
295.152
295.151
295.15
295.102
310.121
295.15
295.31
295.15
308.424
295.456
296.104
295.149
295.15
295.151
295.15
295.15
295.533
295.15
295.408
295.15
295.15
295.159
295.15
295.15
295.15
296.318
295.15
295.268
295.152
295.15
295.15
295.153
295.149
295.162
295.152
295.155
295.15
295.151
295.15
295.15
295.156
295.15
308.536
295.154
305.03
295.173
295.151
295.253
295.303
295.151
295.109
295.15
294.984
295.15
295.15
307.776
295.15
295.148
295.15
295.15
296.448
295.15
295.15
295.15
295.15
295.15
295.15
295.327
295.396
295.16
295.156
298.971
295.15
295.15
310.84
295.151
295.151
295.15
295.15
302.646
309.731
295.151
295.15
295.151
309.64
295.15
311.511
295.15
295.15
295.15
308.695
295.15
295.15
311.351
311.657
297.975
311.435
297.9
295.15
302.682
295.156
295.15
295.15
295.562
295.641
307.726
306.917
295.171
308.864
295.261
311.897
295.15
295.15
295.15
297.699
295.084
302.324
295.234
301.432
296.756
295.15
309.737
295.282
311.323
311.425
295.171
295.15
311.396
296.735
304.865
299.799
310.276
295.152
295.153
295.15
295.153
295.154
311.405
302.121
309.088
295.678
295.153
304.176
295.235
295.151
295.154
295.221
295.206
295.21
295.669
295.286
295.175
311.744
295.154
295.151
311.342
295.156
295.156
295.351
295.142
311.421
311.424
309.956
311.33
295.15
295.664
310.538
295.153
295.167
295.178
295.161
311.415
310.4
310.205
295.153
295.151
298.634
311.752
295.15
306.912
306.145
295.158
295.166
295.505
295.278
306.63
311.79
295.508
296.43
295.189
295.916
308.152
295.15
307.953
310.872
295.893
299.021
307.201
295.548
295.15
295.873
295.167
295.149
295.261
308.836
311.171
295.21
309.579
295.15
306.812
295.15
296.295
309.724
311.4
295.717
310.754
295.373
299.215
295.15
295.373
295.473
295.193
295.294
311.102
306.359
302.672
295.295
309.06
295.157
301.917
311.669
311.289
295.164
310.468
295.156
295.157
295.624
295.155
308.769
295.102
295.561
295.311
295.12
295.15
295.168
311.622
295.164
311.454
295.833
295.114
301.643
295.15
295.155
310.946
295.164
295.52
295.153
295.156
295.15
295.15
295.15
295.15
295.284
295.15
295.164
311.339
295.15
295.16
295.237
310.529
296.18
297.122
295.156
296.494
307.578
295.166
311.27
295.575
295.15
295.15
295.15
302.005
295.152
309.456
295.15
295.151
295.185
295.158
296.442
310.758
295.15
295.164
295.15
310.151
295.157
295.15
295.28
295.235
303.837
295.172
295.152
295.283
295.165
295.153
311.409
295.159
311.214
296.494
295.15
296.406
295.359
295.264
295.165
295.15
295.15
295.16
295.15
296.539
295.15
295.15
295.154
295.15
295.172
295.152
295.15
295.15
295.152
295.156
295.188
306.467
295.152
305.428
302.474
309.282
295.154
304.237
309.132
295.151
295.15
297.037
306.374
307.063
295.151
295.082
311.148
294.977
310.677
295.154
295.137
295.15
295.246
311.622
295.07
295.157
295.368
296.788
295.494
311.853
295.15
295.153
295.507
307.259
295.156
295.16
308.956
308.43
295.151
298.775
295.153
295.152
295.137
295.525
295.153
295.15
295.15
295.064
295.149
296.134
295.15
295.153
295.15
295.15
295.15
295.15
295.165
295.15
295.152
295.15
310.827
295.15
295.15
307.957
295.15
295.15
295.15
295.155
295.15
310.565
295.15
295.15
311.397
295.15
295.161
311.286
311.166
295.486
295.233
295.15
311.653
295.161
295.454
295.159
295.159
311.786
295.15
311.171
295.15
295.15
310.888
295.15
311.292
295.155
295.124
295.15
295.149
295.15
308.816
295.15
304.997
306.015
295.152
295.15
311.797
308.041
295.151
310.732
295.15
309.72
295.15
311.56
311.438
311.699
295.152
295.15
303.472
303.184
295.148
295.151
295.15
295.15
309.616
311.26
305.083
305.098
295.146
311.082
295.153
309.532
295.15
295.15
304.767
308.451
311.872
311.072
310.666
295.15
295.147
295.15
295.15
311.378
295.154
311.09
311.389
295.153
311.519
311.005
295.15
294.944
311.719
298.15
299.654
295.15
295.15
310.785
295.151
301.922
295.036
294.867
308.287
311.625
294.95
295.075
306.516
310.522
311.035
308.675
294.997
294.918
295.15
295.107
295.15
295.149
295.145
294.994
304.271
295.098
300.974
295.142
311.613
304.067
295.149
296.852
303.651
295.15
296.276
295.15
310.914
309.867
311.09
311.335
311.137
295.151
295.15
309.132
295.149
295.15
295.15
306.417
295.15
311.592
311.024
295.15
295.22
303.394
295.15
295.18
295.15
311.2
295.15
295.158
295.15
295.148
295.155
311.782
295.15
311.188
303.096
296.181
295.88
306.235
295.15
295.147
295.15
295.15
295.287
295.156
295.561
311.602
295.15
310.691
295.15
296.64
295.151
295.673
295.329
295.15
295.17
309.298
295.15
295.15
295.15
295.238
295.15
295.16
303.559
308.929
304.934
295.15
295.152
295.155
310.999
295.156
295.15
295.15
295.15
295.152
295.15
311.146
295.154
295.808
295.151
297.289
295.15
311.35
308.024
295.539
295.15
311.311
308.396
311.341
311.365
311.229
311.372
302.691
311.226
295.143
295.15
295.26
311.506
295.346
295.676
307.372
295.15
295.15
295.28
295.15
299.761
295.15
294.375
308.274
295.15
307.927
295.153
295.15
295.15
295.15
311.47
295.151
295.15
295.155
295.312
295.15
295.151
295.15
295.151
295.152
295.161
295.152
295.152
296.383
295.15
295.264
295.25
295.152
308.804
295.15
295.241
311.244
311.242
295.469
295.15
305.711
296.139
295.15
295.165
295.152
295.592
295.155
295.151
295.155
310.986
295.151
295.15
311.064
295.15
298.091
295.154
295.15
295.15
311.106
295.151
295.15
295.27
295.15
308.819
311.669
295.174
310.867
295.154
295.15
295.15
295.15
311.723
295.191
295.155
295.151
295.15
311.484
295.153
295.163
295.151
295.15
311.061
298.416
295.151
311.347
295.226
295.151
297.924
311.286
295.15
295.152
311.58
295.151
295.258
295.15
311.44
310.867
295.219
295.468
295.15
295.155
295.145
295.155
295.209
295.346
298.497
295.637
295.577
295.15
295.163
308.951
311.152
311.338
295.15
310.606
311.362
298.31
311.132
295.153
311.597
295.542
295.826
295.15
295.207
311.21
309.548
295.15
295.153
295.224
295.151
311.566
295.15
295.253
295.15
295.429
295.994
295.154
296.426
295.15
295.218
294.95
295.15
295.15
295.159
295.146
295.15
295.005
295.099
295.15
295.294
295.15
295.153
311.604
310.981
295.15
295.15
311.486
295.149
295.132
303.38
295.152
295.15
310.77
295.152
295.622
310.65
295.808
303.73
295.186
295.15
295.425
295.15
309.029
303.542
295.15
295.151
295.29
295.153
294.867
295.15
311.348
295.148
294.917
295.3
295.173
295.153
295.155
295.17
311.181
295.154
295.458
295.045
295.05
295.15
295.158
295.132
295.072
295.15
295.15
295.199
295.37
295.151
295.169
311.229
309.077
295.15
295.15
295.713
295.15
295.15
295.167
295.193
295.172
309.413
295.15
295.158
295.324
295.185
295.147
295.122
295.15
295.154
295.15
295.155
295.359
295.15
295.15
295.211
295.153
295.264
308.244
299.469
295.232
295.247
311.54
311.734
311.062
295.15
295.424
295.419
295.175
296.395
295.15
295.152
295.453
295.225
295.15
295.585
295.154
295.151
295.15
295.211
295.288
295.174
295.858
295.311
295.15
295.15
295.283
309.289
295.453
295.815
311.672
309.52
295.152
311.4
296.218
295.153
295.154
295.213
295.15
295.153
295.158
300.982
295.157
311.581
295.15
295.15
295.15
305.193
295.152
295.15
295.504
295.15
296.115
295.15
310.837
311.729
295.152
295.15
301.265
311.107
295.561
295.152
295.154
311.062
310.768
304.004
310.546
295.175
295.15
309.871
311.189
311.543
295.467
311.063
295.152
296.488
295.15
296.095
311.608