/*--------------------------------*- C++ -*----------------------------------*\
| =========                 |                                                 |
| \\      /  F ield         | OpenFOAM: The Open Source CFD Toolbox           |
|  \\    /   O peration     | Version:  v2012                                 |
|   \\  /    A nd           | Website:  www.openfoam.com                      |
|    \\/     M anipulation  |                                                 |
\*---------------------------------------------------------------------------*/
FoamFile
{
    version     2.0;
    format      ascii;
    class       volScalarField;
    location    "1.61209946";
    object      alphat;
}
// * * * * * * * * * * * * * * * * * * * * * * * * * * * * * * * * * * * * * //

dimensions      [0 2 -1 0 0 0 0];


internalField   nonuniform List<scalar> 
83563
(
1.90859e-05
4.46508e-05
4.16618e-05
3.70054e-05
0.000444737
5.67127e-05
0.000803808
0.000539012
0.000221641
0.000867579
6.1236e-05
0.00138672
0.00141614
2.09396e-05
0.000409715
0.00959494
2.68716e-05
2.09561e-05
0.00153076
2.10799e-05
2.08923e-05
2.10369e-05
0.000756424
0.0011478
2.50022e-05
5.51318e-05
4.50395e-05
0.00104533
5.75899e-05
3.05717e-05
8.22279e-05
2.04208e-05
0.000654444
2.22086e-05
2.03227e-05
0.000137398
3.97074e-05
5.05566e-05
4.697e-05
0.000179844
3.01154e-05
0.000107093
6.65039e-05
9.30279e-05
3.3799e-05
0.000377432
0.00371352
0.000198819
8.88864e-05
0.00799883
0.00759112
0.000118152
0.00180664
0.00226367
0.00010665
0.00178442
3.8399e-05
0.0016075
0.00220048
0.000186342
0.00216214
0.00107367
7.70682e-05
4.5227e-05
0.00305452
0.00183023
0.00303416
7.78784e-05
2.45302e-05
0.00759145
0.000125444
0.0035288
3.327e-05
0.00428472
4.09465e-05
0.0073257
0.00269056
2.99373e-05
3.17964e-05
0.00285319
1.88891e-05
0.000222346
0.000262188
0.00495913
0.000262973
2.04355e-05
2.95211e-05
0.00315023
2.4871e-05
6.04419e-05
0.000284408
1.88631e-05
0.000472189
0.000289873
0.000935202
0.000435617
0.00172168
0.000473827
5.56642e-05
0.000214228
0.000120517
3.28662e-05
0.000129031
3.0472e-05
9.68325e-05
8.79751e-05
0.00010583
1.64702e-05
0.000533123
2.17392e-05
0.000321468
0.000343618
0.00293168
0.000181329
3.10451e-05
2.75492e-05
0.0014922
0.000541491
6.81832e-05
2.02088e-05
0.000184451
0.000191531
0.000179867
0.00159995
0.000296175
4.65814e-05
0.00212392
0.000541107
0.000319162
6.83656e-05
0.00609179
0.00244369
0.000233124
0.00272955
7.54878e-05
2.15344e-05
0.00016445
5.19917e-05
8.01671e-05
0.00573034
0.00211346
0.00188507
7.35163e-05
0.0013869
0.0125712
0.00210683
0.000136884
2.99998e-05
0.000103359
3.53037e-05
0.00311741
2.98958e-05
4.03406e-05
0.000223716
1.8236e-05
1.59244e-05
1.69529e-05
4.93762e-05
9.37e-05
0.00023212
0.000215661
2.0886e-05
3.5528e-05
3.63555e-05
0.000398964
0.000994071
1.57633e-05
0.00305152
2.42367e-05
0.000406048
2.69391e-05
5.00253e-05
0.0177451
0.00920546
0.0180775
6.25795e-05
6.94948e-05
0.000134036
0.000122668
1.52123e-05
0.000134216
2.18094e-05
0.000215351
0.00205603
0.000643467
0.00105498
0.000637859
0.000427451
0.000104922
1.98705e-05
1.86751e-05
0.000756816
0.00181525
0.00108811
0.0014609
0.00304592
9.15822e-05
0.000430633
2.0899e-05
0.000204944
0.000197105
8.93017e-05
0.000346461
1.51813e-05
0.000438928
0.000519883
7.05777e-05
0.00263722
2.00894e-05
0.000112079
0.000253081
0.000740578
2.01918e-05
2.42449e-05
0.000176855
0.00032707
0.000155576
2.25408e-05
4.84377e-05
0.000107915
3.34088e-05
5.51013e-05
0.000135162
0.000149073
0.000295603
2.06669e-05
0.000564043
2.4209e-05
5.12576e-05
0.000356345
2.61538e-05
8.12744e-05
1.52501e-05
6.47878e-05
0.00904783
2.17711e-05
0.000236336
0.000157724
6.90462e-05
3.34687e-05
0.000257439
0.000127148
7.75358e-05
2.17698e-05
0.000158909
3.06071e-05
0.000170994
2.58832e-05
0.00242847
6.51562e-05
0.000162886
5.07805e-05
4.62771e-05
0.00108999
6.15075e-05
6.49432e-05
1.51788e-05
0.000405506
3.48267e-05
5.3555e-05
4.71793e-05
0.000104279
0.000597009
0.000257127
6.50479e-05
0.000153085
0.000202573
9.95409e-05
2.17945e-05
1.5673e-05
0.000106358
0.000159611
0.00308825
7.65736e-05
0.000145331
7.02856e-05
0.000314351
0.000406227
2.57584e-05
5.89276e-05
0.000540743
2.68785e-05
1.82813e-05
0.0004408
0.00234443
3.11625e-05
0.00229854
3.51023e-05
6.66556e-05
0.000125811
0.00287897
4.17574e-05
0.000327841
3.22583e-05
3.92364e-05
8.88622e-05
0.000133842
0.000476931
5.31051e-05
3.75056e-05
4.05847e-05
8.79864e-05
0.000124449
2.90149e-05
2.34008e-05
0.00024772
0.000312286
0.00525864
0.000281408
0.000887674
0.000105827
0.000287146
0.00149383
0.00171756
0.00011117
0.000186117
0.00240146
0.000120127
1.99193e-05
6.2298e-05
0.000741996
0.000126932
2.63671e-05
4.62877e-05
6.34978e-05
1.65546e-05
0.000572343
0.00410284
0.000122111
0.00372507
0.000136605
4.61223e-05
1.85328e-05
0.00367882
1.79713e-05
2.16477e-05
8.29535e-05
0.00244146
0.000300172
3.46979e-05
0.00504697
0.00145982
3.15475e-05
2.79194e-05
0.000111584
0.000291705
0.000295272
5.28881e-05
0.000386685
2.63365e-05
1.45741e-05
0.000371547
3.65343e-05
0.0006635
0.000774875
2.09413e-05
0.000480777
0.000159439
0.000127478
0.000816542
0.00307288
0.000721443
0.00029561
0.00331825
0.000362004
0.0007352
0.00098385
0.000338978
0.0115556
2.09619e-05
8.6419e-05
0.000137175
0.000337321
8.96183e-05
0.00040348
0.000346398
0.000531483
0.000121316
3.24021e-05
8.36742e-05
4.64238e-05
0.000774454
3.71907e-05
0.000855158
0.000455345
0.000181413
7.99085e-05
7.90134e-05
0.000585116
9.85026e-05
0.000334539
3.30299e-05
4.29311e-05
0.000355725
0.000481936
0.000418448
0.000218937
0.000293693
7.78588e-05
1.54387e-05
0.00215641
2.16323e-05
3.54978e-05
0.0091356
0.00142063
6.40734e-05
0.000486921
0.000254444
2.17275e-05
0.000245618
0.00389419
0.000566043
3.18136e-05
4.30584e-05
0.00237441
2.17064e-05
7.85946e-05
8.45558e-05
0.000473553
6.15733e-05
2.74437e-05
4.66961e-05
0.00354023
3.4089e-05
0.00103771
0.00425203
9.7642e-05
0.000343585
0.00706
0.000125875
0.000204768
0.00166309
0.000168223
7.19516e-05
0.000533345
0.000395515
0.00945276
2.21329e-05
0.000203052
0.000986676
0.000691788
0.000109022
0.00604535
4.70983e-05
0.00301913
0.000183896
9.67684e-05
0.00426409
0.00422196
0.00640328
0.00436003
3.39424e-05
0.000149478
4.24477e-05
0.000274557
0.000489478
0.0106611
2.59497e-05
3.91022e-05
0.00971489
2.33835e-05
0.00174797
4.12384e-05
2.68935e-05
5.38666e-05
5.72264e-05
2.81821e-05
7.56185e-05
6.76411e-05
0.000147368
0.000164095
0.000137867
3.52842e-05
0.00030148
0.000185173
0.000356951
0.000119503
0.000119726
0.000124638
0.000329275
0.000125042
2.79335e-05
0.000102509
0.000101109
2.39091e-05
0.000398427
0.000162148
0.000275783
0.0128272
1.64646e-05
2.03219e-05
6.77419e-05
9.29486e-05
0.00175139
0.000553335
9.62e-05
5.67634e-05
4.6957e-05
4.44836e-05
4.12194e-05
1.57678e-05
0.00012997
0.00162087
2.31511e-05
8.47302e-05
2.07679e-05
5.28662e-05
0.00012822
0.000124975
7.74324e-05
2.46981e-05
2.70301e-05
2.37246e-05
2.19916e-05
3.03406e-05
3.99066e-05
5.62567e-05
0.00423204
0.00485622
3.14435e-05
6.47867e-05
0.000275951
0.000133034
0.000168009
0.000221653
3.1789e-05
0.000169793
0.00367556
2.76264e-05
3.19154e-05
4.73805e-05
1.96982e-05
7.72881e-05
3.91478e-05
3.93498e-05
6.72067e-05
0.0033513
0.000979826
0.000247549
0.00375344
7.61852e-05
2.88072e-05
0.00138922
0.000714552
0.00204373
0.00228023
4.33486e-05
0.00232295
0.000845787
0.000118733
0.000107146
0.000343083
0.00015822
0.000112737
1.78762e-05
0.000178414
0.00174392
0.00104725
0.000945151
2.25601e-05
0.000183198
0.00233108
7.0857e-05
0.000296684
0.000630095
3.43472e-05
0.000805459
2.71638e-05
0.000106112
0.000253791
0.0057455
0.00019633
3.75145e-05
9.89823e-05
0.00103681
0.000259283
3.1521e-05
4.16155e-05
4.24832e-05
4.08798e-05
3.91788e-05
1.67875e-05
0.0113684
0.000179115
2.56178e-05
4.73885e-05
2.62035e-05
7.81924e-05
2.05884e-05
8.27851e-06
2.26368e-05
4.18076e-05
2.2548e-05
3.96984e-05
7.60954e-05
2.3965e-05
2.73593e-05
3.36429e-05
2.10228e-05
1.56145e-05
7.11304e-05
2.18006e-05
2.92099e-05
2.1649e-05
6.10709e-05
4.63631e-05
0.000906062
3.28329e-05
3.15082e-05
2.96278e-05
3.75939e-05
4.27789e-05
1.69321e-05
7.05914e-05
0.00347631
4.86686e-05
7.7359e-05
0.000129
0.000194796
0.000249939
0.000398017
0.00452089
7.44901e-05
0.000124067
1.87837e-05
8.974e-05
0.000186869
3.16569e-05
6.1453e-05
2.26803e-05
0.000394969
5.53873e-05
4.66786e-05
0.000248291
2.99784e-05
0.00249139
0.000146847
0.000111328
2.14169e-05
3.20042e-05
8.69741e-05
0.000544702
0.000643453
0.000890342
7.70058e-05
2.34446e-05
2.88065e-05
0.00338583
0.00223055
8.54289e-05
7.49033e-05
0.000121272
0.000344334
0.000177857
0.000505952
0.00012307
0.00115273
2.62485e-05
0.00228958
0.000107997
2.66794e-05
0.0028245
0.0027164
0.00416791
0.00163763
2.11049e-05
0.000704964
2.75474e-05
2.33008e-05
0.000561563
0.0029101
0.000127463
0.00333791
0.0065984
0.000393024
9.59107e-05
0.00193808
8.81195e-05
0.000137395
0.000920612
0.00198287
0.000112711
0.000513412
0.00147153
1.61189e-05
0.00110357
0.0163843
0.0109814
0.00118974
3.76645e-05
6.32114e-05
0.00518873
3.70467e-05
0.00048572
0.000232728
0.0016587
0.000198576
0.000831494
0.000172546
6.83903e-05
0.000125053
9.24411e-05
2.25394e-05
0.000258557
0.00066924
0.000268404
1.96983e-05
6.96814e-05
9.14905e-05
0.000289516
2.08924e-05
0.000193081
2.10078e-05
5.54272e-05
0.000226675
1.49881e-05
2.81498e-05
5.08752e-05
0.00021233
0.00894884
2.39847e-05
0.00166483
3.8848e-05
0.000166556
4.99238e-05
0.000134425
0.00322839
0.00123845
4.13424e-05
0.00447321
1.54126e-05
2.25528e-05
2.43155e-05
0.0207248
0.00177458
0.000258975
3.02408e-05
5.21143e-05
0.00144615
1.65993e-05
4.243e-05
0.000175444
1.9696e-05
0.000225895
9.72146e-05
4.47596e-05
0.000189243
0.00293043
0.00196052
3.65829e-05
4.78151e-05
5.74734e-05
2.09849e-05
0.00434804
0.0001579
0.000377263
2.08767e-05
3.20406e-05
0.000425463
9.29158e-05
5.58185e-05
3.24494e-05
7.95709e-06
1.91198e-05
0.000149571
4.34408e-05
2.055e-05
5.23299e-05
0.000178313
0.00735496
5.02979e-05
2.4333e-05
1.54296e-05
0.00018774
3.35744e-05
0.000131351
3.72025e-05
0.000677253
2.87249e-05
5.90678e-05
7.71073e-05
0.00564083
0.00359252
0.00276741
3.10593e-05
0.00177633
7.45513e-05
0.000366006
3.17725e-05
7.67564e-05
0.000287437
0.00121217
5.74554e-05
0.00316775
0.00015108
9.4807e-05
0.0010421
0.000411152
2.92059e-05
4.20137e-05
0.000277626
4.49874e-05
0.000244568
2.30775e-05
3.1452e-05
2.85793e-05
0.000192804
0.00124944
0.00123802
0.000265869
3.3968e-05
0.000110244
0.0018762
0.00165396
0.0014468
0.00110117
2.52115e-05
0.000937694
2.91687e-05
1.64995e-05
0.00050735
4.54292e-05
0.00199553
0.00224412
9.14984e-05
0.000221684
0.000315061
0.000248325
2.71432e-06
4.34542e-05
1.48217e-05
0.00336937
0.000113235
0.00397416
6.18714e-05
2.14367e-05
2.14362e-05
5.51941e-05
4.63518e-05
0.000160804
4.10468e-06
1.41365e-05
4.64595e-05
2.1321e-05
0.00010221
3.32822e-06
0.00406331
0.00126235
0.00379103
0.00354083
0.00314878
3.758e-05
1.66952e-05
2.82841e-05
3.33792e-05
1.01617e-05
5.78118e-05
0.00351307
0.000195561
0.000111348
2.39435e-05
9.93246e-05
3.74334e-05
2.04124e-05
0.000340013
5.65218e-05
0.000871752
6.00993e-05
8.75235e-05
2.04561e-05
0.000221849
0.000492149
0.000768306
4.78104e-05
5.56718e-05
0.00737817
0.0115547
1.34977e-05
2.86273e-05
3.11609e-05
2.19483e-05
5.098e-05
7.93382e-05
2.207e-05
1.64439e-05
0.00375522
0.000286933
7.24662e-05
0.00154542
0.00185159
0.00018596
0.000661137
2.76119e-05
3.20238e-05
2.07786e-05
1.97645e-05
0.000316525
1.46188e-05
0.000375267
0.000324207
7.36941e-05
1.90293e-05
0.000152145
0.000272369
2.86217e-05
0.000126678
6.33607e-05
0.00014134
3.64193e-05
0.000410721
4.62999e-05
4.4785e-05
1.80816e-05
9.87966e-05
0.000101607
0.00249528
0.00145732
1.44196e-05
0.00150739
2.19529e-05
0.000187525
0.00042149
0.000173436
0.000652458
0.000275007
4.35835e-05
0.000167366
8.35256e-05
0.000951661
6.78671e-05
0.00359891
0.000257819
0.000372801
0.000137444
0.00164026
0.000188044
0.00114121
5.03418e-05
0.000280645
0.00139415
0.000161425
0.000110274
0.000288244
5.35757e-05
2.3148e-05
2.14316e-05
0.000117763
0.00135366
0.00012046
0.000625636
0.000108084
9.17884e-05
3.97824e-05
2.55806e-05
2.40031e-05
0.000192284
0.0012014
1.84492e-05
2.04575e-05
2.1317e-05
0.000209223
2.20386e-05
6.3217e-05
2.0502e-05
0.000209064
0.000399449
8.3605e-05
1.68091e-05
0.00132642
6.71048e-05
0.000239
6.49578e-05
4.06715e-05
3.87234e-05
6.04386e-05
0.000322763
2.29974e-05
0.000101259
2.44769e-05
7.4289e-05
3.31677e-05
0.00015073
4.32474e-05
2.76945e-05
4.05116e-05
8.68463e-05
0.000273894
0.000335741
3.15548e-05
0.000218933
0.00187056
0.000178075
1.8366e-05
3.67235e-05
3.17736e-05
0.000705642
0.000353035
0.000131791
0.000229442
0.00178653
0.00176158
2.01941e-05
2.0958e-05
3.98557e-05
0.00126742
4.38671e-05
0.000634174
0.000596521
0.000767462
5.37336e-05
4.66717e-05
3.03415e-05
9.53265e-05
2.86477e-05
7.4343e-05
0.00715388
7.07246e-05
0.000185199
0.000738111
0.012248
0.000311126
4.11565e-05
0.00125978
0.000479879
0.000118784
2.36762e-05
2.1247e-05
0.000346927
4.14477e-05
1.51867e-05
0.000346681
0.00109445
0.000109307
5.79221e-05
5.82796e-05
2.10177e-05
0.000427548
2.62806e-05
6.87941e-05
3.95649e-05
0.00114788
0.000309679
2.38686e-05
0.000348599
3.13457e-05
0.000298937
5.81485e-05
3.95834e-05
0.00310267
3.87447e-05
0.0037295
0.0027908
2.85408e-05
2.42614e-05
2.56187e-05
0.000227793
1.87068e-05
0.000142341
1.81559e-05
0.00214859
2.46607e-05
0.00196415
0.000282671
0.00180884
0.000103184
1.71144e-05
0.000511344
8.09937e-05
0.000124122
0.00152831
0.000126531
0.000198282
0.00272123
5.60736e-05
0.00259115
7.30641e-05
8.61948e-05
0.000131646
0.00233747
0.0062564
2.29518e-05
0.00210482
0.00238826
2.0613e-05
0.000151419
0.00589984
4.60947e-05
0.000321827
4.62745e-05
0.000956386
4.80532e-05
0.000339765
0.00216062
0.000106562
0.000207145
0.000338653
2.96895e-05
0.000253908
0.000248088
7.96732e-05
0.00034418
2.66933e-05
0.000314359
0.000134085
0.000124728
3.23777e-05
6.44194e-05
1.75833e-05
0.000195791
2.68318e-05
2.81978e-05
2.73451e-05
7.21214e-05
2.32197e-05
0.000235334
6.53141e-05
0.000226214
0.000498248
0.000238901
0.0010913
0.00284764
2.3348e-05
3.76006e-05
1.62437e-05
0.000161776
9.60504e-05
0.0012936
2.08478e-05
7.92596e-05
3.93665e-05
1.87874e-05
0.00029031
5.40559e-05
3.67546e-05
2.09557e-05
2.51991e-05
1.96923e-05
0.000802891
3.63471e-05
5.6399e-05
0.000111451
5.74413e-05
1.51229e-05
2.416e-05
0.000160623
8.23712e-05
7.87165e-05
0.000489904
6.81453e-05
2.43885e-05
7.29059e-05
3.27842e-05
2.98332e-05
2.54557e-05
1.92471e-05
0.000144832
1.51116e-05
2.17611e-05
0.00491521
3.90877e-05
0.000513661
3.15996e-05
0.00119815
3.44727e-05
2.94506e-05
3.0871e-05
6.11244e-05
5.34032e-05
8.27299e-05
9.61522e-05
2.75018e-05
9.526e-05
0.000590045
0.000153066
7.28537e-05
0.000275199
0.000618134
4.49691e-05
0.000373403
4.05058e-05
0.000458764
3.49223e-05
0.000572441
2.23078e-05
2.595e-05
2.57493e-05
4.95469e-05
0.000158484
0.000990483
5.58789e-05
0.0106543
0.00483164
0.00102774
0.00335617
0.000852627
0.00738312
3.16182e-05
3.42462e-05
5.2446e-05
0.000359725
0.000101863
0.00393478
5.24466e-05
2.01405e-05
0.000163715
0.000326858
0.000120648
0.000298999
0.000195924
2.90398e-05
4.92195e-05
0.000135336
1.39807e-05
3.59274e-05
2.05429e-05
2.11631e-05
3.77426e-05
0.00176155
0.000211647
0.000102475
2.04572e-05
5.36591e-05
8.53523e-05
0.000356485
1.76596e-05
0.000408467
0.0001288
2.4426e-05
0.0188906
5.09746e-05
2.65288e-05
2.46729e-05
0.0008157
4.42171e-05
9.26725e-05
1.67317e-05
2.23513e-06
0.000657943
5.05881e-05
2.39284e-05
2.91863e-06
3.67666e-05
2.69912e-05
0.00017865
2.42249e-05
0.000331839
2.39261e-06
2.64787e-05
5.80643e-05
0.00102126
0.0115223
0.000117266
1.7009e-05
2.6368e-05
0.00202677
0.00133134
0.00040807
8.45265e-05
4.90427e-05
8.78514e-05
0.001501
8.41055e-05
0.00689145
9.39631e-05
0.000238269
0.000292507
2.38011e-05
5.07468e-05
7.06814e-05
3.3594e-05
0.000340042
0.000132531
9.26693e-05
2.83846e-05
0.000683318
0.00195988
3.22039e-05
0.00805777
0.0162221
0.000387794
0.00482198
0.000758445
2.34783e-05
0.000115901
0.00358786
0.0107618
0.000117257
0.000309463
2.72398e-05
0.00380696
0.000135572
1.71345e-05
2.51285e-05
8.48803e-05
2.59087e-05
0.00251171
0.000217427
0.000136808
7.6162e-05
7.3185e-05
0.000588861
0.000321087
1.86859e-05
0.000217136
0.000122019
2.05291e-05
3.08297e-05
5.44154e-05
0.000359976
9.46805e-05
2.11762e-05
2.44029e-05
0.00167564
1.78535e-05
1.68759e-05
1.85568e-05
0.000277638
0.00631561
2.15341e-05
0.001591
3.75669e-05
2.96831e-05
0.00516591
9.75258e-05
0.00332579
0.00487532
0.000176376
0.000105489
0.00704394
1.87984e-05
0.00607635
0.000129933
7.79569e-05
1.75826e-05
1.64569e-05
6.62462e-05
0.00164959
2.06156e-05
0.000262389
1.47826e-05
2.63779e-05
0.000243951
3.18019e-05
9.67992e-05
1.55948e-05
0.000297892
0.00875408
7.06097e-05
0.000394487
0.000353125
8.36918e-05
0.000895713
8.52878e-05
0.000149576
0.00153607
0.000164111
3.95053e-05
0.00429454
3.3467e-05
0.000346162
3.02362e-05
5.69536e-05
4.98784e-05
7.39878e-05
2.50398e-05
1.62667e-05
5.86704e-05
4.55635e-05
4.57262e-05
3.22567e-05
2.01626e-05
6.1664e-05
0.0175071
0.000286418
2.08637e-05
9.36536e-05
0.00245395
4.69718e-05
0.00668984
0.00038915
2.37704e-05
3.49626e-05
3.04712e-05
2.92814e-05
0.00769035
4.50824e-05
0.000131193
6.80925e-05
0.00042789
4.19378e-05
1.52634e-05
8.11909e-05
0.0033288
2.29639e-05
0.0107577
0.00177446
0.000420332
0.000284859
2.93264e-05
5.19582e-05
8.93627e-05
0.0100699
0.000244333
0.000347338
0.000253036
2.78898e-05
1.78482e-05
2.64562e-05
8.73917e-05
8.08521e-05
0.000258194
2.62172e-05
0.000239196
4.23432e-05
0.000105593
5.7498e-05
8.7069e-05
6.16808e-05
4.39858e-05
2.48058e-05
3.50868e-05
9.43878e-05
3.04938e-05
6.06647e-05
5.90293e-05
2.07326e-06
8.498e-05
1.89114e-05
7.28723e-05
7.76241e-05
0.000159784
0.000403893
0.000181315
7.58126e-05
0.000253894
0.00839442
2.63615e-05
4.70705e-05
0.00307941
2.67012e-05
0.000356132
2.08569e-05
3.78474e-05
2.37937e-05
1.8974e-05
3.48693e-05
0.000126542
0.00528052
0.000120412
8.1311e-05
5.63195e-05
0.000103006
0.000562569
2.04631e-05
0.00773231
0.000123044
0.000426935
0.0027595
4.54321e-05
5.39904e-05
3.29407e-05
6.94404e-05
0.000142581
1.89265e-05
2.0171e-05
0.000363995
6.28638e-05
0.00533066
0.000741953
0.00014559
2.08062e-05
0.000219234
0.00105487
0.00608107
3.53819e-05
6.19579e-05
0.000441047
0.00227155
3.42335e-05
0.00622793
0.000217277
0.000665504
0.00119104
0.000479396
4.7897e-05
0.00577558
0.00493956
0.000116367
0.000249132
0.00329444
0.000341817
0.00339282
0.000274534
6.07917e-05
1.73468e-05
0.000784193
0.000355541
5.24349e-05
3.85972e-05
0.000372394
0.00021099
5.192e-05
2.41416e-05
6.29663e-05
0.00371718
1.75637e-05
0.000181911
4.84051e-05
6.58036e-05
2.26423e-05
2.86465e-05
2.51142e-05
2.76418e-05
4.86496e-05
0.000378287
6.19062e-05
0.000101033
0.0110664
0.000291489
1.83353e-05
0.000151349
0.00181517
5.10879e-05
0.00401818
0.000115046
0.000469611
0.000186185
3.23731e-05
5.9128e-05
5.25e-05
1.53299e-05
5.97299e-05
4.10226e-05
5.34503e-05
0.000131282
0.000411833
2.2535e-05
2.14065e-05
0.00230056
0.0038082
2.11263e-05
0.00019724
0.00368517
0.00257349
0.000141333
0.00216294
2.98527e-05
0.0001981
5.9245e-05
0.00218772
0.000328383
9.51956e-05
3.01379e-05
3.76896e-05
0.000107666
2.75972e-05
0.000131529
2.6813e-05
0.00500313
6.75439e-05
5.81684e-05
0.000328745
4.31936e-05
0.000276263
5.65528e-05
4.29643e-05
4.86727e-05
0.000120567
3.77187e-05
2.08431e-05
0.00185438
0.000378884
0.00684849
0.00136626
1.94119e-05
0.00661619
0.000264902
2.49118e-05
2.16562e-05
8.60531e-05
8.91044e-05
4.44638e-05
0.000138297
0.000149821
0.000241393
0.00146116
2.55164e-05
2.38859e-05
0.000116868
0.00722256
0.0110769
3.22956e-05
0.0157159
0.0134468
0.00262426
0.0163301
2.87752e-05
0.0173979
4.43014e-05
3.10332e-05
0.0114861
0.000259301
0.000222229
0.00603796
0.000499198
0.00266385
0.00312419
5.11752e-05
8.31476e-05
2.36373e-05
2.67274e-05
0.000429195
3.7903e-05
0.0100462
1.58405e-05
2.72904e-05
2.53335e-05
0.00446671
0.00386787
1.66509e-05
2.88268e-05
2.85243e-05
5.48392e-05
0.00296436
0.00366552
0.000101204
9.74419e-05
2.0739e-05
0.000396114
3.00987e-05
0.000108775
4.42244e-05
2.13901e-05
8.4744e-05
3.9584e-05
0.000130653
3.17031e-05
4.88562e-05
4.38544e-05
9.15405e-05
7.23864e-05
0.00271741
2.2866e-05
9.9785e-05
6.24593e-05
0.000175067
0.000237917
0.000124569
3.67012e-05
0.000366651
0.00314441
0.00283976
0.000189425
0.000133483
0.0022802
0.000248893
0.000214915
0.000569731
0.000110227
0.00186047
0.00277959
8.77226e-05
0.00414104
0.000306247
0.00242725
0.000313826
0.0020462
1.76623e-05
7.46698e-05
0.00152132
0.0001661
0.000287049
2.52558e-05
7.21502e-05
9.74116e-05
8.53309e-05
8.05747e-05
0.000534287
0.000133765
8.70351e-05
0.000102351
8.26657e-05
4.72982e-05
0.000409287
0.000383202
5.87955e-05
2.04002e-05
3.57893e-05
0.00159157
0.000131559
7.82425e-05
1.88314e-05
2.53627e-05
4.32718e-05
2.57163e-05
0.000656883
2.14422e-05
3.70023e-05
1.56905e-05
0.000111169
0.000632192
0.0001207
6.99281e-06
0.000453072
1.91664e-05
3.53189e-05
4.30481e-05
1.61246e-05
2.79489e-05
0.0101582
3.27979e-05
2.59992e-05
0.000111232
3.27495e-05
3.20917e-05
0.01296
0.00244917
2.71674e-05
2.27931e-05
4.69066e-05
0.000383144
0.019773
0.000116671
0.000249928
3.64169e-05
0.000425856
4.45066e-05
2.70583e-05
2.13437e-05
0.00052444
7.53396e-05
2.31841e-05
2.19695e-05
1.96519e-05
2.56391e-05
0.00391367
0.000425629
2.27185e-05
7.40569e-05
0.00565554
2.15219e-05
6.65505e-05
2.16316e-05
4.2644e-05
1.46358e-05
6.58081e-05
2.94453e-05
2.04286e-05
0.010518
7.89146e-05
0.0010901
6.13633e-05
2.56139e-05
0.00464722
0.00973585
4.00188e-05
2.77239e-05
0.00879865
0.000224383
6.05617e-05
3.87857e-05
0.000103294
2.03773e-05
1.8776e-05
8.02418e-05
2.672e-05
0.00113394
2.8572e-05
9.28879e-05
0.00438698
5.41878e-05
4.77429e-05
9.67991e-05
0.00733941
2.32139e-05
0.00364999
2.55651e-05
0.00474362
8.01366e-05
8.11141e-05
2.07393e-05
0.000226165
0.000215041
8.84218e-05
9.93537e-05
3.73422e-05
2.396e-05
2.19362e-05
3.46493e-05
2.237e-05
7.27514e-05
7.50769e-05
2.87125e-05
7.24576e-05
0.000280315
6.9544e-05
2.42914e-05
0.00463801
3.3362e-05
0.000122777
0.000579054
2.70176e-05
2.23742e-05
4.83123e-05
0.000302793
0.0028866
5.78523e-05
6.60312e-05
0.000240008
0.00018315
1.92932e-05
6.49199e-05
5.00135e-05
3.46476e-05
1.85139e-05
6.97027e-05
4.26329e-05
8.1401e-05
3.23178e-05
0.00393096
7.18555e-05
3.07069e-05
0.000109479
1.93219e-05
4.28654e-05
2.73685e-05
0.00034333
0.00772293
4.86923e-05
3.7718e-05
7.27803e-05
2.48262e-05
1.84979e-05
0.000157381
0.0017184
1.71242e-05
0.0027243
3.09734e-05
3.10802e-05
8.44839e-05
4.15384e-05
0.000142171
0.00321583
0.000215864
0.000513858
2.82655e-05
0.00128736
0.000148871
4.00154e-05
0.00142902
6.16549e-05
2.13642e-05
0.00322713
0.000139411
5.89833e-05
8.87354e-05
2.11651e-05
2.02852e-05
0.000164266
2.13411e-05
6.10925e-05
7.38117e-05
0.000433032
2.36486e-05
3.35574e-05
0.00304548
0.000214106
0.00235552
0.000564155
7.31448e-05
0.000175228
0.00131732
9.75313e-05
9.79858e-05
9.93008e-05
0.000425942
0.000137314
1.92173e-05
4.90691e-05
4.38795e-05
0.000147784
6.33319e-05
0.000155496
0.00118644
4.3136e-05
0.000496798
0.00466611
2.63484e-05
2.50046e-05
0.000547541
0.000381445
0.00298428
2.04627e-05
2.50381e-05
0.000115329
2.18051e-05
0.000281561
0.00188171
0.000100721
7.04235e-05
0.00259282
5.23856e-05
5.91025e-05
3.19699e-05
1.73892e-05
0.00590245
0.000362565
0.000121867
0.000218442
4.83986e-05
2.64955e-05
4.35e-05
0.0079288
2.13788e-05
2.13593e-05
0.00223759
4.16317e-05
5.29332e-05
2.91249e-05
0.00187992
5.04637e-05
0.00296273
2.82206e-05
1.49296e-05
0.000772806
0.00215399
0.000303833
0.000102177
0.000158134
2.86545e-05
2.04333e-05
0.00284595
0.00223953
0.000809497
2.72208e-05
0.00218935
0.000880973
2.79754e-05
2.09681e-05
2.46245e-05
0.000621477
0.000124866
2.75016e-05
0.000264073
9.0037e-05
0.00186682
0.00124278
0.00150909
0.00168423
2.21051e-05
0.00040265
5.32102e-05
0.00020653
0.0104217
1.47203e-05
2.19367e-05
8.18702e-05
0.000264242
1.76393e-05
0.000457389
0.000547313
0.000282036
3.10335e-05
0.000109434
0.000158858
2.34597e-05
0.000398025
7.86521e-05
0.000450453
0.000111564
0.001542
9.13017e-05
8.5252e-05
1.89802e-05
6.55134e-05
0.000509742
0.000345096
5.64422e-05
0.00129803
0.001092
0.000361314
0.00143712
1.95797e-05
4.05647e-05
2.62525e-05
0.00046623
4.73909e-05
0.000268962
2.56645e-05
0.00026118
2.91568e-05
0.00127948
7.40085e-05
2.38757e-05
2.36025e-05
0.00329814
0.000886021
1.78442e-05
0.000176435
2.08849e-05
3.15641e-05
7.35003e-05
0.000154338
7.02856e-05
7.21245e-05
2.35068e-05
0.000584508
0.000169378
7.16326e-05
0.00161586
0.00285583
0.00016353
5.59242e-05
0.000178027
0.000117236
0.000167174
7.62575e-05
0.000462313
7.34598e-05
1.74805e-05
0.000122304
5.09412e-05
6.05871e-05
3.85168e-05
1.57076e-05
0.000219902
1.56326e-05
5.39331e-05
3.99965e-05
0.000219277
2.48603e-05
0.000214581
0.000158036
0.000871202
1.66873e-05
3.29108e-05
0.000148482
0.000717422
3.42624e-05
4.30094e-05
0.000159417
2.25117e-05
3.93799e-05
0.000196808
4.26536e-05
3.01261e-05
2.14076e-05
4.14781e-05
2.12481e-05
2.51243e-05
2.57866e-05
0.00015283
0.000321358
0.000179677
0.00120327
0.000320486
4.78751e-05
2.35678e-05
5.72585e-05
0.00188485
6.45752e-05
0.000151983
2.13332e-05
2.10708e-05
0.000162411
1.55951e-05
0.00127913
0.00020268
0.000149187
0.00293908
8.39911e-05
0.000105961
2.2667e-05
0.00453727
0.000286767
0.00141724
3.61888e-05
0.000325094
0.000224672
0.000291038
1.93126e-05
0.00167682
0.000234185
0.000382755
0.000319024
0.000289985
0.000242764
3.43466e-05
0.00102144
1.89832e-05
0.0041004
0.0046399
0.00485154
0.000922411
0.010497
0.000520784
0.000212002
1.88729e-05
0.00371673
0.00509258
2.55936e-05
0.000167596
1.83367e-05
2.62775e-05
2.50624e-05
0.00537571
0.00114301
4.68855e-05
8.60311e-05
0.00132969
0.00228352
0.000108196
2.99222e-05
0.00109882
0.00045392
8.97492e-05
0.0142173
0.00388265
0.000147153
3.16935e-05
0.000426573
0.000424161
1.51542e-05
5.96539e-05
3.40659e-05
1.8764e-05
0.000113946
3.59693e-05
7.40663e-05
4.36907e-05
4.46868e-05
0.000700592
2.69346e-06
0.00391284
0.00383291
1.75629e-05
5.18804e-05
4.75394e-06
9.42302e-05
4.34176e-05
0.000914616
6.21825e-05
0.00166425
0.000186506
1.93118e-05
0.000114189
0.00022595
0.000106152
2.84057e-06
1.9184e-05
0.00140729
0.000405271
0.000367969
0.00208861
9.36817e-05
0.000122983
3.27966e-05
0.000187218
2.40785e-05
0.000142708
0.000170538
0.00123587
6.67636e-05
3.88433e-05
6.08359e-05
3.32305e-05
7.43247e-05
0.000466545
2.10798e-05
0.000193843
0.000300142
0.000381068
6.14866e-05
0.0140892
6.89055e-06
5.95384e-05
2.5733e-05
4.55169e-05
2.25169e-05
0.00030558
0.00033792
0.000110189
9.91954e-05
0.000104425
9.16541e-05
3.05908e-05
0.000456295
2.56556e-05
9.37785e-05
0.000204576
8.37126e-05
0.00708014
0.00018895
0.000290505
2.10521e-05
0.0071899
0.00195014
2.89176e-05
0.000143721
5.36708e-05
7.25519e-05
0.000238916
1.85463e-05
0.000277554
2.11571e-05
0.0022591
5.67008e-05
0.000109143
1.77246e-05
7.67032e-05
0.000113628
2.57385e-05
8.22835e-05
3.40755e-05
3.55735e-05
2.56867e-05
2.10176e-05
0.000498012
4.42852e-05
3.46261e-05
7.29545e-05
0.00213642
4.14036e-05
1.86214e-05
4.02571e-05
1.96239e-05
0.00071991
0.000104522
0.000202592
0.00018656
4.07949e-05
0.000659705
0.000911459
0.00011241
4.56204e-05
0.00221262
6.38489e-05
0.000808552
8.22552e-05
2.30495e-05
6.58988e-05
3.82642e-05
0.00523836
7.27261e-05
1.55642e-05
1.53927e-05
2.57109e-05
0.00533549
0.00526817
0.000741473
9.60502e-05
0.0001842
0.000618649
2.11662e-05
2.33609e-05
0.00437954
0.00396036
0.00363507
3.41453e-05
4.72632e-05
0.00220132
0.00049537
0.000121931
5.48662e-05
0.00139768
0.00413202
2.10664e-05
0.000310409
0.000468556
0.00018714
7.45163e-05
0.000321589
3.18495e-05
0.00427222
0.00294199
0.000326498
0.00335804
2.15975e-05
5.95773e-05
0.00298027
0.00026034
2.94396e-05
7.8524e-05
4.62039e-05
0.00247392
0.000145727
0.00126978
4.84311e-05
2.40535e-05
2.68441e-05
0.000640083
0.000696703
2.08222e-05
2.23745e-05
6.34103e-05
0.000156261
3.94543e-05
8.58506e-05
0.000991187
0.000112654
8.09198e-05
0.000377858
0.00254983
0.000116076
2.12828e-05
0.000292765
4.99979e-05
1.53302e-05
0.000468336
2.43512e-05
0.000423674
1.47571e-05
8.6359e-05
4.22051e-05
0.000447722
9.39222e-05
2.32822e-05
0.000270637
3.66474e-05
2.24166e-05
0.000111014
3.5076e-05
2.36699e-05
0.000154368
4.44839e-05
3.30163e-05
0.000280516
8.92738e-05
3.56029e-05
0.00665998
0.000203135
0.000125057
0.0010492
0.00164407
3.24727e-05
0.000101825
2.0947e-05
0.000122532
7.69864e-05
0.000239511
0.000242829
0.00659249
0.000234037
5.02064e-05
6.79603e-05
0.000357976
3.87374e-05
9.60093e-05
2.79906e-05
3.08134e-05
0.000111223
0.00392343
0.000125662
2.78919e-05
2.29252e-05
7.84545e-05
2.89962e-05
0.000128382
0.00427213
9.20983e-05
0.00715055
2.64389e-05
0.00545998
0.000125172
0.00380779
0.000411885
0.00018384
0.00658161
0.00284838
6.24991e-05
0.000431613
2.21656e-05
0.00030397
0.000132672
0.000196107
7.10979e-05
0.00052298
0.00802754
8.35711e-05
0.000234198
1.68292e-05
0.00222608
3.40201e-05
2.10624e-05
3.38868e-05
0.000180889
2.3772e-05
1.94383e-05
0.00169067
0.00120515
3.19495e-05
3.53922e-05
8.52551e-05
2.07828e-05
6.4269e-05
3.69649e-05
2.64482e-05
2.15642e-05
6.85806e-05
1.98917e-05
0.000877498
0.0146035
2.00701e-05
0.0012235
0.000475293
0.0003506
0.000277885
0.00267924
5.90762e-05
3.77596e-05
6.7147e-05
0.000359924
0.000339785
3.99179e-05
1.57882e-05
4.09759e-05
0.000380982
2.54818e-05
0.00274021
5.38427e-05
0.000109965
1.99108e-05
3.31926e-05
8.64272e-05
0.000217623
4.0129e-05
9.65643e-05
2.91656e-05
0.000170665
0.000132852
1.96287e-05
7.28235e-05
0.000857933
0.000439423
0.000381657
0.000178103
0.00349748
0.000130574
0.000308873
0.000334775
0.000567695
2.79025e-05
0.000225239
3.00528e-05
0.00116335
0.000278637
0.000364432
0.00031112
0.000142485
0.000109932
0.00664382
6.33391e-05
1.62975e-05
0.000127084
0.00124174
2.63139e-05
0.0029079
0.00012723
0.000138896
4.44576e-05
5.92298e-05
9.28969e-05
0.00014432
0.000129168
0.000581909
2.2283e-05
0.00250933
0.000102537
3.42666e-05
3.64558e-05
0.000167652
0.000132811
0.000170136
0.000600789
8.7589e-05
0.000227537
0.000739432
5.88623e-05
2.69088e-05
0.000134691
0.00016945
4.96566e-05
0.00364173
1.7737e-05
9.44787e-05
4.70528e-05
0.000107394
4.05433e-05
0.000397531
0.000209282
0.000457575
1.83373e-05