/*--------------------------------*- C++ -*----------------------------------*\
| =========                 |                                                 |
| \\      /  F ield         | OpenFOAM: The Open Source CFD Toolbox           |
|  \\    /   O peration     | Version:  v2012                                 |
|   \\  /    A nd           | Website:  www.openfoam.com                      |
|    \\/     M anipulation  |                                                 |
\*---------------------------------------------------------------------------*/
FoamFile
{
    version     2.0;
    format      ascii;
    class       volScalarField;
    location    "1.61209946";
    object      epsilon;
}
// * * * * * * * * * * * * * * * * * * * * * * * * * * * * * * * * * * * * * //

dimensions      [0 2 -3 0 0 0 0];


internalField   nonuniform List<scalar> 
83563
(
4.5676e-05
2.97874e-05
0.000122925
0.000105677
0.0687883
0.000188691
0.0194231
0.0254316
0.00430573
0.101314
0.000438308
0.0321412
1.06609
1.77243e-05
0.015733
0.247036
3.21588e-05
1.75705e-05
0.0488621
1.783e-05
1.70946e-05
1.74675e-05
0.0323685
0.0207831
2.67329e-05
0.00072743
0.000487544
0.112985
0.000641174
0.000134644
0.000756114
9.25719e-05
0.00396858
3.26642e-05
2.74354e-05
0.00165851
6.28192e-05
0.000207982
0.000151089
0.00864604
8.67461e-05
0.00142849
0.000541642
0.00159722
0.0352917
0.0314487
0.196195
0.00836127
2.51312e-05
0.130138
0.266354
0.00195999
0.316542
0.653429
0.00232542
0.231258
0.000141554
0.562219
0.687925
0.00834859
0.81751
0.0610062
5.67255e-05
0.000119877
1.44464
2.93903
0.761508
0.00205042
0.114051
0.277957
0.00123525
2.11877
9.22832e-05
1.38909
0.000104703
1.07832
1.70475
5.3664e-05
0.000148463
0.789648
3.2342e-05
0.00932029
0.00467839
0.460113
0.00182994
4.08341e-05
3.82085e-05
0.0995538
5.27343e-05
0.000167283
0.0116644
0.000145937
0.0643278
0.0115688
0.247105
0.0220063
0.23576
0.069632
1.28336e-05
0.00845006
0.00386549
5.40583e-05
0.00217271
7.14184e-05
0.00142994
0.00251675
0.00288878
3.82425e-05
0.255729
2.16722e-05
0.0196742
0.00948038
0.264142
0.00574672
3.38684e-05
0.000284303
0.060241
0.0396876
0.000446579
0.000210168
0.00855019
0.00497694
0.00925986
0.184142
0.0196788
0.000674602
0.167125
0.0053262
0.0159775
4.56017e-05
0.447062
1.16364
0.00294581
0.157652
0.0013589
1.8563e-05
0.00803084
4.02738e-05
0.00135785
0.350249
0.0316637
0.209221
3.48475e-05
0.0208496
2.10114
0.839313
0.00401646
4.37958e-05
0.00261735
6.57814e-05
0.137754
2.59274e-05
0.000109824
0.00805851
3.93294e-05
7.5158e-05
7.93109e-05
1.32494e-05
0.000174994
0.0291096
0.00849476
3.43132e-05
0.000115795
0.000613426
0.0238899
0.0401272
0.000115862
0.0921183
0.000159354
0.0222906
0.000267457
0.000884264
1.44982
0.827245
1.48088
3.99676e-05
0.00043487
0.0031176
0.00289723
8.60469e-05
0.00424109
8.09198e-05
0.00989281
0.435452
0.050913
0.127865
0.0324447
0.00539812
0.00848803
7.45499e-05
3.53581e-05
0.0701971
0.212919
0.0242186
0.338634
0.0809786
0.00203263
0.0244873
1.74915e-05
0.00697919
0.00563423
0.00101213
0.0233322
7.00923e-05
0.0373257
0.0393561
0.00141212
0.123204
2.02725e-05
0.00186087
0.0102832
0.143971
6.12559e-05
0.000260889
0.00506302
0.00822096
0.00490835
0.000309563
0.000444555
0.00032417
0.000142562
1.60821e-05
0.00343077
0.00188526
0.0383697
0.000199128
0.118532
2.21481e-05
0.00066883
0.0371179
2.95364e-05
0.000979519
6.89314e-05
0.00102349
13.1835
1.89004e-05
0.0103555
0.00163354
0.000582604
3.3202e-05
0.0124724
0.00165367
3.31898e-05
0.000210126
0.00464544
2.6502e-05
0.0151605
0.000243824
0.443078
0.000246638
0.00607891
6.57612e-05
0.000314803
0.0916788
0.000538056
0.000557329
4.51383e-05
0.0279317
0.000295285
0.000488021
0.000336521
0.00118577
0.0158017
0.0104886
0.000202091
0.00226558
0.00752158
0.00298958
0.000206179
0.000102176
0.00376398
0.0103527
0.0390707
0.000651374
0.00710975
0.000560094
0.0278507
0.0176451
5.55386e-05
0.000111946
0.0268674
0.000255592
4.00492e-05
0.0173902
0.063282
2.68022e-05
1.79365
0.000460518
0.000590542
0.000170232
0.0897304
0.000311973
0.0338483
0.000265999
0.00011483
0.00252716
0.00299923
0.0183658
8.21155e-05
6.08327e-05
3.47792e-05
0.00151589
0.0021373
2.43171e-05
2.01913e-05
0.0192028
0.0278133
2.97349
0.0102917
0.142402
0.0023362
0.00913616
1.25639
0.031917
0.0153781
0.00174178
0.572678
0.00317651
0.000138194
4.16267e-05
0.0816247
0.00404151
3.56062e-05
0.000252041
4.41159e-05
6.4253e-05
0.0557816
0.818973
0.00334777
0.171249
0.00481763
6.72215e-05
0.000138175
0.690505
5.34264e-05
3.72602e-05
0.000662771
1.16692
0.0120051
3.76217e-05
2.51243
1.21093
0.000344191
2.02962e-05
0.00242336
0.00302169
0.0140962
0.000155201
0.0232934
1.98144e-05
4.53502e-05
0.0287395
7.56548e-05
0.435216
0.335186
1.74358e-05
0.0124918
0.00489648
0.00189655
0.101541
0.509673
0.0724311
0.0473547
0.119951
0.0517657
0.066937
0.0708034
0.0138224
0.711394
3.26883e-05
0.00151055
0.00279591
0.0145393
0.05993
0.123353
0.0110285
0.0329275
0.00291002
9.52146e-05
0.0015823
0.000265725
0.0137639
0.000322578
0.00467691
0.0495726
0.00916204
0.000631496
0.000802754
0.0160242
0.00233375
0.0100096
0.000184261
0.000113254
0.0116725
0.0306383
0.0252599
0.0085088
0.0109707
0.000909794
5.28625e-05
1.40304
0.000117771
2.97048e-05
1.75763
0.150229
0.000323481
0.0857405
0.00286299
2.41959e-05
0.0117764
2.00556
0.0176122
0.00036876
0.00013357
0.879091
0.000104893
0.000535115
1.54989e-05
0.0356441
0.000277835
3.50222e-05
0.000140597
2.3586
0.000443238
0.0688537
2.72585
0.00275457
0.0320718
0.125834
0.00377414
0.00708837
0.0250724
0.00454088
0.00115264
0.0312224
0.0172978
0.434862
3.21177e-05
0.00866886
0.145995
0.0522908
0.000713408
0.148946
0.000883974
0.0711143
0.00490237
0.000560049
0.177913
6.13964
10.8383
0.20769
5.7902e-05
0.00314796
0.000110264
0.012334
0.0298681
0.32362
8.57137e-05
8.87755e-05
0.673805
0.000156615
0.378259
0.000211942
3.45012e-05
0.000235526
0.000376339
0.000184174
0.00136569
0.000392394
0.00306522
0.00416748
0.00421016
6.5821e-05
0.0101363
0.00524036
0.0237253
0.00225749
0.00148767
0.00194839
0.00527179
0.00196889
3.63423e-05
0.00223773
0.000326825
0.000245661
0.00343236
0.00407672
0.0130115
3.86061
8.29006e-05
0.000157377
0.000853998
0.00126
0.127748
0.0594652
0.000130557
0.000577539
0.000102621
0.000210494
0.00031352
5.07273e-05
0.00344491
0.064235
2.58173e-05
0.00103141
0.000126227
1.89527e-05
0.00604644
0.00159218
0.000654624
0.000183855
2.81834e-05
2.10363e-05
1.92056e-05
9.1708e-05
0.000832634
1.72376e-05
0.564729
0.834459
9.44257e-05
0.000419408
0.016827
0.00243094
0.00639286
0.00990879
8.87958e-05
0.00834098
1.0025
9.05215e-05
5.12598e-05
0.000794396
2.93103e-05
0.000711465
0.000159309
0.000198856
0.00121967
0.738961
0.0843123
0.0102937
0.47728
0.000708758
0.000634661
0.474745
0.0159506
0.054089
0.0719941
0.000386949
0.0778887
0.337974
0.00545846
0.00263419
0.00839148
0.00563009
0.010192
0.000131276
0.00587881
0.0271337
0.374325
0.195116
2.06503e-05
0.00813815
0.121621
0.00119761
0.0116035
0.014868
0.00017102
0.0782142
3.60205e-05
0.00236522
0.00914896
0.367283
0.00524258
0.000139152
0.00155385
0.143992
0.0134244
4.65903e-05
0.000247466
0.00104229
0.000143347
0.000160568
0.0368301
0.451639
0.00457209
2.76235e-05
0.000462388
5.34916e-05
0.000694971
1.92534e-05
0.0158687
2.11674e-05
0.000726906
2.11014e-05
0.00024381
0.000902555
2.38501e-05
4.50675e-05
5.33446e-05
1.93218e-05
8.02677e-05
0.000439721
1.98158e-05
3.75484e-05
2.93468e-05
0.000446474
0.000135934
0.0495519
0.000235351
4.895e-05
5.64659e-05
0.000102607
0.000528368
6.46047e-05
0.000346832
0.892082
0.000363806
0.000690695
0.0021347
0.00699871
0.0126152
0.00669045
0.22878
0.000689795
0.00130025
8.48348e-05
0.00168653
0.00458707
8.57579e-05
0.000547031
4.22024e-05
0.00822881
0.000669467
0.000338713
0.00616715
4.04623e-05
0.173911
0.00221066
0.00277492
2.10363e-05
4.39147e-05
0.00113107
0.0197093
0.0263844
0.00561252
3.52753e-05
2.26113e-05
3.67707e-05
0.0265691
1.21183
0.0014632
0.0012008
0.00393218
0.0217502
0.0107514
0.0432695
0.00240056
0.0973327
0.000319253
0.0332282
0.00258186
4.88094e-05
0.381811
0.0499588
0.0863392
0.338741
1.75103e-05
0.0255707
4.19224e-05
9.20246e-05
0.0284534
0.0922012
0.00322288
0.0531795
0.192409
0.0224792
0.00276725
0.0396903
0.0029855
0.00373167
0.0139929
0.378179
0.00176114
0.0489127
0.536564
5.90978e-05
0.0177316
2.37808
0.350623
0.0608493
8.2001e-05
0.000529444
1.58705
9.46422e-05
0.032125
0.020572
0.214042
0.00577027
0.0988853
0.00218494
0.000673408
0.00364888
0.00126353
2.13326e-05
0.00485285
0.0165982
0.00962269
0.000245984
0.000569668
0.00183006
0.0108856
2.2369e-05
0.00934537
1.78584e-05
6.34055e-05
0.015111
7.40325e-05
5.2038e-05
2.48752e-05
0.00838212
0.510453
2.29382e-05
0.0900285
9.68903e-05
0.0023436
0.00090199
7.80152e-05
2.95005
2.02057
0.000113104
1.31614
9.39557e-05
2.09332e-05
2.52091e-05
2.75294
2.86369
0.0112551
2.0616e-05
0.000138972
1.55046
0.000147544
0.000134333
0.0111079
0.000105
0.0138004
0.00128655
0.000180657
0.00452888
0.413904
0.429704
9.22891e-05
0.000166162
0.000245942
1.78829e-05
1.18929
0.00434253
0.0191526
1.69983e-05
0.000192044
0.0321806
0.000619624
0.000271858
7.67317e-05
0.0272623
0.000112881
0.0037252
0.000239519
1.89002e-05
0.000385118
0.00722852
1.25112
0.000251758
3.8647e-05
0.000131332
0.00387348
5.31602e-05
0.00187051
0.000181219
0.0471849
6.63032e-05
0.000516225
0.00103257
0.143597
0.597595
1.42259
4.66081e-05
0.926304
0.00125169
0.0140223
6.70513e-05
0.00106333
0.00611305
0.0802893
0.000514934
0.463894
0.00485747
0.00104194
0.0352217
0.00510109
3.8853e-05
0.000264122
0.00817136
0.000716063
0.0125943
0.000177818
0.000489777
6.34273e-05
0.00929672
0.692854
0.241834
0.016223
0.000642032
0.000689792
0.461847
0.215404
0.096795
0.173632
2.74485e-05
0.0626951
0.000386985
5.12403e-05
0.00999311
0.000301071
0.426965
0.0546557
0.00263981
0.0106283
0.00605161
0.000899748
0.00775395
0.000150877
5.78699e-05
0.450179
0.00178167
0.279189
0.000402275
1.98127e-05
1.80641e-05
1.83603e-05
0.000163763
0.00585086
0.00713434
0.0424989
0.000119272
2.36948e-05
0.000935077
0.00596371
0.508696
0.0486336
0.455406
1.71245
0.164302
0.000598397
0.000128956
3.3352e-05
6.81364e-05
0.0259364
0.000142243
0.35047
0.00372855
0.0026475
0.000109206
0.00165147
0.000256262
0.000140924
0.0168545
7.2169e-05
0.0549047
0.000133759
0.00124767
0.000150609
0.00707606
0.105534
0.0384855
6.74226e-05
0.000192584
0.383163
0.551709
7.28797e-05
5.0856e-05
4.451e-05
1.9202e-05
1.43543e-05
0.00123547
0.000296573
5.45428e-05
0.0677972
0.0224782
0.00167197
0.121358
0.510577
0.00333459
0.0856414
0.000274118
4.88621e-05
3.5813e-05
2.14782e-05
0.00931338
4.53223e-05
0.0152863
0.0284465
0.00118916
0.000245987
0.00190414
0.0168689
0.000276213
0.00384621
0.000773106
0.00149033
6.77329e-05
0.0146529
0.000306198
0.000269995
0.00020605
0.00110108
0.00213163
0.425825
0.697646
0.000110261
0.196603
1.99106e-05
0.00135307
0.018714
0.00587324
0.0680402
0.00348216
0.000315818
0.00433786
0.00122513
0.837793
0.000653657
0.105702
0.00588374
0.0179125
0.00285044
0.922729
0.00717006
0.0563168
0.000174089
0.0109641
0.187661
0.00423459
0.00231107
0.0208194
1.49957e-05
2.96975e-05
2.44506e-05
0.00246826
0.0280189
0.00236526
0.00840947
0.000968723
0.000758808
0.000601606
3.56414e-05
2.39375e-05
0.0045332
0.229951
7.80705e-05
1.61596e-05
1.99928e-05
0.00786625
1.93672e-05
0.000456992
3.39869e-05
0.00836885
0.0241388
0.000862394
6.07982e-05
0.106625
0.000912009
0.00126161
0.000479501
8.71391e-05
0.000109471
0.000420801
0.0174188
0.000419162
0.00197151
2.92046e-05
0.000689487
6.86759e-05
0.0059177
0.000144062
6.12207e-05
5.38247e-05
0.000897678
0.0112505
0.0156625
3.59038e-05
0.00278569
0.341219
0.00912588
6.76224e-05
0.000126695
5.81244e-05
0.0221749
0.016448
0.00301294
0.013256
0.0682436
0.0388843
3.67167e-05
1.71477e-05
0.000132265
0.100415
0.000251993
0.030288
0.0424485
0.0558953
0.000276089
0.000199499
4.23177e-05
0.00177826
0.000457029
0.00110841
0.135
0.00121965
0.00609163
0.0412034
0.946546
0.00676606
0.000204539
0.130989
0.035979
0.000851896
6.70516e-05
1.89375e-05
0.0215086
1.73177e-05
4.63833e-05
0.0288727
0.0512213
0.00276763
2.66155e-05
5.95628e-05
1.72706e-05
0.0592178
0.000101414
0.00123097
0.000327103
0.0293343
0.0140283
0.000129344
0.0212602
0.000122456
0.0241446
1.74497e-05
0.000134847
0.483501
9.56638e-05
1.73784
1.15392
0.000422527
1.85459e-05
2.67151e-05
0.00833764
7.36267e-05
0.00575378
4.33324e-05
0.383911
2.35313e-05
0.765766
0.0025596
0.18036
0.00323503
0.000123447
0.00978491
0.00133505
0.00238218
0.0441306
0.00460765
0.00503073
1.60104
0.000829233
0.16558
2.73239e-05
0.00151921
0.00353599
0.147312
1.36526
2.16378e-05
0.127911
0.0580532
2.13714e-05
0.00663859
3.39425
0.000343221
0.00398785
2.36503e-05
0.0433887
0.0154278
0.0172229
0.144526
0.00123676
0.00527934
0.0142039
8.86394e-05
0.0151177
0.0139637
0.00152362
0.0238214
3.77676e-05
0.0282595
0.0069128
0.00401106
0.000352608
0.000108362
3.2574e-05
0.0093836
3.28178e-05
0.000432036
3.32784e-05
0.000737421
8.10296e-05
0.00611429
0.00140282
0.0121437
0.00559041
0.00757091
0.0422146
0.596967
2.48342e-05
8.35542e-05
0.000127474
0.00174089
0.00223943
0.184209
1.68832e-05
0.00183746
2.86755e-05
3.12726e-05
0.0122855
1.82491e-05
0.000100968
0.000108973
3.53857e-05
2.38608e-05
0.0481083
3.47853e-05
1.99905e-05
0.00202846
0.000643309
6.10358e-05
2.5442e-05
0.00527268
0.00138464
5.04493e-05
0.0365132
0.00116571
4.10067e-05
0.000899354
7.42246e-05
2.13039e-05
2.67661e-05
2.31925e-05
0.00224
4.76076e-05
1.93126e-05
0.106272
3.97854e-05
0.0399386
2.22704e-05
0.0115439
4.64171e-05
6.83395e-05
4.44386e-05
0.000785263
0.000282055
0.00142225
0.00263254
0.000159168
0.00204209
0.0419871
0.00503156
0.00059053
0.0111454
0.0338726
0.000137564
0.0299628
0.000353598
0.00500369
1.72067e-05
0.0322437
9.49893e-05
2.31597e-05
0.000174553
0.000424364
0.00668183
0.0845581
0.000219776
0.775749
0.193856
0.0695944
0.570299
0.157489
1.32567
0.000308067
0.000736158
0.000614908
0.0227678
0.00212947
0.721405
6.37147e-05
0.000212712
0.00306306
0.0440639
0.00135527
0.0122653
0.00944207
0.000153179
0.000272405
0.003394
4.52099e-05
0.000264605
0.0993788
1.87494e-05
0.0335502
0.267884
0.00687564
0.00203028
2.2171e-05
0.00041123
0.00133161
0.017283
5.32196e-05
0.0165541
0.00299544
0.0660631
1.89375
0.000499486
0.00040817
2.90997e-05
0.0254812
4.41166e-05
0.0017487
0.000106016
0.00306879
0.519102
0.000208995
2.45595e-05
0.00686591
0.000395673
0.000375812
0.00597969
0.000224117
0.0143331
0.00355453
2.8194e-05
0.00171937
0.0552812
1.86148
0.00403619
5.72376e-05
0.000235043
0.0541846
0.241711
0.0100133
0.000928394
0.000265706
0.00121348
1.10363
0.000850254
0.209605
0.0019231
0.00362598
0.0229918
0.000173642
3.14235e-05
3.46398e-05
0.000247363
0.0174741
0.00213339
0.00150944
4.065e-05
0.0238851
0.52391
6.81999e-05
0.271854
0.915655
0.0160108
0.577613
0.101385
0.000157618
0.00383977
0.896956
0.767144
0.00271319
0.0121848
3.56395e-05
0.87891
0.00268354
5.94177e-05
3.46019e-05
0.0022706
0.000186722
0.123511
0.0106785
0.0034914
0.000344268
0.000999876
0.0338461
0.00759738
3.73903e-05
0.0121597
0.00282075
3.41691e-05
1.78326e-05
0.000942369
0.01932
0.00176631
1.81627e-05
2.58784e-05
1.96451
9.8838e-05
0.000149923
0.000128288
0.0130388
2.56391
2.30141e-05
1.68081
0.000150036
2.80553e-05
0.487583
0.0027926
2.43256
0.747238
0.00482079
0.00825634
1.1242
0.0277347
0.995303
0.00603134
0.00186245
4.48475e-05
3.23474e-05
0.000483833
0.0936102
2.06285e-05
0.0142609
4.40148e-05
3.20008e-05
0.010931
0.000129936
0.00113213
7.28649e-05
0.00696738
3.33768
0.000888196
0.0124467
0.010547
0.00161529
0.106071
0.00123962
0.00431992
0.120281
0.00695106
8.45636e-05
0.0336771
7.81099e-05
0.0134341
0.00011426
0.000500323
0.0016587
0.00091758
2.51854e-05
3.25627e-05
0.000496688
0.000187979
3.69214e-05
4.37155e-05
2.30035e-05
0.000543771
1.37663
0.00783434
1.98057e-05
0.00173319
0.484665
9.90513e-05
0.201878
0.0255992
5.78827e-05
0.000147739
0.000426987
3.68218e-05
2.21426
0.000229618
0.00442527
0.000460846
0.0275246
0.000520452
8.33451e-05
0.0001133
0.637552
2.05604e-05
0.834862
0.0408212
0.0279173
0.0159492
2.85301e-05
0.000462186
0.00122686
1.06936
0.00855539
0.0542962
0.0107615
2.67693e-05
4.81601e-05
2.61701e-05
0.00159176
0.000585818
0.00871179
5.35704e-05
0.0109376
0.000205681
0.00112469
0.000378419
0.000720008
0.00089283
0.000394828
2.82887e-05
3.65611e-05
0.000802289
0.000268201
0.0002335
0.000661507
0.002517
0.00051011
0.000167766
0.000915208
0.00211349
0.00496677
0.019409
0.0147826
0.00142242
0.010002
1.51857
0.000292432
0.000210103
1.37487
3.10292e-05
0.00918073
2.66348e-05
0.000195277
1.80248e-05
2.41007e-05
0.000107125
0.00262372
3.9325
0.00239164
0.000843445
0.000945175
0.00188037
0.0265802
3.64086e-05
0.495548
0.0038003
0.0813286
0.925129
0.000296446
0.000272593
0.000315887
0.00064592
0.0355445
0.000188647
3.27088e-05
0.0203849
9.6779e-06
1.26087
0.0583175
0.00340258
1.68482e-05
0.00759971
0.115057
6.42728
0.000667912
0.000604511
0.0325894
1.89881
0.000463969
5.87455
0.0115789
0.0440547
0.0281766
0.0310971
0.000440577
4.19014
0.437347
0.0010912
0.0110447
0.0664029
0.0387133
1.16169
0.0138258
0.000873568
9.9228e-05
0.0675155
0.0233365
2.26133e-05
0.000276377
0.0250395
0.0141943
2.19285e-05
0.000269466
0.000700153
0.879855
0.000107773
0.0213618
0.000263087
0.000831805
0.000200853
3.72955e-05
2.94365e-05
3.49207e-05
0.000327305
0.0186641
0.000323297
0.000992335
1.03542
0.00349706
0.000126098
0.00321405
0.0903182
0.000317861
0.0291874
0.00288486
0.0342385
0.0068215
8.26325e-05
0.00040271
0.000256709
4.15317e-05
0.000212641
0.000637152
0.000377422
0.00429931
0.0252299
0.000218737
2.12736e-05
0.215364
0.520717
3.45068e-05
0.00755705
0.789275
0.27346
0.00286203
0.364069
4.12834e-05
0.00995899
0.000660885
1.2813
0.00821653
0.000634649
9.21353e-05
7.00547e-05
0.000397058
3.90498e-05
0.000723017
0.000281754
0.129571
0.000837406
0.00118645
0.00727241
2.37585e-05
0.0176045
0.000199463
0.000521202
0.000192202
0.00058916
6.5034e-05
2.20728e-05
0.11829
0.0201668
0.654458
0.0950682
6.36664e-05
0.171534
0.0149034
5.1166e-05
1.85891e-05
0.0020961
0.00165428
0.000633142
0.00435513
0.00508081
0.0122369
0.578337
3.24788e-05
2.44068e-05
0.00843192
0.173607
0.864388
8.64888e-05
1.3209
2.22741
0.188723
1.1496
3.95435e-05
1.68417
0.000188746
4.84678e-05
0.969542
0.011831
0.00979695
0.0568554
0.0608329
1.51055
0.411269
0.000192906
0.00145054
0.000177553
0.000242145
0.058216
0.000124222
0.546485
5.06189e-05
0.000492292
0.000403328
2.29083
2.84553
7.03799e-05
3.3526e-05
0.000378119
2.87952e-05
0.254253
1.88243
0.00095918
0.000547332
1.88378e-05
0.0123422
9.84668e-05
0.000760188
3.01208e-05
4.61907e-05
0.000626272
2.39247e-05
0.00393752
2.28349e-05
0.000443858
3.27938e-05
0.00320506
0.000881814
0.153211
2.14794e-05
0.00162181
2.49927e-05
0.00509437
0.00284683
0.00322207
0.000515237
0.0203808
0.157231
0.250826
0.00585303
0.00218011
0.13593
0.00967731
0.00693651
0.0272928
0.00203524
0.300917
0.495509
0.00116102
0.227135
0.00526012
0.345864
0.0165386
0.942692
0.000137613
0.00124209
0.0283972
0.00460456
0.0101352
4.60427e-05
5.93494e-05
0.00167064
5.40356e-05
0.00105349
0.0249629
0.00405287
0.00130454
0.00207274
0.00127146
4.01487e-05
0.0339128
0.044242
1.6117e-05
2.12709e-05
0.000287976
0.0163179
0.00301854
0.000564727
5.05372e-05
2.66484e-05
5.64606e-05
2.82123e-05
0.0869795
3.59072e-05
6.84524e-05
7.3195e-05
0.00246599
0.0252833
0.00383422
0.0161602
0.0152802
2.69654e-05
0.000110293
2.3627e-05
8.67412e-05
0.000399649
0.186371
7.10891e-05
2.98666e-05
0.00194715
1.88857e-05
3.85877e-05
0.336512
0.196012
2.16077e-05
1.96318e-05
0.000170309
0.0507722
3.54672
0.00344192
0.0140371
7.89007e-05
0.0146577
0.000535228
5.82942e-05
1.79142e-05
0.0231254
0.00136741
0.000247202
1.93084e-05
4.12694e-05
0.000156179
1.78457
0.00900362
2.18928e-05
2.85024e-05
10.3591
1.84696e-05
0.000415615
1.85636e-05
0.000214331
5.97928e-05
0.000496512
5.53616e-05
0.000159448
30.1103
0.000641335
0.0271249
0.000331578
3.08663e-05
0.157131
0.257061
0.000224099
3.43267e-05
21.6341
0.0145991
0.000681034
0.0001521
0.00183017
1.92278e-05
6.99102e-05
1.58284e-05
3.02329e-05
0.102187
4.36157e-05
0.00147192
2.62703
1.37488e-05
4.02785e-05
0.00148874
8.39436
2.29275e-05
1.39945
2.78929e-05
1.48525
0.00158369
0.00133342
0.000131479
0.0100469
0.00641614
0.000190714
0.00186359
0.000206379
3.31673e-05
0.00016807
0.000186612
2.01223e-05
0.000876268
0.000841816
2.41838e-05
0.000611673
0.0159402
0.000558227
4.64569e-05
2.13829
0.000189826
0.00214441
0.0107716
3.16649e-05
5.4854e-05
0.000222358
0.00464719
0.61493
0.000458765
0.000426363
0.0309581
0.0280918
2.79053e-05
0.000429492
1.28162e-05
0.000151443
3.51544e-05
0.000630257
1.65535e-05
0.00103346
4.92725e-05
5.50807
0.000606692
0.000178069
0.00203637
3.3968e-05
0.00026251
8.63411e-05
0.124632
0.82352
0.000305108
0.00019125
0.000695462
0.000256146
5.43831e-05
0.00347153
0.212214
5.60356e-05
1.30592
4.58895e-05
4.7474e-05
0.00114136
9.365e-05
0.00435129
0.134353
0.00739874
0.0298595
0.000392209
0.0272439
0.00191273
0.000147533
0.0404233
0.000747101
1.85322e-05
1.22205
0.00508279
9.38755e-05
0.00163094
3.30098e-05
4.1339e-05
0.00547313
2.22947e-05
0.000485773
0.000567527
0.022139
1.91617e-05
4.08991e-05
0.630543
0.00608947
0.632738
0.103929
0.00350164
0.00536356
0.0330196
0.00369536
0.00205191
0.00181356
0.0678777
0.00445992
3.12011e-05
0.000253262
2.57212e-05
0.00342525
0.00309393
0.00420295
3.77421
0.000191243
0.0429929
0.379991
3.56735e-05
3.28815e-05
0.0177691
0.0264727
0.856632
2.19395e-05
0.000192625
0.00258002
1.89363e-05
0.0122296
7.58714
0.00202563
0.000427728
7.74938
0.000430684
0.000279217
4.96593e-05
3.11624e-05
0.141608
0.01909
0.00236894
0.00670122
3.54474e-05
0.000352651
0.000338311
0.264526
1.83808e-05
1.85042e-05
1.29437
0.000190191
7.65534e-05
7.13102e-05
2.19638
0.000994674
0.60127
4.27349e-05
7.60676e-05
0.0457465
0.0712871
0.00875374
0.0025029
0.00349031
3.94093e-05
2.01152e-05
0.684411
0.589621
1.07387
7.57348e-05
1.01252
1.38935
3.78245e-05
0.000144571
5.30133e-05
0.0366443
0.00314012
0.000205865
0.00933192
6.64806e-05
0.678215
0.485879
0.232329
0.161438
0.00011973
0.0122539
0.00136753
0.00982164
3.10503
4.38795e-05
3.72192e-05
0.00133172
0.0186827
4.28261e-05
0.0101679
0.00831743
0.0123736
7.97694e-05
0.00239075
0.00504759
2.12051e-05
0.0275674
0.000745825
0.0249291
0.0027788
0.338754
0.00233703
0.000835154
0.000101151
0.00144925
0.224087
0.00343442
0.00108374
0.0233611
0.0647817
0.0163529
0.155772
3.14727e-05
0.000109641
0.00028085
0.0401183
0.000672132
0.00765962
1.82239e-05
0.0184744
0.00032382
0.127803
0.000655319
0.000189745
2.31279e-05
0.429541
0.202299
0.000125521
0.0397708
2.02496e-05
0.000150934
0.00243052
0.00462089
0.000758759
0.000708511
3.44585e-05
0.0321558
0.00656356
0.0010654
0.114134
0.295088
0.00576557
0.000380493
0.00266513
0.0017276
0.00585093
0.00042569
0.0875304
0.000707447
6.3307e-05
0.00272199
0.000538109
0.000593694
0.000152021
4.47032e-05
0.0077727
9.9671e-05
1.64089e-05
1.99683e-05
0.00776808
0.000256719
0.00639951
0.0058582
0.0434255
7.90245e-05
0.000429152
0.00513945
0.12248
0.000390651
1.75858e-05
0.00453694
1.78301e-05
3.16399e-05
0.00933331
1.71472e-05
2.09156e-05
1.86222e-05
0.000280888
1.74647e-05
2.55959e-05
2.91104e-05
0.00451028
0.0215631
0.006236
0.350188
0.0127632
0.000183319
2.28299e-05
2.80882e-05
0.803284
0.0537105
0.00424901
1.79093e-05
1.80894e-05
0.00375028
4.13907e-05
0.164457
0.00839594
0.00314015
0.309746
1.69931e-05
0.000998682
0.000183763
0.283332
0.0164239
0.421982
0.000540013
0.179957
0.0109742
0.0104884
0.00016287
0.485951
0.00950622
0.0222144
0.0147432
0.00883667
0.012859
0.000138568
0.105458
6.58806e-05
0.509073
1.01982
1.25918
0.0292607
0.664104
0.0263961
0.0080121
8.32021e-05
0.352128
1.54788
2.80281e-05
0.00764207
7.01999e-05
0.000335659
0.000224419
1.45424
0.0591585
0.000297112
0.00123889
0.0204271
0.220771
0.000731626
2.55279e-05
0.0628655
0.0613909
0.000536796
0.788691
0.246983
0.00462955
7.42417e-05
0.028177
0.00770443
5.00043e-05
0.00119618
6.36352e-05
9.95136e-05
0.000839545
0.000124507
0.000741676
0.000166196
0.000128769
0.0449174
0.00688314
3.58103
0.518126
0.000120665
0.000451514
0.00878787
0.000883101
0.000889039
0.0172433
0.00189735
0.324531
0.0049657
0.0185653
0.00240092
0.00827557
4.99837e-05
0.00360597
5.4209e-05
0.201821
0.0389321
0.022059
0.0698481
0.0013718
0.00248578
0.000316752
0.00515806
2.43007e-05
0.00637197
0.00579056
0.0303095
0.000637105
0.000134995
0.000532116
0.00121658
0.000819682
0.0201432
0.000142282
0.00938121
0.0156861
0.0280193
0.000509577
1.54321
0.00747951
0.000254907
0.000315823
0.000176069
2.02475e-05
0.012124
0.0152011
0.00201129
0.00158075
0.0018485
0.000630378
7.79175e-05
0.0231578
0.000267821
0.000595656
0.00757065
0.00171169
1.60865
0.00735078
0.00854475
2.23881e-05
1.63427
0.191364
9.28183e-05
0.00273512
1.45554e-05
0.000313561
0.00911541
3.53328e-05
0.0056892
1.88382e-05
0.0645298
0.00159692
0.00190935
0.000109156
0.000748721
0.00233977
7.44629e-05
0.00127459
0.000338261
0.000142594
2.82829e-05
1.72675e-05
0.0378135
0.000585476
0.000147976
0.00191839
0.352659
3.60567e-05
5.62301e-05
9.80553e-05
7.5358e-05
0.0685979
0.000978282
0.00931616
0.00179231
9.92687e-05
0.0208942
0.802451
0.00131571
0.000186823
0.222008
0.00119056
0.0331366
0.00153185
2.36335e-05
0.00169138
0.000730689
0.701009
0.000912956
9.21853e-05
9.73918e-05
0.000124304
6.68997
0.245312
0.198622
0.00153463
0.00398856
0.0864525
0.00015692
2.54116e-05
4.14444
0.179962
1.99842
7.49491e-05
0.00127257
1.23607
0.088511
0.00320318
0.000193415
0.0293936
0.14753
1.76999e-05
0.00974873
0.00996235
0.00409172
0.000484958
0.00975392
0.000161751
0.48507
0.695446
0.00853263
0.111776
1.86345e-05
0.000277204
0.0935848
0.0207148
9.1029e-05
0.000807045
0.000169853
1.17311
0.00305804
0.332201
0.000211088
5.21029e-05
6.37256e-05
0.0398471
0.553463
2.26782e-05
2.00734e-05
2.14586e-05
0.00859882
0.000217799
0.00137475
0.115719
0.00301506
0.00129873
0.024642
0.422975
0.00247832
1.81208e-05
0.014037
0.000351562
5.91714e-05
0.0250552
2.41266e-05
0.0279548
9.28016e-05
0.00146707
0.000504898
0.0235098
0.00185796
2.38329e-05
0.00933343
0.000140691
2.04772e-05
0.00233467
0.000164643
4.49597e-05
0.00219768
0.00016959
9.12374e-05
0.00725047
0.00107962
0.00012022
2.90806
0.00571811
0.00242155
0.11052
0.389703
0.00016839
0.00133323
2.61173e-05
0.00170137
0.00175135
0.00522852
0.00865388
0.14953
0.00875529
0.000265063
4.18337e-05
0.0190943
0.000372296
0.00210609
0.000104956
6.00898e-05
0.00231705
0.840076
0.00334863
4.15949e-05
2.12352e-05
1.06361e-05
3.65735e-05
0.00305847
1.01296
0.00199011
4.2795
3.06892e-05
1.88084
0.00178703
0.65311
0.0275388
0.00815104
3.11782
0.0638231
0.000728443
0.0131537
1.99297e-05
0.0087091
0.00130933
0.00746139
0.00121359
0.0214264
0.122743
0.00183167
0.00976246
0.000112065
0.316356
0.000306268
1.83338e-05
1.75372e-05
0.00723358
2.77963e-05
2.89942e-05
0.122388
0.039257
0.000444414
0.000291393
8.65118e-05
2.36821e-05
0.000488113
0.000417921
2.96192e-05
1.97435e-05
0.000133683
0.000191258
0.0230253
2.36194
6.76887e-05
0.12827
0.174415
0.0118764
0.0115434
0.918799
0.00042246
0.0694635
0.0015986
0.0186499
0.021049
0.000455409
5.33958e-05
0.000563027
0.0412941
3.19975e-05
0.0719917
0.00090799
0.00286435
2.21529e-05
2.79823e-05
0.000636321
0.0105182
0.000249229
0.0012689
0.000201223
0.00306626
0.00165219
9.25206e-05
0.00074999
0.241512
0.0472362
0.0303407
0.00655369
0.207359
0.001566
0.0178377
0.0151519
0.0751236
9.55464e-05
0.00973397
7.96847e-05
0.326339
0.0118829
0.0422485
0.0130011
0.00774557
0.00088499
0.416806
0.000233822
0.000140077
0.00201911
0.13547
3.15004e-05
0.123479
0.00156485
0.00586939
2.79723e-05
4.09504e-05
0.00211956
0.000996513
0.00262851
0.0152301
1.99641e-05
0.065715
0.00268962
0.000419737
0.000647637
0.00148247
0.00239926
0.00163411
0.0355972
0.00152971
0.00870249
0.0168501
0.00067604
0.000412514
0.00294123
0.00379156
0.000155501
1.60556
7.3165e-05
0.00182744
3.86795e-05
0.0022366
0.000137576
0.0177387
0.00655999
0.029458
4.12927e-05
2.35494e-05
0.000302552
0.248521
0.00637224
0.335256
0.00565448
0.0308289
0.200898
0.0002914
0.146277
0.000120682
3.6757e-05
4.42287e-05
0.00124595
7.72691e-05
0.00408407
0.00608512
0.000518992
0.00173232
0.0039174
0.200132
7.35662e-05
0.000147232
0.000112403
0.000994356
0.000410913
0.0314697
9.04272e-05
0.00181008
0.731907
0.0297639
1.91062e-05
0.0943882
1.7293e-05
0.000286121
0.00032087
0.000626773
0.011437
0.0817426
0.0103167
0.000783912
0.0639305
0.000112966
0.00153135
0.00376722
1.85157e-05
0.00664606
0.00235228
8.53119e-05
2.14343e-05
0.000214604
0.843385
0.00140108
0.657203
0.0011339
0.0025444
0.00878461
6.47234e-05
0.00324921
0.000610288
2.26985e-05
2.84279e-05
0.0452063
0.00160983
0.000445111
0.0001429
2.13978e-05
0.00063876
1.78218e-05
1.79214e-05
2.53572e-05
8.00732e-05
2.05613e-05
8.04059e-05
0.00434354
0.00376664
2.39543e-05
0.0193904
0.00193592
1.97431e-05
0.000532399
0.00124844
0.0835847
0.023895
0.507116
0.00409415
0.000592062
0.146236
0.00743923
0.0199752
0.00764897
0.0279903
0.000117895
1.72699e-05
0.176747
6.5366e-05
0.000892093
0.000337027
1.65164e-05
0.0626774
1.91388e-05
4.38868e-05
1.41264e-05
0.00190422
2.08895e-05
2.01058e-05
0.000269981
0.00991462
4.73628e-05
7.42636e-05
0.000423361
0.563874
0.00831018
0.105176
0.185264
8.27101e-05
0.0383196
4.16533e-05
0.00325358
0.0212225
7.75084e-05
0.000224259
0.0105238
0.613222
2.06631
4.27266e-05
0.00239612
0.674995
0.00297017
0.00313652
0.0105819
0.0144178
0.0167514
0.00216713
0.30524
0.00283358
1.84496e-05
0.000214047
2.09776e-05
0.0021635
0.721352
0.00715659
0.00278019
1.46669
1.87452e-05
0.000559607
6.49333e-05
0.00261112
6.42649e-05
0.00345483
0.00617075
0.00491597
0.0112302
0.677642
3.80354e-05
4.6791e-05
0.10788
0.00530569
0.000849238
0.00811396
0.0013813
0.000187107
7.42201e-05
3.67551e-05
5.28118e-05
0.0370362
0.395358
0.000355187
0.00473866
0.00387951
0.0392879
4.64104e-05
0.0141924
0.017865
0.0282437
0.000415371
0.0125859
0.000563405
0.00788022
2.88538e-05
0.000458106
6.35211e-05
0.00997943
7.7713e-05
0.000327283
0.00604867
0.00110883
2.04891e-05
0.986118
0.00237407
8.81519e-05
0.134409
0.000832614
0.0612216
0.00304823
0.437979
0.0169258
1.37355e-05
8.16816e-05
2.38381e-05
0.00524629