/*--------------------------------*- C++ -*----------------------------------*\
| =========                 |                                                 |
| \\      /  F ield         | OpenFOAM: The Open Source CFD Toolbox           |
|  \\    /   O peration     | Version:  v2012                                 |
|   \\  /    A nd           | Website:  www.openfoam.com                      |
|    \\/     M anipulation  |                                                 |
\*---------------------------------------------------------------------------*/
FoamFile
{
    version     2.0;
    format      ascii;
    class       volScalarField;
    location    "1.61209946";
    object      k;
}
// * * * * * * * * * * * * * * * * * * * * * * * * * * * * * * * * * * * * * //

dimensions      [0 2 -2 0 0 0 0];


internalField   nonuniform List<scalar> 
83563
(
9.07407e-05
0.000112135
0.00022
0.000192254
0.0170447
0.000318001
0.0121765
0.0113924
0.00301479
0.0288281
0.000503457
0.0205626
0.119255
5.92036e-05
0.00780732
0.149703
9.03818e-05
5.89697e-05
0.0266464
5.95804e-05
5.80784e-05
5.89123e-05
0.0152373
0.0150071
7.94746e-05
0.000615911
0.000458208
0.033424
0.000590976
0.000197414
0.000767338
0.000133765
0.00496059
8.27403e-05
7.25582e-05
0.00147051
0.000153579
0.000315295
0.000259048
0.00383597
0.000157133
0.00120263
0.000584886
0.00118545
0.00335986
0.0106016
0.0829718
0.00396436
0.000145284
0.099159
0.138142
0.00147957
0.0734815
0.11818
0.00153153
0.0623325
0.000226634
0.0923762
0.119557
0.00383721
0.129196
0.0248689
0.000203348
0.000226343
0.204093
0.22537
0.147698
0.00122951
0.00516306
0.14119
0.00121032
0.265498
0.000170361
0.236998
0.000201312
0.272438
0.20809
0.000123213
0.00021128
0.14596
7.59378e-05
0.0044476
0.00342142
0.146848
0.00213437
8.8788e-05
0.000103265
0.0544792
0.000111332
0.000309322
0.0056049
0.000161404
0.0169571
0.00562853
0.0467644
0.00952771
0.0619138
0.0176745
8.21359e-05
0.00413916
0.00210033
0.000129599
0.00162837
0.000143482
0.00114394
0.00144693
0.00170002
7.71136e-05
0.0358907
6.66903e-05
0.00773658
0.00558894
0.0857764
0.00314285
9.96582e-05
0.000272373
0.0289771
0.0142648
0.000536337
0.000200488
0.00385871
0.0030055
0.00397058
0.0527694
0.00742885
0.000545718
0.0579069
0.0052316
0.00694914
0.000171671
0.160457
0.163973
0.00254993
0.0637391
0.000985405
6.14472e-05
0.00353515
0.000140722
0.00101611
0.137731
0.0252643
0.0610435
0.000155599
0.0166241
0.498837
0.129206
0.00228251
0.000111435
0.00159942
0.000148124
0.0637126
8.56055e-05
0.0002046
0.00413122
8.22945e-05
0.000106342
0.000112751
7.85975e-05
0.000393699
0.00800396
0.00416389
8.22736e-05
0.000197187
0.000459668
0.00950114
0.0194152
0.000131431
0.0512709
0.000191207
0.00925689
0.000261221
0.000648281
0.492918
0.269116
0.502903
0.000153754
0.000534494
0.00198946
0.00183373
0.000111259
0.00232386
0.000129169
0.00449124
0.0921842
0.0176061
0.0357209
0.0139979
0.00467437
0.00290366
0.000118303
7.89558e-05
0.0224179
0.0604651
0.0157662
0.0684609
0.0482917
0.00132785
0.00999451
5.87579e-05
0.00368008
0.0032424
0.00092472
0.00874736
0.000100285
0.0124517
0.013919
0.000971793
0.0551476
6.20097e-05
0.0014054
0.00496319
0.0317726
0.000108113
0.000244845
0.00291275
0.00504486
0.00268925
0.000257301
0.000451514
0.0005752
0.000212262
9.14961e-05
0.00209684
0.00163174
0.0103614
0.000197336
0.0251512
7.11834e-05
0.000569619
0.0111914
8.54452e-05
0.000868364
9.96661e-05
0.000792552
1.06213
6.2345e-05
0.00481427
0.00156758
0.000617197
0.000102496
0.0055124
0.0014096
0.000155942
0.000208119
0.00264438
8.75571e-05
0.00494085
0.000244445
0.100787
0.00038968
0.00306195
0.000177677
0.000371221
0.0307618
0.000559263
0.000585004
8.04168e-05
0.0103575
0.000311934
0.000497266
0.000387509
0.00108103
0.00939331
0.00505182
0.000352641
0.00181115
0.00379748
0.00167811
0.000206262
0.00012307
0.00194643
0.00395418
0.0338322
0.00068674
0.00312658
0.000610203
0.00909892
0.00823911
0.000116241
0.000249775
0.0117299
0.000254926
8.31477e-05
0.00851943
0.0375386
8.88498e-05
0.19731
0.000391185
0.00061266
0.000451179
0.049487
0.000351831
0.010245
0.000284971
0.000206504
0.00145727
0.00194957
0.00911417
0.000203055
0.000146797
0.000115504
0.00112395
0.00158684
8.16815e-05
6.68206e-05
0.00670768
0.00906331
0.384406
0.0052398
0.0346106
0.00152938
0.00498366
0.133126
0.0227745
0.0040174
0.00175062
0.113751
0.00189955
0.000161361
0.000156549
0.0239368
0.00220264
9.4194e-05
0.000332099
0.000162698
0.000100243
0.0173876
0.178137
0.0019667
0.0776293
0.0024972
0.000171205
0.000155679
0.154958
9.52318e-05
8.72655e-05
0.00072085
0.1639
0.00584176
0.000111098
0.346021
0.129201
0.000320662
7.31643e-05
0.00160061
0.00289527
0.00627614
0.000278458
0.00923334
7.02113e-05
7.89959e-05
0.0100776
0.000161631
0.052208
0.049514
5.8725e-05
0.00754102
0.0027177
0.00151373
0.0279897
0.121468
0.0222232
0.0114865
0.0610793
0.013285
0.0215685
0.0256656
0.00666124
0.27827
8.04451e-05
0.001112
0.0019052
0.00681176
0.00712136
0.0217042
0.0060238
0.0128227
0.00182941
0.000170765
0.00111997
0.000341274
0.0100611
0.000336832
0.0061497
0.0145698
0.00394363
0.000690634
0.000774226
0.00935928
0.00147419
0.00562603
0.00024011
0.000214334
0.0062311
0.0118341
0.0100033
0.00420013
0.00552384
0.000819178
8.77984e-05
0.16919
0.000155207
9.98536e-05
0.388655
0.0449742
0.000442673
0.0198891
0.00262841
7.0464e-05
0.00523951
0.271616
0.00972351
0.000333351
0.000233257
0.140437
0.000146688
0.000630924
0.000111249
0.0125726
0.000402047
9.53038e-05
0.000249213
0.280863
0.000378199
0.0260531
0.330896
0.00159513
0.0102116
0.0919338
0.00212091
0.00371975
0.0198789
0.00268918
0.00088611
0.0124828
0.00805045
0.196638
8.19352e-05
0.00408175
0.0369083
0.0185217
0.000857198
0.0919181
0.000628193
0.0450725
0.0029217
0.000715144
0.0847025
0.495198
0.808996
0.0925811
0.00013628
0.00211302
0.000210253
0.00566048
0.0117676
0.180425
0.000145006
0.000181145
0.249457
0.000186182
0.0790467
0.000287413
9.36311e-05
0.000346666
0.000451244
0.000221576
0.000988861
0.000500774
0.00206758
0.00254388
0.00234383
0.000148158
0.0053774
0.00303284
0.00895212
0.00159836
0.00129884
0.00151607
0.00406067
0.00152642
9.79151e-05
0.00147345
0.000559244
0.000235774
0.00360096
0.00250182
0.0058252
0.682964
0.000113611
0.000174003
0.000739735
0.00105237
0.0459573
0.0176434
0.000344575
0.000556736
0.000213325
0.000297433
0.000349625
8.69135e-05
0.00205919
0.0316908
7.51232e-05
0.000908969
0.000157525
9.72635e-05
0.00270934
0.00137281
0.000692027
0.00020722
8.48287e-05
6.86745e-05
6.31649e-05
0.000162108
0.000560935
9.56934e-05
0.150223
0.195637
0.000167437
0.000506797
0.00663005
0.0017486
0.00318932
0.0045585
0.000163316
0.00366255
0.186566
0.000153735
0.000124368
0.000597079
7.38266e-05
0.000721052
0.000242819
0.000271983
0.000881291
0.15296
0.0279769
0.00491307
0.130122
0.000714314
0.000416271
0.07893
0.0104112
0.0323323
0.0394311
0.000398297
0.0413737
0.0519602
0.00247739
0.00163433
0.00522921
0.00290348
0.00329855
0.000148975
0.00315057
0.0211553
0.0607109
0.0417389
6.63426e-05
0.00375619
0.0517143
0.000896545
0.00570919
0.00940545
0.000235672
0.024405
9.61556e-05
0.00156034
0.00468781
0.141163
0.00312304
0.000222132
0.00120594
0.0375665
0.0057418
0.000117786
0.000312366
0.000647439
0.000235398
0.00024396
0.00240826
0.219914
0.00278793
8.17651e-05
0.000455156
0.000115101
0.000716643
6.11812e-05
0.00110636
6.72792e-05
0.000536426
6.70403e-05
0.000302553
0.000805882
7.34887e-05
0.000107932
0.000130274
6.19377e-05
0.000108822
0.000543673
6.38735e-05
0.000101837
7.74622e-05
0.000507899
0.000244001
0.0205962
0.000270207
0.000120708
0.00012571
0.000190908
0.000462628
0.000101676
0.00048116
0.171275
0.000409189
0.000710606
0.00161355
0.00359114
0.00546235
0.00501697
0.0988409
0.000697019
0.00123591
0.000122742
0.00119754
0.00284973
0.000160181
0.000563877
9.51054e-05
0.00555747
0.000592002
0.000386414
0.00380659
0.00010709
0.0640395
0.00175312
0.00170933
6.52264e-05
0.000115229
0.000965414
0.010078
0.0126736
0.00690368
0.000160216
7.07717e-05
0.000100094
0.0292161
0.15972
0.00108733
0.000922407
0.00212442
0.00842158
0.00425344
0.0144015
0.00167324
0.0326368
0.000281701
0.0269646
0.00162457
0.000110901
0.100932
0.0359999
0.0585335
0.0723922
5.908e-05
0.0130728
0.000104467
0.000142384
0.0122929
0.0506274
0.00197159
0.0411368
0.109736
0.00914539
0.00158481
0.027012
0.001578
0.00220536
0.0110458
0.0841769
0.00136989
0.0154285
0.0863481
9.4873e-05
0.0136241
0.607101
0.191001
0.0261602
0.00017079
0.000562381
0.279161
0.000182022
0.0121471
0.00672824
0.0579013
0.00329572
0.0278901
0.0018913
0.000659891
0.00207861
0.00105198
6.73952e-05
0.00344753
0.0102213
0.00494149
0.000214237
0.000612458
0.00125864
0.00546245
6.6433e-05
0.00413114
5.95256e-05
0.000182423
0.00569203
0.000102395
0.000117648
0.000109443
0.00410459
0.207321
7.20997e-05
0.037641
0.000188611
0.00192181
0.000653481
0.000315014
0.300031
0.153716
0.000210168
0.235943
0.000116982
6.67772e-05
7.60847e-05
0.734554
0.219042
0.0052495
7.67441e-05
0.000261695
0.145494
0.000152149
0.000232053
0.00429964
0.000139846
0.00543337
0.00108753
0.00027638
0.00284776
0.10727
0.0891961
0.000178605
0.000273955
0.000365399
5.95351e-05
0.221036
0.00254687
0.00826795
5.7894e-05
0.000241353
0.0113807
0.000737751
0.0003788
0.00015341
0.00143211
0.000142868
0.0022956
0.000313485
6.05596e-05
0.000436679
0.00349368
0.295062
0.000345907
9.42588e-05
0.00013845
0.00262238
0.000129877
0.00152457
0.000252494
0.0173703
0.000134179
0.00053685
0.000867132
0.0874093
0.142386
0.192802
0.000116954
0.124663
0.000940207
0.00697114
0.000141848
0.000878529
0.00408734
0.0303145
0.00052945
0.117802
0.00263539
0.000965917
0.0186681
0.00445974
0.000103518
0.000323937
0.00463489
0.000552299
0.00539907
0.000197045
0.000382017
0.000130873
0.00411951
0.0904123
0.0532141
0.00639254
0.000454192
0.000848669
0.0905023
0.0580723
0.0364093
0.0425259
8.08406e-05
0.0235837
0.00032683
8.9356e-05
0.00692512
0.000359698
0.0897775
0.0340752
0.0015122
0.00472255
0.00425091
0.00145388
0.000445991
0.000248903
9.00177e-05
0.119022
0.00138253
0.10246
0.000485007
6.33365e-05
6.04769e-05
9.78354e-05
0.000267916
0.0029844
0.000526348
0.00237836
0.000229035
6.90726e-05
0.000952336
0.000433066
0.139971
0.0241769
0.128097
0.239189
0.0700176
0.000463377
0.000142696
9.44327e-05
0.000146604
0.00157589
0.000279101
0.108115
0.00262611
0.00166987
0.000157219
0.00124693
0.000301352
0.000164951
0.00736396
0.000196306
0.0212825
0.000275572
0.00101692
0.000170756
0.00385667
0.0221534
0.0167285
0.000174491
0.000318339
0.164098
0.245505
9.63988e-05
0.000117288
0.000114467
6.30981e-05
8.3136e-05
0.000962952
0.000248968
9.20463e-05
0.0490095
0.0078143
0.00107131
0.0420814
0.0944684
0.00242988
0.0231487
0.000267713
0.000121597
8.38076e-05
6.33117e-05
0.00528522
7.90826e-05
0.00736657
0.00933739
0.00091139
0.00021064
0.00165887
0.00659051
0.000273548
0.00214982
0.000680297
0.00141794
0.00015262
0.0075461
0.000366808
0.000338299
0.000187908
0.00101624
0.00143254
0.100127
0.0979903
0.000122662
0.0528901
6.42546e-05
0.00155075
0.00864336
0.00310613
0.0205332
0.00300627
0.000360785
0.00262024
0.000984279
0.0867737
0.000647683
0.0600076
0.00378358
0.00795338
0.00192376
0.119536
0.00357729
0.0246392
0.000287762
0.00540036
0.0496973
0.00254109
0.00155365
0.00753745
8.71158e-05
8.05742e-05
7.03509e-05
0.00165854
0.0189872
0.00164287
0.0070713
0.000998841
0.000814089
0.00047591
9.27981e-05
7.36927e-05
0.00287075
0.0510627
0.000116672
5.58767e-05
6.34456e-05
0.00394774
6.34995e-05
0.00052266
8.11229e-05
0.00406816
0.0095579
0.000825462
9.82604e-05
0.0365892
0.000760614
0.00168789
0.000542538
0.000182989
0.000200125
0.000490341
0.00729668
0.000302109
0.00137485
8.21765e-05
0.000695893
0.000146713
0.00290656
0.000242545
0.000126642
0.000143592
0.000858306
0.00539934
0.00705522
0.000103431
0.00240114
0.0777857
0.00392101
0.000108333
0.000209688
0.000132118
0.0121642
0.00741284
0.00193826
0.00536427
0.0339704
0.0254975
8.36929e-05
5.82621e-05
0.000223223
0.0346733
0.000323252
0.0134786
0.0154813
0.0201431
0.000374429
0.000296614
0.000110148
0.0012662
0.000352068
0.000884317
0.0954775
0.000903254
0.00326583
0.0169585
0.330436
0.00446576
0.000282021
0.0395451
0.0128037
0.000975094
0.000122472
6.16486e-05
0.00840371
8.23758e-05
8.15564e-05
0.00973462
0.0229918
0.00169359
0.000120684
0.000181085
5.85541e-05
0.0154847
0.000158726
0.000895188
0.000349825
0.0178892
0.00641635
0.000170814
0.00836959
0.000190663
0.00826293
9.78905e-05
0.00022459
0.118958
0.000187161
0.247322
0.174449
0.000338114
6.52026e-05
8.04143e-05
0.00424072
0.000114092
0.0027839
8.61802e-05
0.0882454
7.40434e-05
0.119201
0.00261589
0.0554908
0.00177721
0.000141417
0.0068985
0.00101141
0.0016758
0.0253669
0.00234929
0.00307438
0.203099
0.000663595
0.0636263
0.000137343
0.00111471
0.00210039
0.0572241
0.283672
6.84963e-05
0.0506423
0.0362439
6.4499e-05
0.00308385
0.434449
0.000386972
0.0034864
0.000101665
0.0198031
0.00264521
0.00744539
0.0544261
0.00111552
0.00321899
0.00674615
0.000157738
0.00602869
0.00572577
0.00106993
0.00881144
9.75885e-05
0.00916917
0.00296213
0.00217547
0.000328717
0.000256671
7.35357e-05
0.00417109
9.12291e-05
0.00033952
9.27303e-05
0.000709347
0.000133347
0.00367428
0.00093135
0.00510071
0.00514461
0.0041381
0.0211168
0.126705
7.40088e-05
0.000172259
0.000139929
0.00162895
0.00142735
0.0475297
5.76572e-05
0.00116912
0.000103292
7.44775e-05
0.00581221
9.65208e-05
0.000187221
0.000146928
9.17932e-05
6.66022e-05
0.0191204
0.00010928
0.000103189
0.00146539
0.000591144
9.33778e-05
7.62057e-05
0.00283414
0.00103853
0.000193713
0.0130571
0.000866894
9.72161e-05
0.000787522
0.000151629
7.74899e-05
8.0225e-05
6.49147e-05
0.0017517
8.2427e-05
6.30053e-05
0.0706719
0.000121181
0.0139419
8.154e-05
0.0114314
0.000122995
0.000137905
0.000113904
0.00067388
0.000377258
0.00105506
0.00155215
0.000203521
0.00135738
0.0153595
0.00270831
0.000637628
0.00540602
0.0141209
0.00024174
0.0102967
0.000369906
0.00466397
7.53267e-05
0.0132139
0.00014153
7.53647e-05
0.000206217
0.000447643
0.00316547
0.0281503
0.000340857
0.280065
0.0937283
0.0259656
0.134557
0.0356263
0.303308
0.000303626
0.000488605
0.000552446
0.00880988
0.00143386
0.163767
0.00017774
0.000201344
0.00217675
0.0116673
0.00124763
0.00589179
0.00418262
0.000204624
0.000355994
0.0020843
7.72414e-05
0.000299801
0.00436838
6.12195e-05
0.00345429
0.0667131
0.0037096
0.0014032
6.54415e-05
0.00045695
0.00103958
0.00763133
9.42266e-05
0.00799743
0.00191086
0.00388724
0.581767
0.000490909
0.000320138
8.23727e-05
0.0140353
0.000135771
0.00123795
0.000129532
0.000254372
0.0568503
0.000316502
7.45111e-05
0.000434825
0.000370803
0.000309881
0.00318187
0.000226638
0.00670981
0.000283401
8.40118e-05
0.000971484
0.0231104
0.448908
0.0021196
9.59047e-05
0.000242222
0.0322963
0.0551226
0.00621297
0.000862276
0.000351522
0.00100386
0.125558
0.000822436
0.117152
0.00130788
0.00287089
0.00797003
0.000197687
0.00012272
0.000152137
0.000280394
0.00751896
0.0016344
0.00115734
0.000104368
0.0124358
0.0990437
0.000144072
0.144187
0.37476
0.00767464
0.162059
0.0270078
0.000187083
0.00205235
0.174302
0.28026
0.00173551
0.00596974
9.57713e-05
0.177692
0.00185617
9.80772e-05
9.06482e-05
0.00135098
0.000214003
0.0543999
0.00468648
0.00212709
0.000497748
0.000831905
0.0137384
0.00480043
8.12325e-05
0.00499871
0.00180584
8.13904e-05
7.20691e-05
0.000696506
0.00811044
0.00125936
6.02707e-05
7.72392e-05
0.176297
0.000129249
0.000154745
0.000150116
0.00587931
0.390795
6.84188e-05
0.158902
0.000230744
8.87259e-05
0.154276
0.00160617
0.276406
0.185294
0.0028385
0.00287162
0.273193
0.00221269
0.238754
0.00272157
0.0011718
8.63026e-05
7.08732e-05
0.000550327
0.0382158
6.33752e-05
0.00594869
7.837e-05
8.92857e-05
0.00502192
0.00019773
0.00101746
0.000103648
0.00443205
0.524569
0.000770369
0.00681661
0.00593695
0.00113071
0.0301135
0.000999867
0.00247239
0.041972
0.00328712
0.00017769
0.036961
0.000157126
0.00670538
0.000180761
0.000520159
0.000885756
0.000801666
7.71872e-05
7.06974e-05
0.000524779
0.000284531
0.000126352
0.000115416
6.61776e-05
0.000563011
0.476776
0.00460856
6.24721e-05
0.00124019
0.105958
0.000209632
0.112668
0.00970598
0.00011401
0.00022103
0.000350878
0.000100952
0.401384
0.000312843
0.00234524
0.000544408
0.0105593
0.000454855
0.000109657
0.000294828
0.141573
6.6788e-05
0.29071
0.0262003
0.0105401
0.0065542
8.8896e-05
0.000478719
0.00101915
0.320165
0.00444642
0.0133623
0.00507474
8.39991e-05
9.0101e-05
8.08975e-05
0.00114762
0.000669221
0.00461271
0.000115208
0.00497835
0.000286912
0.00105923
0.000453437
0.000769869
0.000721523
0.000405188
8.14354e-05
0.000110077
0.000845885
0.000278192
0.000365821
0.000608064
0.000222033
0.000640043
0.000173251
0.000794578
0.00124592
0.00274067
0.00862141
0.00505084
0.00101058
0.0049031
0.346428
0.000270339
0.000305782
0.199963
8.84913e-05
0.00556201
7.2433e-05
0.000264333
6.36457e-05
6.57049e-05
0.000187904
0.00177497
0.442856
0.0016528
0.000805399
0.000709939
0.00135588
0.0119021
8.38906e-05
0.190998
0.00210559
0.0181391
0.155271
0.000356735
0.000372823
0.000313863
0.00065102
0.00689252
0.000183853
7.89369e-05
0.00837967
7.5795e-05
0.251937
0.0202396
0.00216732
5.75406e-05
0.00397129
0.034075
0.60768
0.0004736
0.00059832
0.0116667
0.201731
0.00038776
0.587823
0.00487898
0.0167755
0.0178054
0.0119327
0.000446682
0.47808
0.14399
0.00109712
0.00510425
0.0458042
0.0111943
0.192925
0.00599434
0.000715283
0.000127554
0.0223822
0.00886248
0.00010584
0.00031786
0.00939593
0.00532415
0.000103718
0.000248154
0.000645765
0.175816
0.00013381
0.00606402
0.000347452
0.000719647
0.000207519
0.000100493
8.35544e-05
9.55067e-05
0.000388024
0.00818064
0.000434789
0.000973592
0.328305
0.00313745
0.000148181
0.00214547
0.0394307
0.000391641
0.0333369
0.00177309
0.0123445
0.00347057
0.000158996
0.000474556
0.000356875
7.75268e-05
0.00034641
0.000497415
0.000436462
0.00231163
0.00991535
0.000216434
6.55891e-05
0.0684676
0.136979
8.29798e-05
0.00375738
0.165848
0.0815024
0.00195853
0.0862036
0.000107935
0.00432243
0.000610023
0.162711
0.00508428
0.000755757
0.000161977
0.000157916
0.000635497
0.000100923
0.000947901
0.000267524
0.0782954
0.000731349
0.00080865
0.00478762
9.84406e-05
0.0067866
0.000326526
0.000460623
0.000297402
0.000819442
0.000152217
6.59145e-05
0.045313
0.00850469
0.204926
0.0352387
0.000108055
0.103529
0.0061149
0.000109747
6.16666e-05
0.00130844
0.00118134
0.000516407
0.00238814
0.00268507
0.0052892
0.0890547
8.84812e-05
7.42191e-05
0.00305476
0.108565
0.300148
0.000162512
0.442399
0.531626
0.0684866
0.420725
0.000103693
0.525576
0.000281152
0.000119194
0.323806
0.00538764
0.0045389
0.0569494
0.0169561
0.194472
0.110035
0.000305564
0.00106859
0.000199271
0.000247486
0.0153797
0.000210988
0.228146
8.70168e-05
0.000357269
0.000311154
0.310712
0.321793
0.000105227
9.55576e-05
0.000319727
0.000122148
0.0842738
0.254861
0.000958424
0.000710035
6.07429e-05
0.00680661
0.000167381
0.000884188
0.000112151
9.65994e-05
0.00070881
9.4568e-05
0.00220697
8.27095e-05
0.000452854
0.000116541
0.0016659
0.000777037
0.0627907
6.8122e-05
0.00123713
0.000121451
0.00290705
0.00253169
0.00194885
0.000423294
0.00840864
0.0684049
0.0820901
0.00323922
0.00165932
0.0541989
0.00477273
0.00375605
0.012138
0.00145599
0.0726728
0.114132
0.000982947
0.0951282
0.00391539
0.0891483
0.00700737
0.134943
0.000151657
0.000936917
0.0202409
0.00269903
0.00527423
0.000104827
0.000201221
0.00124231
0.000208718
0.000897645
0.0112398
0.00226501
0.00103774
0.00141861
0.000996704
0.000134001
0.0114628
0.0126688
9.46223e-05
6.40155e-05
0.000312296
0.0157045
0.00194019
0.000646204
9.47861e-05
7.9929e-05
0.00015197
8.27987e-05
0.023253
8.52752e-05
0.000154689
0.00010417
0.00161092
0.0123551
0.00209281
0.00103718
0.00813909
6.98489e-05
0.000191958
9.8018e-05
0.000115004
0.000325078
0.133735
0.000148437
8.56533e-05
0.00143241
7.64428e-05
0.000108182
0.203082
0.0673062
7.44907e-05
6.50197e-05
0.000274915
0.0135585
0.813963
0.00194932
0.00575914
0.000164714
0.00768536
0.000474245
0.000122109
6.00978e-05
0.0107167
0.000987863
0.000232946
6.33029e-05
8.75229e-05
0.000194505
0.256915
0.00601969
6.85448e-05
0.000141212
0.743877
6.12762e-05
0.000511187
6.15865e-05
0.000293847
9.09199e-05
0.000555695
0.000124067
0.000175498
1.72959
0.000691452
0.016789
0.000438471
8.64208e-05
0.0832829
0.153653
0.000291157
9.4846e-05
1.3409
0.00556736
0.0006244
0.000236179
0.00133722
6.08263e-05
0.000111373
0.000109524
8.73826e-05
0.033129
0.000108524
0.0011371
0.329972
8.38957e-05
0.000134781
0.00116699
0.762866
7.09073e-05
0.219686
8.20934e-05
0.258027
0.00109577
0.00101296
0.000160584
0.00463584
0.00361899
0.00039987
0.00132338
0.000270088
8.66209e-05
0.000186743
0.000247158
6.52139e-05
0.000776205
0.000772936
8.09995e-05
0.000647387
0.00650455
0.000606034
0.00010325
0.306038
0.000244658
0.00157734
0.00768836
8.99221e-05
0.000107672
0.000318552
0.00366082
0.129563
0.000500833
0.000516582
0.00836375
0.00695154
7.12985e-05
0.000513082
7.78025e-05
0.000222755
7.83971e-05
0.000644395
8.16906e-05
0.000891786
0.000122643
0.451899
0.000641675
0.000227346
0.00145184
7.8721e-05
0.000326197
0.000149432
0.0201002
0.244395
0.00037484
0.000261183
0.000691819
0.000245243
9.74878e-05
0.00227405
0.0586805
9.52158e-05
0.183273
0.000115954
0.000118057
0.000954699
0.000191724
0.00241868
0.0638848
0.00389974
0.0120502
0.000324026
0.0182422
0.00164072
0.000236137
0.0233999
0.000659435
6.11551e-05
0.192966
0.00258913
0.000228733
0.00117107
8.1239e-05
8.89977e-05
0.00291584
6.70348e-05
0.000531044
0.000629278
0.00953449
6.54332e-05
0.000113854
0.13469
0.00351271
0.118674
0.0235378
0.00155671
0.00298209
0.0202921
0.0018476
0.00137973
0.00130547
0.0165307
0.00240736
7.52455e-05
0.000342806
0.000103271
0.00218826
0.00136116
0.00248679
0.205404
0.000279296
0.0142464
0.129468
9.42374e-05
8.81368e-05
0.00963595
0.00977769
0.155343
6.51045e-05
0.000213663
0.00167848
6.24508e-05
0.00571205
0.366728
0.0013897
0.000534141
0.435071
0.000461985
0.000395001
0.000122532
7.15103e-05
0.0889171
0.00809469
0.00165177
0.00371885
0.00012724
0.000297378
0.000373168
0.140647
6.09234e-05
6.11014e-05
0.165367
0.000273631
0.000195586
0.000140115
0.197445
0.000689415
0.129685
0.000106762
0.000103592
0.0183446
0.0381244
0.00501925
0.00155583
0.00228518
0.00010328
6.23013e-05
0.135709
0.111669
0.090624
0.000139568
0.144894
0.107512
9.99606e-05
0.00016933
0.000111075
0.0147431
0.00192717
0.0002315
0.00483124
0.000237948
0.109438
0.0755058
0.057567
0.050857
0.000158186
0.00683446
0.000830129
0.00438237
0.552634
7.80835e-05
8.78183e-05
0.00101626
0.00683701
8.44587e-05
0.00662539
0.00656456
0.00574495
0.000152979
0.00157294
0.0027554
6.85598e-05
0.0101921
0.000744709
0.0103117
0.00171339
0.0702645
0.0014217
0.000825906
0.000134745
0.000948702
0.0328474
0.00338815
0.000760815
0.0169293
0.0258619
0.00747502
0.0459864
7.62568e-05
0.000204859
0.000264165
0.0133083
0.000549099
0.00441798
6.64692e-05
0.00675923
0.000298939
0.0393026
0.000678039
0.000207004
7.18191e-05
0.115682
0.0411891
0.000145567
0.00812094
6.31986e-05
0.000212431
0.00130022
0.00259748
0.000709265
0.000695415
8.74585e-05
0.0133285
0.00324322
0.000851687
0.0414971
0.0887211
0.00298675
0.000448439
0.0021209
0.00138466
0.00304256
0.000553942
0.0195537
0.000700437
0.000102259
0.00177426
0.000508436
0.00058441
0.000235259
8.14219e-05
0.00402504
0.000121415
9.14341e-05
8.68586e-05
0.00401467
0.000245772
0.00360839
0.00295924
0.0189861
0.000111652
0.000365729
0.00268781
0.0288365
0.000355911
8.45106e-05
0.00262643
6.1581e-05
0.000108568
0.00416995
8.31056e-05
7.71511e-05
6.13611e-05
0.000331929
5.92053e-05
7.79626e-05
8.4228e-05
0.0025549
0.00810169
0.00325561
0.0631068
0.00622287
0.000288024
7.12954e-05
0.000123307
0.119549
0.00572632
0.0024716
6.00743e-05
5.99987e-05
0.00240412
7.80556e-05
0.0445528
0.00401231
0.00210568
0.092728
0.000116105
0.00100153
0.000199134
0.110287
0.00667612
0.0751853
0.000430325
0.0234675
0.00484366
0.00537944
0.000172563
0.0877603
0.00459343
0.00896351
0.00669221
0.0049243
0.00544322
0.000212199
0.0318887
0.000108702
0.140333
0.211205
0.240009
0.0161453
0.257173
0.0114073
0.00401162
0.000121823
0.111131
0.272583
8.23387e-05
0.00348232
0.000110291
0.000288955
0.000230848
0.271459
0.0251524
0.000362953
0.00100396
0.0160514
0.0685243
0.00086439
8.49776e-05
0.025451
0.0162447
0.000674704
0.325276
0.0951577
0.00253788
0.0001491
0.0106786
0.00558596
8.45909e-05
0.000822102
0.000143126
0.000132921
0.000950405
0.000205709
0.000720814
0.000261853
0.000233142
0.0172642
0.000418458
0.363865
0.136995
0.000141577
0.000470245
0.000628156
0.000886676
0.000608767
0.012252
0.00105712
0.0713933
0.00295905
0.00183853
0.00161075
0.00420625
0.000224076
0.00031104
9.91166e-05
0.0517981
0.0122231
0.00876876
0.0370381
0.00110212
0.00169961
0.000313716
0.00302063
7.43472e-05
0.00295706
0.00305621
0.0188952
0.000633987
0.000222624
0.000553329
0.00062641
0.000758935
0.00943168
0.00016872
0.00414949
0.00667323
0.0100496
0.000544217
0.453978
0.000697274
0.000379019
0.000277388
0.000275285
6.56205e-05
0.00592371
0.00697563
0.00144896
0.00121892
0.00135239
0.000739382
0.000150056
0.00999978
0.000255048
0.000727427
0.00382843
0.00116428
0.327898
0.00362588
0.00484876
6.67165e-05
0.333234
0.0593481
0.0001593
0.00192851
8.5896e-05
0.000463885
0.00453997
7.86634e-05
0.00386251
6.13527e-05
0.0371203
0.000925702
0.00140691
0.000135245
0.000736709
0.00158738
0.000134591
0.000996499
0.000330378
0.000218965
8.28598e-05
5.85476e-05
0.0133498
0.000495304
0.000220198
0.00115121
0.0843872
0.000118711
9.94581e-05
0.000193183
0.000118222
0.0217322
0.000983138
0.00422623
0.00177665
0.000195721
0.0114037
0.0831184
0.00118518
0.00028375
0.0681402
0.000848709
0.0159284
0.00109185
7.17273e-05
0.00102743
0.000514585
0.186145
0.00079243
0.00011646
0.000119085
0.000173836
0.58073
0.111096
0.0373437
0.00118258
0.00263852
0.0224997
0.000177267
7.48866e-05
0.414073
0.0826396
0.261899
0.000155468
0.000754996
0.160334
0.0203678
0.00192222
0.000316604
0.0199288
0.0763336
5.93437e-05
0.00536617
0.00667792
0.00269621
0.00058444
0.00546158
0.000220831
0.139951
0.13871
0.00515269
0.0599962
6.16543e-05
0.000394935
0.0511573
0.00714342
0.000159159
0.000774172
0.000272324
0.165597
0.00205478
0.0631341
0.000310791
0.000108816
0.000127148
0.0155407
0.0603956
6.67782e-05
6.51365e-05
0.000113382
0.00356819
0.000285048
0.00105663
0.0329429
0.0017925
0.00099708
0.00938706
0.100899
0.00164958
6.03543e-05
0.00623913
0.000407881
9.25755e-05
0.010537
7.4497e-05
0.0105873
0.000113808
0.0010958
0.000448961
0.00998033
0.00128481
7.24055e-05
0.00488981
0.000220785
6.58479e-05
0.00156789
0.000233783
0.000100254
0.00179163
0.000266957
0.000168718
0.00438841
0.000954915
0.000201129
0.427357
0.00331434
0.00169409
0.0331493
0.0776895
0.000227456
0.00113337
7.18777e-05
0.0014044
0.0011301
0.00344241
0.00446079
0.0962116
0.00440177
0.000354766
0.000163909
0.0080435
0.000369498
0.00138426
0.000166652
0.000132237
0.00156209
0.176335
0.00199642
0.000104697
6.78086e-05
8.87683e-05
0.000100108
0.00192796
0.202057
0.00131657
0.537238
8.75601e-05
0.311216
0.00145474
0.153186
0.0103624
0.00376568
0.439927
0.041401
0.00065614
0.00732752
6.45947e-05
0.00500155
0.00128636
0.00372027
0.000903974
0.0102926
0.0964359
0.00120344
0.00465057
0.000133574
0.0814848
0.000314108
6.03896e-05
7.492e-05
0.00351966
7.90038e-05
7.29543e-05
0.0442415
0.0211802
0.000366634
0.000312398
0.000264038
6.81762e-05
0.00054455
0.000382447
8.60488e-05
6.34153e-05
0.000294448
0.000189813
0.0138756
0.570053
0.000113308
0.0385404
0.0279911
0.00628014
0.00551028
0.152412
0.000485659
0.00497869
0.0010081
0.00797068
0.00822829
0.00041488
8.92357e-05
0.000467234
0.0121967
8.77841e-05
0.0431767
0.000680055
0.0017272
6.4534e-05
9.36687e-05
0.000720943
0.00465386
0.000307548
0.00107582
0.000235542
0.00222514
0.00144076
0.000131027
0.000718844
0.0442917
0.0140157
0.0104416
0.00332428
0.0824422
0.00139073
0.00721803
0.00692826
0.0200904
0.000158797
0.00455576
0.000150429
0.0599459
0.00559805
0.0120731
0.00618478
0.00323102
0.000959532
0.162561
0.000374451
0.00014692
0.00155816
0.0399021
8.84919e-05
0.0582647
0.00137259
0.00278314
0.000108378
0.000151392
0.001366
0.00116589
0.00179363
0.00915185
6.48277e-05
0.0395126
0.00161512
0.000369278
0.000472869
0.0015329
0.00173516
0.00162095
0.0142303
0.00112663
0.00433
0.0108872
0.000613743
0.000324193
0.00194102
0.00246461
0.000270302
0.234021
0.000110737
0.00127774
0.000131155
0.00150706
0.000229628
0.00817126
0.00360282
0.0112919
8.45621e-05
6.51922e-05
0.00026486
0.0929865
0.00319579
0.080148
0.00319833
0.0201601
0.101057
0.000259897
0.0351844
0.000151263
0.000154751
9.87956e-05
0.00105789
0.000244231
0.00241593
0.00315728
0.000442239
0.00131124
0.00209331
0.136005
0.000155791
0.000256384
0.000213129
0.000894509
0.000540276
0.010985
0.000160918
0.00138656
0.320643
0.00363804
7.51147e-05
0.0273924
5.86515e-05
0.000255272
0.000376812
0.0006345
0.00492109
0.0649981
0.00455198
0.000726558
0.0421816
0.00016315
0.00105034
0.00226605
6.14758e-05
0.00344196
0.00136351
0.00022948
6.83129e-05
0.000200485
0.190357
0.00103516
0.269043
0.000657213
0.00156736
0.00395607
0.000190789
0.00188649
0.000639455
6.3575e-05
9.23304e-05
0.0228181
0.00120943
0.000594164
0.000163402
7.62396e-05
0.00057902
0.000110852
5.92274e-05
8.8689e-05
0.000135928
6.62291e-05
0.0001731
0.00262856
0.00213292
8.53608e-05
0.010745
0.00164821
6.47334e-05
0.000403223
0.00093395
0.0231287
0.0149895
0.0852399
0.00236237
0.000587799
0.0556486
0.00375
0.00713313
0.00388093
0.0104549
0.000171427
5.86113e-05
0.0840423
0.000150399
0.000749632
0.000423881
5.70588e-05
0.0197649
6.29586e-05
0.000145213
8.44225e-05
0.00130582
7.40319e-05
6.51811e-05
0.000250146
0.00460092
0.000106206
0.000147397
0.000543958
0.107395
0.00364015
0.0471806
0.0667144
0.000168502
0.0273852
0.000109408
0.00198723
0.00966113
0.000169121
0.000342566
0.00568332
0.0852869
0.245522
7.91837e-05
0.00149831
0.131873
0.00194956
0.00188328
0.00579913
0.00576302
0.00796232
0.00145311
0.0772897
0.00187848
6.13942e-05
0.000217124
6.69302e-05
0.00150502
0.119571
0.00528205
0.00183313
0.215848
6.14018e-05
0.000574992
0.00010031
0.00173122
0.000135302
0.00192614
0.00297955
0.00298236