/*--------------------------------*- C++ -*----------------------------------*\
| =========                 |                                                 |
| \\      /  F ield         | OpenFOAM: The Open Source CFD Toolbox           |
|  \\    /   O peration     | Version:  v2012                                 |
|   \\  /    A nd           | Website:  www.openfoam.com                      |
|    \\/     M anipulation  |                                                 |
\*---------------------------------------------------------------------------*/
FoamFile
{
    version     2.0;
    format      ascii;
    class       volScalarField;
    location    "1.61209946";
    object      nut;
}
// * * * * * * * * * * * * * * * * * * * * * * * * * * * * * * * * * * * * * //

dimensions      [0 2 -1 0 0 0 0];


internalField   nonuniform List<scalar> 
83563
(
1.62241e-05
3.79917e-05
3.54364e-05
3.14785e-05
0.000380109
4.82334e-05
0.000687014
0.000459305
0.00018998
0.000738253
5.20462e-05
0.00118396
0.00120062
1.7798e-05
0.000348686
0.00816473
2.28615e-05
1.78122e-05
0.00130782
1.79184e-05
1.77588e-05
1.78823e-05
0.000645562
0.000975276
2.12644e-05
4.6934e-05
3.87574e-05
0.000889895
4.90237e-05
2.60502e-05
7.00855e-05
1.7396e-05
0.000558052
1.88627e-05
1.72704e-05
0.000117345
3.37921e-05
4.30181e-05
3.99731e-05
0.00015317
2.56168e-05
9.11235e-05
5.68425e-05
7.91851e-05
2.8788e-05
0.00032165
0.00315802
0.000169168
7.55898e-05
0.00679991
0.00644814
0.000100522
0.00153521
0.00192367
9.07801e-05
0.00151208
3.26565e-05
0.00136602
0.00187004
0.000158731
0.00183759
0.000912394
6.56063e-05
3.84629e-05
0.00259501
0.00155536
0.00257821
6.63533e-05
2.10357e-05
0.00645463
0.00010673
0.00299419
2.83048e-05
0.00363916
3.48356e-05
0.00619482
0.00228604
2.54609e-05
2.70607e-05
0.00242816
1.60469e-05
0.000191014
0.000225195
0.00421807
0.00022405
1.73751e-05
2.51184e-05
0.00268315
2.11539e-05
5.1477e-05
0.00024239
1.6066e-05
0.0004023
0.000246458
0.00079651
0.000371256
0.00146335
0.000403763
4.73108e-05
0.000182477
0.00010271
2.79628e-05
0.000109837
2.59434e-05
8.23632e-05
7.48683e-05
9.00401e-05
1.39946e-05
0.000453341
1.84699e-05
0.000273806
0.000296534
0.00250692
0.000154693
2.63921e-05
2.34849e-05
0.00125447
0.000461443
5.79723e-05
1.72129e-05
0.00015673
0.000163348
0.000153231
0.00136099
0.000252399
3.97312e-05
0.00180576
0.000462482
0.000272017
5.8164e-05
0.00518311
0.00207954
0.000198653
0.00231929
6.43111e-05
1.83062e-05
0.000140054
4.42532e-05
6.84345e-05
0.00487451
0.00181424
0.00160294
6.25294e-05
0.00119295
0.0106587
0.00179012
0.000116741
2.55182e-05
8.79645e-05
3.00186e-05
0.00265209
2.54383e-05
3.43049e-05
0.00019061
1.54977e-05
1.35419e-05
1.44262e-05
4.19627e-05
7.97165e-05
0.000198069
0.000183692
1.77542e-05
3.02213e-05
3.10005e-05
0.000340079
0.000845447
1.34183e-05
0.00256825
2.06485e-05
0.00034598
2.29618e-05
4.27747e-05
0.0150826
0.00787932
0.0153706
5.32338e-05
5.91247e-05
0.00011426
0.000104455
1.29474e-05
0.0001146
1.85569e-05
0.000183508
0.00175637
0.000547951
0.000898127
0.000543533
0.000364289
8.93979e-05
1.68963e-05
1.5868e-05
0.000644337
0.00154538
0.00092374
0.00124565
0.00259189
7.80696e-05
0.000367134
1.77643e-05
0.000174644
0.000167935
7.60372e-05
0.000295149
1.29134e-05
0.000373846
0.000443047
6.01891e-05
0.00222162
1.70708e-05
9.55274e-05
0.000215593
0.000631063
1.7173e-05
2.06809e-05
0.000150813
0.000278624
0.000132608
1.92477e-05
4.12725e-05
9.1856e-05
2.84435e-05
4.68495e-05
0.00011534
0.000127108
0.00025182
1.76004e-05
0.000480311
2.05903e-05
4.36611e-05
0.000303687
2.22464e-05
6.9284e-05
1.29694e-05
5.52352e-05
0.00770144
1.85087e-05
0.000201434
0.000135385
5.8846e-05
2.84769e-05
0.000219268
0.00010814
6.59422e-05
1.85518e-05
0.000135477
2.60344e-05
0.000144921
2.20562e-05
0.00206334
5.54116e-05
0.000138808
4.32051e-05
3.93975e-05
0.000928958
5.23175e-05
5.52647e-05
1.28941e-05
0.000345663
2.96569e-05
4.56017e-05
4.01601e-05
8.86989e-05
0.000502547
0.000218989
5.53811e-05
0.000130309
0.000172553
8.47756e-05
1.8571e-05
1.33413e-05
9.05887e-05
0.000135926
0.00263664
6.51623e-05
0.000123745
5.98314e-05
0.000267538
0.000346242
2.18959e-05
5.01571e-05
0.000460901
2.28836e-05
1.55364e-05
0.000375628
0.0020041
2.65085e-05
0.00195344
2.99062e-05
5.72045e-05
0.000107621
0.00245632
3.57103e-05
0.000279081
2.74766e-05
3.3423e-05
7.56295e-05
0.000114054
0.000407068
4.51902e-05
3.18814e-05
3.45235e-05
7.50009e-05
0.000106034
2.46932e-05
1.99021e-05
0.000210874
0.000265805
0.00447258
0.000240097
0.000757083
9.01085e-05
0.000244667
0.00126953
0.00146258
9.44561e-05
0.000158355
0.00203351
0.000102233
1.69571e-05
5.2987e-05
0.00063176
0.000108041
2.24266e-05
3.93827e-05
5.40024e-05
1.40752e-05
0.000487789
0.00348721
0.000103983
0.00316713
0.000116498
3.92435e-05
1.5786e-05
0.0031297
1.52774e-05
1.83943e-05
7.05616e-05
0.00207186
0.000255837
2.95269e-05
0.00428899
0.00124067
2.68868e-05
2.37371e-05
9.51473e-05
0.000249674
0.000251493
4.49642e-05
0.000329402
2.23911e-05
1.23843e-05
0.000318039
3.10781e-05
0.000563652
0.000658282
1.78011e-05
0.000409711
0.000135757
0.000108737
0.000694383
0.0026054
0.000613664
0.00025076
0.00279915
0.000306848
0.000625484
0.00083732
0.000288915
0.00979637
1.78176e-05
7.36743e-05
0.000116843
0.000287221
7.61595e-05
0.0003437
0.00029612
0.000449411
0.000103507
2.75636e-05
7.13455e-05
3.94472e-05
0.000661901
3.16543e-05
0.000727766
0.000385397
0.000152772
6.7978e-05
6.72041e-05
0.000491983
8.38101e-05
0.000284595
2.81598e-05
3.65067e-05
0.000299368
0.000411383
0.000356528
0.000186595
0.000250316
6.63828e-05
1.31241e-05
0.00183622
1.84089e-05
3.02095e-05
0.00773469
0.00121176
5.45207e-05
0.000415228
0.000217174
1.84687e-05
0.000209802
0.00331069
0.000483142
2.71207e-05
3.66607e-05
0.00201917
1.84624e-05
6.69497e-05
7.18675e-05
0.000399123
5.23613e-05
2.3341e-05
3.97563e-05
0.00301006
2.90433e-05
0.000887225
0.00361512
8.31345e-05
0.000292622
0.00604499
0.000107268
0.000175681
0.0014185
0.000143332
6.13092e-05
0.000449159
0.000337203
0.00800253
1.88122e-05
0.000172971
0.000839754
0.000590445
9.26973e-05
0.00510523
4.01781e-05
0.00257105
0.000156714
8.21871e-05
0.00362933
0.00359466
0.00543468
0.00371425
2.88677e-05
0.00012765
3.60822e-05
0.0002338
0.000417261
0.00905319
2.20783e-05
3.32662e-05
0.00831189
1.99198e-05
0.00148669
3.50783e-05
2.28691e-05
4.59225e-05
4.86952e-05
2.39916e-05
6.44406e-05
5.7518e-05
0.000125518
0.000139753
0.000117434
3.00143e-05
0.000256748
0.000157972
0.000304006
0.000101852
0.000102058
0.000106171
0.000281501
0.000106505
2.37427e-05
8.73182e-05
8.61251e-05
2.03657e-05
0.000340006
0.000138179
0.000234714
0.0108738
1.40127e-05
1.73146e-05
5.76685e-05
7.91052e-05
0.00148798
0.000471134
8.18484e-05
4.83014e-05
3.99106e-05
3.78252e-05
3.509e-05
1.34022e-05
0.000110779
0.00140714
1.96734e-05
7.20954e-05
1.76925e-05
4.49232e-05
0.000109262
0.00010653
6.58411e-05
2.102e-05
2.29792e-05
2.01773e-05
1.86968e-05
2.57897e-05
3.40106e-05
4.78112e-05
0.00359645
0.004128
2.67213e-05
5.51156e-05
0.00023511
0.000113201
0.0001432
0.00018874
2.70339e-05
0.000144741
0.00312479
2.34983e-05
2.71572e-05
4.03896e-05
1.67359e-05
6.57692e-05
3.33095e-05
3.34801e-05
5.73113e-05
0.00284956
0.000835512
0.000211046
0.00319279
6.47923e-05
2.45726e-05
0.00118105
0.000611599
0.00173943
0.00194367
3.6898e-05
0.00197795
0.000718954
0.000101196
9.12586e-05
0.000293276
0.000134761
9.60792e-05
1.52153e-05
0.000151961
0.00148447
0.000886189
0.000803584
1.91823e-05
0.000156032
0.00197905
6.04048e-05
0.000252815
0.000535486
2.92289e-05
0.000685353
2.31016e-05
9.26419e-05
0.000216178
0.00488294
0.000167438
3.19135e-05
8.42337e-05
0.000882077
0.000221026
2.67998e-05
3.54858e-05
3.61953e-05
3.47904e-05
3.33594e-05
1.41725e-05
0.00963737
0.000153
2.17821e-05
4.03234e-05
2.22902e-05
6.65092e-05
1.74973e-05
6.94209e-06
1.92458e-05
3.56274e-05
1.91691e-05
3.37905e-05
6.47608e-05
2.03795e-05
2.32639e-05
2.8633e-05
1.78692e-05
1.32781e-05
6.04981e-05
1.85299e-05
2.48576e-05
1.84019e-05
5.19998e-05
3.94183e-05
0.000770474
2.79202e-05
2.67891e-05
2.51883e-05
3.19677e-05
3.64561e-05
1.44018e-05
6.00763e-05
0.00295957
4.14211e-05
6.57982e-05
0.000109767
0.00016584
0.000212866
0.000338587
0.00384325
6.33886e-05
0.000105727
1.5983e-05
7.65298e-05
0.000159336
2.69273e-05
5.23117e-05
1.92893e-05
0.0003378
4.71151e-05
3.96749e-05
0.000211461
2.55085e-05
0.00212232
0.000125125
9.47644e-05
1.82021e-05
2.72116e-05
7.41618e-05
0.00046379
0.000547895
0.000764269
6.54916e-05
1.99359e-05
2.45222e-05
0.00289142
0.0018946
7.27209e-05
6.37702e-05
0.000103297
0.000293472
0.000151446
0.000431396
0.000104965
0.000984915
2.23709e-05
0.00196936
9.19997e-05
2.26781e-05
0.00240132
0.00233471
0.00357143
0.00139238
1.79404e-05
0.000601506
2.34289e-05
1.98272e-05
0.000477984
0.00250194
0.00010855
0.00286391
0.00563267
0.000334863
8.1686e-05
0.00165451
7.50652e-05
0.0001173
0.00078474
0.00168628
9.5901e-05
0.000437995
0.00125062
1.37075e-05
0.000942131
0.0139489
0.00936427
0.00101221
3.20147e-05
5.3763e-05
0.00441938
3.1507e-05
0.000413376
0.000198048
0.00140968
0.000169413
0.000707963
0.00014734
5.81981e-05
0.000106568
7.88262e-05
1.91627e-05
0.000220425
0.000566488
0.000228382
1.67929e-05
5.92616e-05
7.79076e-05
0.000246698
1.77567e-05
0.000164356
1.7857e-05
4.7236e-05
0.000192968
1.27461e-05
2.39381e-05
4.33363e-05
0.000180896
0.00757829
2.03963e-05
0.0014164
3.30443e-05
0.000141834
4.26095e-05
0.000114478
0.00274628
0.00105247
3.51476e-05
0.00380672
1.31087e-05
1.91718e-05
2.06671e-05
0.0176398
0.00150789
0.000220359
2.57116e-05
4.43511e-05
0.00122877
1.41208e-05
3.60774e-05
0.000149788
1.67631e-05
0.000192527
8.27363e-05
3.8054e-05
0.000161161
0.00250205
0.00166635
3.11084e-05
4.06507e-05
4.8859e-05
1.78382e-05
0.00369727
0.000134435
0.000321226
1.77462e-05
2.7299e-05
0.000362233
7.90558e-05
4.75028e-05
2.76041e-05
6.77067e-06
1.62739e-05
0.000127317
3.69264e-05
1.74639e-05
4.45629e-05
0.000151971
0.0062628
4.2774e-05
2.06905e-05
1.31359e-05
0.000159783
2.85576e-05
0.000111836
3.16623e-05
0.000575509
2.44388e-05
5.0247e-05
6.55383e-05
0.00478863
0.0030533
0.00235173
2.64126e-05
0.00150996
6.35611e-05
0.000311911
2.70073e-05
6.53263e-05
0.000245961
0.00103012
4.89938e-05
0.00269232
0.000128683
8.05899e-05
0.000890497
0.000350912
2.48226e-05
3.57568e-05
0.000236607
3.83389e-05
0.000208308
1.96515e-05
2.6817e-05
2.43035e-05
0.000164288
0.00106183
0.00105385
0.000226703
2.89178e-05
9.39726e-05
0.00159611
0.00140906
0.00123258
0.000937389
2.14281e-05
0.000798426
2.48423e-05
1.40242e-05
0.000431913
3.86766e-05
0.00169897
0.00191199
7.79625e-05
0.000188856
0.000268742
0.000211435
2.30872e-06
3.69554e-05
1.26022e-05
0.00283213
9.6553e-05
0.00338414
5.26278e-05
1.82225e-05
1.82224e-05
4.69196e-05
3.94479e-05
0.000137005
3.4949e-06
1.1979e-05
3.95832e-05
1.81218e-05
8.72921e-05
2.83032e-06
0.00346628
0.0010817
0.00324284
0.00300683
0.00268543
3.2294e-05
1.4211e-05
2.40639e-05
2.83893e-05
8.61758e-06
4.92873e-05
0.00300168
0.000166468
9.47916e-05
2.03708e-05
8.47336e-05
3.18938e-05
1.73767e-05
0.000289567
4.80573e-05
0.000742469
5.10964e-05
7.45961e-05
1.74238e-05
0.00018918
0.000418533
0.000654425
4.06429e-05
4.73591e-05
0.00632505
0.00983229
1.14757e-05
2.43448e-05
2.6494e-05
1.86608e-05
4.3335e-05
6.75491e-05
1.88104e-05
1.39803e-05
0.00318854
0.00024449
6.1779e-05
0.00131327
0.00157309
0.000159356
0.000563133
2.35313e-05
2.72342e-05
1.7651e-05
1.67963e-05
0.000269936
1.24192e-05
0.0003195
0.000275845
6.28651e-05
1.62335e-05
0.000130068
0.000231736
2.43817e-05
0.000108147
5.38767e-05
0.000121415
3.09504e-05
0.000349754
3.95474e-05
3.81493e-05
1.54226e-05
8.4414e-05
8.66455e-05
0.00211891
0.00123872
1.22811e-05
0.00128057
1.86624e-05
0.000159958
0.000359286
0.000147844
0.000557685
0.000233588
3.70938e-05
0.000142446
7.11699e-05
0.000808877
5.77588e-05
0.00306598
0.000218976
0.000317827
0.000116851
0.00139369
0.00016063
0.000970189
4.28092e-05
0.000239395
0.0011845
0.000137237
9.40018e-05
0.000245597
4.5548e-05
1.9675e-05
1.82177e-05
0.000100301
0.00115801
0.0001027
0.000535146
9.26905e-05
7.86057e-05
3.38829e-05
2.17453e-05
2.0418e-05
0.000163618
0.0010205
1.56924e-05
1.73889e-05
1.81205e-05
0.000178308
1.87377e-05
5.37988e-05
1.74268e-05
0.000177981
0.000340606
7.11099e-05
1.42925e-05
0.00113003
5.70915e-05
0.000203239
5.52476e-05
3.45843e-05
3.29267e-05
5.14237e-05
0.00027509
1.95969e-05
8.62893e-05
2.08107e-05
6.32123e-05
2.82082e-05
0.000128484
3.67518e-05
2.35776e-05
3.44765e-05
7.38594e-05
0.000233212
0.000286024
2.68166e-05
0.000186271
0.00159591
0.000151623
1.56198e-05
3.12341e-05
2.70275e-05
0.000600545
0.000300676
0.000112222
0.000195368
0.00152189
0.00150475
1.71694e-05
1.7816e-05
3.39058e-05
0.00107754
3.73196e-05
0.000539837
0.000508153
0.000653313
4.57018e-05
3.96902e-05
2.58033e-05
8.11425e-05
2.44091e-05
6.34977e-05
0.00607733
6.02044e-05
0.000157578
0.00062818
0.0103819
0.000265276
3.49969e-05
0.00107447
0.000410075
0.00010045
2.01331e-05
1.80621e-05
0.00029551
3.52656e-05
1.29062e-05
0.000295389
0.000928836
9.3272e-05
4.92496e-05
4.95488e-05
1.78669e-05
0.000364413
2.23585e-05
5.85901e-05
3.36714e-05
0.000981862
0.000264128
2.03022e-05
0.00029654
2.67176e-05
0.000254501
4.94238e-05
3.36651e-05
0.00263409
3.29554e-05
0.00316779
0.00237357
2.43508e-05
2.06312e-05
2.17847e-05
0.000194123
1.59118e-05
0.000121226
1.54257e-05
0.00182556
2.09686e-05
0.00166995
0.000240608
0.00153654
8.78707e-05
1.45802e-05
0.000437719
6.89597e-05
0.000106099
0.00131231
0.000107804
0.000169093
0.00231878
4.77939e-05
0.00220043
6.21315e-05
7.36122e-05
0.000112288
0.00200061
0.0053047
1.95148e-05
0.00180451
0.00203651
1.75192e-05
0.00012893
0.00500469
3.92671e-05
0.000274321
3.93322e-05
0.000813454
4.08187e-05
0.000289676
0.00184464
9.05547e-05
0.000176645
0.000288367
2.52633e-05
0.000216372
0.000211304
6.76207e-05
0.000293339
2.26945e-05
0.000267755
0.000114234
0.000106191
2.75801e-05
5.47164e-05
1.49406e-05
0.000166867
2.28244e-05
2.40134e-05
2.32554e-05
6.14107e-05
1.97499e-05
0.000198719
5.56499e-05
0.00019282
0.000426093
0.000203562
0.000950681
0.00242037
1.98499e-05
3.19623e-05
1.3824e-05
0.000137178
8.18771e-05
0.00110372
1.77212e-05
6.69492e-05
3.34864e-05
1.59635e-05
0.000247476
4.59455e-05
3.12442e-05
1.78293e-05
2.14307e-05
1.67315e-05
0.000683939
3.08981e-05
4.79388e-05
9.52752e-05
4.88888e-05
1.28572e-05
2.05431e-05
0.000137106
7.01033e-05
6.69431e-05
0.000420226
5.80207e-05
2.07427e-05
6.20636e-05
2.78777e-05
2.53673e-05
2.1641e-05
1.63524e-05
0.000123286
1.28441e-05
1.84993e-05
0.00422979
3.3219e-05
0.00043802
2.68692e-05
0.0010188
2.9332e-05
2.50456e-05
2.62763e-05
5.20467e-05
4.54136e-05
7.04397e-05
8.23631e-05
2.3421e-05
8.12034e-05
0.000505684
0.000131201
6.19635e-05
0.000235994
0.000529807
3.82327e-05
0.000318458
3.4827e-05
0.000391258
2.96785e-05
0.000487369
1.89787e-05
2.20722e-05
2.19263e-05
4.2498e-05
0.000134966
0.000843438
4.7578e-05
0.00909991
0.00407854
0.000871896
0.00285726
0.000725327
0.0062456
2.69324e-05
2.91869e-05
4.46696e-05
0.000306804
8.68927e-05
0.00334592
4.46247e-05
1.71525e-05
0.00013922
0.000278036
0.000103368
0.000254717
0.000166753
2.46013e-05
4.1871e-05
0.0001152
1.18771e-05
3.05711e-05
1.72819e-05
1.79901e-05
3.20084e-05
0.00149526
0.000180129
8.72826e-05
1.73846e-05
4.56978e-05
7.30432e-05
0.000303266
1.50148e-05
0.000347726
0.000109709
2.05857e-05
0.0160849
4.34231e-05
2.25984e-05
2.09856e-05
0.00069577
3.76059e-05
7.88744e-05
1.42439e-05
1.89764e-06
0.000560345
4.3138e-05
2.03454e-05
2.47841e-06
3.12746e-05
2.29965e-05
0.00015238
2.06269e-05
0.000282698
2.03359e-06
2.25303e-05
4.94019e-05
0.000869522
0.00974318
0.000100179
1.44624e-05
2.24658e-05
0.0017325
0.00113137
0.000346947
7.2078e-05
4.18548e-05
7.474e-05
0.0012856
7.15975e-05
0.00589302
8.00533e-05
0.000204574
0.00024865
2.02555e-05
4.31336e-05
6.01362e-05
2.86053e-05
0.00029118
0.00011269
7.98632e-05
2.41167e-05
0.000582719
0.00168516
2.73917e-05
0.00688273
0.0138044
0.00033109
0.00409216
0.000647513
1.9985e-05
9.87278e-05
0.00304843
0.00921486
9.99115e-05
0.000263229
2.31623e-05
0.00323321
0.00011555
1.45701e-05
2.13727e-05
7.23441e-05
2.20743e-05
0.00215642
0.000185108
0.000116631
6.47687e-05
6.22937e-05
0.000501884
0.000272985
1.58834e-05
0.000184942
0.000104049
1.74484e-05
2.62135e-05
4.6331e-05
0.000306426
8.08121e-05
1.80001e-05
2.07482e-05
0.0014239
1.52116e-05
1.4375e-05
1.58092e-05
0.000238594
0.0053609
1.83062e-05
0.00135202
3.1938e-05
2.52539e-05
0.0043933
8.31413e-05
0.00282665
0.0041353
0.000150419
8.98894e-05
0.00597499
1.58877e-05
0.00515452
0.000110527
6.63532e-05
1.4947e-05
1.39755e-05
5.63363e-05
0.00140413
1.75232e-05
0.000223325
1.25587e-05
2.24205e-05
0.000207645
2.70807e-05
8.22961e-05
1.32693e-05
0.000253736
0.00741998
6.01355e-05
0.00033599
0.000300773
7.12354e-05
0.00076943
7.25837e-05
0.00012735
0.00131815
0.000139902
3.36035e-05
0.00365087
2.84468e-05
0.000301219
2.5737e-05
4.86703e-05
4.257e-05
6.30355e-05
2.12905e-05
1.38143e-05
4.99013e-05
3.87607e-05
3.89157e-05
2.74244e-05
1.71345e-05
5.24638e-05
0.0148612
0.000243989
1.77347e-05
7.98683e-05
0.00208484
3.993e-05
0.00565916
0.000331203
2.02108e-05
2.97612e-05
2.59501e-05
2.49099e-05
0.00654838
3.83611e-05
0.00011186
5.78809e-05
0.000364578
3.57773e-05
1.29847e-05
6.90477e-05
0.00282938
1.95258e-05
0.00911062
0.00151346
0.000358147
0.000242405
2.4929e-05
4.4626e-05
7.61943e-05
0.00862713
0.000207981
0.000295962
0.000215376
2.37222e-05
1.5171e-05
2.25065e-05
7.4467e-05
6.88049e-05
0.00021981
2.22988e-05
0.000203934
3.60201e-05
8.97823e-05
4.88993e-05
7.40865e-05
5.24777e-05
3.74238e-05
2.10987e-05
2.98275e-05
8.02664e-05
2.59699e-05
5.15812e-05
5.03045e-05
1.76276e-06
7.22765e-05
1.61025e-05
6.20863e-05
6.61033e-05
0.000136107
0.000344664
0.000155318
6.46187e-05
0.000216319
0.00711267
2.24924e-05
4.0053e-05
0.00261747
2.27129e-05
0.00030327
1.77283e-05
3.22028e-05
2.0226e-05
1.61216e-05
2.96637e-05
0.000108071
0.00448849
0.000102798
6.92162e-05
4.79923e-05
8.7992e-05
0.000479658
1.73966e-05
0.00662546
0.000104996
0.000364109
0.00234541
3.86357e-05
4.58916e-05
2.80667e-05
5.90545e-05
0.000120289
1.61262e-05
1.7145e-05
0.000310018
5.34247e-05
0.0045306
0.00063219
0.000124245
1.76864e-05
0.00018677
0.000908242
0.00517089
3.02236e-05
5.32973e-05
0.000375889
0.00192888
2.91662e-05
0.00529372
0.000185026
0.000574912
0.00101264
0.000412096
4.07585e-05
0.00490925
0.00426661
9.92764e-05
0.000212301
0.00284358
0.000291322
0.00288358
0.000233903
5.2711e-05
1.4757e-05
0.000667794
0.000302912
4.45836e-05
3.29013e-05
0.000317319
0.000179733
4.41514e-05
2.05675e-05
5.36041e-05
0.0031619
1.49524e-05
0.000154927
4.12984e-05
5.6035e-05
1.92966e-05
2.43701e-05
2.13449e-05
2.35087e-05
4.14008e-05
0.000322708
5.26257e-05
8.59682e-05
0.00936869
0.000253334
1.56719e-05
0.000128894
0.0015493
4.34291e-05
0.00342686
9.80802e-05
0.000400566
0.000158915
2.75338e-05
5.03297e-05
4.46513e-05
1.30247e-05
5.07899e-05
3.49492e-05
4.54265e-05
0.000111862
0.000350705
1.9274e-05
1.81997e-05
0.00195902
0.00324299
1.7959e-05
0.000168135
0.00313642
0.0021862
0.000120623
0.00183701
2.53974e-05
0.000168843
5.06768e-05
0.00185964
0.000283148
8.09978e-05
2.56284e-05
3.20373e-05
9.1541e-05
2.34749e-05
0.000111846
2.28611e-05
0.00425803
5.74852e-05
4.96036e-05
0.000283663
3.6709e-05
0.000235464
4.81079e-05
3.66377e-05
4.14164e-05
0.000102576
3.20649e-05
1.77153e-05
0.00156221
0.000322791
0.00577505
0.00117556
1.65053e-05
0.00562362
0.000225806
2.11861e-05
1.84113e-05
7.35088e-05
7.59255e-05
3.79075e-05
0.000117859
0.000127708
0.000205755
0.00123417
2.16943e-05
2.03125e-05
9.96023e-05
0.00611015
0.00938002
2.74824e-05
0.0133352
0.0114197
0.00223681
0.0138577
2.4472e-05
0.0147614
3.76918e-05
2.63812e-05
0.00973301
0.00022081
0.000189257
0.00513393
0.000425362
0.00225332
0.00264959
4.35614e-05
7.0849e-05
2.01282e-05
2.2765e-05
0.000365677
3.22522e-05
0.00857216
1.34628e-05
2.33352e-05
2.1604e-05
0.00379286
0.00327516
1.41594e-05
2.45127e-05
2.43317e-05
4.66333e-05
0.00251397
0.00310549
8.61901e-05
8.28993e-05
1.7628e-05
0.000337842
2.56072e-05
9.25573e-05
3.75824e-05
1.81818e-05
7.22003e-05
3.36422e-05
0.00011133
2.69621e-05
4.15829e-05
3.72744e-05
7.79303e-05
6.16238e-05
0.00231603
1.94444e-05
8.49326e-05
5.31167e-05
0.000149299
0.00020263
0.000106087
3.12982e-05
0.000312228
0.00267843
0.00241798
0.00016134
0.000113664
0.00194495
0.000211847
0.000183047
0.000485835
9.37444e-05
0.00157958
0.00236597
7.48968e-05
0.00358573
0.000262299
0.00206806
0.000267211
0.00173849
1.5042e-05
6.36051e-05
0.00129846
0.000142387
0.000247019
2.14797e-05
6.14004e-05
8.31418e-05
7.25575e-05
6.8837e-05
0.000455478
0.000113925
7.42948e-05
8.73824e-05
7.03188e-05
4.02518e-05
0.000348707
0.000326497
4.99972e-05
1.73391e-05
3.04803e-05
0.00136028
0.000112236
6.65494e-05
1.6e-05
2.15765e-05
3.6814e-05
2.18701e-05
0.000559479
1.82267e-05
3.14611e-05
1.33427e-05
9.47103e-05
0.000543381
0.000102808
5.99106e-06
0.000390179
1.62838e-05
3.00683e-05
3.6597e-05
1.37227e-05
2.37979e-05
0.00863682
2.78948e-05
2.21078e-05
9.48371e-05
2.78473e-05
2.72962e-05
0.0110302
0.00208003
2.3112e-05
1.93808e-05
3.99394e-05
0.000325866
0.0168122
9.9359e-05
0.000212658
3.09474e-05
0.000362664
3.78189e-05
2.30205e-05
1.81453e-05
0.000446971
6.42299e-05
1.97561e-05
1.86786e-05
1.67054e-05
2.18012e-05
0.00332882
0.000362221
1.93148e-05
6.29659e-05
0.00480754
1.82965e-05
5.65863e-05
1.83888e-05
3.62575e-05
1.24426e-05
5.5974e-05
2.50236e-05
1.73846e-05
0.0089416
6.70937e-05
0.00093524
5.21841e-05
2.17768e-05
0.00397276
0.00826589
3.40454e-05
2.35857e-05
0.00747987
0.00019108
5.15228e-05
3.30061e-05
8.79339e-05
1.73179e-05
1.59685e-05
6.82061e-05
2.27307e-05
0.000966631
2.43023e-05
7.90589e-05
0.00373019
4.60742e-05
4.05904e-05
8.23308e-05
0.00623953
1.97364e-05
0.00310376
2.17453e-05
0.00403437
6.82362e-05
6.92571e-05
1.76519e-05
0.000192515
0.000183715
7.54568e-05
8.45787e-05
3.18116e-05
2.036e-05
1.86742e-05
2.94613e-05
1.90215e-05
6.18811e-05
6.38724e-05
2.44164e-05
6.16667e-05
0.000238883
5.92141e-05
2.06524e-05
0.00394208
2.83796e-05
0.00010442
0.000493892
2.29825e-05
1.90214e-05
4.10724e-05
0.000259544
0.00245684
4.92083e-05
5.63303e-05
0.000203362
0.000154819
1.63952e-05
5.51648e-05
4.2508e-05
2.94882e-05
1.57349e-05
5.92965e-05
3.62824e-05
6.92579e-05
2.74742e-05
0.00333676
6.10808e-05
2.61233e-05
9.31584e-05
1.64193e-05
3.64802e-05
2.32762e-05
0.000291752
0.00652758
4.14458e-05
3.21019e-05
6.19374e-05
2.11323e-05
1.57282e-05
0.000134067
0.00146035
1.45612e-05
0.00231484
2.63696e-05
2.64221e-05
7.1871e-05
3.53255e-05
0.000120999
0.00273395
0.000184994
0.000437675
2.40926e-05
0.00109932
0.000126665
3.40159e-05
0.0012191
5.23851e-05
1.81627e-05
0.00274229
0.000118699
5.01587e-05
7.56784e-05
1.7994e-05
1.72441e-05
0.000139809
1.81402e-05
5.22479e-05
6.27972e-05
0.000369555
2.01096e-05
2.85248e-05
0.00258938
0.000182368
0.00200323
0.000479777
6.22851e-05
0.000149222
0.00112234
8.31383e-05
8.34974e-05
8.45762e-05
0.000362325
0.000116949
1.63318e-05
4.17608e-05
3.7317e-05
0.00012582
5.38953e-05
0.000132424
0.00100609
3.67103e-05
0.000424871
0.00397006
2.24049e-05
2.1262e-05
0.00047029
0.000325026
0.0025353
1.73875e-05
2.13298e-05
9.82769e-05
1.85363e-05
0.000240113
0.00159534
8.58067e-05
6.00324e-05
0.00219835
4.46004e-05
5.02919e-05
2.72107e-05
1.47689e-05
0.00502486
0.000308913
0.000103654
0.00018574
4.11059e-05
2.25691e-05
3.70455e-05
0.00673033
1.81738e-05
1.81583e-05
0.00190144
3.54308e-05
4.49731e-05
2.47777e-05
0.00159745
4.30055e-05
0.00251742
2.40045e-05
1.26969e-05
0.000662067
0.001835
0.000259016
8.70411e-05
0.000134654
2.436e-05
1.73665e-05
0.00242182
0.00190344
0.000688301
2.31482e-05
0.00186612
0.000748761
2.37754e-05
1.78495e-05
2.09454e-05
0.000533841
0.000106448
2.34295e-05
0.000225107
7.66499e-05
0.00158931
0.00105603
0.00128377
0.00144191
1.88095e-05
0.000343065
4.53519e-05
0.000175986
0.00885221
1.25054e-05
1.86486e-05
6.97971e-05
0.000225183
1.49907e-05
0.000388539
0.000466299
0.000240061
2.64041e-05
9.31391e-05
0.000135372
1.995e-05
0.000339136
6.69235e-05
0.000383881
9.50817e-05
0.00131168
7.78388e-05
7.35085e-05
1.61546e-05
5.58933e-05
0.000433339
0.000300824
4.80703e-05
0.00110415
0.000929206
0.000307521
0.00122183
1.6629e-05
3.44493e-05
2.23624e-05
0.000397326
4.03728e-05
0.000229342
2.18194e-05
0.00022257
2.48373e-05
0.00108778
6.31392e-05
2.03249e-05
2.00718e-05
0.00280396
0.00075477
1.51933e-05
0.000149242
1.77518e-05
2.69086e-05
6.26008e-05
0.000131407
5.967e-05
6.14305e-05
1.99779e-05
0.000497216
0.00014423
6.12759e-05
0.00135789
0.00240073
0.000139251
4.75666e-05
0.000151902
9.98811e-05
0.000142396
6.4875e-05
0.000393135
6.24146e-05
1.48659e-05
0.000104086
4.32359e-05
5.17744e-05
3.27667e-05
1.33471e-05
0.00018759
1.33112e-05
4.58542e-05
3.40038e-05
0.000186736
2.11763e-05
0.000183114
0.000134536
0.000747085
1.41976e-05
2.80512e-05
0.000126509
0.000611032
2.91835e-05
3.65513e-05
0.000136839
1.91417e-05
3.35281e-05
0.000167675
3.62503e-05
2.56128e-05
1.81969e-05
3.53022e-05
1.80635e-05
2.1372e-05
2.19334e-05
0.000130253
0.000273958
0.000152968
0.00102351
0.000273064
4.0728e-05
2.00383e-05
4.87187e-05
0.00160128
5.49458e-05
0.000129393
1.8136e-05
1.79102e-05
0.000138704
1.32479e-05
0.00108628
0.000172569
0.00012708
0.00249838
7.13953e-05
9.03956e-05
1.94211e-05
0.00386365
0.000244238
0.00120563
3.08625e-05
0.000275427
0.000192405
0.000248317
1.6455e-05
0.00142642
0.000199761
0.00032551
0.000273396
0.000246969
0.00020737
2.9246e-05
0.000867837
1.61421e-05
0.00348161
0.00393665
0.00411726
0.00080177
0.00896309
0.000443681
0.000180774
1.60535e-05
0.00315656
0.00432017
2.177e-05
0.000142813
1.55949e-05
2.23875e-05
2.13715e-05
0.00456053
0.000962461
3.99046e-05
7.32223e-05
0.00113517
0.00191421
9.19121e-05
2.54587e-05
0.000927343
0.000386869
7.63239e-05
0.0120737
0.00329961
0.000125212
2.69496e-05
0.000364229
0.0003645
1.2879e-05
5.08508e-05
2.89722e-05
1.59788e-05
9.68313e-05
3.05883e-05
6.30486e-05
3.71311e-05
3.79902e-05
0.000597198
2.2896e-06
0.00332749
0.00326
1.49501e-05
4.40779e-05
4.04104e-06
8.01239e-05
3.75166e-05
0.0007835
5.30086e-05
0.00141352
0.000158696
1.63864e-05
9.72574e-05
0.000192413
9.04077e-05
2.41465e-06
1.63104e-05
0.00119647
0.000345381
0.000313713
0.0017676
7.9692e-05
0.000104587
2.79639e-05
0.000159203
2.04716e-05
0.000123506
0.000145174
0.00106015
5.67795e-05
3.30423e-05
5.17849e-05
2.90281e-05
6.32422e-05
0.000397458
1.80065e-05
0.000165186
0.000255506
0.0003244
5.2309e-05
0.0120195
5.85028e-06
5.07205e-05
2.19268e-05
3.87368e-05
1.91404e-05
0.000260485
0.000288094
9.39472e-05
8.45915e-05
8.90481e-05
7.80511e-05
2.60084e-05
0.000388621
2.18595e-05
7.99514e-05
0.000174241
7.1274e-05
0.00601532
0.000160967
0.000247631
1.78934e-05
0.0061153
0.00165652
2.46059e-05
0.00012238
4.56209e-05
6.17648e-05
0.000203503
1.57619e-05
0.00023601
1.79834e-05
0.00192178
4.82951e-05
9.33018e-05
1.50813e-05
6.52401e-05
9.69234e-05
2.18945e-05
7.01173e-05
2.9041e-05
3.02615e-05
2.18478e-05
1.78662e-05
0.000424178
3.77117e-05
2.94902e-05
6.21752e-05
0.00181736
3.51752e-05
1.58327e-05
3.4254e-05
1.6692e-05
0.000619639
8.89216e-05
0.000172549
0.000158502
3.473e-05
0.000560159
0.000774851
9.60846e-05
3.87869e-05
0.00188226
5.44514e-05
0.000689093
7.00409e-05
1.95922e-05
5.61703e-05
3.26156e-05
0.00444856
6.19034e-05
1.32414e-05
1.3105e-05
2.18795e-05
0.00453699
0.00452811
0.000631904
8.20162e-05
0.00015709
0.00052701
1.80226e-05
1.98618e-05
0.00372332
0.00341538
0.00308903
2.90241e-05
4.03135e-05
0.00187176
0.000421827
0.000103817
4.66429e-05
0.00121605
0.00355463
1.7907e-05
0.000265842
0.000402868
0.000159898
6.33895e-05
0.000275233
2.71341e-05
0.00363405
0.00248996
0.000280045
0.00289829
1.83591e-05
5.06402e-05
0.00251682
0.000221704
2.50453e-05
6.68375e-05
3.92955e-05
0.00210381
0.000124259
0.00107987
4.11828e-05
2.04534e-05
2.28324e-05
0.000545493
0.00059315
1.76972e-05
1.90226e-05
5.39174e-05
0.00013326
3.35756e-05
7.30918e-05
0.000844035
9.591e-05
6.88941e-05
0.00032183
0.00216622
9.88174e-05
1.80917e-05
0.000249584
4.259e-05
1.30353e-05
0.00039882
2.07026e-05
0.000360874
1.25613e-05
7.36635e-05
3.59298e-05
0.000381314
7.99617e-05
1.97975e-05
0.00023056
3.11828e-05
1.9057e-05
9.47651e-05
2.98761e-05
2.01198e-05
0.000131454
3.78202e-05
2.80797e-05
0.000239051
7.60154e-05
3.02841e-05
0.00565226
0.000172895
0.000106665
0.000894851
0.00139391
2.76515e-05
8.6712e-05
1.78033e-05
0.000104334
6.56305e-05
0.000203981
0.000206945
0.00557146
0.000199171
4.27344e-05
5.77992e-05
0.00030495
3.30048e-05
8.18841e-05
2.38154e-05
2.61906e-05
9.47806e-05
0.00333121
0.000107122
2.37178e-05
1.94875e-05
6.66768e-05
2.46612e-05
0.000109379
0.0036274
7.83882e-05
0.00606993
2.24838e-05
0.00463464
0.000106581
0.00323366
0.000350925
0.000156573
0.00558666
0.00241706
5.31912e-05
0.000367374
1.88424e-05
0.00025851
0.00011374
0.000166944
6.06015e-05
0.00044498
0.00681902
7.11614e-05
0.000199386
1.4329e-05
0.00188895
2.89933e-05
1.79025e-05
2.88057e-05
0.000154131
2.02093e-05
1.65209e-05
0.00143933
0.00102845
2.7222e-05
3.01426e-05
7.2527e-05
1.7664e-05
5.46761e-05
3.14985e-05
2.24988e-05
1.83319e-05
5.8369e-05
1.6954e-05
0.000752556
0.0123824
1.70705e-05
0.00104219
0.000404294
0.000298879
0.00023673
0.00227543
5.02482e-05
3.21156e-05
5.72156e-05
0.000306589
0.000289487
3.40162e-05
1.34219e-05
3.48966e-05
0.000324219
2.1675e-05
0.00233056
4.58405e-05
9.37344e-05
1.69196e-05
2.82194e-05
7.35138e-05
0.000185323
3.41562e-05
8.20905e-05
2.48143e-05
0.000145327
0.000113074
1.67003e-05
6.20092e-05
0.000731053
0.000374283
0.00032341
0.000151758
0.00294998
0.000111156
0.00026287
0.000285117
0.000483554
2.37528e-05
0.0001919
2.55581e-05
0.000991043
0.000237352
0.000310505
0.000264796
0.000121302
9.36317e-05
0.00570611
5.39692e-05
1.38687e-05
0.00010822
0.00105777
2.23735e-05
0.00247435
0.000108356
0.000118774
3.77918e-05
5.03722e-05
7.92315e-05
0.000122764
0.000110153
0.000494946
1.89459e-05
0.0021382
8.72889e-05
2.92396e-05
3.10737e-05
0.000142655
0.000112939
0.00014471
0.00051198
7.4678e-05
0.000193899
0.000633106
5.01469e-05
2.29304e-05
0.000115285
0.000144185
4.2287e-05
0.00306992
1.50844e-05
8.04049e-05
4.0025e-05
9.13938e-05
3.44944e-05
0.000338764
0.000178084