/*--------------------------------*- C++ -*----------------------------------*\
| =========                 |                                                 |
| \\      /  F ield         | OpenFOAM: The Open Source CFD Toolbox           |
|  \\    /   O peration     | Version:  v2012                                 |
|   \\  /    A nd           | Website:  www.openfoam.com                      |
|    \\/     M anipulation  |                                                 |
\*---------------------------------------------------------------------------*/
FoamFile
{
    version     2.0;
    format      ascii;
    class       surfaceScalarField;
    location    "1.61209946";
    object      phi;
}
// * * * * * * * * * * * * * * * * * * * * * * * * * * * * * * * * * * * * * //

dimensions      [0 3 -1 0 0 0 0];
oriented        oriented;


internalField   nonuniform List<scalar> 
156950
(
-0.00214576
0.00100852
0.000817737
0.000319506
0.000519384
-0.00138743
0.000155165
0.000712885
-0.000326301
0.00063954
-0.000313239
-0.000215605
0.000158095
0.000351246
-0.000293736
0.00112756
-0.00117222
3.67034e-05
7.96587e-06
-9.85651e-05
-0.00011704
0.000316924
0.00155673
-0.00208653
0.000212879
0.0014476
-0.00144673
-8.72757e-07
-0.000568964
-0.000423495
0.000992459
-2.7064e-05
1.09281e-06
1.4122e-05
1.18492e-05
8.4312e-05
-0.000301204
0.000216892
-0.00215145
0.000326076
0.0021423
0.00398303
-0.00516944
-0.00321041
0.00439683
0.000734753
0.000178448
-0.000929937
1.6736e-05
-7.70995e-05
-0.00139094
0.00146804
-0.00104365
-0.000911044
0.000774299
0.0011804
0.000106379
-2.17332e-05
-0.000124109
3.94637e-05
4.57349e-05
0.000938633
-0.000249615
0.000238816
0.00184416
-0.00208298
0.000664377
-0.000643557
0.000157628
-7.70316e-05
-6.12322e-05
-0.000617949
0.000756212
0.000572057
6.11011e-05
3.12195e-05
-0.0008743
0.000718339
0.00172309
-0.00156713
-0.000153482
8.59462e-05
6.75361e-05
0.000386443
-0.000181528
8.11568e-05
-0.000286072
0.00168817
-0.00113228
-0.000656686
0.000100793
0.000468688
-0.000143215
-0.000750819
0.000425345
-0.000410677
0.000282251
-2.76502e-05
0.000156077
-0.000304824
0.00178767
0.000205331
-0.000378242
-0.000584809
0.00103389
-7.08374e-05
-0.000766228
0.000409245
-3.75291e-05
0.000394513
-0.000712254
-7.33038e-05
-0.000314467
0.00110002
-0.00160215
0.000677355
-1.40665e-05
0.000938858
-0.000904966
-0.000144066
-0.000384749
0.00143378
0.000336643
-0.000161606
-0.000883148
0.000708111
-7.42102e-05
-0.000292583
0.000366793
5.75347e-05
-1.90973e-05
-7.0469e-05
3.20316e-05
0.000327626
0.000264879
-0.000454645
-0.000137859
0.000466645
-0.000473155
6.50916e-06
-0.00220652
0.00368074
-0.0037802
0.00230598
7.83881e-05
-0.000484578
0.000531214
-0.000125025
-0.00116676
0.00101799
-0.000156057
-0.000128268
-0.000484806
0.000142248
0.000470826
0.000354143
-0.0011495
-0.000336925
0.00067054
0.0067358
-0.00526701
-0.00213933
0.00291104
-0.00132514
-0.0015859
-0.00120407
0.00156729
-0.000132904
-0.000230313
-0.000126857
0.000512078
-0.000175538
-0.000209683
0.000155504
0.00113844
0.000481454
-0.00177539
-0.000353232
-0.000771655
0.000293243
0.000831645
0.00138808
-0.000228976
-0.00119462
3.55184e-05
-0.000812613
-0.000695871
0.000231413
0.00130871
-0.000844253
-0.00126738
-0.000280813
0.000852318
-0.00162068
0.00143836
-0.00110654
0.00128885
-0.000184076
7.71914e-05
-0.000913133
0.00102002
0.000283888
0.000307385
0.000260808
-0.00085208
0.0010024
0.000339892
-0.000920483
-0.000421809
0.000313941
0.000688459
-0.00149174
-0.00171366
0.00141336
0.00179204
-0.000953435
9.50432e-05
0.000839625
-0.000723631
-0.000211037
-0.000615608
0.000610925
4.68239e-06
0.000259379
-0.000194726
-0.00037094
0.000306287
0.00190186
0.00130572
-0.0038097
0.000602129
0.00218617
0.000164885
0.00247191
-3.01178e-05
-0.00113607
-0.00223292
0.000510475
0.000230707
0.00290375
-0.00236616
-0.00259673
0.00205914
0.00104512
-0.000784597
0.000730354
-0.000990877
-0.000527466
-0.000540102
0.000750723
0.000316844
-0.00151282
-0.00403074
0.00455341
0.000990147
-0.000234207
0.000186146
-0.000165964
0.000214025
-0.000916687
0.0020647
-0.00116552
1.7502e-05
-7.93107e-05
-0.000320578
0.000399889
0.00179552
0.00122247
-0.00159831
-0.00141968
1.82089e-06
0.000198826
-0.000442631
0.000277095
8.32216e-05
2.98743e-05
-0.000390191
0.000169227
-1.0347e-05
2.80903e-05
-0.000186971
0.000265183
0.000588773
-0.00106914
0.000215187
-0.000247674
0.000301608
0.001928
-0.00198194
-0.000953401
0.000892944
0.00218237
-0.00212191
-0.000356126
-0.000382637
0.00045551
0.000283253
0.0008922
0.00151219
-0.00244559
4.12056e-05
0.000361432
0.000176639
-0.000678327
0.000140255
0.000363407
-0.00106028
-0.000154175
0.000851049
-7.99171e-05
5.92463e-05
1.33478e-05
7.32304e-06
-0.00102199
0.00021047
0.000811525
5.7611e-05
0.000481456
-0.000688133
0.000149066
-0.000503393
0.00079167
-0.000335971
4.76948e-05
1.57586e-05
0.00142489
-0.00144065
0.000169537
-6.60346e-05
0.00160721
-0.00171071
-0.0006216
-0.00110693
0.00415321
-0.00242468
0.000649506
-0.00094038
-0.00142302
0.00171389
-2.15404e-05
0.000384364
0.00019639
-0.000559213
0.00139608
-0.00158929
0.000193206
0.000275114
-0.000240648
-5.60069e-05
-0.00105295
-0.00293123
0.00336257
8.3707e-05
-2.41611e-05
-5.95459e-05
0.00160868
-0.00117471
-0.000433968
-0.00234943
-0.000922864
0.00133225
0.00194005
-0.000119188
-0.000127369
0.000246557
-0.000287559
0.000893197
-0.000605638
0.000188591
0.000496684
0.000116643
-0.000801918
-0.000242954
-0.000543729
0.000786682
-0.000432757
-0.000669127
0.000555743
0.000546141
-0.000359639
-0.000281589
0.000398275
0.000600778
-0.00147665
0.000580655
0.000295213
0.000632911
-7.47881e-05
0.000695875
-0.000571856
-0.000207456
8.34362e-05
-0.00158531
-0.000128355
-0.000754016
-0.00215407
0.00188736
0.00102073
-0.002101
0.00497123
-0.000595474
-0.00227475
-0.000194106
0.000249757
0.000408906
-0.000464557
0.000127595
-4.2941e-05
-8.46539e-05
-0.00188046
-0.000139198
0.00214719
-0.000127529
-0.000860419
0.0020217
0.00212611
-0.00328738
0.000981677
-0.000971383
-1.0294e-05
-0.000496579
0.00041829
7.82886e-05
0.00113677
0.00120834
-0.0001384
-0.00220672
-0.000792396
-0.00309527
0.00512643
-0.00610438
0.00407322
-0.00116569
0.00150944
0.000719145
-0.0010629
9.98165e-05
0.000175182
1.15478e-07
-0.00246606
0.000370157
0.0020959
-0.000227962
0.00194996
6.69509e-05
-0.00178895
-0.00114243
-0.0014789
-0.00106987
0.0036912
-0.000695055
0.00174331
-0.00102137
-2.68805e-05
-0.00171336
0.00136818
0.000345182
0.000489341
-0.000193725
-0.000295616
-0.00246139
0.00233129
-0.00097407
0.00110417
-0.0017673
-0.00206589
0.00352731
-9.63553e-05
9.00026e-05
0.0011562
-0.00114985
0.000632348
-0.000639255
-0.000897389
0.000904297
-0.00176836
0.00184571
0.000252636
-0.000329976
0.000751878
-6.10605e-05
-0.000767849
0.000906087
-0.000668864
-0.000641872
0.000404649
4.30368e-05
-3.70153e-06
-0.00034135
0.000302014
-0.00183118
-4.54263e-05
0.00190698
-3.03741e-05
0.000270058
-0.00138902
0.00216408
0.00106565
-0.00145656
0.0004465
-5.55915e-05
-0.00479883
-0.0001066
0.00024956
0.00465587
0.00149042
-1.37455e-06
-0.00148905
4.23e-05
0.00102352
-1.65763e-07
0.00111859
0.00204519
-0.00254479
-0.000618982
0.0027049
-0.000512355
-0.00190212
-0.001328
0.00199285
0.000132089
-0.000796938
5.76515e-05
0.000146302
-2.07257e-05
-0.000183228
-0.00108487
-0.000871529
0.00335292
-0.00139652
-7.88925e-05
-7.39806e-05
0.000152873
-0.000303265
0.00106226
-0.00100937
0.000250372
-0.00027548
0.000320414
-3.80372e-05
-6.89725e-06
0.000141776
-0.000195357
3.58732e-05
1.77083e-05
-0.00161166
0.0016095
0.00153795
-0.00153579
-0.00065168
0.00081788
0.0013699
-0.0015361
0.000259914
-0.000426396
0.00192211
-0.00175563
0.00110956
3.63108e-05
0.000494652
-0.00164053
-3.98163e-05
-3.5037e-05
7.48533e-05
0.00158634
-0.00158566
-6.83227e-07
-0.00389579
-0.00106369
-0.00305369
0.00801317
-0.0016204
0.00170409
-8.36932e-05
-0.000189001
-0.000174909
0.00088965
-0.00052574
8.91944e-05
0.000688141
-0.000127232
-0.000650104
0.0026251
-0.000843431
-0.000480152
-0.00130152
0.00135961
0.000337505
-0.00108722
-0.000609891
0.00172099
-0.000507437
-0.000350341
-0.000863215
-0.000236743
0.00229473
-0.000250116
-0.00180787
-0.00456967
0.00276953
-5.31055e-06
0.00180545
0.00227939
-0.000663537
8.62228e-06
-0.00162448
0.00163962
-0.000235979
-0.00140364
0.000370105
0.0013003
-0.000968443
-0.000701957
-0.00132915
0.000637787
0.00151119
-0.000819819
0.00159916
-0.00246931
0.000870147
0.000168517
-0.00229542
0.0021269
-0.000824875
0.00242404
0.000251095
0.000148255
8.99905e-05
-0.00056657
0.000486737
7.98327e-05
0.000200732
0.00191819
0.000497543
-0.00261646
-0.000174046
-0.00133186
0.00150591
0.00306829
1.73603e-05
-0.00331866
0.000233011
-0.00264479
-0.000571006
0.000594106
0.00262169
6.15887e-05
0.000817645
-0.00123311
0.000353878
-0.000848467
0.00085106
0.00246897
-0.00247156
0.000133845
0.00073843
1.04279e-05
-0.000882703
0.000373851
9.53974e-05
-0.000391591
-7.76578e-05
-0.000573759
0.000163082
-3.25308e-05
-5.29924e-05
-0.000101636
0.000187159
0.000601215
-0.000509695
-0.000174949
8.3429e-05
-0.00191984
-0.00702188
0.00602557
0.00291615
0.000192054
-0.000658534
0.00187483
-0.00140835
-0.00129831
-6.00656e-05
0.0011107
-0.000199908
0.00136938
-0.00132248
-4.68931e-05
-0.000513554
-3.74541e-07
0.000731827
-0.000217898
-0.00426585
1.14015e-05
0.00415202
-1.52684e-05
0.000385593
-0.00120262
0.000832297
0.000508746
0.00167835
-0.000465187
-0.00172191
0.00131348
-0.001268
-4.54881e-05
-8.51352e-05
-0.000992166
0.000520244
0.000557057
0.00112385
6.45302e-05
-0.00135744
0.000169059
-0.00164963
0.00143758
0.00120625
-0.0009942
0.000134883
0.000724865
-0.000552929
-0.000306818
0.0014201
-0.00120843
-0.000211674
0.00204461
0.000577533
-0.00227092
-0.000351224
0.00121596
0.000204142
0.000342565
-0.000212015
-0.000156504
-0.00141556
0.00129413
0.000277938
0.00131368
-0.00298267
-0.00276236
0.00443135
-0.000652304
-0.000521376
0.000697888
0.000475793
-7.70477e-05
-0.000145508
4.42853e-07
0.000222113
0.000967348
0.00369498
0.000138257
0.000486609
-0.00431984
-0.000189782
0.00138995
-0.00119321
-6.95564e-06
0.00218782
0.000152152
-0.00126438
-0.00107559
0.000451238
-0.00192639
-0.00028963
0.00176478
-0.000364029
0.000278206
8.77455e-06
-0.00156237
0.00151618
4.61833e-05
0.000188058
0.00191157
-0.00219121
9.15792e-05
-0.000245336
-5.82033e-05
0.000158031
0.000349259
-0.000236239
-0.00011302
0.002112
-0.00162676
-0.00212081
0.00163557
3.35505e-06
-0.000418192
0.000414837
4.82316e-05
-4.25645e-05
0.00164073
-0.0016464
0.000766316
-0.000192748
-0.000224309
-0.00339465
0.00475241
-0.00462036
0.0032626
-0.000140874
0.000251704
-0.00211761
0.00200678
-0.00180974
0.00192915
-0.000119407
1.84589e-05
8.26341e-05
-8.00994e-05
-2.09936e-05
0.000262097
0.00114642
-0.00257535
0.00116684
-0.00264295
0.003439
-0.000567932
-0.000228117
4.37787e-05
0.000136791
-0.00012179
-5.87798e-05
0.00150178
0.00012848
-2.99108e-05
-0.00160035
-0.00173398
0.00169371
-0.00250241
0.00254268
-0.00156822
0.000217194
0.00408275
0.000391949
-0.00394113
-0.000533568
-0.000559173
5.4615e-05
-5.16462e-05
0.000556204
-0.000848696
0.000921939
-0.000914653
-8.02283e-05
7.29422e-05
-8.63863e-05
-0.000145787
-0.000709231
0.000941404
-0.000235623
0.000411275
0.000405834
-0.000581486
-0.00147816
0.000164244
0.00131392
-0.000705799
0.000590164
0.000115635
-0.00173076
-0.000303812
0.000540945
0.00149363
0.002528
0.000249136
-2.83404e-05
-0.00274879
0.00271223
-2.47222e-05
0.00025943
-0.00294694
-2.45802e-05
-0.000165739
0.000174753
1.55668e-05
0.00748662
5.83429e-05
-0.000876295
-0.00666867
-0.0021388
-3.69533e-05
0.00264199
-0.000466242
0.00017592
0.00149177
-0.000396598
-0.00127109
0.000167867
3.1611e-05
-0.000199478
0.000812093
0.000982072
-0.000986819
-0.000807346
-0.000381292
-4.37971e-06
0.000361092
-0.00109647
-7.06211e-05
5.26054e-05
0.00111448
-0.00113533
0.00113138
3.94613e-06
0.00112785
-0.000150163
0.00042071
-0.00139839
0.000150364
0.000619571
-0.000769935
-4.07073e-05
-0.00175638
0.000944256
0.000852833
0.00135294
0.000482284
-0.00137014
-0.000465078
0.000410855
7.99413e-05
0.00183696
-0.00232776
-0.00101643
-0.000251923
0.00126815
2.08964e-07
-4.08478e-05
3.55575e-05
-0.00101114
-0.00049566
-0.00021014
0.000470949
-0.000590541
-0.00330984
0.00342944
-0.000960476
0.000792111
-0.0016264
0.00179476
0.000381811
-1.33276e-05
-0.000316886
-5.15965e-05
3.58633e-05
-0.000664664
0.000734495
-0.000105695
-0.00164759
0.000996882
-0.000827459
-0.002792
0.00105575
0.000458699
0.00127755
-0.00232657
0.000571471
0.000353695
0.0014014
0.00190417
-0.00208057
-0.000590624
0.000767025
0.0014633
-0.0030735
-0.0011818
0.00122722
-0.00202414
0.00079692
-1.59808e-05
-2.85152e-06
-0.00071779
0.000736622
0.000649794
-0.000333
-0.000316794
0.00109596
0.00121566
-0.00125586
0.00055849
-0.000788777
0.000194327
3.59596e-05
-0.000704835
-0.00150025
0.00220508
-0.000254851
-0.00116635
0.00158073
-0.000159529
0.00116764
-0.00265514
0.00235485
-0.000867348
0.000385957
-4.14663e-06
-0.0017246
0.00052798
0.00133463
-0.000138011
0.00178792
-0.00251119
-0.000657943
0.00138121
-0.00193658
-0.000781783
0.00142005
-8.59989e-08
-0.0010211
0.00102119
-0.00113787
0.000908357
0.000229516
-0.000161702
2.42141e-05
-2.82509e-05
-0.00116328
-0.000520283
0.00129729
0.00320889
-0.00242271
-0.000205218
-0.000580957
0.00041889
-0.000480233
0.000983282
0.000142627
0.000248427
-0.000320605
-7.04488e-05
-0.000291649
-0.000846223
0.00129255
-0.000728533
-0.000145124
0.00206416
-0.000773307
-0.00129085
0.000331415
0.000548165
-0.00214178
0.0012622
-0.000110994
0.000477899
-0.000363234
-3.671e-06
-0.000935601
0.00232273
-0.000890882
-0.000496243
0.000408192
-0.000298609
0.00116408
-0.00127366
0.00209098
6.25412e-05
-0.0024054
0.000251875
4.6649e-06
-0.00072942
0.000433382
0.002165
-0.00186896
-8.23062e-05
0.000306066
-0.00021509
-8.66991e-06
9.85799e-05
0.0017035
-0.00170608
-9.60059e-05
0.00267975
2.57021e-05
-0.00265385
-5.1602e-05
0.000132192
-7.80197e-05
-5.23381e-05
-1.83422e-06
8.33391e-05
-0.000130107
0.00017896
0.00223887
0.000902339
-0.00107705
0.00153404
-0.000382431
0.000330984
0.00182404
-0.00177259
-0.0023721
0.00249538
-0.000123283
0.00012186
0.00188353
-0.00200539
0.00115794
-0.00100324
-0.000138398
-1.6306e-05
-1.07192e-05
-0.00105227
0.00106299
-0.00165735
0.00179076
-0.00170938
0.00157597
-0.00104752
0.00126332
8.92582e-05
-0.000305054
0.00278742
-0.0029476
0.00464809
-0.00448791
-0.000827209
0.000274109
-0.000171617
0.000724716
-0.00353719
-0.00129017
0.00149232
0.00333504
-0.000348558
0.00177211
0.000130899
-0.00155445
0.000662367
-0.00260513
0.000611749
0.00133102
0.00130892
-0.00132051
1.15892e-05
0.00145736
0.000197349
-0.00165471
0.0013002
-0.000980221
-0.00157218
0.0012522
0.000628627
-0.00051601
-0.00019327
8.06525e-05
-8.60877e-05
-0.000380277
0.000858656
-0.000392291
1.33641e-06
0.00130758
0.00216724
0.00140569
-0.00291056
0.00211002
-0.00128056
-0.000829463
-8.75789e-05
-0.000285543
0.000207721
0.000165401
0.00199217
0.000277008
-0.00170922
-0.000559954
0.000425415
-0.000327887
0.00104492
-0.00114245
0.00130866
-0.00131258
9.40083e-05
-9.00862e-05
-8.56459e-05
0.00016303
-0.000121315
4.3931e-05
-1.89854e-05
0.000350956
0.00117783
-0.0015098
0.00256212
-0.00126352
-0.00143859
0.00014
0.00193146
-0.00272677
-0.000487754
0.00128306
-0.000863868
0.000633874
-6.4431e-05
0.000294425
-2.13933e-05
0.000671187
-0.00035437
-0.0016294
0.00177309
0.000127188
-0.00168441
0.00155722
-0.000150701
-0.000129719
0.000198114
-0.000401216
0.00115869
-0.0012189
0.00046143
0.00257032
-0.00242905
-0.00170147
0.0015602
-8.99472e-05
0.000565045
-0.00169257
0.00121748
6.62604e-05
7.89799e-07
-1.46407e-05
-5.24095e-05
-0.00173012
0.00177858
7.87327e-05
0.000892215
-0.000118527
-0.000860074
6.54871e-05
-0.00162078
0.00155529
-0.000104711
-0.000109721
0.000214432
0.00110397
-0.0011648
6.08373e-05
9.26062e-05
-2.48703e-05
-1.47551e-06
0.000930033
-0.00182544
0.0002964
0.000599007
0.000146765
-0.000123716
0.00200753
-0.00203058
0.000204224
2.57857e-05
-0.00023001
0.00104796
-3.45456e-05
-0.00115131
0.00462685
-0.000960623
-0.00366623
-0.000723128
-0.000567717
0.000151642
0.0011392
0.000357792
-7.02436e-06
-0.000361307
1.05393e-05
0.000103162
0.0024224
-0.00252556
-0.000494256
0.00168947
-0.00146233
0.000267111
-0.000243768
-6.45802e-05
0.00147871
-0.00117036
-0.000595936
0.000512534
-0.00268674
0.00277014
-0.00010907
0.00122992
-0.00103609
-8.47621e-05
0.00334026
-0.0040206
-0.00230238
0.00298272
0.00147943
-0.000196336
3.05852e-05
0.000188456
-0.00148079
0.0046326
-0.000350073
0.000171304
6.96986e-05
0.000652014
-0.00053799
-0.00126891
0.00117813
0.00160821
-0.00151743
0.0011833
0.00163237
0.000243268
-0.00305894
-9.9441e-05
-0.000216513
0.000835311
-0.000519357
0.00261816
-0.00258487
9.60537e-05
-0.000129348
-0.000950875
-5.38921e-06
0.000956264
-0.00127765
8.85573e-05
0.00118909
-7.07115e-05
-0.000186798
0.00258953
-0.00233202
-0.00223788
-0.000361165
0.00252833
-0.00249129
0.00125528
-2.64908e-05
0.0012625
-0.00514041
0.00841805
0.000317096
-0.00359473
-0.000115183
0.000124401
0.00176897
-0.00177819
-0.000349815
0.000358849
-0.000421284
0.00041225
0.000731374
0.0015884
-0.00223033
-8.94418e-05
0.00035798
4.34889e-05
-0.000401468
-0.000514691
-0.000198832
-0.00107959
0.00179312
-0.00159509
0.000651322
0.00145981
-0.000516038
0.000939587
-0.00206119
0.00116211
-4.05108e-05
0.00751047
-0.00134296
-0.00366654
-0.00250097
0.00240606
0.00245156
-0.000972913
-0.0038847
-0.000574182
0.000579171
-4.98941e-06
-0.000279531
-0.000500675
0.000780206
-0.00456806
0.00024932
-0.000230105
0.00454885
-0.000774827
-0.000577746
0.00174257
-0.000389994
0.000564409
5.71976e-05
-0.000621607
0.000944463
-6.90576e-06
-0.00117208
0.000234523
-0.00022986
6.06156e-05
0.000169245
0.000667891
-0.00282989
0.00179412
-0.00183975
4.50679e-05
0.00110166
-0.00124814
0.000146476
-0.00148945
0.00190617
-0.000322478
-9.42414e-05
-0.000573409
-0.00104721
0.00150367
0.000116948
-1.81254e-05
0.0015251
-5.19406e-06
-0.00183131
0.00137276
0.0005597
-0.000101142
-0.000990526
0.000466517
0.000147616
0.00176019
-0.00169068
0.000392726
-0.000462239
3.6337e-05
-7.32888e-05
0.000404936
-0.000367985
0.00658494
-0.000441025
-0.00312396
-0.00301995
0.00236399
-0.00234095
-0.000189791
0.000166753
-0.000662206
0.000630668
5.86172e-06
2.56757e-05
-0.000650802
-0.000124293
0.000588298
-4.04872e-06
-0.000377033
0.000381081
-0.000634443
0.00138334
0.000115766
-0.000864666
-0.000831595
0.00179201
-0.000408938
-0.000551474
-0.00194564
0.0019847
0.000143437
-0.000182503
-0.00193165
1.74565e-05
0.0019142
0.000389149
0.000998761
-0.00170786
0.00031995
-3.68472e-05
0.000345689
-0.000213363
-9.54785e-05
0.00177611
-9.02132e-05
-0.00145406
-0.000231831
-0.00147014
-0.00328426
0.000470012
0.00428439
0.000394373
0.000281845
-0.000676219
-0.00103874
0.00104473
-5.99747e-06
-0.000888686
0.0035287
-1.87474e-06
0.00013667
-0.000134795
0.000203223
5.86803e-05
-0.000298751
6.66277e-05
0.000182014
9.70471e-05
0.00188614
-0.000110034
-0.00110535
0.00165049
-0.000259873
-0.000285273
-0.00128922
-0.000704248
0.00199347
-5.94932e-05
-0.00148042
0.00227469
-0.00288786
0.00209358
-0.000154021
0.000723357
0.000359105
-0.000928441
0.00130362
0.00205118
-0.00304656
-0.000308232
-0.00275683
-0.00111827
0.00270695
0.00116816
0.00318396
0.000341688
-0.00318761
-0.000338031
-0.00100975
-0.000558699
0.00115053
0.000417914
-5.54838e-05
3.03243e-05
-0.002338
0.00236316
0.00202587
-0.0023273
0.000135845
0.000165587
-0.00187986
0.00290006
0.000723877
-0.00174408
8.39611e-06
0.00121458
-0.00122297
-0.00176659
0.0026462
-0.000879606
0.000315559
0.000423393
-0.000539633
-0.00019932
0.000998521
0.000667751
-0.000378253
-0.00128802
-0.000604848
0.000360614
0.000195165
-0.00152831
0.00133314
4.42438e-06
-5.48927e-05
4.98823e-05
5.86054e-07
0.00138186
-0.00159699
-0.00195879
0.00217393
-0.00191225
0.00111628
5.80698e-05
0.000737904
0.000141708
-0.00106143
0.00115384
-0.000234115
0.00132422
-0.0013817
-0.00101434
0.00107182
6.44854e-05
-6.0061e-05
0.00140378
-0.00126207
-0.00134241
0.00769633
-0.00118193
-0.005172
-0.00156704
-0.000982314
-0.00163809
0.00418744
0.00137996
2.38175e-05
-0.000126655
0.000212951
-8.62961e-05
-0.00307977
0.0004708
0.00092059
0.00168838
0.000293129
0.00014536
-0.000438489
0.000163501
0.00113031
-2.15315e-05
-0.00127228
5.93646e-05
0.00125412
0.00259052
0.00282679
-0.00277855
-0.00263876
8.60486e-05
-8.46106e-05
-5.63307e-05
-0.000186429
0.000213077
0.000266481
0.00295842
-0.00306365
0.000258195
-0.000152965
0.001078
0.000336415
-0.00168456
0.000270147
0.00225768
-0.00218436
0.00118232
-0.00125564
0.00043732
-0.000360558
0.000479532
-0.000556293
0.000376092
0.000116778
-0.000449328
-4.3542e-05
1.50635e-05
-7.26446e-06
0.00030906
-0.000316859
-0.000173931
-0.000836284
0.000181418
0.000828796
-0.001385
-0.00142719
0.00196952
0.000842668
-9.83029e-05
-0.00309949
0.00313746
6.03318e-05
7.58515e-05
-0.000626719
0.000550868
-0.00145396
-0.000118639
0.0011732
0.000399393
-0.00147208
-0.000554079
-0.000287051
-0.00104863
0.00188976
1.68321e-05
-0.000334565
0.000317733
0.00163835
-0.00165709
1.87391e-05
-0.00142086
4.48675e-05
-4.8753e-05
0.00142475
-0.00182594
0.000561119
0.00126482
0.00153496
0.000338651
-0.00239202
0.000518409
-0.00035483
-1.30356e-05
0.000382929
-0.000358903
4.07366e-06
-0.00105573
0.000195859
8.84715e-05
0.0007714
2.5289e-06
0.000501867
0.000299601
-0.000598709
-0.000202758
0.0012468
-0.000183963
7.79467e-06
-0.00107063
0.000387343
-0.000714097
-0.000385905
0.000253396
-0.00193495
0.00206746
2.5753e-05
0.00050355
-0.00107491
0.000545609
0.000236399
-0.00022414
-0.00169463
0.00168237
0.00155062
0.000318443
-0.00186906
0.00437398
-0.00325539
-0.00157127
0.000267922
0.00163347
-0.000330122
0.00224763
-0.00144252
0.00167997
-0.00248509
0.000673755
-0.000499793
0.00176688
-0.00194084
0.000875222
-0.00231168
0.000116192
0.00132026
0.00365522
-0.00323213
0.00165639
-0.00207948
0.00138253
-5.67082e-05
-0.00132582
-9.30543e-07
-0.00178727
0.00178821
-0.00235165
0.0020715
0.00115537
8.7022e-05
-0.000163918
7.68956e-05
-0.00039858
0.000368135
0.000612283
-0.000581838
0.00109734
-0.00133539
-0.000483532
0.000721576
0.000592283
0.000143261
0.00167356
-0.0024091
-0.0022096
0.00179771
-0.00132825
0.00174014
0.00108965
-0.00189179
0.00194766
-0.00114553
0.000865088
-0.000779133
-9.62955e-05
1.03404e-05
-0.000271537
-0.000450122
0.000721659
0.000862629
-0.00228041
0.00233188
-0.000914094
1.17803e-05
-1.06041e-10
-2.40503e-06
-9.37517e-06
-0.00130904
-0.000755231
0.00206427
-0.000101559
0.00101782
-0.000953948
3.76917e-05
-0.000504998
0.000259757
0.000245241
-0.0016824
0.00139321
-0.00198132
0.0022705
-1.05166e-06
-7.81954e-06
-5.16101e-06
1.40322e-05
-1.23879e-06
-0.000147946
0.00010856
4.06246e-05
-4.11939e-05
-5.46695e-05
0.000110934
-1.50711e-05
0.000759903
9.41972e-05
-0.000774329
-7.97715e-05
-0.00117872
0.00360769
-0.000389531
-0.00203944
6.03147e-06
5.74883e-06
0.000511733
-0.000228893
-4.00906e-05
-0.000242749
8.53086e-05
0.000338846
7.10327e-06
6.35883e-05
0.000689211
-0.000393829
-0.000111169
-0.00341752
0.0032621
-0.000403236
0.000558654
0.00124097
-2.12179e-05
-0.00117397
-4.57777e-05
0.00102307
0.000487072
-0.00284127
0.00133113
-0.00173179
0.00157965
0.000152143
0.000517619
-0.000523664
-0.000290131
0.000296176
-0.000453158
0.00301693
-0.000356479
-0.00220729
-0.000424995
0.000508367
-0.000368915
-0.000716078
0.00015225
0.000291936
0.000271893
-0.000125071
2.14466e-05
0.000103625
-0.000862882
-0.00243827
0.00301331
0.000287847
-0.000539325
-0.00117519
0.0017077
6.81747e-06
0.000852527
-0.00089852
-0.000304183
0.000350176
-0.000190083
0.000306615
-0.000255764
0.000139232
0.000634256
-0.000122186
-2.86926e-05
-0.000483378
0.000101091
-0.00274037
0.00280163
-0.000162352
-0.000399435
-0.000254453
0.00096825
-0.000984451
1.62017e-05
0.00208654
-0.000760038
-0.00168654
0.000360033
-0.000775508
0.000585099
0.000275717
0.00062413
0.000205855
-0.000829985
-0.00160548
0.00172201
0.00302746
-0.00314399
0.000730427
-0.00032049
-0.000336046
-7.38917e-05
0.000467803
0.000191052
-0.00291172
0.00225287
0.000467213
0.000888794
-0.00109459
-0.000261419
-0.00149162
0.000534076
0.000957542
0.0008383
0.000132711
0.000999686
-0.0019707
-0.000578402
-0.000913217
0.00104806
-6.0044e-05
0.000756176
-0.00206522
-0.00152095
0.00146007
0.000285482
-0.000224602
0.000984014
0.00225019
-0.000136372
-0.00309783
-0.00155671
0.0020356
-0.00191414
0.00143526
0.00045612
0.0078146
-0.0073391
-0.00093162
0.00284832
0.000343135
-0.00149674
-0.00169471
-0.0014428
0.000414894
0.00135228
-0.000324377
0.00044425
0.000651245
-0.000411248
-0.000684247
-0.00316902
0.00334157
-0.000172554
-0.00105681
0.00261607
-0.000511198
-0.000430131
6.08823e-05
-0.000153222
0.00052247
0.000636563
0.00206712
-0.000429881
-0.00227381
0.00115885
-0.000840616
-0.000318229
-0.000108423
0.00206379
7.38237e-05
-0.00202919
0.00139206
5.02246e-05
-0.00144229
-9.44322e-05
-0.000849206
0.000865458
7.81803e-05
-0.000395954
0.00101868
-0.000844267
0.000221538
-0.00094495
-0.00066704
0.000555178
-0.00068571
0.0001441
0.000305988
0.00483502
0.000666604
-0.00295109
-0.00255053
-1.1077e-05
-0.00130325
0.00120591
-0.000467016
0.000299213
0.000167803
-0.00109728
0.00113436
-3.70728e-05
-0.000328909
0.000100432
-0.000179796
0.000408272
0.000357299
-0.00199522
-0.000420956
-0.000844483
1.96455e-05
-0.00176666
0.00174701
-7.55888e-05
0.000211247
-0.000135658
0.0001671
-0.000147712
3.75025e-05
-5.68902e-05
-0.00236175
0.000252807
-0.00226737
0.00437631
-0.00017332
0.00057976
-0.000652362
0.000245921
0.00026885
1.81703e-05
-0.000119921
-0.0057585
0.0024175
0.00966003
-0.00631903
0.00366396
0.000695166
-0.00135581
-0.00300331
-0.000120713
-0.00155302
-0.00140603
-6.01094e-05
6.27414e-05
-2.63204e-06
-0.00183527
-0.000159078
-0.000114321
-0.000402888
0.000464955
5.22541e-05
0.000310318
-0.000348127
3.78098e-05
0.000645445
-0.000431562
-8.33267e-05
-0.000130556
0.000904563
-0.00571913
-0.00094393
-0.000326367
-0.000117878
-0.000200463
0.000644708
-0.00106142
0.0018445
4.83384e-05
-0.000831423
0.000154536
2.85237e-05
-2.73703e-05
-0.000155689
-0.000188986
-0.000602262
-0.000191572
0.000982821
-0.0013246
-8.58569e-06
0.000359506
0.000973684
1.18852e-05
0.000147356
-0.000288193
0.000128952
0.000241671
-7.56763e-05
0.000101618
-0.000267612
-2.29676e-05
-2.17821e-06
2.75764e-05
-2.43058e-06
-0.00104595
0.00101972
-0.0012723
0.00129853
-0.0025868
0.000260083
0.00259673
-0.000270013
-0.000125707
-5.57057e-05
0.000181413
-0.000688171
0.000411305
-9.81059e-05
0.000374972
0.000160214
5.44896e-05
-0.000237671
0.000237688
-0.000438657
0.000505332
-0.000304363
0.000328925
-0.000445077
-0.000427528
0.00054368
-9.23706e-05
0.000296659
-0.000204289
-0.000102082
-0.00100845
0.00176004
-0.000689191
-0.000648846
0.000500318
0.000837718
-2.06747e-05
5.58265e-06
-9.75623e-06
2.48483e-05
0.000156954
0.000526834
-0.000766464
8.26754e-05
-0.000284935
-0.000396892
0.00032373
0.000358097
-0.000471999
0.000109438
-0.00137602
0.00173858
0.000690111
0.00137463
-0.00159496
-0.00046978
8.24478e-05
-0.000613116
0.00050377
2.68976e-05
0.00227835
-0.00159502
0.00243489
-0.00311822
0.000297709
-0.000320085
-0.000773309
0.000795685
-0.000353858
-0.000506498
0.000860357
-0.000309804
-7.73704e-06
0.000317541
-0.000534631
-0.000909814
0.00144444
0.00118946
-0.00108477
-0.000569216
0.000464533
0.00076812
-1.35903e-05
-0.000648147
-0.000106382
0.000302766
-0.00169648
0.00139371
-0.000303753
0.000348219
0.000404352
-0.000448818
0.000423297
0.0006196
-0.000421781
-0.000621116
0.000230894
-0.00244391
0.00249515
-0.000282133
-0.000574128
0.00119225
-0.00111323
0.000495108
0.000220231
-0.000243079
0.001941
-0.00191815
-0.000262827
-0.000217932
0.000167364
0.000313395
-0.000425622
-0.000282271
0.000354034
0.000173319
0.000427755
-3.75797e-05
-0.000563495
0.000399394
0.00147021
-0.00178328
-8.63228e-05
0.000435028
-0.00125698
0.000199698
0.000622253
0.000307357
-0.00115733
0.00113018
-0.000280213
0.00194045
-0.00201278
-8.65486e-05
0.000158878
6.37713e-05
9.3225e-05
3.21772e-06
0.00271748
8.66208e-05
-0.00275087
-5.32275e-05
-0.00015627
0.00124173
0.000112724
-0.00119818
-0.00119055
0.000655916
1.11198e-05
-0.000666292
0.000649566
5.60603e-06
-2.2853e-05
-2.00847e-06
-0.00106464
-5.04625e-06
0.00107169
0.000744205
-0.000746214
1.74946e-06
0.000742456
0.00198948
-5.89194e-05
0.000212132
-0.00214269
4.3434e-06
-0.00147445
0.00147011
0.000150694
-1.07819e-05
3.12263e-05
-0.000171138
7.89969e-05
-9.64297e-06
0.00050003
0.000816142
-0.000109358
-0.00120681
-0.00504513
0.0016306
-0.000915021
-0.00152936
0.00125383
-0.00170897
0.000520548
0.000273397
0.000744843
-0.00204346
0.00162875
-0.000330131
0.000486935
0.00255631
-0.000513663
-0.00252958
-0.00151214
0.00305969
-0.00571128
0.00416372
-0.00154211
0.00202904
-0.00216337
0.00113239
-8.9234e-05
0.00112021
0.000297329
-0.00126798
0.00137004
-0.00246233
-0.000143823
0.00262415
-1.7997e-05
0.000239245
-0.00178982
-1.39264e-05
0.0015645
-0.00168976
0.00169113
-3.68772e-05
3.55107e-05
0.000799045
0.00281793
-0.00244934
0.00268397
-0.00188411
0.000477619
-0.00127748
-0.00123005
0.000196361
0.00127293
0.000151627
-0.00133018
-5.14936e-05
0.000332819
0.000108148
-0.0005146
7.36333e-05
0.000179118
0.000237297
-0.000228766
-0.000187648
0.000376332
-0.000812577
-0.000273139
0.000709384
0.000256437
-0.000348525
-9.41992e-05
0.000186287
-0.000167403
0.000201367
-0.000677016
0.000643052
-0.000834809
0.000836558
-0.00102013
4.95121e-05
0.00116698
0.0017188
-0.00198113
0.00160827
-0.00134594
0.000161586
-0.00179978
0.000308016
0.000997335
-0.00130535
0.00163332
-0.0017634
0.000130076
0.00136977
-4.5172e-05
3.42194e-05
-0.00135881
0.000878733
-0.000600664
0.000630288
-0.000253169
-0.000609986
0.000117447
-0.00019373
0.0018441
-0.00176781
-0.000537249
-2.67452e-05
-0.000902924
0.00146692
-5.61896e-05
0.000389009
-0.00131547
0.00107159
-5.10308e-05
0.00029491
-0.00107939
0.00119684
0.000407959
-0.000464149
0.00242997
-0.000317519
-0.000351075
-0.00176137
-0.000288774
0.000348689
0.000190679
-0.000250594
0.00165847
-6.00872e-05
-0.00159838
-0.0012585
0.0023168
-0.000298043
-0.000760254
-0.000698707
3.98763e-05
-5.59021e-05
0.000714733
-0.000191426
9.8502e-05