/*--------------------------------*- C++ -*----------------------------------*\
| =========                 |                                                 |
| \\      /  F ield         | OpenFOAM: The Open Source CFD Toolbox           |
|  \\    /   O peration     | Version:  v2012                                 |
|   \\  /    A nd           | Website:  www.openfoam.com                      |
|    \\/     M anipulation  |                                                 |
\*---------------------------------------------------------------------------*/
FoamFile
{
    version     2.0;
    format      ascii;
    class       volScalarField;
    location    "1.61209946";
    object      T;
}
// * * * * * * * * * * * * * * * * * * * * * * * * * * * * * * * * * * * * * //

dimensions      [0 0 0 1 0 0 0];


internalField   nonuniform List<scalar> 
83563
(
300
300
300
300.023
301.952
300.003
305.553
300
300.029
304.118
300
308.398
300
300
300
304.221
300
300
305.38
300
300
300
301.928
302.229
300
300
300.021
307.996
300
300.033
300.169
300.008
300.338
300.004
300
300.278
300
300
300
300
300
300
300.018
300
300
300
302.626
300.627
300
304.795
304.049
300
322.441
332.245
300
301.03
300
325.275
325.459
300
331.915
310.061
300
300
334.841
338.063
331.657
300
300
304.509
300.512
300.002
300
304.343
300
301.67
304.063
300
300.001
300.1
300
300.16
300.717
321.667
300
300.001
300
315.753
300
300
300
300
300
304.176
325.023
300
314.156
300
300
300
300
300
300
300
300
300.002
300
300
333.508
300.001
300
300.926
308.403
300.843
300
300
300.651
300
300.001
300
300
300
300
313.11
300
300
318.211
304.906
300
300
303.962
305.571
301.915
306.79
300
300
300
300
300
304.263
300.865
301.87
300
300.52
305.941
339.565
300.001
300
300
300
302.156
300
300
300
300
300
300
300
300
300
300
300
300
300
300
307.031
300
301.08
300
300
300
300
305.642
302.151
305.681
300
300
300
300
300
300
300.082
300
301.679
304.452
308.102
303.8
302.702
300
300
300
308.8
300
307.555
301.731
315.336
300
300
300
300
300
300.234
300
300
300
303.499
300
300.779
300
300
300
300
300
300
300
300
300
300
300
300.479
300
300
300
301.612
300
300
300
300
300
300
300
300
300
300
309.037
300
300
300.523
300.451
300.011
300
300
300
300
300
300
300.007
300
319.669
300
300
300
300
300
300
300
300
300
300
300
300
300
300.249
300
300
301.024
300
300
300
300
300
300
301.396
300
300
300.029
300
300
300
300
300
300
300
300
309.393
300
305.619
300
300.218
300.019
311.16
300.221
300
300
300
300
300
300
300
300
300
300
300
300
300
300
300
324.474
300
300.001
300
300
340.371
315.415
300.177
301.404
300.135
300
300
300
300
300
300.001
300.001
300
300
300
337.599
300
308.488
300
300
300
322.901
300
300.013
300
304.28
300
300
330.572
338.826
300
300
300
301.828
300
300
300
300
300
300.003
300
304.157
300.096
300
305.718
300
300
320.134
300.202
316.906
300.007
301.157
300.011
307.122
309.119
300
303.966
300
300
300.005
300
300.021
300.151
300
300.043
300
300
300
300.001
306.628
300
300.509
300.02
300.043
300
300
300.226
300
300
300.1
300
300.118
300.007
300
300
300
300
300
305.677
300
300
300.729
300
300
300.153
300.974
300
300
314.473
300
300
300
310.72
300
300
300
300.107
300
300
300
312.949
300
303.158
312
300.003
301.344
303.239
300
300
307.987
300
300
300.157
300
303.057
300
300
303.58
300
300
302.952
300
308.427
300
300
309.286
305.214
305.97
308.277
300
300
300
300
300
304.472
300
300
303.117
300
306.291
300
300
300
300
300
300
300
300
300
300
300
300
300
300
300
300
300
300.904
300
300.004
300
300
300
303.06
300
300
306.446
300
300
300
300
320.241
300
300
300
300
300
300
300
300.067
300.546
300.001
300.144
300.033
300
300
302.181
300
300.003
300
300
300
300
300
300
334.521
333.456
300
300
300
300
300
300
300
300
339.328
300
300
300
300
300
300
300
300
338.337
300
300
330.935
300
300
331.72
302.971
315.201
311.56
300
312.329
334.917
300
300
302.92
300
300
300
300
304.885
300.033
322.342
300
300
301.21
300
300
304.984
300
316.501
300.006
300.03
300
320
300
300
300
323.892
300
300
300
300
300
300
300.001
304.04
300
300
300
300
300
300
300
300
300
300
300
300.002
300
300
300
300
300
300
300
300
300
300
300
307.536
300.035
300
300.001
300
300
300
300
321.341
300
300
300
300
300
303.235
315.924
300
301.568
300
300.001
300
300
300
300
300
300.011
300.033
300
300
316.047
300
300
300
300
300
300
300
300.6
300
300
300
302.101
336.007
300
300
300
300
300
300
300
300
300
301.192
300
300
329.47
301.154
301.764
327.262
300
301.124
300
300
300
301.012
300
301.729
302.646
300
300
311.213
300
300
304.598
327.184
300
300
332.571
300
304.172
304.005
304.554
312.696
300
300
301.839
300
300
300
310.866
300
300
301.14
300.404
300
300
300
300
302.509
300
300
300
300
300
300
300
300
300
300
300
300
300
300
303.818
300
316.36
300
300.028
300
300
329.337
302.218
300
321.337
300
300
300
304.97
336.749
300
300
300
339.771
300
300
300
300
300
300
300
300
308.208
324.13
300
300
300
300
328.102
300
300
300
300
300
300
300
300
300
300
300
300.004
300
300
300
303.715
300
300
300
300
300
300
300
310.918
300
300
300
302.791
332.033
338.657
300
338.287
300
300
300
300
300.452
308.897
300.033
331.538
300
300
302.971
301.646
300
300
300
300
300
300.002
300
300
300
342.075
317.23
300
300
300
317.853
308.096
308.102
306.453
300
304.15
300
300
300
300
307.587
305.666
300
300
301.708
301.371
300
300
300
300.621
300
316.526
300
300
300
300
300
300
300
300.001
300
300
300.022
300
312.772
307.266
309.086
303.067
314.495
300.106
300
300
300
300
300
310.397
300
300
300
300
300
300
300
300
300
300
300
300
300
319.452
300
300
300
302.6
304.013
300
300
300
300
300
300
300
300
312.66
300
300
315.82
335.96
301.095
300
300.001
300
300
300
300
300
300
300
300
300
300.433
300
300
300
300
300.449
300
300
300.379
300.013
300
300.582
300
328.867
331.042
300
318.055
300
300
300
300.001
300
303.33
300
300
300
337.58
300
309.362
301.64
300
300
333.045
300.003
310.487
300
300
317.786
300
300
300
300
300
300
300
305.771
300
305.552
301.15
301.018
300.002
300
300
300
317.883
300
300
300
300
300
300
300
300
300
300
300
300
300
300
300
300
300
300
300
300
300
300
300
300
300
300
300
300
300
300
300
300
300.794
300
300
300
300
300
300
301.746
300
300
317.62
304.236
300
300
300
312.077
300
304.518
300
306.82
300
300
300
300
300
300.047
303.658
300
300
305.745
302.891
300
300
300
300.012
301.034
300
300
300
300
300
300
301.016
300
300
300
300
301.521
300.016
300
300
307.87
300
300
311.79
300
300
300
300
302.098
300
303.61
303.175
300
300
300
300
300
300
300
301.711
300
302.127
301.019
326.96
300
300
301.137
300
300.121
300.53
300
300
304.644
300
323.519
300
300
300
309.03
302.595
300
307.27
307.965
300
300
302.638
300
301.95
300
300
300.037
300
307.062
300.672
300
300
300
300
300
300.56
300
300
300
300
300
300
300.104
300
300
300
300
300
300
300
302.132
300
300
304.351
300
300.312
325.738
300
300
300
301.017
300
300
300
300.665
300
300
300
300
300
300
300
300
310.034
300
300
300.403
300
300
300
300.011
300
300.002
300.006
300
300
300
300
300
300
300
300
300
300
302.32
300
300
300
306.315
300
300
300
300
300
300
300.095
300.007
300
300.829
300.166
300
300.325
300.971
300
300.089
300.271
303.842
300
300
300
300
300
300.333
300
302.758
300
303.03
301.539
300.383
301.051
308.125
300.7
300
300
300
300
300
326.328
300
300
300
309.095
300.87
300.742
304.175
300.23
300
300
300
300.034
300
300
300
302.188
300
300
300
300
300.117
300
300
300
300
300.001
305.05
300
300
300
303.261
300
300
300
300
300
300
300
300
300
300
300
300
300
300
300
300.273
302.015
302.247
300.003
300
300
300.545
321.691
301.059
300.001
300.013
300.04
301.13
300
302.669
300
300.53
308.906
300
300
300.001
300
300.251
304.354
300.323
300
300.003
301.006
300
303.089
305.588
300
302.931
301.306
300
300.001
333.974
302.711
300
300
300
333.1
300
300
300
300
300
301.625
300
300
300
300
300
301.093
300
300
300
300
300
300
300
300
300
300
341.402
300
300
300
300.016
300.066
300
342.932
300
300
316.228
300
336.734
300.137
300
300
300.3
300.002
300.201
300
300
300
300
300
305.115
300
300
300
300
300
300.017
300
300
300
300.225
300
300
300
300
301.214
300
300
304.408
300
300
302.557
300
300.079
300
300.068
300.108
300
300
300
300.001
300
300.013
300
300
300
305.127
300
300
300
330.778
300
302.332
300
300
300
300
300
302.767
300
300
300
300
300.039
300
300
326.927
300
304.185
304.879
300
300
300
300.068
300
301.889
300
300
300
300
300
300
300
300
300
300
300
300
300
300
300
300
300
300
300
300
300
300
300
300
300
300
300
300
300
300
300.003
300
300
300.712
300
300.009
311.43
300
300.921
300
300
300
300
300
300
319.472
300
300
300
300
300
300
302.148
300
302.403
311.358
300
300
300
300
300
300
300
300
300
328.147
300
300
300
300
300.937
306.939
300.018
300.117
300
302.667
300.019
322.457
300
300.036
302.893
300.013
300
322.308
300.843
300
300
301.494
300
314.12
300
300.158
300
300
300
300
300
300
300
300
300
300
322.874
300
300
300
300
300
300
300
300
300
300
300
300
303.263
300.164
300.041
300
310.986
300
302.489
300
300
300
300
300.022
300
300
300.001
300
300
300
300
300.002
300
317.929
317.836
300
300
318.649
330.222
300
332.735
300
300
300.178
335.009
301.932
300
300
300
300
300
300
300
304.562
300
300
302.568
300
300
300
300
300
300
300
300
300.572
300
301.757
304.102
300
304.731
300
300
300
300
300
300
300
300
300
300.364
300
300
300
302.927
303.171
300
304.544
303.554
316.349
305.036
300
304.833
300
300
302.454
300
300
303.587
300
300.59
301.806
300
300
300
300
300
300
303.549
300
300.001
300
301.771
300.758
300
300
300
300
301.686
301.101
300
300
300
300
300
300
300
300
300
300
300
300
300
300
300
300.005
302.497
300
300.002
300
300
300.922
300
300
300
317.653
302.936
300
300
302.309
300
300
300
300
320.46
303.055
300
300.862
300.787
302.72
300
331.532
300
300
304.481
300.012
300.032
300
300
300
300
300
300
300
300
300
300
300
300
300
300
300
300
300.722
300
300
300.002
300
300
300
309.022
300
300
300
300
302.134
300
300
301.33
300
300.029
300
300
300
305.037
300
300
300
300
300
305.451
320.299
300
300
300
308.945
304.44
300
304.137
300
301.197
300
300
300
300
300
300
300
300
300
319.561
301.238
300
300
333.136
300
300
300
300
300
300
300.001
300
330.962
300
300.275
300
300
301.554
305.015
300.02
300
331.879
300
300
300
300
300
300
300
300
300
300
300.001
322.723
300
300
300
329.927
300
336.053
300
334.558
300
300
300
300
300
300
300
300
300
300
300
300
300
300
300
300
300
300
300
325.272
300
300
300
300
300
300
300.609
301.493
300
300
300.028
300.005
300
300
300
300
300
300
300
300
300
302.064
300
300
300
300
300
300
300.029
301.675
300
300
300
300
300
300
310.969
300
333.316
300
300
300
300
300
314.889
300.003
300
300
308.413
300
300
314.119
300
300
314.311
300
300
300.001
300
300
300
300
300.001
300
300
300
300
317.312
300
323.732
300.478
300.125
300
308.762
300
300
300
300.662
300
300
300.003
300
300
300.034
300
300
300
300.01
322.378
300
300
300.923
300
333.599
300
300
300
300
300
300
300
300
300
300
300
300
300
302.3
300
300
300
300
300
300
304.594
300
300
336.828
300
300
300
340.121
300
331.041
300
300
301.836
319.648
300
300
300.563
300
300
340.254
325.31
348.298
300
344.344
345.818
300
300
300.04
301.324
300
300
300
300
341.647
333.468
322.102
303.222
300
304.575
300
300
303.55
300
300
300
300
300
304.217
300.265
300
300
300
300
300
300
300
300
300
321.714
300
300.848
300
300
337.676
300.204
300
310.069
316.184
300
324.746
300
300
300
300
300
300
300
300
300
325.027
300.001
300
300
317.033
300
300
300.063
300
300
300
300
300
300
300
300
300
300.009
300.248
300.473
300
300
300.003
300
300
300
327.487
300
300
300
300
300.002
300
300
300
300
300
300
300
300
300
300
304.437
300
300
300
300
300.005
300
300
300
300
300
300
300
300
300
300
300
300
300
300
300
314.533
300
300
300
300
327.684
300
300
300
300
300.164
300
322.756
300
300
312.897
300
300
300.106
313.436
300
329.063
300
300.01
300.007
300
300
315.868
300.008
301.115
300.139
300
300.003
300.004
313.182
300
302.958
303.34
303.373
300.283
303.621
300
300.004
300
302.65
303.505
300
300
300
300
300
303.308
300.15
300
300
303.36
300.454
300
300
300.096
300
300
305.136
314.27
300
300
300
302.073
300
300
300
300
300
300
300
300
300
300
300
303.708
315.366
300
300.494
300
300
300.014
305.891
300
303.125
300
300
300
300
300
300
300
319.593
300
300
300.746
300
300
300.067
300
300
300.102
300
302.247
300
300
300
300.016
300
300
300.047
300
300
300
300
303.894
300
300
300
300.003
300
300
300
300
300
300
300
300
300
300
300
300
300
301.487
300
300
300
301.82
329.665
300
300
300
300
300
300
300
300
321.161
300
300
300
300
300.002
300
300.001
300
300
300
300
300
300
300
300
308.165
300
300
300
300
300.04
300
300
300.366
300
301.407
314.466
300.167
300
306.225
300
300
300
300
300
300
301.597
300
300
300
300
322.529
301.567
300
300
300
300
300
300
327.446
301.078
335.048
300
300
309.721
301.556
300
300
300.741
301.489
300
300.019
300.113
300
300
300.022
300
320.853
300.224
300.048
301.138
300
300
300.884
300
300
300
300
308.42
300
307.632
300
300
300
300
300
300
300
300
300.626
300
300
303.862
300
300
300
335.326
300
300
300
300
300
300
300
300
300
300
300
300
300
300
300
300
300
300
300
300.006
300
300
300
300
300.002
300
307.872
300
300
300
300.015
300
300.001
300
300
300
300
300.053
303.006
300
300
300
300
300
300
300
300
300
302.845
300
300
300
300
300
300
302.894
300
302.971
300
303.238
300
302.9
300
300
303.109
312.893
300
300
300
300
300.458
300
300
300
305.093
300
300
300
315.554
300
300
300
300
300
300
317.392
300.276
300
300
300
300
300
300
300
300
300
300
302.953
303.112
300
307.961
307.275
300
300
301.716
300
300
300
300
300
300
300
300
300
300
315.22
300
300
300
300
300
300
300
300
300
300
300
300
300
300
300
300.033
300
300.665
300
300
300
300
300
300
300
300
300
300
300
300
300
301.645
300
300
300
309.293
300
319.625
300
300
300
300
300
300
300
305.15
300
313.788
300
300
300
300
300
300
300
300
300
304.395
300
300
300.104
300
300
300.1
300
300
300
300
300
300
300
309.246
300
300
300
310.249
300
327.428
300.005
305.878
303.206
300
306.726
300
300
300
300
300
300
300
300
300
300
304.42
300
300
300
300
300
300
300
300
305.037
300
300
300
300
300
300
300
300
302.594
300
300
301.23
300
300
300
300
300
300
300
300
300
301.098
300
303.644
300.01
300
300
300
300
300
300
300
309.044
300.013
300
300
300
300
300
300
300
300.005
300
300
300
300.049
300
309.357
300.72
300
300.066
300
300
305.084
324.301
300.006
300
304.535
300
300
300
300
300.004
300
319.355
300
300
300
300
300
300
300
300
300.012
300
300
300
300
300
300
300
328.255
300
309.855
313.667
300.002
308.591
300
300
300
300
300
301.591
332.356
335.794
300
300.012
330.143
300
300.002
300
300
300
300
320.066
300.055
300
300.002
300
300.425
338.929
301.029
300.001
332.72
300
300
300
300.017
300
300
300
300.038
300
300
300
300
300
300
300
300
300.006
300
300
300
300
301.658
321.169
300.021
300.026
300.072
300
300
300
300
300.084
300.007
300
300.002
300
300
300
300
302.508
300
300
300.286
300
300
300.269
300
300
320.429
300
301.088
300
301.915
300
300
300
300
300
300
300
300
300
300
300.153
300
300
300
300
300
300.316
300
300.136
300
300.406
302.21
300.081
307.018
300
300
304.136
304.039
300.085
303.365
300
300
300
300.103
303.094
300
301.365
300
300
300
322.765
300
300
300.047
300
304.363
300.031
300
300.016
300
300.015
300
304.988
300.061
300
300
300
300
300
300
300
300
300
300
300
300
300
300
300
300
300.112
300
300
300
300
300
300
300
300
300
300
336.301
300
300
300
314.099
300
309.355
300
300
300
300
300
300
300
302.243
300
300
300
300
300
304.407
300
321.265
300.007
300
300
300
305.73
300
300
300
313.636
300
300.078
300
300
300
300
300
300.033
300
300
300
300.887
300
300.714
300
300
300
300
300.021
300
300
300
300.025
300.067
303.144
300
300.002
300
300
300
300
300
300.001
300
314.43
300.577
300
300
300
300
301.061
308.257
307.488
300
300.001
300
300
327.685
300
300
300
300
318.524
300
306.998
313.063
300
300
300
300
300
300
300
300
300
300
300
300
300
300
300
300
300
300
300.004
300.021
300
300.003
300
300
300
300
304.5
300
300
300.075
300
300
300
300
300
300
305.059
328.118
300
305.502
300
300
300
300
300
300.937
300
304.48
304.584
300
303.509
305.002
301.881
302.764
304.145
300
300.048
303.322
300.038
309.297
300
301.077
301.929
300
339.581
304.974
300
333.208
300
300
300
300
300.022
300
300
300
300
300
300
300
300
300
300
300
300
300
331.136
300
300
300
300
300
300
300
300
327.769
300
300.616
305.637
300.073
300
300
300
300
300
300
322.104
300.002
302.57
300
305.445
300
300
300
300
323.669
338.366
300.001
300.001
300
300
300
300
301.448
313.233
300
300
300
300
300.01
300
300
300
300.003
318.596
324.239
316.743
311.566
319.372
300
300
313.511
323.502
300
300
300
300
303.994
300
300
300
303.529
300
300
300.075
300
300
300
300
300.001
300
300
300
300
300
305.588
314.574
300
300
300.974
310.063
300
300
313.378
300.05
300
300
300
300
300
300
300
300
300
300
300
300
300.016
300
300.012
300
300
330.036
300.065
300
302.564
300
300
300
300.109
300
304.794
300
300
300
300
332.263
300
313.187
329.781
326.482
300
300
300
305.286
300
300
300
300
300
300
300
300
300
300
300
300.227
328.784
300
300
300
300
300.285
300
300
300.253
333.015
300
300
300
300
329.345
300
300
300
300
300.095
300
300
300
300
300
300
325.404
323.297
300
300
300.018
300.034
300.33
300
300
300
300
300
300
300
300
300
300
331.29
300.005
300
326.987
300
300
329.28
300
301.143
300
300
300
336.616
300
300
300
300
331.457
300
300
300
300
300.031
300
300
300
300
300
300.049
300.743
300
324.725
300
312.049
300
300
301.305
300
300
316.619
300
300
300
300
300
300
300
300.221
300
303.831
300
300
300.579
300
300
309.086
300.129
302.215
300.258
300.006
301.176
305.301
320.369
300
300
300.343
300
300
300
300.001
325.286
300
300
332.279
318.229
312.353
300
300
304.75
304.739
300
300
300
300
300
300
335.674
300
300
300.001
300
300
318.417
300
300
300
300
323.624
300
300
300
300
323.929
300
300.052
303.819
327.465
315.611
300
300
300
300
300
300
300
300
300
317.774
300
300.056
300
300
300
307.811
300
300
300
300
300
300
300
300
300.011
300
300
300.063
300
300
321.763
300
328.674
300
300.943
300
300
300
300
300.057
302.081
300
300
300
305.648
300
300
329.742
300
300
300
300
300
300
300
300
300
329.177
300
300
300
300
300
300
300
300
300
300
300
300
307.404
300
300
300.002
300
300
322.286
300
300
300
300.014
315.582
300
300
300
300
300
301.65
300
300
300.283
300
300
300
300
300.411
300
300
300
300
316.191
300
300
300
300
300
300
300.079
300
300
300
301.098
300
300
300
300.056
300
300
300
300
300.112
317.958
300.249
300
300.009
300
300
300
300
300
300
300
300
300
300.151
300
300
300
300.013
313.613
300
300
300
300
300
300
300
300
300
300.192
300
300
303.841
323.235
300
300
300
300
300
300
300
306.139
300
300
300
317.469
300
300
300.109
300
300
300
300
300
300
300
304.976
300
300
332.814
302.33
304.512
300
300
304.765
307.793
300
300
300
300
300
300
300
306.307
300
300
300
300
300
300
300.004
309.404
300
300
300
300
300
300
300
300
300
300
300
300
300
316.49
300
300
302.062
322.428
300.001
328.205
300
300
300
300
300
302.914
303.55
300
300
300
300
300.001
300
300
300
300
310.911
300
300.001
300
300
300
300
300
300
300
300
300
300
300
301.319
300
300
319.029
300
300
300
300
300
300
300.076
300
301.218
305.66
301.622
300
300
300
300
300
300
300
300
326.936
300
300
300
300
300
300
300
300
300
300
300
300.237
326.203
300
321.736
300
300
300
300
300
300
300
300.025
300.004
300
300.256
300
300
315.27
300
300
305.657
300
319.097
300
300
300
302.143
315.952
300.168
300
300
300
300
300
300
300.015
300
300
300
300
300
300
300
300
300
300
300
300
300
300
300
300
300
300
303.76
300
300
302.777
300
302.816
300
300
303.192
300
300
300
300
300
300
300
300
306.307
300
321.795
300
300
300
300
300
300
301.019
300
300
300
300
300
326.758
300
300
300
324.025
300
323.577
300
300
300.084
300
300
300
300
300
300
300
300
302.654
301.642
300
300
300
308.708
303.248
300
300
300
300
334.723
300
300
303.581
300
331.432
300
300.757
300.09
304.612
300.815
300
300
300
300
300
300
300
300
300.58
300
300.015
300
300
300
300
301.237
300
300
300
300
301.068
300
300
300.171
300
300.708
300
329.305
300
300
300
300
300
302.526
300
300
300
300
303.428
300
300
303.475
300.934
300
300
300
300
300
309.422
300
334.562
300
300
300.001
300
300
300
300
300.012
300
300
300
300
300
300
300.082
300
300
300
300
300
300
303.755
300
327.646
300
300
300
300
300
300.017
314.638
300
300
303.645
300
300
300
300
300
300
300
300
300
300
300
300
300
300
300
303.898
300.05
300
300
300
300
300
300
300
300
300
300
300
300
300
300
300
300
300
300
300
300
300
304.035
300
300.668
300
324.042
300
300
302.993
303.698
303.331
300
302.199
303.425
300
300
300
300
306.05
300
300
300
315.748
300
324.619
300
300
300
300
300.564
300
301.726
300
305.135
300
333.051
300
305.405
300
300
300
323.056
300
300
335.338
319.722
300
300
300
300
300
333.766
300
300
300.293
300
300
303.91
300
300.073
300.063
300
300
300
300
300
300
303.524
300.015
300.01
300
300
325.515
300.035
316.828
300
300
331.99
300
331.968
300
300
304.48
300
300
300
300
300
300
300
300
300
300
300
300
300
300
300
300
300
300
304.8
319.722
300
300
300
300
300
300
300
300
300
305.614
301.179
315.049
337.34
330.363
300
300
300
300
300
300
300
300
300
300
300
300
308.249
300
300
300.163
332.348
304.927
300
301.118
300
300
300
302.237
303.427
300.712
300
300
315.413
300
300
300
300
300
300
300.482
300
300
300
300
300
300
300
300
300
300
300
300
300
300.011
300
300
300
300
300
300
300
300
300
300
300
300
300
300.002
300.152
300
300
300
300
300
300.006
300
300
300
300
300
300
300
300
300
300
300
300.033
300
300
302.178
300
302.041
300
300
300
300
300
300
300
300
300
302.189
300
301.772
326.559
300.001
301.5
300
304.633
300
302.114
308.409
300
300
300
300
300.061
300
300.418
300
302.129
300
300.017
300
300.308
300
300
301.633
300
302.821
300
302.935
303.201
303.517
303.802
300
300
328.948
300
303.666
300.001
300
300
300
300
300
300
300
300
300
300
300
300
300
331.638
300
300
300
300
300
300
300
300
300
300
300
300
300
301.921
300
300
300
300
300
300
300
300
300.769
300
300
300
300
300
300
300
300.01
300.647
300
300
310.353
300
300
300
300
300
300
300
300
300
300.658
306.071
301.571
300
300
300
300
301.409
300
300
300
300
300
300
300
300
300
300
300
300
300
300
300
300
300
300.011
300
300.002
300
300.004
300
300
300
300
300
300
300
313.404
300
320.74
300
300
300
300
300
300
300
300
300
300
300.008
300
300.032
302.54
300
300
300.001
313.46
300
300
300
300
300
300
300
300
300.003
300
302.356
313.96
300
300
300
318.087
300
300
300
304.904
300
300
300
300
300
300
300
300
300
300
300
300
300
300
300
302.695
300
300
300
300.086
300
300
300
300
300
300
300
300
300
300
300
300
300
300
300
301.54
300.003
300
300
300
300
300
300
300
300
300
300
300
300
300
300.022
300
300.014
300
300
300
300
300
300
300
300
300
300
300
300
300
300
300
300
300.001
300
300
300
300
300
300.024
300
300
300
300
300
300
300
300
300
302.734
300
300
300
300
300
300
300
300
300
300
300
300
300
300
303.276
300
300
300
304.256
300
300
300
300
300
300
300
300
318.47
300
300
328.003
300
302.109
302.453
300
301.919
302.494
301.427
300
300.001
300
300
301.609
300
300
300
300
300.005
300
300
300
300.001
300
300
300
300
300
300
300
300
300
300.001
300
300
300
300
300
300
300
300
300
300
300
300
304.279
300
304.975
300
300
303.163
339.148
300
345.544
300
300.013
300
335.556
300
300
300
305.719
300
300
300
300
300
335.523
332.23
300
300
300
300
300
322.606
300
300
300
300.001
300
300
321.318
323.885
339.06
335.87
300
300
314.374
300
300
300
300
328.985
300
300
300
300
300
320.256
300
300
300
326.871
300
317.41
300
300
300
302.796
300
300
300
300.272
300
300
300
300
300
300
328.068
300.017
300
300
300
300
300
302.066
300
300
300
300
300
300
300
300
300
300
300
300
300
300
300
300
300
300
300.509
300.001
300.006
300
300
300.006
302.825
300.445
300
300
300
300
300
300
300
300
300
300
300
300
300
300
300
300
300
300
300
300
300
300
317.233
300
323.688
334.747
300
300
300
300
343.769
300
300
300
300.004
300
335.116
300.001
300
300
300
300.014
300
300
300
300
340.151
300
300
300
300
300
300
300
303.517
300
300
300
300
300
300
300.218
300
300
300
300
300
300
300
300
300
300
300
300
300
300
303.184
331.915
300
300
300
300
300
300
300
300
300
300
300
300
300
300
300
300
300
300
300
300
300
300
300
300
300
300
300
300
300
300
300
300
300
300
300
300.001
303.846
300
300
300
300
300
300
304.593
304.426
300
300
300
301.125
300
300
300
300
300
300
300
300
300
300
300
300
300
300
300
300
300
300
300
300
300
300
300
300
300
300
300
300
300
300
300
300
300
300
300
300
300
300
300
300
300
300
300
300
300
300
300.581
300
300
300
300
300
300
300
300
300
300
300
300
300
300
300
300
300
300
300
300
300
300
300
300
302.805
300.001
300
300
300
300
300
300
300.757
300
300
300
300
300
300.146
300
300
300
303.269
300
300
318.929
300
300
300
300
308.339
300
300
300.001
300.002
300
301.554
300
300
300
300
300
300
300
300
300
300
300
300
300
300
301.723
300.653
300
300
300
300.592
300
304.701
300
300
300
300
300
300
300
300
300
332.593
300.39
300
300
300
300
338.637
333.326
302.904
300.039
300
302.124
300
300
300
300
300
305.006
300
304.855
300
302.033
300
300
335.945
309.854
300
300
302.259
300
300.494
302.783
300
302.698
300
300
303.397
307.855
303.1
300
315.415
300.205
300.075
300
300
300
300
303.567
303.556
301.048
303.464
300
300
300
300
300
303.47
302.334
300
300.001
300
300
300
300
301.335
300
300
301.977
300.007
300
300
300
307.933
300
314.839
330.463
314.452
322.389
300
300
300.858
300
300
306.188
309.271
300
300
300
300.025
300.731
304.113
300
304.482
300
308.707
302.809
300
300
300
300
300
321.317
300
300
313.329
300
300.003
300
300
300
300.017
303.226
300
300
300
300
300
300
300.018
300
300
300
300
300
300
300
300
300
300
300
309.093
300
300
300
300
300
300.009
300
300
300.002
300
300
300
329.018
300
300.287
300
325.605
300
300
300
300
300
300
300.023
300
300
328.538
308.656
300
306.294
300
300
300
300
300
300.252
305.99
300.011
300
331.477
300
300
300
300
300
300
300.029
300
300
300.001
300
317.721
300
300
301.458
300
300
300
300
300
300.073
300
301.669
300
305.262
325.438
300
300
300
300
302.583
300
305.274
305.296
321.433
300
300.073
304.14
300
302.764
302.453
300
300
300
300
300
300
300.004
300
300
300.221
300
300
333.794
300
331.505
300.061
300
300.325
300
300
300
300
300
300
300.039
300
300.011
300.754
300
300.25
300
300
301.178
300
300
301.951
300.247
302.861
300
302.615
300
300
300.144
300
301.023
300
300
300
300
300
300
300
300
300
300
300
300
300
300
300
300
300
300
300
301.514
300
300
300
300
300
300
300
300
300.001
300
300
332.183
300
300
300
319.469
300
336.835
321.704
334.752
300
300
300
321.713
300.011
300
301.495
300.015
301.592
300.486
300
301.642
309.713
300
300
331.401
325.621
300
300
300
323.34
300
300
329.49
300
323.771
300
322.151
300
300
300
300.188
300
300
301.549
300
300
300.224
301.622
300
301.056
300
300.388
300.094
303.613
301.561
300
301.251
301.906
300.42
300.021
300
300
300
300
300
300.001
300.043
300
300
300
300
300.395
300
300
300.002
300.473
300
300
300
331.775
336.123
300
300
300.145
300
302.11
301.16
300.001
300.003
300.002
302.438
300.184
300
300.328
300.003
300
300
309.541
300.003
300.274
307.212
300.002
300
300
300
300
300
300
300
300.001
300
300
300
300
300.01
311.513
305.592
300.949
320.009
302.265
300
300.005
300
300
300
300
300
300
300
300
300
309.292
314.469
305.107
304.406
303.411
305.044
303.114
300
302.828
300.008
302.418
300.19
300.006
300.001
300
303.042
300
300
300.019
311.026
300
300
300.324
300
306.038
300
300
300
300
300
301.071
300
300.006
304.108
300.028
300
300
304.953
300
300.009
300.001
300.041
303.383
300
302.802
300.012
300
305.702
300
300.004
300
300
300
300
300
300
300
301.257
300
300
300
300
300.262
300
300
300
300
302.286
300
300.749
300
300
300
300.455
300
300
300
300
300
300
300
300
300.944
300
300
300
300.682
300
300
300
300
300
303.394
300
300
300
300
300
300
300
300
300
300
300
300
300
300
302.041
300
300
330.46
300
300
300
300
300
300
300
300
300
300
300
300
300
301.067
300
300
300
300
300
300
300
302.407
300
300.015
300
300
302.228
300
300
300
300
300
300
300
303.123
317.972
300
300.025
300
300
300
300
300.298
300
300
300
300
315.573
325.644
300
331.044
300
300
300
300
328.725
311.641
303.615
300
300
324.969
303.619
322.516
300
335.971
302.553
300.001
301.761
300
300
300
300
300
301.97
317.721
300
309.507
300
300
304.386
300
300
300
303.868
300
300
333.652
307.799
300
300.005
300
300
300
300
300
300
300
300
300
300
300
300
300
300
300
300
301.219
300
300
300
300.019
309.962
315.045
317.363
300
301.347
300
300
300
300
300
304.307
300.004
300
300
300
300
300
300
309.578
300
300
303.225
300
300.355
328.759
300
310.467
328.088
300.053
300
300
303.873
300
300
300
300.035
318.562
300
300
320.533
300
327.789
303.195
300
300
300
300
300.145
300
300
300
300
300
300
311.903
300
300
300
300
300.001
302.84
309.205
307.043
300
304.168
300.474
320.445
304.329
300
303.41
301.552
300
311.833
300
300
303.663
324.934
326.657
300
303.464
300.005
305.348
300.333
311.405
300
305.047
300.007
300.001
304.79
325.376
322.165
300
300
301.757
308.928
335.443
301.018
324.542
308.734
300.037
300
300
300.004
308.02
303.2
310.101
308.47
301.52
302.078
302.774
304.424
300.55
303.832
300
305.255
306.479
303.088
300.001
301.422
300.139
300.035
304.648
301.242
342.552
300
300
300
300
300
324.678
300.034
328.384
319.372
318.164
300
300.002
304.353
300
300
340.096
300
327.649
300
300.001
300
300.065
300.211
300
302.744
300
300.003
300
300
300
300
300
300
300
300
300
300
300.103
300
300
300
300
300
300
300
300
300
300
300
300
300.012
300
300
300
300
300
300
300
300
300
300
300
300
300
300
300
300
300
300
300
300
300
300
300
300
300
300
300
300
300
300
300
300.123
300
300
300
300
300
300
300
300
300
300
300
300
300
300.526
300.167
300
300
300
300.454
301.557
300
300
300
300
300
301.487
300
300
302.397
300
302.438
300
302.811
300
300
300
300
300
300
316.235
300
300
300
318.237
300
300
300
313.272
300
300
300
300
300
300
300
300
300
300
300
300
300
300
300
300
300
300
300
300.001
300.003
300
315.539
300
300
300
300
300
300
300
300
314.586
300
300
337.696
300
300
300.232
300
300
300
309.46
300.004
329.968
300
300
300
300
300
310.492
300
308.932
300
301.165
300
303.364
300
305.488
300
307.35
305.622