/*--------------------------------*- C++ -*----------------------------------*\
| =========                 |                                                 |
| \\      /  F ield         | OpenFOAM: The Open Source CFD Toolbox           |
|  \\    /   O peration     | Version:  v2012                                 |
|   \\  /    A nd           | Website:  www.openfoam.com                      |
|    \\/     M anipulation  |                                                 |
\*---------------------------------------------------------------------------*/
FoamFile
{
    version     2.0;
    format      ascii;
    class       volVectorField;
    location    "1.61209946";
    object      U;
}
// * * * * * * * * * * * * * * * * * * * * * * * * * * * * * * * * * * * * * //

dimensions      [0 1 -1 0 0 0 0];


internalField   nonuniform List<vector> 
83563
(
(0.0149409 0.310194 -0.000197067)
(-0.0565313 0.0757068 0.000185738)
(-0.0915947 0.0576297 -0.000187326)
(0.061795 0.0343984 0.000248794)
(-0.0451479 -0.535333 -0.00162993)
(0.01933 0.0405636 0.000168063)
(0.47642 0.0600883 -0.000284698)
(0.369898 0.000894397 -0.000113843)
(-0.2402 0.0371842 -6.94179e-05)
(0.073994 0.00955917 0.00303253)
(0.0501686 -0.0627804 -0.000933051)
(0.407147 0.0878711 0.000774668)
(1.06905 0.276876 -0.00120928)
(0.113452 -0.00601052 -0.000595796)
(0.342322 -0.0187709 -0.00014476)
(-0.0210309 -0.24941 -0.000378254)
(0.00457819 -0.0222928 -0.000432803)
(0.108233 -0.00643575 -0.000704473)
(0.301093 0.10083 -0.00136891)
(0.110428 -0.0107041 -0.000634784)
(0.116665 -0.0177795 -0.000266838)
(0.11594 0.000383704 -0.000374295)
(0.295099 0.185756 0.00106194)
(0.0402788 -0.0117718 0.00301232)
(0.0983496 -0.00889032 -0.000641772)
(0.235381 -0.00294271 -0.000218486)
(-0.0543778 0.0954049 -0.000180225)
(-0.0534766 -0.153271 0.00756758)
(0.232946 0.00839114 -0.000317902)
(-0.0664696 -0.138157 0.000563456)
(-0.164619 -0.0399312 0.00139561)
(-0.13568 0.0656217 0.000622935)
(-0.195306 0.209416 0.000772846)
(0.0782267 -0.160856 -9.7796e-05)
(0.155309 0.0720251 0.000172378)
(0.018383 -0.133273 0.00294303)
(0.00151925 -0.00863077 -8.43077e-05)
(0.0949353 -0.0425106 -0.00082352)
(0.0518344 -0.0843214 -0.00126844)
(-0.355593 0.32504 -0.000598039)
(0.105437 -0.0143488 -0.000327976)
(0.211872 0.00726977 -0.000433877)
(0.0640401 -0.0658276 -0.00299055)
(0.213622 -0.0176287 -0.000541006)
(1.10442 0.080984 -0.00538256)
(0.450596 0.233369 -0.000370048)
(0.0167548 -0.310187 -0.000829762)
(0.156038 -0.0326376 -0.0018333)
(0.315019 -0.00311498 -0.000144184)
(-0.0657718 0.149943 -0.000623615)
(0.0549372 0.275041 -0.00527579)
(0.205767 -0.00649128 -0.000658524)
(-0.109587 0.436805 0.00197048)
(-0.290594 0.418097 0.0253412)
(0.287275 0.170099 -0.000306053)
(-0.0581403 -0.520199 -0.00828191)
(0.0891327 -0.100233 -0.000215063)
(0.0040986 0.413134 0.0179256)
(-0.192886 0.553346 0.0288985)
(0.32439 0.191534 -0.00037952)
(-0.432844 0.435444 0.0744187)
(0.0374903 0.235652 0.000530835)
(0.186103 0.00465225 -0.000587945)
(-0.0783076 -0.0346517 0.00151504)
(0.296132 0.643136 0.00587506)
(0.566594 1.07876 -0.0347979)
(0.0354723 0.657593 0.0101096)
(0.320655 0.189635 -0.000338739)
(1.85016 -0.311628 0.0719389)
(0.199983 0.254412 -0.00307531)
(-0.0840263 -0.0907208 0.00149522)
(1.09263 0.470671 -0.00581097)
(0.0520254 -0.0546226 0.000104392)
(-0.466322 0.366029 0.0147542)
(0.0813031 0.0156363 0.000158896)
(-0.277114 0.439758 -0.00631202)
(0.160367 0.973925 0.0592854)
(0.0506054 -0.026794 -0.000290619)
(-0.00890947 0.0168113 7.70635e-05)
(-0.107314 0.207534 0.0153397)
(-0.0653406 0.284102 9.34344e-05)
(0.38928 -0.0865133 0.00258323)
(0.114953 -0.0217209 -1.73696e-05)
(-0.275249 0.362882 -0.00481037)
(-0.000426009 0.1931 -0.000313404)
(-0.130194 -0.0496969 -0.000391242)
(-0.0130728 0.0134511 0.000305279)
(-0.220793 0.15686 0.00192132)
(0.00739134 -0.0935336 -0.000757009)
(-0.000603839 0.198141 -0.000309183)
(0.345947 0.00133374 -0.000302172)
(0.359486 0.00200457 -0.000169339)
(0.75472 0.495262 0.00194337)
(0.103211 0.0760345 0.00526426)
(-0.0411617 0.138153 0.00505667)
(0.370748 0.0437553 -2.87538e-05)
(0.101765 0.280508 -0.00499179)
(0.758913 0.441751 0.00190617)
(-0.0212388 -0.0239333 -0.000562654)
(0.331662 -0.0892723 7.5471e-05)
(0.437445 0.223091 -0.000310632)
(0.0238252 -0.0360438 -0.00129895)
(0.124492 -0.141722 -0.000624837)
(0.0132208 0.143961 -0.0007137)
(-0.122905 0.106936 -0.00185462)
(-0.103559 0.253865 -0.00324241)
(-0.114321 0.147374 -0.00181707)
(0.29396 0.0136556 -0.000179079)
(-0.44015 0.592947 0.0255218)
(0.0348869 -0.108969 0.000268464)
(0.327681 0.182405 -0.000392825)
(0.303945 0.267797 -0.000279933)
(0.625474 0.0286446 0.000745701)
(0.067973 0.08449 0.00223496)
(-0.00577223 -0.0444775 -0.00152217)
(0.370386 0.0256896 -0.000392763)
(0.515821 0.324622 0.00235558)
(0.336007 -0.000920312 -7.06115e-05)
(0.0936387 -0.0686318 -0.000865209)
(0.437972 0.0308869 -0.000149013)
(-0.170196 0.270519 -0.00372419)
(0.89635 0.0479927 0.0017886)
(0.327264 0.171596 -0.000397195)
(-0.106426 0.00270912 0.0029079)
(0.544883 0.0831493 -0.000656761)
(0.341693 -0.00882634 -0.000135195)
(0.389825 0.278146 -0.00245539)
(0.176011 -0.108327 0.000836185)
(0.394339 0.077324 -0.000283293)
(-5.05864e-05 0.0877323 0.000511284)
(0.469755 -0.0149981 -0.00424896)
(0.238135 0.950028 -0.114105)
(-0.0293222 -0.190302 -9.89735e-06)
(-0.193058 0.0408213 -0.0203715)
(0.332427 0.0260106 -4.78482e-05)
(0.145733 -0.0297791 -0.000260433)
(-0.0458415 0.403184 -0.00167026)
(-0.0447915 0.0287006 0.000603033)
(0.323765 0.0212197 -0.000616384)
(0.445082 0.254772 -0.000175094)
(-0.0103087 -0.24686 -0.00107824)
(0.887463 0.281383 0.00115388)
(0.335325 -0.000693078 -0.000119351)
(0.00381954 -0.238471 -0.00149276)
(0.489812 0.203355 0.0309238)
(-0.0999164 0.92372 0.0441523)
(0.399542 0.0354779 -0.00078115)
(0.0519965 0.00781532 0.000454257)
(0.331325 0.0766822 -0.00059317)
(0.0199755 0.0463392 -0.00244556)
(0.0583327 -0.178328 -0.00233165)
(0.0697257 0.0463104 -0.000573425)
(-0.0178091 -0.0426295 -0.000169086)
(0.395127 0.0221146 1.45592e-05)
(0.247107 0.0398671 -0.000336873)
(0.308188 0.0127557 -0.000113634)
(0.365296 -0.00531499 -0.000154844)
(-0.00783036 -0.00614863 0.00026309)
(0.442586 0.00104381 -0.000244578)
(1.44795 0.692552 0.00906786)
(0.392156 0.0134427 0.000124136)
(0.112023 -0.0163835 -0.000342999)
(0.1423 0.0112959 -0.000518601)
(0.375576 -0.0154901 -0.000165393)
(0.383089 0.0288047 -1.95185e-05)
(0.0362362 0.265952 -0.00117947)
(0.377554 0.133194 -0.000109414)
(0.139826 0.547002 0.00567655)
(0.389862 0.0143181 -8.62789e-05)
(0.381525 0.0513394 -9.58538e-06)
(0.355399 -0.0198765 -4.56252e-05)
(0.383627 -0.00893478 8.25261e-05)
(0.486223 0.184334 0.000396164)
(0.537187 0.04093 0.000619231)
(0.488109 0.172299 0.00103679)
(0.00380841 0.0838525 0.000774229)
(0.131559 0.0170171 -0.000939037)
(0.395665 0.0649819 -0.000518104)
(0.252738 0.128791 -0.000138337)
(0.388983 0.0692652 -0.000149151)
(0.398076 -0.122678 0.000365427)
(-0.0369084 -0.153157 -0.000434375)
(0.410456 0.0919103 -0.000359358)
(-0.0081403 -0.348033 0.00428632)
(-0.018933 -0.0872977 0.00619343)
(-0.0412208 -0.278828 0.00954408)
(-0.0182398 0.0528959 0.00305971)
(-0.011311 -0.157878 -0.000415718)
(-0.0663942 1.14358 -0.00300358)
(-0.0996733 0.34234 -0.000120901)
(-0.0417899 0.252406 -0.000232662)
(0.0167397 -0.390787 0.0208182)
(0.430123 0.00867015 6.37013e-06)
(-0.0352838 0.0862683 -0.0026289)
(0.947716 0.160516 -0.0185937)
(0.0539158 0.186813 0.0013753)
(0.307518 -0.00144518 -0.000917596)
(0.356786 0.0109038 -0.000206106)
(0.130099 -0.0131157 -0.000390496)
(0.29369 0.0257469 -0.000696404)
(-0.258442 0.262561 0.000490379)
(0.159168 0.028642 0.00214315)
(-0.217359 0.318081 0.00109678)
(0.354089 0.0287113 -0.000219809)
(-0.238318 0.325607 0.000661315)
(-0.143537 -0.107864 0.00394845)
(0.261325 0.0194475 -0.000713195)
(0.429116 0.33874 0.00503429)
(0.128998 -0.0671979 -0.000354437)
(0.099324 0.011151 -0.000444274)
(0.287176 0.0309433 -0.000800641)
(0.106773 0.949753 0.00563345)
(0.199921 0.125417 -0.00111693)
(0.350934 0.00319823 -0.000170705)
(0.380289 0.0543044 -0.000339569)
(0.157887 0.00638473 -0.000383425)
(0.346791 0.00885916 -7.77826e-05)
(0.426975 -0.0565542 -0.000157541)
(0.092092 0.0054012 -0.00066469)
(-0.149178 -0.0243267 -0.00172567)
(0.355053 -0.00175702 -0.000501019)
(-0.0252948 0.0979104 -0.00120412)
(0.335883 0.0123689 -0.000233516)
(-0.164948 -0.0436701 -0.000859495)
(-0.360481 0.858181 0.00812409)
(0.353946 -0.00308796 -0.000131563)
(-0.284159 0.542681 -0.000289785)
(-0.00208617 0.0148756 -0.000261949)
(0.33983 0.0580614 -0.000480035)
(0.0459736 0.749541 0.00174483)
(-0.0214542 -0.0319037 -0.000424083)
(0.311361 -4.91521e-05 -0.000180849)
(0.363274 0.00231313 -0.000233614)
(0.269525 0.0173922 -0.000641958)
(0.563303 -1.15395 -0.0430057)
(0.0971203 -0.00810933 -0.000312144)
(0.300112 0.0159009 -0.000933993)
(0.0412011 -0.167672 0.000898603)
(-0.00700027 -0.187828 2.35204e-05)
(-0.127494 -0.0201262 0.00025278)
(0.373035 0.0385285 -0.000467735)
(0.16287 -0.00336297 -0.00015169)
(0.329469 -0.00318468 -0.000109624)
(0.363275 0.0321475 -0.000290255)
(0.486017 0.141032 0.000481152)
(-0.0141502 0.0587706 -0.000414024)
(1.00694 0.292404 0.0051295)
(0.448471 0.0298438 -0.000161832)
(0.157578 0.563987 0.00136668)
(0.0490499 0.00229056 -0.000225968)
(0.275775 0.0912213 -8.00166e-05)
(0.00091405 0.109087 -0.000446963)
(0.0105201 0.23647 0.00043862)
(0.363853 0.00124278 -2.47615e-05)
(0.0211483 0.206827 -0.000281061)
(0.129465 0.0227209 -0.00024527)
(0.32938 0.00516981 -0.00014662)
(0.366756 -0.115862 0.000361388)
(0.272093 -0.131001 1.77973e-05)
(0.0155409 0.23314 0.000250282)
(0.00453312 0.240573 0.000503977)
(0.152347 -0.0203194 -0.000362803)
(0.471314 0.199829 0.00224855)
(0.369182 0.0532327 -0.000380811)
(0.0125931 0.110811 -0.000359329)
(0.193128 -0.00828036 0.00144022)
(0.372805 0.040188 -0.000606539)
(0.377372 0.276212 -0.000819875)
(0.40665 0.0529465 -0.000452114)
(0.359412 0.00274915 -0.000443262)
(0.378776 0.261182 -0.000448282)
(0.385897 0.286489 -0.000709339)
(0.00782414 -0.138358 -0.000720322)
(0.100197 -0.000106037 0.0012179)
(0.360571 0.280719 -0.000844777)
(0.138 -0.112958 0.000585971)
(0.35929 0.33823 -0.00172187)
(0.336625 -0.00662716 -8.21739e-05)
(-0.343374 0.140027 0.000384863)
(0.0108652 0.107983 -0.000583482)
(0.389616 0.0719407 0.000163623)
(-0.207459 0.388371 0.000848231)
(-0.038293 0.262868 -0.000160259)
(-0.136572 0.278161 0.00115451)
(0.0372741 0.243509 0.00264434)
(0.00597156 0.0377994 -0.00041751)
(-0.0845636 1.36181 0.0331145)
(0.427541 0.269747 4.97537e-05)
(0.0253719 -0.172801 0.000324395)
(0.0839014 0.0379614 -0.000320443)
(0.0418976 0.261586 0.00134656)
(-0.0126957 -0.17819 -0.000183142)
(0.380081 0.311139 -0.000478646)
(0.340274 0.0372576 -0.000759395)
(0.0517323 0.0338612 -0.00127124)
(-0.309012 0.225705 0.00108147)
(0.296903 -0.0113217 -0.000142931)
(0.476399 0.0207123 0.000226342)
(0.00589935 0.106423 -0.000574463)
(0.384657 -0.00521233 -0.00054144)
(-0.105505 0.0117582 -0.000532939)
(0.306071 -0.0219609 -0.000168133)
(0.396426 0.00802976 -0.00027399)
(-0.0317706 -0.0230884 0.0001842)
(-0.0180067 -0.0190797 0.000139379)
(0.371434 0.321971 -0.000553405)
(0.373934 0.335535 -0.0014812)
(-0.66282 0.551308 -0.0189513)
(0.397102 0.0175959 -0.000291188)
(0.549241 -0.0267082 0.000900511)
(0.168307 0.286669 -0.000407963)
(0.348557 0.00408185 7.24064e-05)
(-0.20974 0.714782 -0.0256396)
(0.156563 0.211107 0.000630607)
(0.492254 0.783263 0.00817349)
(0.127043 -0.0390841 -0.000322769)
(0.789197 0.320136 0.00248531)
(0.169275 0.353939 -0.000355964)
(0.166908 0.346777 -0.000911666)
(0.351534 -0.00228631 -9.14883e-05)
(0.464553 0.0549132 8.79416e-05)
(0.146285 0.304559 -0.000442822)
(-0.052514 -0.106335 -0.00104828)
(0.194845 -0.0109011 -0.00105674)
(0.348559 -0.00140641 -0.000114511)
(0.168644 0.346108 -0.000305799)
(0.436111 0.186793 -0.000580342)
(-0.570329 0.0511516 0.0127795)
(0.341927 0.0371906 -3.16189e-05)
(-0.229536 -0.0506009 -0.00172441)
(0.38125 0.0239116 -5.77532e-06)
(-0.0182668 0.0543476 0.000822541)
(0.373755 0.0462891 -0.000455429)
(0.663903 0.0915241 -0.00333569)
(-0.0234753 0.331357 -0.00018295)
(0.00366976 -0.160201 -0.000678034)
(0.0895104 0.0456872 0.00158789)
(-0.518849 0.0152258 -0.0409501)
(0.371922 0.0267054 -4.00276e-05)
(-0.0517057 0.0236143 -0.000466761)
(-0.474102 0.181721 -0.0178301)
(0.628098 0.69435 0.0368701)
(0.22794 0.239443 -0.000207549)
(0.00542587 0.0236316 6.86447e-05)
(0.375442 0.0244542 -2.24124e-05)
(0.00462858 -0.157179 0.00085314)
(0.376607 0.015325 -0.000117046)
(-0.0265748 -0.0516326 0.00118974)
(0.338023 0.0152099 -0.000317445)
(0.0104269 0.0231706 4.706e-05)
(0.350356 0.00250211 -0.000216892)
(0.54267 -0.0396453 0.000750446)
(0.0095941 0.0695161 -0.000374177)
(-0.283182 -0.22585 0.0238969)
(1.03337 0.331638 -0.00034278)
(0.122158 -0.0273573 0.000401291)
(-0.0511969 0.078512 0.00140052)
(0.344431 0.0658114 0.00016025)
(0.36038 0.00220688 -0.000338776)
(-0.0800756 0.345546 0.00642848)
(0.771346 0.16578 0.00273088)
(-0.0672327 0.332692 0.00060233)
(0.982598 0.202659 0.00253773)
(0.41009 0.31933 0.00394733)
(0.971322 0.201386 0.00067534)
(-0.0733448 -0.103381 0.0100896)
(-0.0592771 0.0422378 0.0030175)
(0.344969 0.00573292 -0.000209017)
(0.447411 0.290645 0.000908659)
(0.126407 -0.0308618 -0.000502567)
(0.33385 0.0250978 -0.000223585)
(0.198234 -0.116381 -0.000536701)
(0.329893 0.0193817 -0.000460442)
(0.286828 -0.805338 0.0165362)
(0.226169 -0.779315 0.00696274)
(0.379187 -0.0224034 0.000238451)
(1.05485 0.269366 0.00256164)
(0.320587 0.0287258 -0.000270598)
(0.0989828 -0.018687 -0.000256073)
(0.373699 0.0223931 -5.33604e-05)
(0.0784995 -0.0457077 0.000379939)
(0.225824 0.212376 0.000320806)
(-0.0588297 0.320446 -0.000659848)
(-0.215985 0.112256 -0.000829403)
(1.14741 0.264386 0.00324427)
(0.779859 0.211369 0.00503358)
(0.168472 -0.0944216 0.0013214)
(0.057629 0.153524 0.000554366)
(0.651446 0.195609 0.00565325)
(0.286829 0.133565 0.00040037)
(0.0129946 0.195393 0.000880518)
(0.225836 0.015425 0.000552395)
(0.0644076 0.00302791 0.000770936)
(0.696017 0.208773 0.0043233)
(0.540447 -0.00539976 0.000836662)
(0.350869 0.0337039 -0.000455296)
(0.402699 0.0411728 7.1235e-05)
(0.321042 0.00328933 -0.000106763)
(0.315163 0.00117252 1.53694e-05)
(0.340003 0.0114255 -0.000262819)
(0.0476878 1.35475 0.0205462)
(0.273449 0.0124732 -0.000641149)
(0.0957443 0.0115959 -0.000500693)
(0.95389 0.0417794 -0.00151963)
(0.643113 0.0484038 0.000147825)
(0.152696 -0.0103055 -0.000557415)
(-0.0388937 -0.338776 0.00759863)
(0.0783947 0.00802716 -0.000556845)
(0.0297211 0.173882 -8.9946e-05)
(0.403451 -0.0346381 0.000595263)
(-0.010873 0.719713 -0.0155297)
(0.448925 -0.00122266 0.000925644)
(0.372582 0.268517 0.000504734)
(0.0730365 -0.0498929 4.55081e-05)
(0.0318681 0.482568 -0.00997724)
(-0.328755 0.43922 -7.30416e-05)
(0.104746 -0.0607858 0.00187912)
(0.0115702 0.212315 0.00016103)
(0.76689 0.203051 0.00512441)
(0.0259225 0.0615285 0.000274304)
(0.0570612 0.0259991 -0.000338985)
(0.017888 -0.0337654 0.000965188)
(0.24322 0.834229 -0.0492573)
(0.336863 -0.00876965 -0.000223151)
(0.360106 0.237401 0.00128055)
(0.0749198 0.794744 -0.0134938)
(0.370606 0.149631 0.000912931)
(0.142406 0.0726255 -0.00258369)
(0.498955 0.0764843 0.00143542)
(0.428321 0.0314528 0.000120073)
(0.442392 -0.0801546 -0.000515974)
(0.232543 -0.0988786 4.11544e-05)
(0.402501 0.00956782 -0.00024561)
(0.340212 0.0260745 -7.14594e-05)
(0.445658 0.286771 0.00274568)
(0.328088 -0.00111356 -0.000117626)
(0.309769 0.317816 0.00464588)
(0.140566 0.0638494 -0.000304153)
(0.358824 -0.00731839 -0.000130724)
(0.0121488 0.198506 -0.00578205)
(0.42345 -0.0462247 0.000663202)
(-0.014389 -0.0146073 -0.00152461)
(0.440693 0.300303 0.00328371)
(0.352028 0.0029947 -0.000139178)
(0.270693 0.00341768 0.00100639)
(0.331744 -0.000854944 -0.000177451)
(0.0345408 -0.00429463 -0.00106449)
(0.318376 -0.0175582 0.00124453)
(1.66163 0.232607 -0.0248899)
(-0.470059 -0.530283 0.0995934)
(0.326975 -0.0401829 -7.53588e-05)
(-0.0127936 -0.0514971 0.000795533)
(0.382462 -0.0201244 -0.000211248)
(0.0695618 -0.0529013 0.000628875)
(0.388204 0.0634155 -0.000315105)
(0.358344 0.0145168 -5.90783e-05)
(0.538241 0.242351 0.00230416)
(-0.00146017 -0.0231936 -0.00195837)
(0.0346494 -0.063529 0.000608177)
(0.505265 -0.0435311 0.000732221)
(-0.025549 0.256621 0.000677273)
(0.42079 0.428413 0.0268094)
(0.0717109 -0.0662054 -0.000532789)
(0.0140706 -0.092312 0.00028642)
(0.00108178 0.191926 -0.000253665)
(0.155389 -0.050099 -0.000465977)
(0.246304 0.132432 -0.000412864)
(0.353378 0.0172191 -0.000194832)
(0.138728 -0.0215105 -0.000514046)
(0.316664 0.00805505 -1.24819e-05)
(0.313619 0.00493145 4.09666e-05)
(0.345372 0.00715865 -0.000132547)
(0.0790786 -0.00421377 0.000690986)
(0.349226 -0.004439 -0.000125574)
(0.329842 0.011044 -9.94461e-05)
(0.403266 0.123453 -0.000610874)
(0.319675 0.0258727 -9.19543e-05)
(0.000329265 0.18605 -0.000213723)
(0.000453948 0.18595 -0.000216288)
(0.0726393 -0.144057 4.07007e-05)
(-0.0029131 0.18887 -0.000197418)
(0.0820241 -0.0454392 -0.000173401)
(0.319538 0.0557119 5.41193e-05)
(0.00140396 0.204382 -0.000289844)
(0.353847 0.0138136 -6.54509e-05)
(-0.130057 -0.0310229 -0.000937863)
(0.349635 -0.102919 0.000298156)
(0.362878 0.0500941 -0.00033618)
(0.913129 0.224046 0.0333642)
(0.366497 -0.0331794 -7.94648e-05)
(0.331974 0.0131199 -0.000153504)
(0.248533 0.141036 -0.0008825)
(0.256832 0.159979 -0.000817031)
(0.158902 0.470713 -0.00292494)
(0.427594 0.0134325 -0.000250842)
(0.454527 0.00196597 -0.000228161)
(0.250195 0.158482 -0.000821768)
(-0.0227779 0.0323154 -0.000531506)
(0.0524794 0.122517 -9.69551e-05)
(0.246011 0.161106 -0.000520124)
(0.327151 -0.063253 -4.40138e-05)
(0.314306 0.141623 0.000187978)
(0.536822 -0.0395244 0.00144423)
(0.00547404 -0.131781 -0.000243235)
(0.0920564 0.100214 -0.000958754)
(0.32672 0.140958 8.34665e-05)
(-0.00651043 -0.00623451 6.72837e-05)
(0.397357 0.0928885 -0.000685037)
(-0.121234 0.0941094 0.000330929)
(0.084473 0.0812556 -0.00064701)
(0.284352 0.133503 -0.00172082)
(0.00347732 -0.00448862 0.000122162)
(-0.00990569 0.0139516 0.000367317)
(0.0202537 0.00809953 0.000515377)
(0.111956 0.0657568 -0.000477685)
(0.448955 0.0226222 -0.000504585)
(-0.00132634 -0.00129583 0.000150205)
(-0.218185 0.109359 -0.00195659)
(0.0391298 0.141221 -0.0024829)
(0.114893 0.0815352 -0.000710951)
(0.0937645 0.0673545 -0.000737466)
(0.532315 0.357358 0.00150938)
(0.245252 -0.0282005 3.3394e-05)
(0.397974 0.0387339 7.66929e-05)
(0.360695 0.062891 -0.000271244)
(0.0804272 0.00167508 -0.000343757)
(0.477105 0.0455166 0.000162994)
(-0.384575 -0.0577917 0.015272)
(0.122154 0.018693 0.00045499)
(0.0134709 -0.0389688 0.000805312)
(0.463964 0.0209596 -0.0003151)
(-0.0914743 0.256901 9.32769e-05)
(0.0821415 0.160237 0.000330829)
(0.0624318 0.0609788 0.000462207)
(0.119182 -0.062033 -0.000136032)
(0.364353 0.0244566 -0.000296064)
(-0.173475 0.30851 -0.0102538)
(0.351115 -0.0038042 -0.000110569)
(0.495745 0.0570592 0.000249972)
(0.285371 0.166165 -0.00464995)
(0.0417385 0.157099 0.000480816)
(0.515329 0.0385086 0.000182526)
(0.201013 0.15912 -0.00343265)
(0.384848 -0.119647 0.000891267)
(0.259761 -0.001196 -3.74718e-05)
(0.24174 0.0536755 -0.0020497)
(0.138227 0.196247 0.000337976)
(0.235478 0.0956317 -0.00120782)
(-0.432397 0.271368 0.0195969)
(0.411616 0.0921043 -0.000746588)
(0.356793 0.0542318 -0.000493093)
(0.38449 0.266221 0.00129925)
(0.34591 0.0658452 -0.000847593)
(0.913923 1.0715 0.00681482)
(0.346476 0.0609072 -0.000629833)
(0.347054 0.0560091 -0.00046075)
(0.0797838 -0.0797339 0.000659745)
(0.978059 0.137258 0.0078482)
(0.135212 0.452271 -0.00517521)
(0.0917004 -0.0158381 -0.000399226)
(0.377313 0.112582 0.000417527)
(0.169734 -0.22113 0.000930936)
(0.367227 -0.021936 3.92578e-05)
(0.344821 -0.0110231 -0.000188695)
(-0.0325301 0.0652441 0.00155672)
(0.130068 -0.0442488 -0.0001404)
(0.194725 0.483623 -0.00542888)
(-0.131779 -0.0188544 -0.000263542)
(0.507429 -0.0979923 0.000545766)
(0.346921 -0.0185733 6.3663e-05)
(-0.0322429 0.171381 0.00794297)
(0.222234 0.172566 -0.000210511)
(0.0751298 -0.0229499 -0.000489328)
(0.248685 0.15718 -0.000854486)
(0.116774 0.420908 -0.00484393)
(0.407499 0.0046532 -0.000293385)
(0.0393515 -0.0320344 0.000779121)
(0.0631587 0.00811358 -0.00113993)
(0.444499 0.453729 -0.0011227)
(0.116307 -0.051246 0.000356399)
(0.0913196 -0.0235173 -0.00145039)
(1.67034 -0.366022 0.0911123)
(0.594908 0.231163 0.00104606)
(0.384349 -0.0229425 -0.000225274)
(-0.00690243 -0.0180748 0.000106686)
(0.239928 0.159045 -0.000718877)
(0.107401 0.00646437 -5.66242e-05)
(0.114863 -0.0438968 -0.000758508)
(0.116931 -0.00373712 -0.000318013)
(1.54301 -1.03544 0.227786)
(0.0580053 -0.0434811 -0.000364844)
(0.358073 0.141174 -0.00107375)
(-0.00885364 -0.0162653 -0.000499319)
(0.0644454 0.149811 0.000471384)
(0.215028 -0.0576996 -0.00121272)
(0.043997 -0.0571704 0.000511957)
(0.0392945 -0.0319786 -0.000382184)
(-0.00298771 0.0146156 -0.00128952)
(0.100094 0.0966939 0.000476314)
(0.296263 0.2203 0.000119307)
(0.00332144 0.0356372 0.00169802)
(0.118962 0.022721 -0.00038617)
(-0.0249916 0.073393 -0.00104368)
(0.060909 -0.0691434 -0.000512985)
(0.090212 -0.0879022 -0.000484476)
(0.057605 0.0180991 0.000145223)
(0.23696 0.178736 -0.0025464)
(0.155088 -0.0433569 -0.00168063)
(-0.00344196 -0.000134274 -0.0012182)
(-0.0665309 -0.141325 0.000941994)
(0.0851242 -0.00402062 -0.000253074)
(0.352295 -0.00202238 -0.000179075)
(0.355758 0.00737887 -0.000217627)
(0.12513 -0.00537126 -0.000447727)
(0.632431 0.515085 0.000981458)
(0.068534 0.199667 0.000476557)
(0.0680532 0.154788 0.000449098)
(0.161613 -0.00158211 -0.00065185)
(0.162443 0.249918 -0.00043283)
(0.388737 -0.151952 0.000221573)
(-0.150305 -0.0195041 0.00400721)
(0.337211 0.0996887 0.00445165)
(0.0767085 0.141834 0.00047195)
(0.184662 -0.0842235 -4.47862e-05)
(0.400876 0.00914485 -0.000290545)
(0.24837 -0.0125063 0.000511202)
(0.363652 0.0490412 1.16533e-05)
(0.0899742 0.0184424 -0.000145944)
(0.0721337 0.128477 0.000494364)
(0.0740677 -0.0544794 -0.000201583)
(0.399701 -0.0065478 0.000392792)
(0.204545 0.176532 8.53588e-05)
(-0.128355 -0.127623 0.000790993)
(0.355065 -0.0811505 8.07833e-05)
(0.00773674 0.0552739 -0.00102087)
(0.429114 0.289639 0.00231323)
(-0.0420121 0.238148 0.000154667)
(0.15719 0.24281 -0.000431741)
(0.0908439 -0.117787 -0.00021752)
(0.0377259 9.06862e-05 -0.00142756)
(-0.00171161 0.248733 0.000413442)
(0.00729304 0.240708 0.000358466)
(0.00206881 0.246045 0.000303277)
(-0.181559 -0.192182 -0.000490301)
(0.319481 -0.00380488 -9.22501e-05)
(-0.0232263 -0.0239212 0.00049431)
(0.00831837 0.0179451 -0.000956904)
(-0.117439 -0.162516 -0.00113819)
(1.01105 0.54844 0.0263918)
(0.164914 0.235469 -0.000455066)
(0.166382 0.232821 -0.000355603)
(0.217181 0.383368 -0.000683028)
(0.501663 0.122965 0.000370113)
(-0.550336 0.678604 -0.00639972)
(0.496618 0.113659 0.00029659)
(0.339144 -0.0202364 -0.000173854)
(0.414883 -0.0264596 0.000833263)
(0.387516 0.0510173 -0.000442203)
(0.0278502 -0.315353 -0.000958575)
(0.329489 0.00738512 -0.000123227)
(-0.354042 0.12447 -9.98072e-05)
(0.262818 0.538199 0.000631274)
(0.0231244 -0.260916 -0.000847319)
(0.027209 -0.263703 -0.00147326)
(-0.144449 0.242634 0.0143071)
(0.0363326 0.0302794 0.000430061)
(0.122561 -0.328715 0.00118179)
(0.0617673 -0.0375775 -0.000370182)
(0.0997381 -0.0678998 0.00104802)
(0.00941918 0.26893 0.000205485)
(0.0527834 -0.272799 -0.000960683)
(0.343865 -0.00238728 -0.000266886)
(0.0411917 -0.325793 -0.00115063)
(0.0478823 -0.242304 -0.000635081)
(0.402906 0.0282928 4.81203e-05)
(0.325862 0.177372 -0.000379896)
(0.0900946 0.2479 0.00170213)
(0.32266 0.180693 -0.000414252)
(0.391603 0.035817 4.58007e-05)
(-0.110231 0.145789 0.00158619)
(-0.124609 0.218611 0.0235747)
(0.225662 0.0915727 -0.000951776)
(0.393029 0.035333 3.44227e-05)
(-0.170496 0.065172 0.0414669)
(0.309726 -0.0132579 -0.000136403)
(-0.0276753 -0.0585973 -6.03841e-05)
(0.553296 0.0411072 0.000752017)
(0.27881 0.297001 0.00252625)
(0.00372488 0.190508 -0.00156871)
(0.0572277 0.00551737 0.000591787)
(0.105874 -0.0609758 0.00012174)
(0.904546 -0.0686436 0.0019657)
(0.0223288 0.0967269 -6.3097e-05)
(0.335838 -0.047902 7.23423e-06)
(-0.458223 0.303084 -0.00169737)
(-0.110318 0.320892 0.00169691)
(0.390294 -0.0416377 0.000246183)
(0.46807 0.055402 6.05778e-05)
(-0.101923 -0.00982219 0.000410716)
(-0.0423776 0.0257287 -0.000319404)
(0.367175 0.0722384 -0.000564738)
(0.0035145 0.205601 0.000507351)
(0.0125046 -0.0234332 -0.000255905)
(-0.000548906 0.226238 0.000456706)
(-0.299247 0.116254 0.00246712)
(0.32724 -0.0880813 0.000134527)
(0.350261 0.00354672 -0.000131922)
(0.143374 -0.0168454 -0.000518633)
(0.255116 0.0731833 -0.000109801)
(-0.00106351 0.224698 0.000491561)
(0.132137 0.0138603 -0.000511938)
(0.00284963 0.224975 0.000535092)
(0.0888097 0.110099 0.000288164)
(0.00810678 -0.0170869 -0.00119156)
(-0.00304769 0.22633 0.00058104)
(0.403022 0.0431785 -0.000173296)
(0.0591792 -0.0400644 -0.00030065)
(-0.0252248 0.077266 -0.00120111)
(0.400579 -0.132196 0.000100787)
(0.506018 0.0846992 -0.00110457)
(-0.0280716 -0.0266358 8.83265e-05)
(0.178143 0.491143 -0.000360847)
(-0.144889 -0.133388 9.48727e-05)
(-0.0737379 0.0900364 0.00110486)
(0.353358 -0.000813425 -9.2617e-05)
(0.445415 0.00493248 -2.29184e-05)
(-0.491962 0.229845 0.00476101)
(-1.25459 -0.630235 0.0934095)
(0.0279092 -0.0495474 -0.000599827)
(-0.23012 -0.28674 0.0119488)
(0.376868 0.137058 -0.000408877)
(0.0194751 -0.0303777 0.000231287)
(0.02394 -0.0293992 0.000229729)
(0.566067 0.127487 -0.000399637)
(-0.772546 0.791887 -0.0555305)
(0.330955 -0.0962899 0.000134348)
(0.129039 -0.002674 -0.00061202)
(0.00199983 -0.0769752 0.00131367)
(0.027291 0.977169 0.0666146)
(0.376901 0.140344 -0.000555603)
(0.0719033 0.0214597 -0.000431794)
(1.40848 0.540265 0.00397256)
(0.294415 -0.030497 -0.000135376)
(0.61343 0.161574 0.000416099)
(-0.065824 0.201154 -0.000359211)
(0.0677969 -0.073245 -0.000596097)
(0.340325 0.021384 2.74601e-06)
(0.517962 0.17277 0.00121553)
(-0.352045 1.17118 -0.0047095)
(0.0606147 -0.01905 -0.000323037)
(0.0880887 0.0115379 -5.8191e-05)
(0.0877247 0.00629371 0.000107518)
(0.131307 -0.0241078 0.000283033)
(-0.474062 -0.765435 -0.0286477)
(0.341288 0.0916216 -0.000522514)
(0.334317 0.00395029 -0.000186525)
(0.088312 0.00530695 -0.000123567)
(0.489112 0.00723532 -0.000242105)
(0.479306 0.0394518 -0.000336009)
(0.0704039 0.0149001 -0.00182575)
(0.0853115 0.00797047 -0.00153232)
(0.124585 -0.0106133 -0.00128951)
(0.37049 -1.37595 0.0511719)
(0.34296 0.10664 -0.000695249)
(0.194787 0.181446 0.000670785)
(0.00381808 -0.0821774 -0.000929644)
(0.11776 -0.0725236 -0.000242511)
(0.116297 -0.0102464 -0.000949882)
(0.430039 0.212392 -0.000463006)
(0.310145 -0.0395382 0.0154803)
(0.097073 -0.0354851 -0.000529997)
(0.0873323 -0.0145559 -0.000216834)
(0.333337 0.00708038 -0.000157429)
(0.124123 0.000567487 -0.0014372)
(-0.0106219 -0.0195963 -0.000303546)
(0.125402 0.0103131 -0.00106569)
(0.141956 -0.00294067 -0.000570538)
(-0.173603 0.348478 -0.00806147)
(0.104087 0.0129916 4.54175e-05)
(0.207045 0.0706223 0.000443117)
(0.222035 0.0641405 0.00037929)
(0.0663169 -0.163182 -0.000586521)
(-0.213199 0.31594 0.000274537)
(-0.164552 0.202873 0.00246723)
(-0.0271183 0.00703672 -0.000490038)
(0.102865 0.204785 0.0056131)
(0.335147 0.0264431 -0.000344567)
(0.358314 0.0280035 -0.000267378)
(0.0387425 -0.055063 -0.000312361)
(0.149203 0.128544 -0.000117609)
(-0.301086 0.0993413 0.00526095)
(0.00403403 0.328484 -0.000327813)
(0.091829 0.112906 0.000509911)
(-0.177287 0.440009 -0.00330463)
(0.289798 -0.146779 0.00010688)
(0.0931819 0.0746779 0.00104042)
(0.148831 0.0865411 -0.00159697)
(-0.0387836 -0.248178 4.46668e-06)
(0.0707035 -0.0362716 -0.000127005)
(0.0990275 0.0604356 0.000640006)
(0.357801 0.0303038 -0.000318959)
(0.363728 0.14142 -0.000811491)
(0.340152 0.313351 0.000646952)
(0.320601 -0.0475319 -0.000755951)
(0.438318 0.0577081 -0.0002614)
(0.0963863 0.00701041 -0.00129256)
(0.43977 0.026676 -0.000471988)
(0.57635 0.441018 -0.00749481)
(-0.123869 0.282534 0.00620787)
(0.377392 -0.0160646 -0.000362828)
(0.349163 0.112946 -0.000871134)
(0.347556 -0.00542798 -5.86232e-05)
(-0.2301 0.121048 3.2251e-05)
(0.240401 -0.234798 -0.00926986)
(0.105353 -0.273135 -0.00822525)
(0.191737 0.127007 -0.00530945)
(0.0897438 -0.050399 8.91208e-05)
(-0.03136 0.128681 -0.0137185)
(0.290499 0.1986 0.000355222)
(0.335771 0.118535 -0.000514422)
(2.73422 0.308336 0.0335789)
(0.156718 0.138405 -0.000159172)
(0.407797 -0.147326 0.00232691)
(0.209264 -0.0751721 0.000328106)
(0.382578 0.114682 -0.000502879)
(0.3913 0.151191 -0.000460908)
(-0.201654 -0.0404163 -0.00091013)
(-0.231927 -0.0392794 0.000875528)
(1.72045 -0.583327 0.0942577)
(0.0569931 -0.0519135 -0.000873923)
(0.366862 0.00755714 -0.000169789)
(0.166374 0.58939 -0.00156696)
(0.340045 0.00779378 -9.92102e-05)
(0.458584 0.0913855 -0.00140405)
(0.1437 -0.014964 -0.000316697)
(0.114534 -0.00621181 -0.000459999)
(0.0574181 0.0531499 0.000411809)
(0.0986694 -0.00875483 0.000199295)
(0.0982181 -0.0496327 0.000251115)
(0.392905 0.137318 -0.000451465)
(1.50217 -0.163263 0.0141831)
(1.4495 0.363423 0.145245)
(0.0446411 -0.027297 -0.00164072)
(0.0558873 0.10196 0.000530331)
(0.0473339 -0.0654946 -0.00349336)
(1.13973 -0.792697 -0.429956)
(0.549563 0.0570597 0.00021875)
(0.534436 -0.00539438 0.00039753)
(0.561216 0.0398335 0.000741433)
(0.386873 0.119393 -0.00477784)
(0.506797 0.0427373 0.000381605)
(0.436194 0.144472 -0.000454023)
(0.390134 0.119015 -0.0001946)
(0.113658 0.00635694 -0.000788254)
(0.0705867 0.0338668 -0.000263229)
(1.94317 -0.0489036 -0.0135326)
(-0.0908512 -0.00676764 -0.00104362)
(0.494489 -0.0470712 -0.000837655)
(-0.000125296 0.216203 0.000618459)
(0.334343 0.0473593 -0.000362859)
(0.136892 0.210997 0.000398739)
(0.790542 0.0446145 -0.000240863)
(0.0116527 0.197877 0.000424428)
(0.342499 0.110015 -0.000797866)
(0.348057 0.0248196 -1.48143e-05)
(0.00221454 0.0480185 -2.5367e-05)
(0.38008 0.0317049 -0.000381527)
(0.000867592 0.0535249 2.42266e-05)
(0.2848 0.00951371 0.000267262)