/*--------------------------------*- C++ -*----------------------------------*\
| =========                 |                                                 |
| \\      /  F ield         | OpenFOAM: The Open Source CFD Toolbox           |
|  \\    /   O peration     | Version:  v2012                                 |
|   \\  /    A nd           | Website:  www.openfoam.com                      |
|    \\/     M anipulation  |                                                 |
\*---------------------------------------------------------------------------*/
FoamFile
{
    version     2.0;
    format      ascii;
    class       volScalarField;
    location    "1.769857";
    object      epsilon;
}
// * * * * * * * * * * * * * * * * * * * * * * * * * * * * * * * * * * * * * //

dimensions      [0 2 -3 0 0 0 0];


internalField   nonuniform List<scalar> 
353077
(
0.00401107
0.00883128
1.44311e-05
0.0055024
3.22499e-05
5.835e-05
2.77345e-05
1.44758e-05
3.6156e-05
1.31822e-05
0.0939693
0.0645474
0.405577
1.34663e-05
1.33447e-05
4.91033e-05
0.0403276
0.0943981
6.04138e-05
1.43886e-05
0.527375
1.29644e-05
9.21249e-06
0.0512035
1.43755e-05
1.68264e-05
0.00886544
1.39181e-05
1.37509e-05
0.24723
9.44119e-05
1.41853e-05
0.0226693
0.00444402
1.99335e-05
0.000430649
7.77032
12.0209
0.0479026
1.81293e-05
1.49657e-05
8.30265e-06
2.77375
3.56552e-05
0.206394
1.47896e-05
6.06006e-06
2.40081e-05
0.00540392
0.0573045
1.38716e-05
1.44672e-05
8.74456e-06
7.06009e-06
0.000174964
0.000133922
1.47145e-05
7.32466e-05
0.000880053
7.18146e-05
1.21788e-05
1.44021e-05
0.00534737
1.06689e-05
1.22754
5.56802e-06
1.33869e-05
1.34054e-05
0.100984
1.5445e-05
5.50304e-05
0.000428675
0.000707733
1.63516e-05
0.000416381
1.44192e-05
0.121129
0.744474
1.66422
0.0018042
0.685612
1.44433e-05
0.254904
0.0619881
0.0177988
0.435955
0.641213
1.07144
1.44612e-05
1.04372
0.706579
0.000203349
1.42875e-05
9.28838e-05
0.362865
1.23212e-05
0.0106932
1.52882e-05
1.43304e-05
1.33732e-05
1.55381e-05
1.46018e-05
2.23043e-05
0.358678
0.00357897
2.05503e-05
6.78582e-06
0.000156078
1.58925e-05
2.97821e-05
2.0476e-05
1.08085e-05
9.80937e-06
0.0326283
2.06464e-05
1.84727e-05
0.0353196
1.17466
4.0054e-06
1.48544e-05
1.04301e-05
1.65112e-05
0.00055514
0.000828084
0.0008502
0.000226871
1.07367e-05
2.7728e-05
7.27955e-06
0.000388547
0.00958296
4.19439e-06
2.43049e-05
1.5005e-05
1.4476e-05
0.0310637
0.000170549
1.82189e-05
1.45058e-05
6.75062e-05
0.00398617
0.000327661
1.50079e-05
1.37823e-05
0.00348701
0.00238568
0.105757
5.05838e-05
0.00192342
1.59168
0.00261023
0.00390235
0.000584314
0.000122162
9.33218
6.87165e-06
1.3217e-05
1.27196e-05
1.04695e-05
0.00055041
0.550993
1.42965e-05
1.26421e-05
6.61555e-06
1.44707e-05
16.6123
0.0055847
1.24145e-05
1.58061e-05
1.46957e-05
7.81187e-06
1.66982
0.013736
2.21672e-05
1.76995e-05
3.74844e-05
1.42727e-05
1.68926e-05
0.0177422
0.00269023
1.44444e-05
2.30342e-05
1.9463e-05
1.59601e-05
1.92639e-05
1.5714e-05
1.31933e-05
0.000202502
0.0631094
2.12922e-05
0.00251875
2.64632e-05
1.42215e-05
4.4606e-05
3.02325
0.190199
0.000267826
0.00864134
0.00570734
0.00193849
0.00036441
0.725345
0.0255236
1.44704e-05
7.73678e-05
2.16359e-05
0.000389021
1.95915e-05
0.00676076
4.79555e-06
1.33676e-05
0.00361666
0.000398553
7.19057e-06
0.140986
1.56743e-05
10.1851
0.303513
1.68914e-05
0.000288287
0.411514
4.59512e-05
0.000290295
2.41349e-05
9.02899e-06
1.84938e-05
0.000346746
0.830326
0.00157625
0.000149615
0.000145136
8.77652e-06
1.43537e-05
0.000200232
2.11039
1.28795e-05
5.01723e-05
0.00121545
7.02355e-05
0.00024684
2.01275e-05
0.000149543
0.0305317
1.65092e-05
7.88107e-06
1.44113e-05
2.19271e-05
1.44247e-05
0.0988222
8.32017e-05
9.53945e-06
7.64577e-06
1.55449e-05
19.3764
0.0607658
0.000468807
0.00129098
7.74285e-06
0.00808006
1.72601e-05
6.65082e-06
3.44665
1.17128
0.00862226
0.0039517
0.000585491
0.000102546
3.04674e-05
0.00152226
0.00122507
0.000381231
0.958718
0.000737249
1.54145e-05
0.0136214
0.151253
0.0173892
1.61117e-05
0.297556
0.000146881
0.573645
0.306723
0.00239694
3.8298e-05
0.000209936
0.000115601
0.000111429
2.42743e-05
0.000146213
0.0734993
1.17229
0.600394
1.031e-05
1.29176e-05
0.0511245
0.000171788
9.48211e-06
1.51149e-05
1.43135e-05
0.00016567
0.147049
1.16808
1.44221e-05
0.192791
5.11498e-05
0.00016023
0.0186121
0.000154177
4.85789
0.000176285
1.37916e-05
1.33803e-05
1.17272e-05
1.10648e-05
0.559762
0.432627
0.000196571
0.378707
0.00199369
0.00672331
1.77741
3.55402e-05
0.748762
0.00051017
1.44195e-05
0.367725
0.246523
0.0014255
0.00511943
0.0125672
0.00139509
0.00751515
0.532753
0.571505
0.323807
0.0247395
0.029838
4.59413e-05
0.0580262
3.68775
0.209103
3.3686e-05
0.0315732
0.0388173
0.0010415
0.31057
1.45282e-05
0.002544
3.19124e-05
1.40938e-05
0.000387719
0.0248174
2.07314
0.00592211
0.894549
4.69505e-05
1.89594
1.96951e-05
0.0161469
0.000406914
0.00476828
0.324641
0.132312
0.024863
0.0378483
0.000286591
1.18532e-05
2.12553
5.27875e-05
0.080537
0.0133842
0.440307
0.659492
0.904552
1.08053e-05
3.62634e-05
7.35934e-06
1.4028e-05
1.18991e-05
3.0664e-05
1.35504e-05
0.00166676
0.00961011
0.00169395
0.00444809
2.3273
1.41472e-05
2.8103
0.00095534
0.589626
9.81009e-05
1.10689e-05
1.38897e-05
0.0255413
1.31062
0.00532564
0.539149
2.74155e-05
0.000254
0.00158673
1.44589e-05
0.000354663
1.49601e-05
0.00103313
0.213085
0.000175247
1.489e-05
0.00435708
0.00802608
0.000194067
5.7629
0.0107502
1.37992e-05
1.97237e-05
2.30193e-05
0.125041
5.98157e-05
0.00174602
1.82574e-05
0.69142
1.13604e-05
0.159854
0.125298
1.49745e-05
0.000190098
0.0755652
1.50215e-05
0.206416
0.473197
0.429724
23.8992
0.271089
1.21171e-05
0.306254
0.541954
0.181541
4.47103e-05
0.446172
0.000991997
0.341275
0.185034
0.000176226
0.133281
0.00220375
0.00217828
5.31075e-05
0.00592419
0.00248161
0.0341885
2.86951
1.37981e-05
0.15367
0.0995046
0.00192775
1.38765e-05
1.70131e-05
0.389238
0.00755067
3.23306e-05
3.13912
0.221238
2.60191
4.75277
0.18034
0.00380275
0.000524047
0.000406794
0.000231356
1.43914e-05
0.000110238
0.000205773
0.0113689
7.99439e-05
0.00019369
0.000192005
0.000209205
1.44485e-05
0.00084076
0.199273
0.00026043
1.49736e-05
0.0150333
0.296737
1.3375e-05
0.000444845
1.52782e-05
0.0334967
3.15972
0.732707
0.480311
0.00081252
0.0151166
0.0174346
1.11664e-05
1.97104
1.26383e-05
0.0166554
0.525168
9.34003e-05
1.56658e-05
0.000553155
0.000134428
0.000346774
1.42871
0.228245
0.0487128
6.0284e-06
0.000113352
0.391001
3.09135
0.446117
3.70103e-05
1.82887
1.42658e-05
4.58236e-05
5.13998
2.85202
0.000893989
0.000122553
1.72792
0.147337
0.00936221
0.00526112
0.201133
2.24677e-05
0.566436
2.21743e-05
0.753393
1.96353e-05
0.00050213
0.000425874
0.000850409
1.29848e-05
1.3815
3.3943e-05
1.44612e-05
0.582167
4.09265
3.6851
4.13201e-05
0.0153932
0.758183
0.00787556
0.011754
0.00134761
0.197951
0.00212354
0.142797
0.0230278
0.000523974
0.079686
0.000600635
0.1263
0.000457349
9.77332
2.27729e-05
4.61101
0.342882
0.00105757
0.508431
0.000291754
0.283077
0.00929075
5.58492e-05
2.23932e-05
2.25749e-05
1.11865
0.00306952
0.00648796
0.0128048
0.62877
1.68088e-05
2.33144e-05
1.7768e-05
0.925676
2.22378e-05
4.24841e-05
2.33374e-05
0.0532601
1.26517
1.33128e-05
2.14117e-05
0.546136
0.000181471
0.00032612
0.00730665
1.56942e-05
4.69577
0.0375211
0.2887
0.00306222
0.0188455
0.882121
0.464157
0.00234299
1.41153e-05
0.0275772
0.00481501
0.0763592
1.09287e-05
1.2944e-05
0.0110492
0.000814068
0.00213725
0.0978371
0.180875
0.277629
0.458849
0.851771
5.57068e-06
0.0216785
0.0112787
0.300499
0.323395
0.000112798
0.0487654
1.3751e-05
1.2823
0.00495376
0.7121
0.60172
9.37244e-05
1.60005e-05
0.0204203
0.00289319
3.97434e-05
0.180316
0.0431448
0.0187267
0.0252296
0.00016396
0.000381383
0.576162
2.46068e-05
0.31619
0.429044
2.24282e-05
0.0621159
0.181421
1.90919e-05
1.4912e-05
1.37432e-05
0.84078
1.34306
0.000866671
0.00168908
7.77421e-06
1.41752e-05
0.0772851
0.000345011
0.0318881
0.00121708
1.45656e-05
5.99991e-06
0.0026732
1.46586e-05
1.03233e-05
0.00139288
0.0454658
6.05527e-05
0.00549866
1.45833e-05
1.55683e-05
0.000107189
0.436256
1.68161e-05
0.0311706
0.370023
2.1437e-05
0.810872
1.64003e-05
0.00428143
1.44595e-05
5.46666
1.52074e-05
0.00179152
0.00423929
0.648084
0.00430912
1.45579e-05
1.79086
0.406743
0.0183475
2.59766e-05
1.38157
0.00477663
0.0501858
0.000167183
2.18697
0.000987162
1.44917e-05
0.00268624
0.650214
4.08393e-05
1.4402e-05
0.00336641
0.0343798
0.196615
0.0125198
0.0013033
0.00552565
0.00130605
0.104984
5.50731
1.78563
0.0274012
0.0100182
0.0207519
0.00415047
0.00708374
0.00113536
0.0407465
0.0720453
0.396743
3.2304
0.0388215
0.184383
1.09911
0.368828
0.00302316
0.475517
0.504714
0.397894
4.90471
3.67895e-05
0.00583335
0.40019
0.000226547
0.223786
0.415854
0.000652062
0.0035399
0.0977301
0.0260326
0.000118737
0.847813
0.214715
0.26904
2.55421
1.26041e-05
0.352646
1.44386e-05
1.4002e-05
0.457841
1.15248
1.21016
0.571773
1.00913
0.216536
8.90017e-05
0.166392
0.000130296
0.0108437
1.44518e-05
1.24672e-05
2.70601e-05
1.44067e-05
0.535337
3.46323e-05
1.44497e-05
0.221777
6.90141e-05
0.037345
0.0128859
4.59531e-05
1.38749e-05
1.44379
8.39306e-05
6.38424e-06
1.62695e-05
1.11376e-05
0.000225186
0.0402524
0.174342
0.000209661
0.00421065
0.000520227
1.43386e-05
1.12885
0.0972883
0.00082963
0.00160697
1.12988
1.3352
0.00233396
0.00140594
0.000181801
0.00179267
4.62195
0.00181652
1.53647e-05
8.99005e-06
0.6432
1.93193e-05
0.000872262
2.27581e-05
0.0349988
0.000176104
2.02189e-05
0.0381684
0.676652
34.0502
2.04489e-05
0.00743024
1.97524
2.58113
1.93218e-05
9.00094e-05
0.000261838
1.28852e-05
1.87619
2.15436e-05
2.66758e-05
0.207305
0.000114207
2.60143e-05
0.623949
0.000385588
5.8392e-05
0.000192681
7.23785e-06
0.734682
0.000837463
0.108516
1.49517e-05
1.88788e-05
0.00112091
0.255126
0.0168732
3.01631e-05
0.675908
0.0411957
0.293864
0.344627
6.4956e-05
0.000184019
3.83715e-05
5.94931
7.86247e-05
0.000414984
0.000864022
0.15318
0.57659
0.621224
1.69005
0.000377206
0.000666266
0.000163194
0.0296624
0.169941
0.000400836
0.000126621
1.90493e-05
0.000924874
2.64365e-05
1.13962e-05
9.39861e-06
0.000142048
0.00504571
0.0720683
0.794302
3.88915
0.849386
2.6334
2.91708e-05
2.74953e-05
0.673087
0.000128306
0.00131051
0.0014402
0.323383
0.115135
6.98003e-06
0.579783
0.00268608
0.0021822
12.1353
0.00081746
0.00457871
1.76816e-05
1.96748e-05
0.0455014
0.0163547
0.742921
5.36095e-05
1.34858e-05
1.8865e-05
1.82211e-05
0.77902
0.807473
1.55212e-05
0.0915241
3.93569
1.70695
1.33355e-05
0.000626117
7.80689e-06
8.54643
8.11536e-06
0.000545007
3.7666e-05
0.00537348
0.000982727
0.836564
0.000528703
1.4386e-05
2.27665
0.353413
2.46071
0.392482
2.23351
0.00119705
0.00119261
0.137221
0.0115685
0.0181433
0.334634
0.125448
0.435353
0.030992
7.57264e-05
0.000297133
0.000155932
0.000151859
0.103683
0.000979453
4.76601e-05
9.69336e-05
8.77463e-05
8.30467e-05
0.769847
0.142613
1.12206
3.35911
0.000159196
0.000883331
0.00163661
0.101389
0.00271876
0.0376953
0.182918
0.404727
2.90501
0.00152389
0.610676
12.4701
0.121653
1.39281e-05
0.000378023
0.181313
0.000305491
1.17452e-05
0.000282796
0.000406083
1.42361e-05
5.73639e-05
3.67204e-05
0.0368735
0.346106
0.645295
0.642875
5.14104e-05
1.4465e-05
0.228631
0.720557
1.41759e-05
0.213066
0.149345
1.41311e-05
0.791995
6.69155e-05
1.39807e-05
0.229566
1.43672e-05
0.000426618
4.61083e-05
1.29378e-05
14.7963
0.000441525
0.561089
1.44273e-05
1.28066e-05
0.0554899
1.35529
0.00237606
0.733371
0.506425
7.60441e-06
1.43778e-05
1.34778e-05
0.372876
0.0663624
12.7139
1.4428e-05
0.000565917
0.00616435
0.000120947
1.0717
0.000353081
0.36232
1.46303
0.672211
0.824531
0.80838
0.536206
5.09613e-06
1.00267
0.323341
0.603522
0.00348334
1.86323
7.21086
0.199082
6.6424
5.71828
1.83304
5.57871e-05
0.00262155
0.000437217
0.196873
1.19335
10.4474
0.00446214
0.430551
0.0387445
0.187621
0.00203791
0.311478
2.11431
0.00478691
0.00213516
0.329049
0.00320625
0.0230708
0.247083
0.000119799
0.00468434
3.74603
1.50675e-05
0.838588
0.0049011
0.00682028
0.000309824
0.000826287
0.000243931
0.467927
4.93533e-05
1.35905
0.000313591
0.397144
0.000328835
8.93326e-05
3.46369e-05
0.382034
0.520367
4.73932e-05
0.253932
7.9127e-05
1.60352
3.34351
1.72811e-05
0.0285072
1.71526e-05
6.31354e-05
0.000129871
0.642121
1.45636
7.079e-05
2.31329
0.0112994
0.00137774
4.77659e-05
0.00176268
1.88181e-05
0.000533205
1.50188e-05
0.000123132
0.367524
2.12619e-05
0.313307
0.000470882
1.7858e-05
1.48938e-05
0.0490516
0.0115477
2.49688e-05
2.05024e-05
0.00238921
1.83942e-05
0.418605
1.83117e-05
0.00112605
1.78786e-05
0.0339582
5.22473e-05
0.000162075
0.255031
1.60133e-05
9.33503
3.94732e-05
1.31165
0.0199679
4.78235e-05
3.74177e-05
1.25662
6.01258e-05
0.000162007
0.0835409
0.935936
3.08549
0.000259043
1.50128e-05
0.0275457
0.00154424
4.81849
0.206187
1.18546
0.695296
0.21813
5.08578
1.50462e-05
0.0539023
1.30818
0.455138
0.00236013
0.478532
3.09302e-05
0.00823993
0.020687
0.171921
0.324084
1.4164e-05
0.0164999
1.966e-05
0.129164
4.22673e-06
0.823367
2.68311e-05
0.781484
1.4388e-05
0.278402
0.000535673
0.651984
0.334934
7.30614e-05
0.0190316
3.45887
0.00294856
1.49147e-05
0.727904
0.47791
0.393908
0.128566
0.000287221
0.149905
0.000372494
0.000239692
0.723385
1.36236e-05
0.000486332
0.00153633
0.0310156
0.696097
1.43969e-05
0.459487
0.750885
0.0167432
0.0172421
2.20811
1.41368e-05
6.19621e-05
0.000350043
0.016595
1.44664e-05
1.4409e-05
0.00564607
0.121009
0.00232218
0.00687948
0.0224605
1.32303
1.45651e-05
0.00345814
0.742606
1.42912e-05
0.00048938
4.66399e-06
2.35332
0.000666341
2.16606e-05
0.000360324
0.360769
0.0197757
0.908548
2.25551e-05
0.000622932
0.643913
2.21724e-05
0.040313
0.234991
0.0319201
7.2489e-06
0.84755
0.0343436
6.76219e-05
0.258229
6.81166
6.12448e-05
2.4316e-05
4.32421e-05
1.14332
0.584328
0.307201
0.00968394
0.0673055
0.00288649
0.285903
1.44378e-05
0.00279629
1.20285
1.02096
0.205052
0.247513
0.394104
0.349486
0.576679
0.49116
3.13032
1.56248
0.000455024
0.000940904
0.00182162
7.35805e-05
0.0470864
0.348032
1.9865
0.391261
0.476966
0.275935
0.525759
0.00982735
0.000287202
0.337552
1.09648
0.208642
0.849879
0.211403
1.07464
0.0261651
0.382121
0.000466237
0.179444
0.000558674
0.000594138
1.52271
0.0155371
0.0476862
2.06736
0.673081
2.30368e-05
0.299057
0.000627257
2.45974e-05
0.00150672
0.565385
0.000552102
2.01535e-05
6.67004e-05
0.0664784
0.000237452
2.78355
0.00232646
0.000586623
0.210742
0.000258581
0.650222
0.0955741
0.414715
0.000936737
0.000204865
2.80072
0.0176815
0.290512
3.33701e-05
0.0236147
2.06373
0.197308
1.06497e-05
0.000491483
0.0493372
2.69054
0.797355
1.01434e-05
0.00683446
0.653232
0.115452
3.4261
0.937392
0.00181063
0.0919964
0.000475286
0.00106681
1.46772e-05
0.111961
0.237052
0.211206
1.56502e-05
0.000141011
1.40342e-05
0.0311055
0.0010038
0.097057
1.12418e-05
3.84707e-05
1.66275e-05
0.0827399
0.000355511
1.08786e-05
0.00763735
0.0838363
0.676697
0.0393208
1.3286e-05
4.67903
0.768721
0.313895
1.31954
1.14293e-05
2.67468
1.45157
0.719626
0.221169
0.557124
0.764599
0.476346
2.85241
0.000142432
1.40535e-05
6.26081e-06
0.932456
1.57599e-05
0.0148158
0.720249
2.26161
0.00634419
0.744074
0.0248325
1.77106
4.04682
0.672961
0.590152
2.17891
0.000749823
1.89413e-05
1.69269
0.435043
0.00798839
0.000246994
0.0550527
2.53887e-05
3.82851e-05
3.11872
0.644837
2.88596
20.9589
3.90525
2.83627e-05
2.69929e-05
0.657357
0.0335267
4.16485e-05
0.000222828
0.704657
0.323417
1.42351e-05
4.05569
2.40536e-05
0.0223342
32.0657
0.000170769
2.49162e-05
0.0015769
1.44004e-05
3.06654e-05
0.225715
7.48313e-06
12.0139
1.59723e-05
0.113257
0.000127783
1.28696e-05
1.05231
1.44546e-05
5.38799e-05
4.31427e-05
10.0889
1.86014
0.56787
0.010308
0.01919
0.00223676
1.45342e-05
0.171368
0.00596181
4.52821e-05
0.0169273
1.43668e-05
0.0134322
0.577764
0.00511012
0.0317989
0.261538
1.83405e-05
0.0131172
12.6793
0.00184202
1.14976
5.20264e-05
3.30089e-05
0.02302
1.62207e-05
3.26513e-05
2.20908
1.69079e-05
0.382972
0.00282357
1.80509
0.0108847
10.3984
1.17621
3.42112e-05
0.166176
0.120489
0.034657
0.281979
0.221085
3.998e-05
1.35391
0.00791097
0.302459
1.44331e-05
4.30174
0.00509353
0.0041482
4.6255e-05
3.59017e-05
0.709883
1.95991
0.11525
0.00259644
0.000392852
3.24596e-05
2.30465e-05
0.000409565
0.315094
0.370635
0.0529203
1.07685
0.447676
0.123741
0.000470516
1.28227
0.221016
8.63674e-06
0.672786
5.38695e-05
0.00167509
6.39349e-05
0.00106599
0.00314051
0.152839
0.407777
0.332769
0.115557
1.3984e-05
0.00116818
0.402785
0.00167281
0.00177874
2.27473
1.0341e-05
0.0535673
0.044352
0.71973
0.000519469
0.407098
0.0196574
0.000780049
0.00105863
1.11174
0.426525
0.0122389
0.000145173
0.00470259
0.714567
0.0114991
13.9294
18.1601
0.511615
4.5965e-05
0.142551
0.927987
0.00467747
2.00207
0.0793357
5.16973e-05
0.0879019
5.76084e-05
0.00193438
0.493921
6.3217e-05
1.11516
0.336611
0.026979
3.7406e-05
4.24953
4.53493e-05
2.90421e-05
5.07228e-05
1.48365e-05
8.31645e-05
0.145742
0.000102423
0.986843
0.402773
0.340682
0.000677907
0.000119328
2.25231
0.940221
0.0263017
1.65902e-05
0.000155792
3.77911e-05
0.000131594
0.00256247
0.000588592
4.78418
0.0146939
0.000195524
0.619437
0.000762714
0.16569
3.25296
0.0290552
0.535751
0.269353
0.609518
4.17618
0.279206
0.0817276
20.4804
0.0120906
0.425429
0.000663511
0.124336
0.0132824
0.156808
0.000693078
0.00755257
2.06227
2.49878
3.67149e-05
2.89017e-05
0.0068655
1.33324
0.631816
3.03898e-05
0.314465
0.000914013
0.618013
3.17209e-05
0.000948946
0.676031
0.0106028
1.66942
0.00651297
3.32722e-05
0.00681734
1.38752
3.65124
4.29265
1.42198e-05
2.82547
0.0338127
1.35824e-05
7.95618e-06
2.40731e-05
1.03157e-05
0.578995
7.54529e-05
0.23342
0.847163
0.0108815
0.295379
0.0001738
0.000569074
1.36485
1.298
0.072138
0.0915181
0.142398
2.71301e-05
17.8641
0.690177
2.02332
2.92966e-05
1.15462e-05
0.183793
0.0454519
2.98859e-05
3.24136e-05
1.0587
0.62618
1.04952
0.000150934
0.000635071
57.7048
2.43815
0.532932
0.000455118
1.58718e-05
6.18295e-05
1.6881e-05
0.000645181
1.68218e-05
0.657607
0.00148051
4.55502e-05
2.92062e-05
0.0361057
5.35454e-05
3.68734e-05
0.47131
1.63468e-05
2.16056e-05
0.000234249
0.611615
0.000268412
13.3092
0.493704
0.9281
9.32821
0.000764471
8.10532
0.000383616
0.00415038
0.142967
5.93238e-05
1.58282
8.92825e-05
7.91046
0.311916
6.86201
0.662794
0.0662203
0.000139653
0.00109113
0.491837
0.0136356
0.000235843
0.035014
1.2363
0.392788
2.04366
0.113552
0.205784
2.44768e-05
0.0161109
0.544318
0.0205337
1.13345
0.000359328
0.231227
0.148882
0.000566654
0.000740824
4.31055e-05
0.175692
0.00174871
3.26589
0.00119265
0.261457
0.00227123
0.246087
0.773566
2.80699
4.62302e-05
0.340056
0.000774815
0.00155097
0.000935979
1.78105e-05
0.000121658
0.00277281
0.00745447
0.0168204
0.961477
0.00227755
0.000341579
0.00275905
0.311203
0.300582
4.5315e-05
2.51467e-05
0.316661
4.92828
0.798917
7.31211e-05
2.67541e-05
0.0017616
2.62166e-05
1.76198
0.560603
0.0128273
0.00360724
0.00207356
0.00129489
4.75129
0.626149
0.00206653
0.967147
0.589737
0.200077
0.00487696
5.44809e-05
4.75235e-05
0.000939179
0.541729
4.51676
0.203305
2.28586
0.00104445
0.0953688
0.0125488
0.239931
0.413941
1.42314
1.3466e-05
1.10934e-05
5.06041
2.61187e-05
0.00182052
1.42819e-05
1.67748
1.28326
1.20525
0.000421985
0.384371
1.73649
1.43936e-05
0.000339418
0.00104632
1.4408
2.30909
0.0443367
0.000809169
0.000896461
6.73912e-05
0.000984954
0.184425
0.383475
0.0315411
0.00558336
0.604232
1.72782
8.51163e-05
0.0346834
0.29541
0.000118786
2.01087
0.000325798
0.000311745
0.000201885
15.5016
0.00256927
0.21091
0.0175286
0.000230919
0.0536192
0.0348583
22.8308
0.00357848
9.90627e-05
0.0124827
0.205985
1.54149
0.00944326
0.0043833
1.64517
0.00253304
0.0113741
1.25902
0.437056
0.0642917
0.000182961
0.77927
0.587317
0.000347614
0.00254064
4.28057e-05
0.000310506
2.96717e-05
0.401027
0.515491
0.00216267
0.00043673
3.50947e-05
0.000157996
3.51998e-05
0.0013416
4.4747e-05
0.167603
3.22336e-05
0.421322
4.12338e-05
0.42471
0.511107
1.12743e-05
0.466295
0.0889249
0.694368
1.40803e-05
2.4622e-05
0.000380479
0.000107344
0.899454
0.0175036
0.279197
0.1727
0.00103344
0.0325367
0.943332
3.78863
0.00217625
37.8891
4.77181e-05
0.09252
0.00172737
1.44982e-05
4.09496e-05
0.019728
10.6405
0.000983746
1.87958e-05
0.323412
0.162613
0.013976
0.0121165
1.44353e-05
1.51907
0.333528
0.000533192
0.00274636
4.0852
0.000263652
1.41231e-05
4.19846e-05
1.44308e-05
0.230635
0.183106
2.21604
0.355703
0.00143371
0.525351
0.00384377
1.59413
0.22644
4.74768e-05
0.467905
2.38285
0.584206
0.000369199
0.158659
0.000290102
0.44179
3.73602
4.75009e-05
0.0368648
0.0048216
1.98829e-05
0.00502017
0.00839806
1.81189
4.47716e-05
4.77145e-05
4.84643e-05
0.0413599
1.76025e-05
1.66934
0.622572
1.60151e-05
2.38138e-05
1.8211e-05
0.0866521
0.292906
0.000323134
1.70339e-05
0.124903
3.44709e-05
0.183547
0.000867999
0.215041
0.000194857
5.78318e-05
0.0508678
0.275972
0.000388071
7.12277
0.623429
4.69173
1.40069
0.00357131
3.71168e-05
0.000567166
0.0110504
2.31736
0.193334
1.09551
0.878776
8.68155e-05
0.00608241
0.0833952
0.162628
0.000567376
4.14024
2.31509e-05
1.00301
0.0329718
7.72689e-05
0.0372206
0.000915047
0.755213
0.594237
0.16316
0.0837761
1.55273
0.0175755
0.0979121
0.0218219
0.108648
0.00187901
0.914066
0.000243692
0.000191011
0.732469
1.96643e-05
8.36831e-06
1.38427
0.206105
0.035133
1.64418e-05
1.48158e-05
1.02393e-05
0.0428104
0.000502628
0.487295
0.00652674
0.227984
1.39954e-05
9.95842e-06
0.487642
2.20534
0.0188494
0.000810002
0.497893
3.03244
0.0690592
3.22551e-05
0.000146525
0.0484411
0.00165496
1.40837e-05
0.00986693
3.62498e-05
3.08855
3.30241e-05
0.403944
0.77998
0.395659
4.52406
0.000102989
0.143009
0.00636188
0.00101655
1.10543e-05
0.460054
2.92792e-05
0.287947
0.203443
4.40929e-05
1.45398e-05
2.06996e-05
0.274438
1.63254e-05
1.45542e-05
1.26675
0.915036
0.0640689
0.373789
0.00668645
2.1173
1.66401e-05
1.46061
0.598386
1.71833
1.23908
0.000682814
1.44644e-05
0.000462869
0.452809
2.23911e-05
2.25317e-05
1.55483e-05
0.0340726
1.3385e-05
0.000790461
0.255904
5.25248
0.00197269
0.667542
0.00375077
1.38485
1.00643
0.432489
0.00745005
1.7832
7.34043
0.470757
7.28919e-05
1.12477
0.000127633
2.03314
4.89796e-05
0.00307283
11.8312
13.1383
0.00141436
1.29821e-05
0.0127729
0.687169
0.623173
1.10289e-05
1.35458e-05
1.41961e-05
0.568256
0.782986
2.50314
0.895428
0.114249
0.0114876
1.30776
1.7172
0.402314
0.365721
0.000263512
0.247097
0.000597312
0.964682
0.00623073
5.49072e-05
3.26295e-05
0.000101819
1.14442
1.92056e-05
0.0061246
4.62559e-05
0.000805331
0.161842
0.000238314
5.24754e-05
0.28788
0.415833
1.49608e-05
4.41382
0.000595229
0.0272361
0.0269376
2.94796
0.162423
0.298932
0.0238838
0.68821
22.1543
0.00138316
0.259147
0.914227
0.000487591
0.000714226
0.000798828
0.000193067
2.70184
0.00148793
0.457487
0.307956
1.43675
0.872382
0.000532874
9.26084e-05
0.622344
0.0442824
1.56429e-05
0.000109667
0.000366472
0.00228419
0.0732623
0.0153497
1.31999
1.06783
0.330237
0.000476918
0.000723403
6.0228e-05
0.00218294
2.3791
11.8594
7.18376e-05
0.0182906
1.33516
0.631186
1.48305e-05
12.6143
0.00104885
0.384859
2.36161e-05
1.98283e-05
0.329232
0.193788
0.963398
0.911099
10.973
0.628574
3.16367e-05
1.00779
1.30916
1.11645
0.0257444
2.36491
1.44659e-05
1.45804e-05
1.59587
1.88358e-05
1.57193e-05
0.000156848
1.46139e-05
2.62235
1.93879e-05
1.86389e-05
1.8255e-05
0.234644
4.45349
0.256882
0.311176
2.90865e-05
5.19651e-05
1.01714
3.82053e-05
0.739841
0.528038
0.765764
0.00284354
0.00900931
0.182437
0.000307631
0.373725
0.256523
0.384065
0.000453748
0.301576
0.000292646
0.000245391
5.74867e-05
0.021993
3.3718
0.120573
0.0522828
3.41039e-05
2.14797e-05
0.000240845
0.0917436
2.09379e-05
0.286647
0.833584
0.000280301
0.0608846
9.70686e-06
0.0181999
3.88933e-05
7.05528e-06
0.0211616
2.35289e-05
0.00499511
0.000180199
8.11423e-05
0.723392
1.03481e-05
0.000268864
6.59831e-06
0.0338574
3.81215
5.78891
0.00395626
1.59357e-05
5.48669e-05
3.75183e-05
3.70273e-05
0.000172267
0.83543
1.44557
1.47425e-05
1.81432e-05
1.04334
1.49734e-05
1.3978
8.87761e-05
0.000685761
0.00289819
1.31248e-05
0.00087547
0.250204
2.08846e-05
2.08343e-05
1.0796e-05
2.51809e-05
1.95889e-05
0.000116288
0.00127938
4.68117
0.00115808
0.0246967
0.354603
0.566869
0.000673562
2.49293e-05
2.00534e-05
3.53145e-05
0.24935
0.304984
0.17752
0.000577016
0.564018
0.347164
0.0366123
0.00220828
0.401915
0.706151
16.887
0.38861
0.00130486
1.26701e-05
1.42387e-05
6.62567
1.79555e-05
0.0268966
0.0795777
3.26566
5.68313
0.129895
0.165252
0.00557416
0.856542
0.00272765
3.13332e-05
1.44759e-05
1.32246e-05
1.39051e-05
0.0539462
3.21425
0.00179452
0.00130825
1.12154e-05
0.00911417
4.22157
0.0518171
1.37131e-05
0.00018044
6.79934
0.00377251
0.641149
2.43763e-05
0.001489
5.47588e-05
0.00647277
0.00264256
0.000149374
1.5217e-05
0.00571649
0.0055092
0.00603478
0.794585
0.124583
0.000257289
0.00019133
0.000237125
0.0659918
0.177444
0.0857169
4.84015e-05
0.0100327
0.030093
0.53315
0.00321844
0.0411002
1.11878
0.351176
0.272055
0.207152
11.6127
0.295883
0.657169
1.24111e-05
0.000225353
1.22158
0.000129939
0.229853
1.65353e-05
0.000168183
1.36932
1.82517e-05
1.41642
0.0003612
0.000320608
0.00015577
0.009856
1.80019e-05
1.84494
0.474459
0.377159
0.765638
2.03616e-05
1.51344e-05
0.136714
1.65274e-05
0.0897335
0.142932
0.915029
0.999484
0.00014073
0.677683
0.62177
0.30986
0.000287254
0.000387907
2.72885
0.543611
0.163362
0.716643
4.92422
0.0632312
2.40799e-05
0.152416
9.08213e-05
0.000941331
3.90694
0.289326
3.5089e-05
0.000198751
9.38712
0.000138022
0.00064427
0.237658
5.90181
6.76143e-05
0.000318843
2.62979e-05
34.5038
0.288104
9.6334e-05
3.94722
2.19163e-05
0.000187824
3.87407e-05
3.22877e-05
1.91118e-05
2.18729e-05
1.61479e-05
1.00719e-05
1.14435
0.71296
0.0172818
3.40461e-05
0.0164761
1.55084e-05
0.000269573
0.000716101
4.10738
9.146e-06
9.27579e-06
0.837257
0.00376616
8.85669e-06
9.52457e-06
0.840017
0.148459
1.50647e-05
2.25556e-05
2.26746e-05
0.334922
0.218956
7.55404
0.00376021
1.30565
0.241703
3.26376e-05
0.000529383
9.78791e-05
1.47106e-05
0.00016499
0.0644706
0.00779757
0.00258555
0.00760398
0.000543566
0.188066
0.000131257
0.705651
0.00253359
0.074778
0.000107935
0.00251301
2.08148e-05
0.00678534
1.00145
2.57496e-05
2.79902e-05
6.73356
0.000100083
18.1323
0.000485717
2.81774e-05
0.236552
1.38503e-05
0.000159909
0.0367508
0.0328253
3.86564e-05
1.46039e-05
12.466
2.60254e-05
1.45557e-05
0.374322
0.00286551
2.426e-05
9.12685e-05
0.0259044
0.000637058
1.63187e-05
0.426261
0.00451159
1.44349e-05
9.36681
0.180459
0.0135758
0.0273157
0.274394
0.914203
0.234158
0.00622637
0.00379961
0.000168996
1.99332e-05
10.7035
0.00519668
11.8436
0.000706458
0.721981
0.53442
2.02224
1.6302e-05
0.0624342
0.0078504
0.569841
0.79181
0.00981838
7.80313e-06
0.000246012
0.37451
1.44189e-05
0.270236
0.00254126
0.501375
0.00340038
0.83985
0.000162208
3.33494e-05
0.0159524
2.7265e-05
0.00301644
5.35961
0.000213835
0.746902
0.735546
0.0028654
0.000261773
0.00182854
7.59066
0.00360095
0.817226
0.419172
0.00356928
0.000359435
2.64005
5.19268e-05
0.00558883
0.000187749
1.5162e-05
11.3413
0.00091326
0.39063
0.39829
2.08419e-05
1.44397e-05
0.179106
0.000105418
0.000757211
0.00335329
9.54336e-06
1.4529e-05
0.00128803
0.53172
2.94481e-05
7.34552
2.08549e-05
0.120474
0.00462874
6.88818e-06
0.186241
2.32609e-05
0.000787555
0.00379148
0.133872
6.25289e-05
0.00127737
1.62547
0.000148723
7.75035
4.03578
0.324325
0.105169
8.63783e-05
0.000201494
4.48539e-05
0.000216543
0.129302
0.00037442
0.305288
0.00153141
0.0476384
0.000118072
0.000209616
2.40102e-05
0.000329367
0.00309579
0.790201
2.91993
3.10483
4.60942
0.287335
2.52686e-05
0.000754679
0.000400423
7.81954e-05
2.82644e-05
0.0285407
0.540396
0.100957
0.000224991
3.24162e-05
0.041019
1.40144e-05
4.47053e-05
4.72841e-05
0.000418689
0.00167313
0.720462
0.38828
0.0599031
1.61444e-05
1.03238e-05
0.596301
0.000196154
0.20966
0.115661
0.000198954
0.00066209
0.000295418
0.218934
1.07825
0.566123
0.00094364
1.10885e-05
0.000474526
0.0871082
2.90181e-05
8.85185e-05
0.00040989
2.01112e-05
0.000279727
0.00127091
0.00663852
0.000515679
0.000211655
0.040358
0.0423771
0.0882304
1.1339e-05
0.000468253
0.000205652
0.00106188
0.000151525
1.18544e-05
1.6131e-05
0.0240431
1.43402e-05
0.000194683
0.0614988
0.341099
2.60377e-05
0.33242
1.88575
0.00334802
1.10365e-05
1.01394e-05
3.75538e-05
1.44422e-05
0.635961
2.58379e-05
2.51536
1.00377e-05
0.811605
6.28687e-05
0.000306882
0.00042414
3.96235e-05
1.41824e-05
0.000446218
0.43062
0.000479892
0.00531044
0.000375734
0.217561
0.000117231
0.00342326
0.236632
0.00061327
0.143192
0.000183945
0.00678833
0.00558826
0.0331248
0.927556
0.000102546
2.01356
0.0731531
10.665
1.46468e-05
0.25056
0.442397
0.427645
0.000564606
0.748448
0.546815
1.14042
2.21845
0.610282
0.0115821
0.00320369
1.9816e-05
0.0126164
0.0384731
1.62939e-05
0.00422309
0.0013971
0.000106843
1.43981e-05
2.23525
0.337274
1.13038
0.482882
0.00130324
0.561815
2.75768e-05
0.700467
0.00312761
0.159991
3.68242e-05
0.000134871
0.00171434
0.00558242
4.59782e-05
8.89062e-05
6.22722
0.00500997
0.0830451
0.56728
0.099047
1.13783
1.00982
1.52957
0.000160973
1.43599e-05
0.616504
1.44503e-05
1.41842e-05
4.01369e-05
0.000544132
1.03564
0.00697299
0.842047
0.0176186
0.016069
0.765037
1.67566
0.00410685
4.16651e-05
0.0515426
0.000229579
0.0261687
0.30058
1.40655
0.791517
0.000205184
5.05228e-05
1.28697e-05
0.54846
0.44547
1.09623
0.122827
0.000180552
1.55985
0.989526
0.418836
0.000655475
1.38837
0.0293145
2.36259
4.30574e-05
2.9255e-05
1.98893
1.57117
0.165044
1.33091e-05
0.333499
0.0489546
0.00273333
6.46202e-06
0.533001
7.21382e-06
6.35999e-06
0.00012803
0.709431
0.668129
0.000131109
1.68649
0.0695655
0.000156393
0.358027
7.90275e-05
0.00345688
0.00347277
0.00841199
5.34157e-06
5.10051
0.0808452
0.710611
1.60054e-05
8.07154e-06
0.223777
17.1527
0.34917
0.642757
0.759394
0.000233182
7.18396e-06
0.0274282
1.44418e-05
0.894878
1.95194
0.0960114
13.5466
0.0175421
0.000736726
0.688639
0.00082993
0.762856
1.11728
0.581936
0.000197436
0.0105741
0.00717279
4.28246e-05
0.0300212
0.880649
0.000129177
4.75097
7.7056e-05
0.00894509
1.33174e-05
0.0224859
0.169427
1.01749e-05
2.45522e-05
1.65963e-05
2.0743e-05
1.51617e-05
0.0069578
0.000552388
0.000444194
1.98813e-05
0.000112115
0.0485127
0.56913
2.54701e-05
3.4307e-05