/*--------------------------------*- C++ -*----------------------------------*\
| =========                 |                                                 |
| \\      /  F ield         | OpenFOAM: The Open Source CFD Toolbox           |
|  \\    /   O peration     | Version:  v2012                                 |
|   \\  /    A nd           | Website:  www.openfoam.com                      |
|    \\/     M anipulation  |                                                 |
\*---------------------------------------------------------------------------*/
FoamFile
{
    version     2.0;
    format      ascii;
    class       volScalarField;
    location    "1.769857";
    object      k;
}
// * * * * * * * * * * * * * * * * * * * * * * * * * * * * * * * * * * * * * //

dimensions      [0 2 -2 0 0 0 0];


internalField   nonuniform List<scalar> 
353077
(
0.000958869
0.00102255
5.25036e-05
0.00075959
8.49473e-05
0.000132405
8.87157e-05
5.26168e-05
0.00010327
7.66363e-05
0.00690019
0.00564037
0.137339
6.12168e-05
6.55967e-05
0.000122874
0.00775901
0.108691
0.00013898
5.33442e-05
0.314247
7.71357e-05
8.45732e-05
0.0589625
5.32161e-05
5.84497e-05
0.00186421
5.84534e-05
5.87333e-05
0.0142658
0.000117903
5.62561e-05
0.0211065
0.00145625
8.03729e-05
0.000328935
0.220902
0.237251
0.00364186
6.16469e-05
6.01205e-05
7.42751e-05
0.0948892
0.000212867
0.0113588
5.33434e-05
8.93032e-05
0.000124551
0.00166861
0.0677864
5.6375e-05
5.24845e-05
8.28594e-05
8.68463e-05
0.000260723
0.000234699
5.3347e-05
0.000125139
0.000420955
0.000114482
7.63386e-05
5.46402e-05
0.00155796
7.52934e-05
0.466135
8.36985e-05
6.41264e-05
5.89376e-05
0.0899168
5.50011e-05
0.000111176
0.000447752
0.000447946
5.74072e-05
0.000431551
5.36562e-05
0.0110497
0.15906
0.436732
0.000701173
0.0989221
6.57688e-05
0.185767
0.0777284
0.00412015
0.0442316
0.055381
0.0669877
5.24722e-05
0.44476
0.414485
0.000349911
5.44068e-05
0.000246016
0.0271022
6.75884e-05
0.00221988
6.2406e-05
5.38567e-05
6.33951e-05
7.8128e-05
5.29748e-05
9.38496e-05
0.0256644
0.00622704
8.78403e-05
8.15195e-05
0.000388557
6.49112e-05
0.000163175
8.18148e-05
9.44908e-05
8.85737e-05
0.00558493
7.80095e-05
0.000109883
0.00553703
0.372764
8.01423e-05
6.23844e-05
0.000103389
7.10771e-05
0.000624126
0.000545105
0.000891167
0.000327993
7.43469e-05
8.30192e-05
8.57351e-05
0.000539518
0.00146771
9.04386e-05
0.000123376
5.53876e-05
5.25584e-05
0.00651125
0.000290117
6.17423e-05
5.26139e-05
0.000250717
0.00234553
0.000479034
5.42058e-05
5.88818e-05
0.00202068
0.00153581
0.00939873
0.000358757
0.00205871
0.296395
0.00169488
0.00213354
0.000760045
0.000228862
0.935362
8.19384e-05
8.79177e-05
6.79859e-05
8.07502e-05
0.000682233
0.0432531
5.43808e-05
0.000134683
8.31395e-05
5.3826e-05
0.345308
0.0077928
8.24152e-05
5.79644e-05
5.31068e-05
0.000105395
0.196764
0.00193334
0.000110988
6.69648e-05
0.000104288
9.3542e-05
6.83514e-05
0.0271999
0.00169885
5.25481e-05
7.34424e-05
7.83723e-05
8.00584e-05
6.43979e-05
5.74032e-05
9.66162e-05
0.000582328
0.077813
9.60415e-05
0.00355093
9.42344e-05
5.47802e-05
0.000157445
0.308118
0.404408
0.000406104
0.00384887
0.0024631
0.00153711
0.000594639
0.393975
0.00527618
5.2517e-05
0.000261734
6.99176e-05
0.000569146
6.50592e-05
0.01253
8.25568e-05
6.42082e-05
0.00182183
0.000559941
8.50341e-05
0.0234118
8.42194e-05
0.280648
0.178751
8.15976e-05
0.00042688
0.24882
0.000105519
0.000448363
0.00011169
8.19343e-05
6.26855e-05
0.000671021
0.36307
0.00207163
0.000374478
0.000326276
9.22041e-05
5.39347e-05
0.000461583
0.0666457
6.85855e-05
0.000124092
0.00205473
0.000103563
0.00053494
6.62906e-05
0.000310781
0.0165211
5.76204e-05
8.39483e-05
5.30847e-05
7.23004e-05
5.27527e-05
0.112489
0.00019229
8.6098e-05
8.761e-05
6.05755e-05
0.321018
0.0768597
0.000605445
0.00108587
8.728e-05
0.00154483
6.00191e-05
8.07635e-05
0.122293
0.414319
0.00574847
0.00158656
0.000682458
0.000197946
0.0001414
0.0029517
0.000923889
0.000803756
0.384942
0.000896276
5.49191e-05
0.0196045
0.0141501
0.0282361
5.92376e-05
0.0662972
0.000322069
0.344605
0.071901
0.00129402
0.000102459
0.000196893
0.000204794
0.000161741
7.6044e-05
0.000248571
0.00766153
0.119547
0.0514867
0.000109462
0.000118315
0.00673816
0.000256287
0.000111432
8.82314e-05
5.38042e-05
0.000258666
0.0390224
0.0732348
5.25818e-05
0.128269
0.000119355
0.000228368
0.00769297
0.000210066
0.154621
0.000258691
5.96788e-05
6.12784e-05
7.82219e-05
7.52444e-05
0.319842
0.420605
0.000298891
0.347989
0.00112419
0.0117383
0.360189
9.54281e-05
0.446382
0.0010052
5.27114e-05
0.509248
0.0272199
0.000671362
0.00132243
0.020136
0.00112384
0.00108845
0.0438221
0.0543203
0.328195
0.00502728
0.0235692
0.000116172
0.00793934
0.314481
0.0174759
0.000144418
0.00278538
0.00897876
0.000830091
0.035047
5.54331e-05
0.000942592
9.27918e-05
5.56305e-05
0.000456378
0.0379802
0.260801
0.00125715
0.421782
0.000112518
0.0845623
0.000128419
0.00275294
0.000505923
0.00506236
0.0200208
0.0800403
0.00345591
0.0519011
0.00036216
6.77415e-05
0.391454
0.000197414
0.0240461
0.00235386
0.282924
0.370442
0.383342
7.81757e-05
9.92858e-05
8.08594e-05
5.6287e-05
6.71258e-05
0.000106647
0.000100359
0.00318584
0.00234802
0.00335779
0.00835516
0.103161
5.51334e-05
0.132329
0.00177966
0.350727
0.000224774
7.81034e-05
6.30558e-05
0.00620164
0.0311983
0.00815325
0.258445
8.06095e-05
0.000262059
0.0027291
5.36401e-05
0.000422012
5.61706e-05
0.000819317
0.025832
0.000249903
5.66367e-05
0.00239136
0.00253987
0.000264665
0.137801
0.00118813
6.09916e-05
7.45038e-05
8.04576e-05
0.124393
0.000142507
0.0014062
7.07479e-05
0.394809
0.000101764
0.485251
0.0180742
5.65265e-05
0.00033364
0.00894341
6.54604e-05
0.039968
0.285731
0.386003
0.476492
0.0804749
8.16651e-05
0.0275168
0.368547
0.0110397
0.000149496
0.264105
0.00040021
0.16907
0.0452966
0.000443922
0.0218926
0.00116797
0.00156254
0.00012876
0.00115567
0.00117654
0.00504645
0.134327
5.7533e-05
0.0288885
0.110498
0.00110111
0.000110688
9.8697e-05
0.247451
0.0130532
0.000101646
0.270832
0.111531
0.106507
0.188499
0.343996
0.000877536
0.000404327
0.000377015
0.000163445
9.04607e-05
0.000220088
0.000296215
0.00196859
0.00018022
0.000281319
0.000292037
0.000291497
7.02958e-05
0.000293637
0.0203745
0.000336222
5.38853e-05
0.00153863
0.0268369
8.61411e-05
0.000581562
5.73092e-05
0.0473492
0.0869859
0.0327196
0.202326
0.00105143
0.00223788
0.00243112
7.19294e-05
0.480413
0.000104001
0.00229505
0.304045
0.00018019
6.41572e-05
0.000916214
0.000306392
0.000483847
0.409321
0.0664979
0.013476
8.83573e-05
0.000345848
0.0375831
0.146005
0.27266
9.86699e-05
0.215316
5.45002e-05
0.000113101
0.223637
0.346988
0.000540385
0.000274612
0.0754925
0.0161607
0.00282608
0.0102771
0.160475
9.37942e-05
0.463862
9.73018e-05
0.315631
7.71669e-05
0.000718917
0.000289933
0.00107711
8.38545e-05
0.306891
9.29504e-05
5.25103e-05
0.0280297
0.143863
0.129256
0.000110712
0.00315835
0.0681802
0.0137384
0.00233421
0.00112685
0.0143444
0.00195091
0.0969852
0.0333052
0.000816302
0.0778086
0.000879861
0.012239
0.000416301
0.141551
9.70442e-05
0.111028
0.511692
0.000424536
0.361411
0.000301212
0.175245
0.00203613
0.00011746
9.61085e-05
0.000105292
0.409312
0.00153494
0.00283602
0.0142863
0.24302
5.84528e-05
9.82853e-05
8.17426e-05
0.367317
9.11149e-05
0.000155724
9.61606e-05
0.0643786
0.0570749
8.38167e-05
6.80504e-05
0.103086
0.000154971
0.000444089
0.00142106
9.35561e-05
0.174648
0.00301831
0.0718956
0.00158911
0.0322428
0.0539092
0.220228
0.00147685
5.49724e-05
0.00521336
0.000909652
0.0125072
0.000116861
8.66989e-05
0.00254346
0.000239611
0.000418643
0.00966697
0.0139485
0.0364753
0.422246
0.411022
8.96303e-05
0.00612317
0.00220643
0.193618
0.387486
0.000220732
0.00792503
8.83061e-05
0.0476719
0.00124263
0.437715
0.100833
0.000148601
9.448e-05
0.00151598
0.000646836
0.000123617
0.339439
0.0428351
0.0042821
0.00604435
0.000267829
0.000161294
0.320816
7.7375e-05
0.151825
0.0325024
7.60771e-05
0.00954216
0.360106
6.44188e-05
5.94331e-05
6.68431e-05
0.397227
0.0649142
0.000970369
0.00163359
7.85318e-05
5.84097e-05
0.0114549
0.000943838
0.0416418
0.000977605
5.33847e-05
8.12632e-05
0.000618297
5.5267e-05
8.15719e-05
0.0025235
0.0145024
0.000188063
0.000968577
5.47885e-05
5.8354e-05
0.000265165
0.333976
5.87306e-05
0.00457422
0.183722
7.58108e-05
0.0350581
6.37453e-05
0.00756666
5.26287e-05
0.193014
8.83362e-05
0.000415095
0.00283104
0.0411281
0.00139288
5.63518e-05
0.064454
0.253971
0.00545311
8.03021e-05
0.433626
0.000741441
0.0665278
0.000490969
0.0974026
0.00026518
5.26083e-05
0.000522934
0.0778977
0.000107702
5.27044e-05
0.000590176
0.00767965
0.130987
0.0206106
0.000321752
0.00102228
0.00114351
0.00992313
0.181735
0.102206
0.00499893
0.00308597
0.0323228
0.00165196
0.0134892
0.00104364
0.00606134
0.0092645
0.0450479
0.150509
0.00607709
0.385717
0.0836231
0.0376177
0.000704656
0.18913
0.313822
0.129088
0.187723
0.000101144
0.00107918
0.0445348
0.00037466
0.0282855
0.269697
0.000314922
0.00618463
0.00895984
0.033324
0.000204952
0.139147
0.0203401
0.207631
0.281322
6.48387e-05
0.0349191
5.24449e-05
5.6942e-05
0.505199
0.0675233
0.435114
0.435481
0.407416
0.0237802
0.000167945
0.0177032
0.000324386
0.0118371
5.24432e-05
8.45572e-05
7.92151e-05
5.28806e-05
0.489092
0.000156978
5.24404e-05
0.186802
0.000212243
0.00585171
0.00194896
0.000156967
5.80967e-05
0.158892
0.00021866
0.000100088
5.83442e-05
7.47728e-05
0.00026291
0.00936207
0.141466
0.000256153
0.000650318
0.000610948
5.3471e-05
0.0442648
0.399022
0.000763769
0.00118341
0.38635
0.186458
0.00140733
0.000996416
0.000270028
0.000928243
0.0970274
0.0013344
5.62567e-05
8.33143e-05
0.393548
6.44213e-05
0.00057401
9.69625e-05
0.0157097
0.000281734
9.25603e-05
0.00743754
0.32823
0.634502
8.81533e-05
0.00453657
0.479145
0.138158
8.58489e-05
0.000184668
0.00031835
8.75546e-05
0.440247
6.85082e-05
0.000104829
0.167773
0.000216964
0.000149609
0.474886
0.000730707
0.000184948
0.000404379
8.92612e-05
0.0396746
0.00125627
0.0104176
7.82339e-05
6.33814e-05
0.00119931
0.202432
0.0108149
0.000157971
0.145516
0.00720607
0.0292972
0.0707223
0.000198838
0.000415755
0.00015648
0.205317
0.000217404
0.000563953
0.000256342
0.472353
0.326462
0.253618
0.267646
0.000541506
0.000931064
0.000435275
0.0392419
0.390161
0.000367337
0.000126819
9.63599e-05
0.00101488
7.69755e-05
9.40011e-05
9.83228e-05
0.000216134
0.00809305
0.00771957
0.486301
0.165878
0.387955
0.365358
0.000112394
9.98887e-05
0.349741
0.000312169
0.000993756
0.00122971
0.185014
0.11893
8.61707e-05
0.495192
0.00123209
0.00142623
0.322031
0.000773054
0.00218557
7.77839e-05
7.14167e-05
0.00614454
0.00263094
0.401856
0.000263336
8.57792e-05
0.000107315
7.52749e-05
0.362416
0.394399
5.52177e-05
0.104719
0.135554
0.332863
8.51473e-05
0.000617544
7.88216e-05
0.316525
9.17263e-05
0.000647198
0.000102481
0.00234082
0.000844647
0.0512515
0.000245444
6.00609e-05
0.114095
0.394741
0.122262
0.248567
0.241971
0.0010662
0.000792288
0.445904
0.00478948
0.00187044
0.242355
0.0893514
0.476107
0.011829
0.000140635
0.000365385
0.000234739
0.000236835
0.10226
0.000972529
0.000117707
0.000175439
0.000164524
0.000179781
0.438418
0.0108379
0.381997
0.329674
0.000387212
0.000604415
0.000957136
0.0094683
0.00478303
0.024769
0.422682
0.501978
0.114569
0.000429566
0.353363
0.296545
0.0126633
5.63367e-05
0.00043563
0.014869
0.000761986
7.03006e-05
0.000312054
0.000272007
5.50573e-05
0.000125893
0.000100206
0.00701086
0.51039
0.444054
0.249927
0.000112074
5.26723e-05
0.435028
0.365484
5.54645e-05
0.464248
0.518847
5.58895e-05
0.42053
0.000174705
7.34871e-05
0.101745
5.30662e-05
0.000730082
9.15144e-05
6.291e-05
0.339769
0.000478292
0.0463421
5.26131e-05
6.48758e-05
0.0678736
0.0613798
0.002246
0.427809
0.0634829
8.75046e-05
5.46035e-05
6.04773e-05
0.129086
0.0744526
0.310805
5.2712e-05
0.000656531
0.0011011
0.00022688
0.426397
0.000480529
0.111396
0.0757139
0.377988
0.450878
0.418981
0.0417841
8.34818e-05
0.0718871
0.0666722
0.0345676
0.0011073
0.0867227
0.254063
0.42276
0.198572
0.256585
0.403492
0.000135682
0.000900942
0.000501363
0.0160342
0.426614
0.288577
0.00708821
0.0310439
0.0578385
0.0178417
0.000684905
0.231755
0.0963673
0.00180001
0.000531124
0.48378
0.00515238
0.00267452
0.0580162
0.00033437
0.000931378
0.158064
5.57105e-05
0.501693
0.00824248
0.00150559
0.000303127
0.00174516
0.000572252
0.276268
0.000118021
0.0777779
0.000176234
0.265887
0.000175212
0.00016195
9.75456e-05
0.112749
0.411291
0.000121034
0.445619
0.000145847
0.426302
0.141701
5.96692e-05
0.00488823
5.98044e-05
0.000131221
0.000190015
0.314677
0.0908142
0.00014558
0.429283
0.00320647
0.000295932
0.000120163
0.000346899
6.55378e-05
0.000221241
5.62122e-05
0.000109979
0.12928
7.62837e-05
0.502707
0.000179001
6.8854e-05
5.65162e-05
0.00693466
0.00166841
0.000179931
0.000160692
0.00424678
9.81021e-05
0.498695
0.000149016
0.000493214
0.0001467
0.00421009
0.000104416
0.000135236
0.198636
0.000100985
0.319008
0.000105448
0.0813599
0.0148523
0.000118634
0.000101165
0.486868
0.000121098
0.000141396
0.00895747
0.391206
0.342895
0.000353362
5.58886e-05
0.00751519
0.00294012
0.183782
0.358279
0.422711
0.366155
0.187755
0.373479
5.69264e-05
0.00667508
0.441071
0.218466
0.000452621
0.0390323
0.000178078
0.00178761
0.00281175
0.0951186
0.215707
5.50753e-05
0.00318058
7.35338e-05
0.0114999
7.89182e-05
0.394458
8.81911e-05
0.102267
6.30343e-05
0.428901
0.000656186
0.0295297
0.427288
0.000349498
0.00441608
0.121026
0.00118671
5.51357e-05
0.400291
0.212231
0.232394
0.489497
0.000411991
0.143035
0.000568365
0.000442574
0.401707
7.51103e-05
0.000352297
0.000616034
0.00583529
0.318142
5.33699e-05
0.0522999
0.41254
0.00423387
0.0037422
0.245712
6.74333e-05
0.000177634
0.000500141
0.00352813
5.29933e-05
5.32829e-05
0.00996098
0.379767
0.0043994
0.00225932
0.0276764
0.0736993
5.65835e-05
0.000636673
0.377001
5.76654e-05
0.000215854
9.30798e-05
0.105106
0.000299425
0.00011485
0.000215394
0.0241608
0.0263905
0.430855
0.00013001
0.00113222
0.418979
0.000106981
0.049057
0.0174677
0.00582659
8.15247e-05
0.448397
0.00323241
0.000154445
0.199926
0.247697
0.000105899
7.63247e-05
0.000102954
0.409115
0.419055
0.0192658
0.0014857
0.00657917
0.000752473
0.0760586
5.24087e-05
0.00451669
0.393275
0.46857
0.0401424
0.0192622
0.453696
0.232499
0.416849
0.0310194
0.317733
0.0814814
0.000909143
0.000961673
0.00116946
0.000171362
0.0536908
0.135427
0.100202
0.108645
0.0371086
0.0487258
0.311877
0.0161079
0.000349878
0.0882248
0.39782
0.433462
0.485087
0.0211594
0.0489434
0.0257383
0.42487
0.00047767
0.156197
0.000744681
0.000598354
0.0511399
0.00255492
0.00670672
0.251683
0.0428568
7.28289e-05
0.0184859
0.000774195
7.66984e-05
0.0013488
0.286878
0.000680653
0.000118956
0.000183244
0.00483549
0.000312759
0.142411
0.00135349
0.000463907
0.0191714
0.000490193
0.396932
0.00773121
0.252011
0.000977221
0.000493214
0.109222
0.0270786
0.222151
9.44111e-05
0.00292317
0.460921
0.34705
7.61511e-05
0.000634686
0.0655949
0.387875
0.427089
9.34537e-05
0.00244502
0.237148
0.00995771
0.351438
0.430619
0.0031865
0.00907337
0.000348369
0.000481806
9.91794e-05
0.0142611
0.19087
0.156159
8.11584e-05
0.000176477
8.89091e-05
0.00405839
0.000283416
0.095853
9.12111e-05
0.000102153
6.06319e-05
0.0854755
0.00022803
7.7209e-05
0.00148532
0.011451
0.345344
0.0224395
8.95946e-05
0.362321
0.293306
0.0268077
0.357842
8.10428e-05
0.266706
0.323937
0.38346
0.30735
0.235096
0.428519
0.111272
0.362821
0.000154369
6.63582e-05
8.05218e-05
0.0684157
7.58614e-05
0.023303
0.402268
0.320519
0.0106263
0.373677
0.0369452
0.30387
0.391549
0.369709
0.0481436
0.0758131
0.000287346
9.54766e-05
0.0863479
0.035686
0.00135948
0.00023681
0.00865358
9.90641e-05
0.000105421
0.16825
0.396259
0.0697135
0.24728
0.0954352
0.000102607
9.87202e-05
0.0508709
0.00714843
0.000119868
0.000416688
0.402971
0.505735
5.48544e-05
0.43738
9.19232e-05
0.00578415
0.694826
0.000404799
9.41153e-05
0.000407849
5.36295e-05
9.01602e-05
0.111894
8.19831e-05
0.287449
6.18537e-05
0.437474
0.000222293
6.32075e-05
0.0247482
5.26662e-05
0.000116729
9.83418e-05
0.259335
0.092924
0.0453441
0.00157282
0.00521119
0.000647732
5.27516e-05
0.160601
0.00106645
0.000105519
0.0208453
5.43889e-05
0.00194424
0.337223
0.000893662
0.0450362
0.018574
6.12558e-05
0.00198818
0.331201
0.00119579
0.449669
0.000119919
9.48067e-05
0.00320325
7.20355e-05
8.46906e-05
0.33815
9.66274e-05
0.0263547
0.0013099
0.0437767
0.00141991
0.302646
0.069878
9.65834e-05
0.154785
0.0122712
0.00666042
0.195203
0.0459916
0.000106839
0.0792496
0.00187793
0.223743
5.28567e-05
0.169532
0.00283037
0.00576169
0.000117663
9.94093e-05
0.416114
0.12367
0.0597718
0.000675107
0.000447454
7.76771e-05
0.000110015
0.000220311
0.444406
0.11174
0.0669359
0.381242
0.0262445
0.0386162
0.000281018
0.068441
0.0272034
9.88253e-05
0.406252
0.000117418
0.000511347
0.000121625
0.000445791
0.00518846
0.0469389
0.417167
0.11567
0.030657
5.73633e-05
0.00097492
0.0329896
0.00106752
0.000923917
0.362573
7.79661e-05
0.0165017
0.0561233
0.417923
0.000999486
0.259345
0.0291581
0.000282546
0.000946928
0.0941956
0.439204
0.00227655
0.00016591
0.00144568
0.0325446
0.00468541
0.289759
0.42627
0.438077
0.000116918
0.142052
0.481596
0.00271102
0.0817147
0.00910439
0.000124744
0.100759
0.000133461
0.00249851
0.0369494
0.00025663
0.390376
0.311982
0.00368023
0.00018206
0.322024
0.000230236
8.5924e-05
0.000203321
6.94209e-05
0.00016858
0.128073
0.000343645
0.40971
0.0388374
0.0321303
0.000635063
0.000181722
0.085749
0.365925
0.0288125
6.5949e-05
0.000227382
0.000173848
0.000369413
0.000577494
0.000567778
0.187533
0.0076856
0.000267148
0.184948
0.000501324
0.155869
0.0866644
0.00524547
0.26875
0.0285079
0.476964
0.128547
0.0268648
0.00989192
0.437268
0.017905
0.439463
0.000456816
0.0132398
0.00285086
0.406187
0.000768477
0.00107439
0.0906132
0.116061
0.000101292
7.89449e-05
0.0125187
0.373672
0.49737
8.85784e-05
0.504327
0.00107653
0.432076
9.19934e-05
0.000956478
0.0390389
0.00138681
0.06708
0.00115647
9.50773e-05
0.00178637
0.0379275
0.37468
0.193228
5.52e-05
0.0968842
0.00507931
6.28031e-05
8.52657e-05
0.000129937
7.8824e-05
0.32314
0.000160464
0.174179
0.42033
0.0174151
0.440214
0.000236576
0.000733885
0.467031
0.498516
0.0120588
0.019834
0.498761
8.23536e-05
0.285683
0.0471274
0.41112
8.70543e-05
8.17118e-05
0.429159
0.00664013
8.79632e-05
9.28878e-05
0.363116
0.0169026
0.360771
0.000380668
0.00029822
1.1535
0.371591
0.329627
0.000234227
5.60796e-05
0.000161744
0.000105111
0.000669076
0.000107479
0.359183
0.00105423
0.000115333
8.52351e-05
0.00606514
0.000126869
0.000117307
0.297656
0.000102851
8.37482e-05
0.000320868
0.402069
0.000179056
0.241396
0.441718
0.496344
0.191633
0.000641992
0.231142
0.00037218
0.0045733
0.0136298
0.000122382
0.308944
0.000159779
0.29525
0.225497
0.216386
0.351919
0.0702489
0.000215521
0.000820381
0.0327017
0.00260489
0.000373919
0.0506696
0.0408903
0.0796323
0.0842404
0.0774056
0.146139
7.64005e-05
0.00441964
0.117833
0.00239516
0.0805775
0.000934376
0.0254491
0.0170661
0.000706951
0.000388784
9.35624e-05
0.123923
0.000469294
0.143348
0.000807891
0.0395604
0.00404775
0.026525
0.194192
0.141562
0.00011391
0.0690997
0.000261614
0.00045478
0.000319734
0.000131495
9.79113e-05
0.00111913
0.013254
0.00217366
0.414869
0.00123169
0.000497611
0.00111545
0.500809
0.488243
0.000210533
7.83319e-05
0.043151
0.114952
0.401863
0.000251549
8.19015e-05
0.00111208
8.07318e-05
0.107754
0.489923
0.0040278
0.00117206
0.00127653
0.00100726
0.174233
0.361519
0.00106205
0.41702
0.343127
0.0212949
0.00105393
8.15255e-05
8.41222e-05
0.00167303
0.112486
0.173793
0.0244298
0.0892118
0.000433951
0.0143339
0.00151066
0.429085
0.341704
0.0667271
6.33176e-05
7.66872e-05
0.150539
8.04026e-05
0.000441775
5.63206e-05
0.0484934
0.0604885
0.39298
0.000568557
0.254555
0.0742894
5.46928e-05
0.000410927
0.000810447
0.416487
0.101731
0.0100193
0.000706998
0.000757095
0.000148651
0.00080601
0.0195379
0.0254974
0.00818322
0.00270973
0.351146
0.355934
0.000154903
0.00878079
0.405971
0.000181114
0.108889
0.000167439
0.000183996
0.000169749
0.365139
0.00116418
0.172485
0.0050495
0.000372079
0.00867128
0.0456716
0.582814
0.000431897
0.000186094
0.00500767
0.097789
0.214014
0.0150519
0.00178255
0.0793544
0.00124335
0.00113146
0.0448413
0.429935
0.00899864
0.000201083
0.329571
0.31296
0.000504604
0.0017016
0.000170742
0.000156879
0.0001575
0.417778
0.30975
0.000491924
0.000599995
0.000157448
0.000198544
0.000140583
0.00087417
0.000144788
0.0173437
0.000131421
0.0230092
0.000101424
0.436542
0.370082
7.43698e-05
0.0472243
0.0176822
0.0327795
5.59739e-05
7.71297e-05
0.000159191
0.000204497
0.0380509
0.00415211
0.214123
0.412769
0.000878484
0.0087813
0.369526
0.163997
0.00379451
0.606516
9.64603e-05
0.0218421
0.000349877
5.25639e-05
0.000106645
0.00383407
0.304257
0.000383186
6.32825e-05
0.233654
0.112348
0.00270303
0.00382616
5.2467e-05
0.0847211
0.428103
0.000196937
0.00461326
0.127517
0.0004069
5.5768e-05
0.000109246
5.26625e-05
0.429958
0.0187399
0.338361
0.0275708
0.000394673
0.210755
0.00113367
0.0473433
0.0544625
0.000101408
0.0346655
0.2925
0.0488425
0.000538887
0.0242947
0.000504718
0.0413917
0.367189
9.7584e-05
0.0508053
0.00110892
7.59154e-05
0.00170242
0.00129844
0.0792105
0.000101258
0.000100355
0.000117578
0.0089996
6.58512e-05
0.0780597
0.0374072
7.49093e-05
8.3811e-05
6.98246e-05
0.0965436
0.0193189
0.000671222
6.32578e-05
0.0320599
9.66499e-05
0.0283763
0.000928859
0.086763
0.000132748
0.000138406
0.0117436
0.428027
0.000136406
0.128679
0.413493
0.33613
0.435133
0.00140996
0.000103027
0.000532222
0.00309237
0.0526166
0.029715
0.312337
0.0360486
0.000150471
0.00223831
0.095294
0.0264882
0.00112966
0.140093
0.000146709
0.0446451
0.0066932
0.000168298
0.00329596
0.00128735
0.38288
0.329764
0.0541447
0.0168218
0.29704
0.0261063
0.0210645
0.00529174
0.0262859
0.000789287
0.066837
0.000405026
0.000318697
0.144971
6.43832e-05
8.22295e-05
0.0804021
0.0168126
0.00693472
5.93448e-05
5.8427e-05
8.1128e-05
0.00606605
0.000940643
0.0389191
0.00127856
0.42795
7.21503e-05
7.96383e-05
0.0398837
0.091769
0.00330899
0.000814882
0.407261
0.300028
0.070388
0.000114164
0.000256723
0.0105847
0.001094
6.08844e-05
0.00316878
0.000100462
0.332057
9.42532e-05
0.0274218
0.259362
0.210795
0.171201
0.000202547
0.0151571
0.00275959
0.00112604
7.80367e-05
0.145391
8.62661e-05
0.116581
0.0160307
0.000108011
5.40179e-05
7.47635e-05
0.197823
6.4139e-05
5.50275e-05
0.474239
0.0655986
0.00760956
0.0318715
0.00279494
0.106632
6.27415e-05
0.0870892
0.320293
0.256068
0.0800941
0.000770185
5.52916e-05
0.000986656
0.0763074
7.54439e-05
0.000143847
6.30727e-05
0.00744559
8.27872e-05
0.000890833
0.0142173
0.178564
0.00153874
0.485213
0.00154535
0.444931
0.437858
0.278846
0.0018301
0.263197
0.22148
0.235658
0.000160115
0.0854408
0.000223981
0.0888202
0.000110798
0.00189815
0.277901
0.387819
0.00122037
8.11191e-05
0.0020954
0.382084
0.052315
7.85568e-05
6.20679e-05
5.78649e-05
0.448823
0.479355
0.13278
0.374481
0.0143414
0.00435368
0.35506
0.421861
0.250992
0.092537
0.000152975
0.0265196
0.000569372
0.378699
0.00940829
0.000133257
0.00015715
0.000200681
0.0712857
0.000111349
0.000897126
0.000118395
0.000804868
0.147092
0.000317261
0.000128064
0.210853
0.0321654
5.37781e-05
0.0867472
0.000468559
0.00292256
0.00351515
0.316319
0.150726
0.0289437
0.00441681
0.359879
0.500889
0.000929663
0.0252109
0.23168
0.000410625
0.000837029
0.000569944
0.000354627
0.0901662
0.00120889
0.150951
0.0915341
0.0841756
0.426676
0.000639067
0.000181744
0.0538536
0.00778934
5.55058e-05
0.000207506
0.000616083
0.00102524
0.0898106
0.00338494
0.390625
0.386059
0.0328451
0.000898697
0.000364778
0.000124183
0.000994698
0.270927
0.348092
0.000143486
0.0287185
0.327483
0.347979
5.64447e-05
0.295356
0.000806235
0.448967
8.18573e-05
7.37992e-05
0.0131628
0.00801935
0.0509316
0.0378266
0.281356
0.333367
9.13635e-05
0.401951
0.381767
0.397539
0.00484063
0.0700345
5.84939e-05
5.35383e-05
0.0865542
7.1327e-05
6.31188e-05
0.000273003
5.38999e-05
0.126536
9.14805e-05
9.48653e-05
6.04883e-05
0.143972
0.195136
0.18689
0.457213
0.000117862
0.000161499
0.347323
0.000103336
0.408166
0.427787
0.380574
0.00068485
0.00288335
0.0208188
0.000461112
0.207377
0.418681
0.116158
0.000632813
0.0613476
0.000180839
0.000381461
0.000132512
0.00266174
0.127202
0.11688
0.00510638
0.000125043
9.88222e-05
0.000394751
0.423841
0.000106374
0.0207817
0.0491914
0.00061376
0.0083155
8.79657e-05
0.00278918
0.000114313
9.39047e-05
0.0319196
9.27831e-05
0.00881995
0.000122354
0.000172172
0.456869
9.17973e-05
0.000319269
8.71008e-05
0.00618993
0.139527
0.198151
0.00103006
6.47599e-05
0.000130021
0.000102969
9.80323e-05
0.000201084
0.378251
0.303701
6.73592e-05
7.94652e-05
0.0436691
9.16756e-05
0.477919
0.000180306
0.00046058
0.000762206
8.39529e-05
0.000399642
0.423971
9.30728e-05
8.79749e-05
7.94177e-05
0.000101761
6.43383e-05
0.000207453
0.000464974
0.188402
0.000999294
0.0362938
0.0221056
0.307832
0.000879061
7.7269e-05
9.12231e-05
9.93866e-05
0.0488565
0.087928
0.0186187
0.00110762
0.13866
0.0327425
0.00481147
0.00373847
0.26433
0.416753
0.526792
0.0833899
0.00042831
7.34318e-05
5.71965e-05
0.263358
6.69852e-05
0.00409955
0.0132791
0.159996
0.219226
0.0171024
0.417116
0.00130007
0.0475974
0.000865309
9.12754e-05
5.37714e-05
7.78843e-05
6.22114e-05
0.00737228
0.163967
0.00055531
0.00233857
8.53489e-05
0.0106113
0.132383
0.0669415
6.2215e-05
0.000311702
0.167055
0.00259002
0.0443619
7.63109e-05
0.000888597
0.000123047
0.00112784
0.00177475
0.000266048
6.59962e-05
0.00327877
0.00131892
0.00307612
0.375872
0.0213574
0.000301306
0.000327897
0.000349203
0.0796367
0.027098
0.00953795
0.000108207
0.00161464
0.0434004
0.0187669
0.00112144
0.00880003
0.448623
0.0871204
0.0760166
0.0178355
0.253246
0.0598046
0.213384
8.43017e-05
0.000353315
0.382264
0.000213181
0.0433574
0.000108253
0.000219069
0.414105
0.000115465
0.0740294
0.00048135
0.000415114
0.000277369
0.00150197
0.000101063
0.0684789
0.432142
0.257772
0.3609
7.206e-05
5.99321e-05
0.0230246
0.000108076
0.0103738
0.0138619
0.0645025
0.0585882
0.000232677
0.349077
0.386239
0.0274229
0.000320446
0.000418013
0.284123
0.0406093
0.0100991
0.182217
0.134121
0.318375
8.72341e-05
0.0178522
0.000154752
0.00151463
0.146826
0.217664
0.000105875
0.000334983
0.296343
0.000219483
0.000714563
0.193172
0.19961
0.000159134
0.000564306
0.000158965
0.36648
0.0220979
0.000198447
0.430324
7.06602e-05
0.000253808
7.7801e-05
0.000156169
8.55812e-05
7.64433e-05
6.47304e-05
8.88504e-05
0.0723469
0.467669
0.0269872
0.000132274
0.00352895
7.90415e-05
0.000368028
0.000882229
0.144344
8.33204e-05
8.97054e-05
0.364751
0.00203556
8.69791e-05
8.97027e-05
0.213433
0.0179122
5.4051e-05
9.87622e-05
0.000100374
0.409212
0.517341
0.258019
0.00651261
0.0572668
0.015466
8.96457e-05
0.000602897
0.000202254
6.15863e-05
0.000291482
0.0719232
0.00261873
0.00126587
0.00188292
0.000264233
0.0193154
0.000244427
0.0518261
0.0030522
0.0237291
0.000235716
0.00107662
7.58291e-05
0.00155431
0.399219
8.45727e-05
8.45467e-05
0.144427
0.000165111
0.53782
0.000447746
8.98119e-05
0.168794
6.59003e-05
0.000285735
0.0058848
0.00468245
0.00014022
5.43473e-05
0.324781
8.01393e-05
5.38573e-05
0.0190333
0.00195045
7.59931e-05
0.000174794
0.03377
0.000825135
6.35779e-05
0.378111
0.000881332
5.56165e-05
0.304435
0.0276502
0.00386377
0.00727712
0.0179293
0.366955
0.417314
0.00218693
0.00192907
0.000311016
7.10912e-05
0.334732
0.00332177
0.291875
0.000757835
0.4044
0.344207
0.288252
6.38297e-05
0.00756725
0.0135404
0.0395889
0.411123
0.00378087
9.13502e-05
0.000250108
0.255779
5.37052e-05
0.0258535
0.000563998
0.174429
0.00137928
0.0602496
0.000289113
0.000188281
0.00434536
8.29064e-05
0.0014472
0.211667
0.000309752
0.38808
0.415872
0.00123065
0.000443964
0.00133729
0.225942
0.00150082
0.0360182
0.271831
0.00178125
0.000461476
0.0928761
0.000102071
0.00192079
0.000167097
6.158e-05
0.312989
0.000972934
0.0233968
0.0295385
9.73378e-05
9.10216e-05
0.0122232
0.000194375
0.000838202
0.00174385
9.81001e-05
5.29577e-05
0.00110911
0.0203597
8.7747e-05
0.222821
6.85327e-05
0.0207365
0.00122375
8.97627e-05
0.0191994
7.40908e-05
0.00160596
0.00702764
0.135148
0.000284066
0.00253317
0.0504405
0.000533798
0.230393
0.157376
0.0204001
0.0117977
0.000371345
0.000340352
0.000109563
0.000363756
0.43693
0.000909371
0.0280412
0.00102963
0.00650556
0.000184972
0.000519866
7.56283e-05
0.000344019
0.00196306
0.423494
0.140146
0.351717
0.172678
0.0252376
6.64979e-05
0.000676321
0.000565534
0.000167837
8.40934e-05
0.00769606
0.319456
0.0131259
0.000372588
9.37527e-05
0.0051293
9.87964e-05
7.34115e-05
0.000118502
0.000636465
0.00121391
0.507489
0.0169031
0.014926
7.18835e-05
0.000102514
0.331196
0.000332217
0.331732
0.0151156
0.00033825
0.00132418
0.000200359
0.39024
0.418875
0.351329
0.00081883
9.96884e-05
0.000476773
0.00916415
8.66436e-05
0.000186255
0.000578849
6.67151e-05
0.000173265
0.000927637
0.0119407
0.000741196
0.000343507
0.00555044
0.0468847
0.022192
0.00010119
0.000376635
0.000348893
0.00107255
0.000332403
0.000110434
7.78564e-05
0.00358065
5.39865e-05
0.000443746
0.00556338
0.24261
7.96666e-05
0.229518
0.0982171
0.00186268
7.68616e-05
7.88021e-05
0.000100131
5.25468e-05
0.091722
7.91932e-05
0.241311
7.82739e-05
0.404332
0.000142927
0.000569364
0.000650405
7.63872e-05
5.5248e-05
0.000874051
0.0428877
0.000733967
0.00200644
0.000593815
0.019783
0.000203936
0.00229494
0.0535168
0.000919676
0.0227346
0.000361905
0.00134068
0.00105325
0.045799
0.0519755
0.000182449
0.06187
0.0142411
0.398765
5.59354e-05
0.186575
0.032269
0.0388441
0.000494432
0.33251
0.330371
0.0621127
0.106331
0.478461
0.0182932
0.00523079
7.21868e-05
0.0042883
0.054967
6.40068e-05
0.00261282
0.000487116
0.000159965
5.32401e-05
0.150109
0.0308312
0.351859
0.230276
0.00225754
0.272742
7.80496e-05
0.367949
0.00615083
0.0167571
9.92559e-05
0.000224672
0.000414332
0.00108935
0.000115727
0.00017645
0.269318
0.00191012
0.00833961
0.0397141
0.1055
0.377205
0.0601941
0.354873
0.000156858
5.50933e-05
0.238187
5.26961e-05
5.71574e-05
0.000114323
0.000176414
0.0728686
0.00463464
0.0586532
0.00385706
0.00361644
0.443443
0.0993623
0.00181819
0.000177598
0.0135681
0.000507897
0.00438519
0.0386335
0.0927247
0.0400023
0.000365766
0.000125841
6.91076e-05