/*--------------------------------*- C++ -*----------------------------------*\
| =========                 |                                                 |
| \\      /  F ield         | OpenFOAM: The Open Source CFD Toolbox           |
|  \\    /   O peration     | Version:  v2012                                 |
|   \\  /    A nd           | Website:  www.openfoam.com                      |
|    \\/     M anipulation  |                                                 |
\*---------------------------------------------------------------------------*/
FoamFile
{
    version     2.0;
    format      ascii;
    class       volScalarField;
    location    "1.769857";
    object      T;
}
// * * * * * * * * * * * * * * * * * * * * * * * * * * * * * * * * * * * * * //

dimensions      [0 0 0 1 0 0 0];


internalField   nonuniform List<scalar> 
353077
(
295.15
295.15
295.15
295.15
295.153
295.153
295.15
295.15
295.153
295.15
295.15
295.15
307.981
295.15
295.15
295.175
295.15
304.454
295.15
295.15
309.795
295.15
295.15
300.572
295.15
295.15
295.15
295.15
295.15
295.15
295.15
295.15
297.238
295.15
295.15
295.872
296.002
295.15
295.15
295.15
295.15
295.15
295.15
295.15
295.15
295.15
295.15
295.15
295.15
300.825
295.15
295.15
295.15
295.15
295.15
295.15
295.15
295.15
295.966
295.15
295.15
295.15
295.54
295.15
311.269
295.15
295.15
295.15
303.47
295.15
295.15
295.075
295.105
295.15
295.007
295.15
295.15
308.279
311.275
295.645
295.128
295.15
307.328
301.757
295.039
295.15
295.15
295.15
295.15
311.2
310.816
295.743
295.15
295.176
295.15
295.15
295.15
295.15
295.15
295.15
295.15
295.15
295.15
295.151
295.928
295.15
295.15
295.182
295.15
295.15
295.15
295.15
295.15
295.149
295.15
295.15
295.942
310.361
295.15
295.15
295.15
295.15
295.149
295.139
295.151
295.15
295.15
295.15
295.15
295.151
295.136
295.15
295.151
295.15
295.15
295.15
295.68
295.15
295.15
295.15
294.611
295.152
295.15
295.15
294.636
294.806
295.15
295.176
294.801
310.896
294.741
294.656
295.251
295.681
295.107
295.15
295.15
295.15
295.15
295.362
295.15
295.15
295.15
295.15
295.15
295.168
296.15
295.15
295.15
295.15
295.15
295.025
295.375
295.15
295.15
295.154
295.15
295.15
298.32
295.15
295.15
295.15
295.151
295.15
295.15
295.15
295.15
295.192
301.562
295.15
295.575
295.15
295.15
295.152
311.017
310.888
295.935
295.153
295.152
295.158
295.633
310.459
295.282
295.15
295.156
295.15
295.222
295.15
296.491
295.15
295.15
295.141
295.306
295.15
295.145
295.15
295.082
307.382
295.15
295.361
308.187
295.15
295.264
295.15
295.15
295.15
295.252
310.521
295.384
295.197
295.173
295.15
295.15
295.22
295.058
295.15
295.15
295.377
295.15
295.224
295.15
295.174
295.122
295.15
295.15
295.15
295.15
295.15
303.911
295.15
295.15
295.15
295.15
295.312
301.452
295.543
295.411
295.15
295.439
295.15
295.15
295.353
310.726
296.516
295.308
295.64
295.511
295.154
295.423
295.478
295.236
310.913
295.265
295.15
297.612
295.151
298.041
295.15
307.627
295.15
309.729
307.87
295.194
295.15
295.15
297.041
295.13
295.15
296.671
295.15
295.149
307.74
295.15
295.15
295.146
296.439
295.15
295.15
295.15
296.326
302.821
307.623
295.15
306.051
295.15
296.036
295.148
295.746
295.554
296.419
295.15
295.15
295.15
295.15
309.981
311.083
296.022
310.738
295.759
296.288
311.167
295.613
310.949
295.25
295.15
311.638
294.671
295.484
295.591
297.039
295.681
295.8
295.172
294.779
309.918
294.583
300.272
295.15
294.82
311.079
295.105
295.15
295.671
294.674
295.741
294.782
295.15
295.904
295.15
295.15
295.15
298.81
309.262
296.013
310.91
295.15
295.15
295.15
295.833
295.926
296.202
295.479
304.082
295.479
300.01
295.974
295.15
295.061
295.158
301.149
295.892
309.182
310.212
310.855
295.15
295.15
295.15
295.15
295.15
295.154
295.15
295.436
295.76
295.479
296.1
295.556
295.15
295.464
295.433
310.278
295.15
295.15
295.15
294.964
295.149
296.42
309.419
295.151
295.338
295.381
295.15
295.711
295.15
295.155
295.022
296.455
295.15
295.151
295.15
296.27
295.251
295.15
295.15
295.15
295.15
304.087
295.15
295.16
295.15
310.584
295.15
311.547
295.568
295.15
295.151
295.15
295.15
306.06
309.365
310.742
295.243
306.727
295.15
295.612
310.818
295.15
295.15
308.805
296.038
306.765
295.134
295.162
295.085
295.07
295.151
295.15
296.113
295.091
295.919
295.145
295.15
295.15
303.398
295.126
295.15
295.15
308.308
296.392
295.15
310.503
303.16
295.57
295.015
310.632
295.932
296.217
296.349
295.518
295.15
295.15
296.034
295.857
295.163
296.264
296.237
296.182
295.15
295.15
295.157
296.063
295.15
296.816
295.15
295.15
295.227
295.15
299.689
295.205
295.15
307.848
295.192
296.651
296.627
295.15
311.454
295.15
295.504
309.519
295.653
295.15
295.293
295.15
295.154
311.065
306.954
295.063
295.15
295.149
296.306
295.083
309.183
295.154
309.233
295.15
295.15
311.119
311.192
295.15
295.15
296.579
296.492
294.867
296.289
306.097
295.15
311.127
295.15
309.414
295.15
295.248
296.858
295.187
295.15
310.088
295.153
295.15
296.775
296.044
295.979
295.15
296.346
295.112
296.659
296.346
295.15
295.156
295.184
304.829
298.991
295.28
302.17
295.284
295.151
295.411
295.138
295.15
295.147
311.522
295.15
310.136
295.863
304.838
295.15
295.663
295.151
295.15
311.149
294.943
294.947
296.813
308.919
295.15
295.15
295.15
310.961
295.15
295.159
295.15
300.237
295.548
295.15
295.151
305.322
295.11
295.187
295.583
295.15
309.723
295.147
307.275
295.059
298.365
295.149
308.794
295.149
295.15
295.055
295.687
295.15
295.15
295.15
295.281
295.334
295.694
295.393
295.042
306.921
311.041
310.973
295.15
295.146
295.629
306.084
310.714
295.716
295.15
295.15
295.151
295.666
310.924
307.394
295.149
295.15
295.231
295.292
295.15
310.833
300.84
295.147
295.147
295.15
295.191
310.593
295.15
306.755
295.149
295.15
295.22
310.4
295.15
295.15
295.15
311.051
295.151
295.154
295.218
295.15
295.15
295.272
295.241
298.542
295.154
295.15
295.15
295.32
295.15
295.15
295.453
299.943
295.15
295.771
295.15
295.15
295.15
309.984
295.15
295.15
308.073
295.15
295.785
295.15
295.942
295.15
311.226
295.15
295.187
295.15
295.813
295.152
295.15
295.956
308.905
295.147
295.15
311.08
295.462
301.65
295.197
294.996
295.396
295.15
295.56
307.52
295.15
295.15
295.645
295.15
304.837
297.391
295.456
295.573
294.843
295.334
295.568
295.079
295.153
295.275
298.405
295.147
296.615
294.892
295.171
295.186
294.984
311.032
295.167
311.012
294.961
294.869
295.496
307.715
309.397
307.619
295.177
295.15
295.647
294.968
295.643
294.861
309.046
295.152
295.757
295.154
298.556
296.565
307.999
295.155
306.879
310.315
295.15
295.15
295.15
295.15
311.682
295.177
310.978
311.329
310.926
295.197
295.182
295.15
295.633
296.551
295.15
295.15
295.15
295.15
311.25
295.217
295.15
306.64
295.292
295.279
295.148
295.155
295.15
309.13
295.157
295.15
295.15
295.15
295.232
295.129
305.63
295.252
295.15
296.597
295.15
295.149
310.761
295.081
295.117
310.812
309.156
295.088
295.086
296.244
295.072
295.144
295.07
295.15
295.15
310.282
295.15
295.083
295.15
298.842
295.15
295.15
295.15
310.013
295.015
295.15
295.14
311.377
310.053
295.15
295.15
295.895
295.15
311.223
295.15
295.152
306.825
295.15
295.15
311.514
295.214
295.156
295.182
295.15
295.144
295.317
295.231
295.15
295.15
295.183
307.622
296.837
295.15
307.776
295.115
305.925
306.814
295.15
295.198
295.15
311.233
295.15
295.172
296.127
311.293
310.19
309.29
310.268
295.174
295.161
295.184
299.834
311.455
295.146
295.147
295.15
295.197
295.151
295.15
295.15
296.622
295.897
295.164
311.26
295.175
310.477
310.969
295.151
295.15
310.253
295.176
295.15
295.15
308.038
303.967
295.15
311.419
295.149
295.15
311.534
295.278
295.15
295.15
295.15
295.25
295.225
310.433
295.161
295.15
295.15
295.15
310.365
310.603
295.15
303.234
295.272
311.107
295.15
294.9
295.15
295.146
295.15
295.551
295.305
295.192
295.02
295.173
295.15
295.15
295.173
310.939
311.232
308.78
310.373
294.941
294.936
311.429
295.164
295.15
307.85
303.817
311.684
298.557
295.15
296.397
296.629
296.651
304.179
294.86
295.15
296.575
296.494
295.15
311.001
296.093
310.662
311.502
295.192
294.924
295.15
296.143
295.649
299.348
311.183
311.559
295.172
295.15
310.411
311.331
295.134
295.15
295.529
295.15
295.211
295.15
295.119
295.13
295.15
295.44
295.263
295.15
311.576
311.169
309.585
295.302
295.15
311.328
310.526
295.15
311.598
311.541
295.15
310.945
295.153
295.15
304.289
295.15
295.155
295.208
295.15
295.15
295.152
295.116
295.15
295.15
300.549
296.152
295.231
311.371
304.967
295.15
295.15
295.15
306.602
302.481
311.448
295.15
295.523
296.22
295.433
310.915
295.213
308.152
295.05
310.321
311.234
311.277
295.252
295.15
307.649
307.745
295.755
295.15
295.592
295.15
311.107
295.966
310.757
311.184
295.15
295.504
295.15
295.831
311.362
295.958
295.897
307.336
300.857
306.993
295.15
308.199
296.536
295.149
296.631
311.598
295.852
296.423
307.503
295.203
296.715
310.503
295.15
311.424
295.973
295.15
295.132
295.334
295.248
308.397
295.209
295.15
295.163
308.47
295.17
295.17
295.15
306.381
310.769
295.161
311.4
295.147
311.316
295.15
295.15
295.147
295.15
295.154
295.141
309.404
295.606
295.142
311.322
295.15
295.396
295.174
295.478
295.15
295.15
295.15
295.137
306.917
295.15
311.602
295.342
295.15
295.15
295.919
295.478
295.15
295.15
295.726
295.15
311.559
295.15
295.152
295.15
295.184
295.151
295.15
307.596
295.15
311.16
295.151
295.144
298.152
295.154
295.152
311.284
295.244
295.218
295.424
310.81
311.185
295.15
295.15
295.044
295.459
310.049
311.041
310.778
310.217
306.61
311.141
295.15
295.397
311.094
308.532
295.565
295.15
295.154
295.152
295.154
303.94
306.394
295.15
295.151
295.15
295.153
295.15
311.123
295.15
307.596
295.15
311.348
295.15
295.152
311.152
295.18
295.15
295.15
295.15
295.15
311.097
309.064
307.88
311.615
295.152
305.298
295.184
295.151
310.766
295.15
295.108
295.152
295.15
309.999
295.15
304.524
310.524
295.151
295.15
309.953
295.15
295.16
295.153
295.125
295.15
295.15
296.093
310.568
295.587
295.151
298.601
295.351
295.15
295.15
310.331
295.15
295.152
295.15
295.146
295.812
295.15
295.153
295.149
298.011
311.092
295.15
295.347
310.839
295.15
300.779
295.153
295.087
295.15
311.137
295.152
295.15
307.385
310.527
295.154
295.15
295.158
310.929
311.378
295.154
295.152
295.285
295.15
305.765
295.15
295.774
310.716
311.128
305.148
295.15
311.086
307.854
311.175
295.15
311.085
295.15
295.245
295.377
295.15
295.15
300.437
307.89
295.553
306.225
295.18
304.78
310.02
297.013
295.735
305.515
310.904
311.18
311.38
304.716
295.15
299.038
311.158
295.15
305.081
295.162
295.15
295.15
295.15
295.091
310.857
295.121
295.15
295.15
295.167
295.15
295.159
309.278
295.16
295.15
295.162
295.937
296.086
295.023
295.152
295.105
295.472
295.201
310.956
295.15
307.829
295.119
295.221
295.615
298.23
308.306
295.153
295.15
311.366
310.948
295.15
295.126
301.279
311.294
310.857
295.15
295.15
308.73
295.15
311.277
310.919
295.691
295.15
295.15
295.15
295.15
295.15
307.375
306.488
295.15
295.15
295.15
295.15
295.15
303.493
295.15
295.15
295.15
303.472
295.15
295.15
295.15
295.15
310.286
299.542
295.15
311.353
309.514
295.151
310.886
295.15
309.884
310.792
310.367
310.754
308.696
310.583
307.549
311.328
295.15
295.15
295.15
308.218
295.15
297.28
310.953
311.065
296.186
310.515
298.526
310.758
311.333
310.457
295.148
295.151
295.15
295.15
295.076
305.195
295.15
295.15
295.15
295.15
295.15
294.486
310.521
295.154
295.154
295.079
295.15
295.15
295.156
295.15
295.155
295.156
310.994
311.634
295.15
311.275
295.15
295.148
295.151
295.188
295.15
295.15
295.15
295.15
305.587
295.15
296.293
295.15
311.353
295.151
295.15
295.158
295.15
295.15
295.15
311.276
295.148
295.601
295.15
295.149
296.124
295.15
306.295
295.15
295.15
297.218
295.15
295.15
309.657
295.163
299.379
295.177
295.15
295.15
311.585
295.153
311.208
295.16
295.16
295.15
295.15
295.154
311.109
295.15
295.37
295.034
295.15
295.15
311.265
295.15
295.238
305.593
295.149
295.149
307.531
303.233
295.15
295.086
295.15
308.131
295.15
295.149
295.342
295.884
295.15
295.15
311.17
295.15
302.554
295.849
295.149
295.152
295.15
295.15
311.438
305.661
300.604
310.987
295.149
301.765
295.15
295.15
295.07
295.15
311.077
295.163
295.15
295.15
295.15
295.897
303.634
310.978
307.273
302.167
295.15
295.113
295.15
295.049
295.062
310.884
295.15
299.162
301.038
311.203
295.235
308.073
298.268
295.148
295.088
307.852
311.195
295.149
295.175
295.15
295.257
295.179
296.663
295.15
311.194
295.188
305.646
311.09
295.154
295.667
295.146
295.163
303.61
295.159
295.425
295.149
295.161
311.151
310.748
295.234
295.154
311.202
295.154
295.15
295.152
295.15
295.155
305.495
295.187
310.901
295.401
295.149
295.299
295.165
295.15
309.834
298.948
295.15
295.157
295.151
295.199
295.755
294.927
295.229
297.011
296.599
308.693
294.967
306.755
295.14
295.15
308.57
295.15
311.562
295.253
295.15
295.216
295.431
297.756
311.212
295.059
295.248
295.149
311.241
295.083
295.144
295.187
295.204
295.15
295.158
296.367
310.826
311.336
295.2
311.63
295.152
311.339
295.171
295.062
295.15
295.15
295.15
295.15
295.182
295.148
295.15
311.179
310.993
295.15
295.15
295.15
295.15
295.15
295.153
295.15
309.962
295.15
306.185
310.778
296.849
311.429
296.793
295.156
311.475
311.513
295.15
295.142
311.515
295.157
295.15
295.149
311.193
295.168
295.15
311.267
295.149
295.179
295.208
310.718
295.15
310.725
297.144
295.149
295.15
311.122
309.542
295.148
295.15
295.159
295.15
295.283
295.15
310.327
295.153
295.15
295.15
295.121
295.16
295.155
309.227
295.15
295.151
295.479
311.121
295.151
295.15
311.29
311.494
295.15
295.134
295.148
295.137
295.69
295.152
295.166
310.676
295.148
311.061
308.286
295.148
309.949
302.29
295.145
295.126
295.152
295.34
295.15
300.184
295.154
306.506
295.15
302.742
306.518
295.15
295.06
307.362
295.15
308.133
295.274
305.525
295.148
295.15
295.072
295.15
303.509
295.15
311.015
295.163
305.627
295.636
305.459
307.888
295.15
295.149
306.576
295.15
295.15
295.15
295.151
295.15
295.032
296.58
295.129
310.63
295.096
295.15
295.046
311.47
311.649
295.15
295.15
295.148
295.316
311.416
295.15
295.151
295.083
295.15
309.421
311.504
295.223
295.15
295.072
295.157
311.08
310.282
294.931
310.75
310.347
295.15
295.106
295.15
295.151
295.461
308.415
311.141
307.401
295.071
295.15
295.107
295.174
311.275
309.47
295.108
295.15
295.15
295.15
295.15
295.131
295.15
294.9
295.361
310.665
295.164
309.165
295.366
295.15
295.152
295.145
311.339
295.148
295.149
295.146
295.147
295.15
295.146
295.169
295.15
295.149
294.963
309.666
310.668
297.257
295.098
310.99
295.15
295.146
295.149
295.15
295.149
295.095
295.15
306.73
295.146
295.514
295.151
300.149
295.124
295.15
295.153
294.828
305.074
309.373
297.005
294.908
295.641
295.098
295.149
295.15
311.525
295.144
295.15
309.831
309.131
295.15
295.152
295.15
295.13
295.15
311.153
309.699
295.15
295.152
295.15
295.15
295.151
295.139
295.154
295.515
295.152
295.15
295.15
311.087
310.71
295.15
295.064
294.948
295.149
295.15
295.15
295.141
295.15
295.069
295.136
307.299
311.11
295.153
295.132
310.517
295.15
295.557
295.176
295.15
302.212
296.235
295.15
295.15
295.127
311.045
295.15
295.15
308.493
304.566
295.64
295.144
295.15
295.272
311.197
295.15
295.604
295.484
295.175
295.15
295.15
295.15
311.582
295.166
311.271
295.176
296.744
308.233
295.859
295.188
306.791
295.15
295.678
311.259
295.351
295.158
305.404
295.152
295.15
311.33
295.15
299.775
295.15
295.15
295.148
295.15
295.151
295.15
295.15
295.15
295.078
295.15
295.15
295.158
295.15
295.15
295.15
303.092
295.15
295.218
295.15
302.131
295.15
301.632
295.677
303.786
295.149
295.15
295.136
311.54
295.151
295.15
311.21
311.176
311.362
295.132
295.15
295.16
295.138
295.151
295.142
309.706
295.444
297.02
295.148
303.049
295.14
295.318
295.614
295.154
295.163
295.144
295.151
296.675
295.358
310.074
310.228
302.626
301.136
311.155
297.997
302.459
295.14
302.727
295.147
295.378
295.15
295.151
309.035
295.15
295.15
295.148
295.148
295.15
295.15
295.15
295.15
295.151
295.246
304.588
295.15
311.153
295.15
295.15
295.15
295.176
295.133
294.834
310.838
311.118
302.309
295.15
295.151
294.927
295.156
295.15
295.15
295.15
310.942
295.15
295.15
309.443
307.61
311.193
295.15
295.15
295.15
295.2
295.15
306.536
295.15
305.811
295.149
295.154
295.15
295.15
307.713
295.15
295.15
311.254
295.15
295.15
295.15
294.792
295.146
295.15
295.15
309.91
309.858
295.15
295.151
295.15
295.249
305.457
295.15
295.153
295.15
295.191
295.15
295.15
295.15
311.2
295.159
311.211
295.151
311.336
310.873
308.847
295.149
309.582
296.021
308.688
295.15
308.02
295.731
295.734
295.163
295.214
311.369
295.143
295.214
295.15
295.211
310.359
295.309
295.15
295.15
295.15
311.153
311.579
309.299
310.508
295.175
294.551
311.196
311.329
308.369
305.689
295.15
295.162
295.104
310.43
296.403
295.15
295.156
295.15
295.472
295.151
295.13
295.15
295.05
306.003
295.15
295.15
306.692
295.135
295.15
295.154
295.081
296.114
295.15
310.661
305.86
295.149
295.179
310.504
294.849
295.105
295.489
309.207
295.064
295.152
295.082
295.15
296.695
295.151
307.944
307.271
295.373
310.749
295.151
295.177
295.406
295.065
295.15
295.189
295.158
295.149
302.66
295.088
311.302
310.591
295.103
295.136
295.321
295.167
295.149
310.371
311.424
295.173
298.065
310.484
310.097
295.15
295.135
295.15
311.005
295.15
295.15
295.146
295.149
295.174
295.15
310.953
310.061
295.15
311.178
310.852
311.261
295.15
295.151
295.15
295.15
307.718
295.15
295.15
295.151
295.15
311.18
295.15
295.15
295.15
306.646
310.53
307.68
311.515
295.15
295.15
310.284
295.196
310.41
311.179
310.336
295.15
295.159
307.354
295.152
307.991
311.211
308.328
295.152
307.875
295.149
295.176
295.159
295.169
295.144
304.967
295.503
295.152
295.15
295.196
311.335
295.15
295.15
295.15
295.216
295.145
295.15
295.723
295.317
295.15
298.35
295.15
296.184
295.144
295.15
311.151
295.15
296.524
295.15
295.726
295.15
295.151
295.15
295.15
295.15
295.15
295.15
295.15
310.611
295.046
295.15
295.15
295.152
295.15
311.288
295.15
295.181
295.15
295.15
295.147
311.314
295.15
295.15
295.15
295.15
295.15
295.15
295.15
294.949
295.151
298.605
295.151
309.88
295.165
295.15
295.15
295.15
305.416
306.052
295.344
295.327
307.237
305.342
296.431
295.552
309.135
310.781
295.15
306.234
295.136
295.15
295.15
295.151
295.15
294.817
295.151
310.679
310.033
295.152
311.422
295.15
295.15
295.15
295.15
295.15
295.15
295.15
295.15
295.161
295.12
295.561
295.15
297.218
296.259
300.501
295.15
295.15
295.151
295.15
296.032
295.15
295.15
295.651
295.655
295.15
295.15
295.15
295.15
295.939
295.15
310.366
294.72
295.15
295.15
296.049
302.601
294.732
295.15
295.15
295.15
299.202
295.15
295.15
294.74
311.071
308.047
307.829
307.162
295.153
307.763
308.728
295.15
296.356
310.92
296.868
307.46
295.15
295.676
310.861
295.15
295.154
295.223
295.15
295.15
295.15
295.15
295.802
311.21
309.338
310.577
295.15
295.15
295.188
295.15
295.15
295.15
295.15
295.367
295.15
309.955
311.413
295.153
296.214
296.069
310.485
295.15
295.419
308.403
295.192
310.971
295.151
295.507
296.408
295.373
295.267
307.984
295.153
295.15
311.628
296.964
295.15
306.999
295.15
295.16
295.176
295.15
295.161
295.477
295.167
311.341
295.15
296.79
295.151
295.15
295.15
295.15
295.15
295.15
295.15
311.154
297.916
295.15
295.205
295.15
295.77
295.155
296.066
295.15
295.15
310.29
295.153
295.15
295.15
309.035
295.279
295.15
295.15
295.15
311.08
311.632
295.15
295.811
295.15
295.152
295.156
295.156
295.152
295.15
295.15
300.961
295.216
295.205
295.15
295.15
295.255
295.15
295.148
295.88
300.239
295.155
295.138
295.15
295.146
310.872
295.15
295.15
295.151
295.15
295.152
295.17
295.15
307.433
295.15
295.15
295.147
295.152
295.153
295.15
295.704
295.15
295.15
295.15
295.154
295.15
295.15
299.325
295.151
295.15
310.686
295.15
295.15
310.679
295.021
295.153
295.134
295.229
310.947
311.271
295.149
295.154
295.216
295.15
311.682
295.226
295.251
295.368
310.806
310.877
310.874
295.15
295.15
296.743
295.482
310.937
295.15
295.15
296.757
308.469
295.15
295.183
296.862
308.115
295.149
295.328
295.15
295.152
295.153
295.15
295.15
295.15
296.124
310.611
310.733
295.149
295.565
295.151
295.144
295.151
295.232
308.281
295.15
296.016
295.054
295.15
295.15
295.146
295.15
311.256
295.151
295.456
295.15
295.15
295.15
295.15
295.192
295.151
295.151
295.15
295.15
295.151
295.153
295.15
295.15
295.15
295.139
295.155
295.15
295.516
295.15
295.305
295.934
305.508
295.158
295.399
295.219
295.185
295.246
295.65
295.407
295.281
295.167
295.15
295.927
295.15
311.212
295.246
296.105
295.154
295.15
295.15
295.191
295.15
295.129
295.142
310.908
296.024
311.324
295.15
295.061
295.15
295.135
295.146
295.15
295.15
295.057
310.244
295.15
295.151
295.15
295.156
295.15
295.15
295.151
295.153
295.155
311.616
295.153
295.156
295.15
295.15
309.652
295.151
311.118
295.15
295.151
295.308
295.15
311.014
311.268
309.961
295.102
295.15
295.151
295.15
295.15
295.165
295.153
295.15
295.15
295.16
296.512
295.153
295.15
295.15
300.534
300.085
295.15
295.298
295.151
295.201
295.203
295.15
295.15
295.15
295.15
295.198
295.15
308.275
295.15
308.441
295.248
295.229
295.15
295.15
295.522
295.15
307.712
295.15
309.792
295.15
311.155
295.15
295.168
295.155
295.146
295.15
295.265
307.322
295.157
295.15
295.155
295.15
295.15
295.15
307.023
295.159
294.844
295.162
295.144
295.169
299.457
295.15
297.284
295.094
294.876
295.146
295.15
306.732
295.15
295.15
295.15
309.85
309.535
295.145
295.15
311.314
296.911
295.662
295.15
295.11
300.261
295.15
295.15
295.15
295.15
295.15
295.148
295.122
310.665
308.821
295.405
309.338
295.152
310.506
295.881
295.152
295.15
296.99
295.15
295.147
295.174
295.15
311.277
295.114
295.15
295.15
303.437
310.836
295.352
311.47
295.147
295.15
309.34
295.15
295.15
295.15
295.139
295.15
296.01
295.15
295.131
295.15
311.025
295.15
295.23
295.741
295.133
295.202
295.008
295.148
295.15
295.15
295.229
295.15
295.15
310.622
310.242
310.331
304.336
295.219
311.497
295.151
308.128
295.15
295.15
295.149
295.39
295.15
295.148
295.15
311.231
305.666
295.15
295.12
295.051
295.15
295.15
309.714
295.15
295.15
295.15
310.763
311.347
295.147
295.152
295.234
295.15
295.143
295.15
295.153
295.322
295.151
295.15
295.146
295.149
311.413
295.15
295.15
306
295.151
307.822
310.611
310.454
295.15
295.15
295.148
295.15
310.562
310.948
295.151
295.15
295.15
295.151
310.943
295.15
310.021
310.744
305.939
295.15
295.149
296.284
295.15
295.15
310.133
295.153
295.139
295.15
295.149
295.15
295.145
304.313
295.15
295.15
295.15
295.15
295.15
296.714
295.462
295.164
295.15
295.15
300.661
309.915
295.15
295.15
295.15
295.253
295.15
295.15
295.15
295.15
295.152
311.359
310.953
295.15
295.15
295.15
295.15
295.15
295.15
295.249
310.175
311.585
295.153
295.15
295.535
295.048
295.078
295.15
310.244
302.576
311.119
295.156
295.159
295.15
297.342
295.15
295.022
295.108
295.155
295.152
295.142
295.15
295.156
304.615
295.145
295.101
295.163
295.101
311.206
310.644
295.049
310.011
295.142
295.15
295.155
310.839
305.731
295.167
295.127
310.134
295.15
295.15
295.153
296.981
295.176
295.15
295.15
295.151
295.151
295.15
295.15
295.15
295.15
295.15
295.151
295.15
296.908
295.854
295.15
295.15
295.15
295.066
309.399
295.15
295.797
295.15
307.534
295.267
296.741
295.138
295.15
295.15
295.15
295.15
295.573
295.15
295.242
295.15
295.15
295.151
295.15
295.14
295.15
295.632
295.15
295.151
295.15
295.15
295.15
295.15
295.138
295.151
295.15
295.151
295.147
295.15
295.15
295.15
295.151
295.15
307.506
295.151
304.959
295.154
295.15
295.184
295.222
295.15
295.147
295.15
294.974
295.15
295.15
306.892
295.15
295.149
295.15
295.15
295.874
295.15
295.15
295.15
295.15
295.15
295.15
295.186
295.181
295.151
295.152
298.18
295.15
295.15
310.499
295.15
295.15
295.15
295.15
303.759
308.874
295.15
295.15
295.15
309.216
295.15
311.241
295.15
295.15
295.15
307.463
295.15
295.15
311.094
311.42
296.288
311.092
296.41
295.15
302.817
295.151
295.15
295.15
295.238
295.259
306.646
305.684
295.154
308.351
295.166
311.733
295.15
295.15
295.15
297.11
294.99
302.292
295.15
299.663
295.86
295.15
309.186
295.549
311.167
311.131
295.154
295.15
311.128
295.965
303.611
297.994
309.677
295.15
295.15
295.149
295.15
295.151
311.106
302.453
308.194
295.191
295.15
303.186
295.246
295.15
295.15
295.156
295.164
295.174
295.223
295.188
295.154
311.536
295.151
295.15
311.079
295.151
295.151
295.355
295.124
311.092
311.15
309.448
311.172
295.15
296.854
310.518
295.15
295.151
295.156
295.151
311.092
309.775
309.554
295.15
295.15
299.188
311.542
295.15
305.598
304.905
295.151
295.151
295.203
295.583
305.606
311.618
295.253
295.66
295.154
295.399
307.346
295.15
307.169
310.667
295.776
297.459
305.963
295.306
295.15
296.864
295.153
295.149
295.223
308.034
310.947
295.192
309.284
295.15
305.936
295.15
295.264
308.914
311.25
297.233
310.261
295.881
297.834
295.15
295.159
295.195
295.244
295.741
310.706
305.348
303.458
295.93
308.075
295.15
302.117
311.445
311.074
295.156
309.917
295.151
295.151
295.214
295.151
307.805
295.068
296.123
295.363
295.094
295.15
295.154
311.375
295.153
311.116
296.133
295.086
299.629
295.15
295.151
310.52
295.153
296.227
295.15
295.15
295.15
295.15
295.15
295.15
295.846
295.15
295.153
311.19
295.15
295.152
295.151
309.875
295.739
296.009
295.15
295.357
306.679
295.153
310.873
295.217
295.15
295.15
295.15
301.294
295.15
308.405
295.15
295.15
295.16
295.151
295.333
310.208
295.15
295.153
295.15
309.514
295.151
295.15
295.196
295.156
302.224
295.155
295.15
295.165
295.149
295.15
311.094
295.152
310.816
295.687
295.15
295.91
295.154
295.165
295.15
295.15
295.15
295.151
295.15
295.581
295.15
295.15
295.151
295.15
295.155
295.15
295.15
295.15
295.15
295.151
295.152
305.633
295.15
304.438
301.242
309.221
295.151
303.106
308.268
295.15
295.15
296.841
305.497
306.255
295.15
294.975
310.824
294.736
310.406
295.15
295.085
295.15
295.153
311.44
294.94
295.15
295.161
295.823
295.176
311.67
295.15
295.15
295.173
307.517
295.151
295.152
308.316
307.58
295.15
298.894
295.15
295.15
295.145
295.193
295.15
295.15
295.15
295.019
295.14
295.963
295.15
295.15
295.15
295.15
295.15
295.15
295.155
295.15
295.15
295.15
310.657
295.15
295.15
307.942
295.15
295.15
295.15
295.151
295.15
309.965
295.15
295.15
311.065
295.15
295.152
310.997
310.911
296.315
295.15
295.15
311.435
295.152
295.299
295.151
295.151
311.589
295.15
310.921
295.15
295.15
310.345
295.15
311.194
295.151
295.098
295.15
295.137
295.15
308.946
295.15
303.599
304.732
295.15
295.15
311.598
307.38
295.15
310.397
295.15
308.763
295.15
311.296
311.137
311.475
295.15
295.15
301.791
301.458
295.141
295.15
295.15
295.15
309.497
310.918
303.694
304.056
295.141
310.637
295.15
308.633
295.15
295.15
303.613
307.437
311.697
310.696
310.188
295.15
295.142
295.15
295.15
311.153
295.15
310.884
311.158
295.151
311.251
310.693
295.15
294.709
311.489
297.238
298.995
295.15
295.15
310.465
295.15
300.64
294.99
294.781
307.532
311.409
294.809
295.055
305.335
310.22
310.958
307.663
294.956
294.817
295.15
294.927
295.149
295.141
295.136
294.884
303.278
295.024
298.825
295.149
311.354
303.017
295.146
295.839
302.623
295.15
295.282
295.15
310.467
309.164
310.776
310.998
310.856
295.15
295.15
308.378
295.142
295.15
295.15
305.133
295.15
311.4
310.662
295.15
295.161
303.658
295.15
295.148
295.149
310.841
295.15
295.152
295.15
295.148
295.151
311.606
295.15
311.016
301.059
295.514
296.239
304.808
295.15
295.133
295.15
295.15
295.212
295.151
295.325
311.383
295.15
310.203
295.15
296.28
295.15
295.258
295.878
295.15
295.158
308.18
295.15
295.15
295.15
295.152
295.15
295.154
301.713
308.611
303.141
295.15
295.15
295.152
310.656
295.15
295.15
295.15
295.15
295.15
295.15
310.88
295.15
295.389
295.15
295.91
295.15
311.015
306.736
295.167
295.15
310.959
308.209
311.112
311.045
310.928
311.281
301.038
310.804
295.147
295.15
295.162
311.242
295.174
295.36
306.298
295.15
295.15
295.207
295.15
297.887
295.15
293.883
307.235
295.15
306.814
295.15
295.15
295.15
295.15
311.157
295.15
295.15
295.15
295.226
295.15
295.15
295.15
295.15
295.15
295.152
295.15
295.15
295.762
295.15
295.188
295.181
295.15
307.92
295.15
295.494
310.854
310.974
295.229
295.15
304.48
295.89
295.15
295.154
295.15
295.391
295.151
295.15
295.15
310.857
295.15
295.15
310.981
295.15
298.792
295.151
295.15
295.15
310.717
295.15
295.15
295.204
295.15
308.053
311.453
295.155
310.675
295.15
295.15
295.15
295.15
311.543
295.152
295.15
295.15
295.15
311.212
295.15
295.151
295.15
295.15
310.609
298.291
295.15
311.199
295.154
295.15
297.728
310.912
295.15
295.15
311.323
295.15
295.427
295.15
311.124
310.357
295.156
295.28
295.149
295.151
295.127
295.151
295.148
295.728
297.168
295.241
295.26
295.15
295.151
308.133
310.762
311.072
295.15
310.399
311.214
296.921
310.859
295.15
311.339
295.162
295.258
295.15
295.171
310.829
308.742
295.15
295.145
295.151
295.15
311.31
295.15
295.158
295.15
295.415
295.398
295.15
296.408
295.15
295.151
294.705
295.149
295.149
295.152
295.141
295.147
295.005
295.067
295.15
295.205
295.15
295.15
311.459
310.534
295.15
295.15
311.173
295.149
295.091
302.048
295.15
295.15
310.312
295.15
295.23
310.402
295.745
302.04
295.161
295.15
295.176
295.15
308.259
302.186
295.15
295.15
295.154
295.15
294.727
295.15
311.142
295.149
294.725
295.154
295.152
295.15
295.151
295.149
310.822
295.151
295.212
295.063
295.103
295.132
295.153
295.133
295.143
295.15
295.15
295.152
295.621
295.149
295.142
310.819
308.109
295.15
295.15
295.368
295.15
295.15
295.238
295.152
295.15
308.388
295.15
295.152
295.17
295.152
295.12
295.112
295.149
295.151
295.15
295.149
295.759
295.15
295.15
295.151
295.151
295.158
306.98
298.852
295.153
295.153
311.224
311.559
310.873
295.15
295.162
295.202
295.151
295.566
295.15
295.151
295.705
295.273
295.15
295.165
295.151
295.15
295.15
295.16
295.728
295.209
295.41
295.529
295.15
295.15
295.426
309.114
296.261
295.378
311.565
308.867
295.15
311.147
295.248
295.151
295.151
295.156
295.15
295.151
295.143
298.77
295.152
311.308
295.15
295.15
295.15
303.418
295.15
295.15
296.172
295.15
296.254
295.15
310.342
311.513
295.15
295.15
300.87
310.698
295.246
295.15
295.151
310.715
310.257
303.72
310.256
295.15
295.15
309.703
310.846
311.475
295.163
310.616
295.15
295.413
295.15
295.221
311.35
295.15
304.262
295.15
309.358
295.15
311.003
295.15
304.992
295.161
295.153
295.15
295.15
311.739
295.228
300.155
296.286
295.15
295.15
295.15
311.445
295.15
311.238
305.213
295.149
295.15