/*--------------------------------*- C++ -*----------------------------------*\
| =========                 |                                                 |
| \\      /  F ield         | OpenFOAM: The Open Source CFD Toolbox           |
|  \\    /   O peration     | Version:  v2012                                 |
|   \\  /    A nd           | Website:  www.openfoam.com                      |
|    \\/     M anipulation  |                                                 |
\*---------------------------------------------------------------------------*/
FoamFile
{
    version     2.0;
    format      ascii;
    class       volScalarField;
    location    "1";
    object      alphat;
}
// * * * * * * * * * * * * * * * * * * * * * * * * * * * * * * * * * * * * * //

dimensions      [1 -1 -1 0 0 0 0];


internalField   nonuniform List<scalar> 
108993
(
0.000114517
0.000108791
8.52855e-05
0.000118768
0.000119029
6.70206e-05
0.00010402
9.5556e-05
0.000117649
0.000109899
0.000124797
0.000123815
9.87155e-05
9.98176e-05
0.000105808
8.919e-05
9.35468e-05
0.000106847
0.000100503
0.00010708
8.71341e-05
0.000112424
9.59404e-05
0.000117963
0.000115083
0.000107085
0.000101805
0.000114141
0.000126735
7.76685e-05
0.000127023
0.000122509
0.000103111
0.000120543
0.000100687
0.000119053
0.000103074
0.000117821
9.68018e-05
0.000105643
0.000133235
0.000126471
0.00010895
0.000117242
0.000106604
7.93023e-05
0.000103125
0.000104442
0.000136632
0.000116468
0.000118847
0.000131345
0.000111121
0.000114444
0.000121791
0.000125557
0.000107297
0.000111352
9.45316e-05
0.000127594
0.000113637
0.000115622
0.000112738
0.000100931
0.000109016
0.000127287
9.3101e-05
0.000122733
0.000132288
0.00011706
0.000110652
0.000106473
0.000117702
0.000114084
0.000103068
0.000125217
9.58166e-05
0.000135375
0.000112629
0.000112254
0.000108344
0.000102774
9.9769e-05
9.7868e-05
0.000126917
0.000106821
0.000127266
0.000103656
0.000109071
0.000123261
0.000110616
9.59493e-05
0.000122956
8.78011e-05
0.000118829
0.000117086
9.54357e-05
8.42898e-05
9.33858e-05
9.83287e-05
0.000121034
0.000135328
0.000132176
0.000126861
9.03703e-05
0.000121353
0.000126853
0.000129009
0.000124254
0.000127592
9.95556e-05
0.000109651
0.000108258
0.000115291
0.000117382
0.0001003
0.000102023
9.55768e-05
0.000132001
0.000113832
0.000111872
0.000105982
0.000107012
7.83765e-05
0.000104775
0.000113497
0.000117559
0.000103308
9.62588e-05
0.00012138
0.000104357
0.000123106
0.000129215
9.66799e-05
0.000113059
9.66807e-05
0.000107727
0.000102083
0.000100573
0.000108374
0.000100159
9.16366e-05
0.000108363
0.000109688
0.000120495
0.00011623
9.55162e-05
9.42579e-05
0.000108901
0.000110675
0.000111441
9.41495e-05
9.36572e-05
0.00012107
0.000115812
0.000110562
0.000134618
0.000118741
0.000116151
0.000113475
0.000122856
0.000105538
0.00012868
0.000106736
0.00010913
0.000120724
0.000109711
9.54312e-05
9.41717e-05
0.000130635
0.000120748
0.000120428
0.000120621
0.000101376
0.000110217
0.000107489
0.000102308
0.000102023
0.000122719
9.93905e-05
0.000102808
9.62482e-05
0.00010573
3.86537e-05
0.000132613
0.000116583
0.000107301
0.000116112
0.000116331
4.30997e-05
0.000116195
0.000115017
0.000101925
0.000114672
0.000123309
0.000110068
0.000128975
0.000117812
0.000125829
4.77294e-05
0.000122522
0.000122009
8.6796e-05
9.83609e-05
0.00011954
8.93766e-05
0.000104185
0.000117105
0.000110319
0.000187651
9.8568e-05
0.000106705
9.64405e-05
0.000105882
9.37435e-05
8.21323e-05
0.000102587
0.000114752
0.000108483
0.000137813
0.000113625
0.00010013
0.000121247
0.000109112
0.000102703
8.99951e-05
0.000102447
0.000127199
0.000120867
9.51754e-05
5.97023e-05
0.000116198
9.65175e-05
9.55938e-05
0.000106859
8.91945e-05
0.000120286
0.000105434
0.000107547
0.000105524
7.85552e-05
0.000122142
7.70493e-05
0.000113315
0.000125714
0.00010766
0.000117824
0.000110447
0.000115307
0.000126024
9.89132e-05
0.000113621
0.000110132
0.000121497
0.000116524
0.000112417
0.000114426
0.000111271
0.000129621
7.65397e-05
0.000113964
9.76633e-05
0.00012707
9.50957e-05
8.56238e-05
0.000113425
0.000126202
0.000131885
7.61727e-05
0.000112214
8.32265e-05
9.03013e-05
0.000116478
0.000150585
0.000106969
0.000107347
0.000121671
0.000133396
0.000125352
0.000112947
0.000122006
9.05115e-05
7.87471e-05
0.00010392
0.000120041
0.00011509
8.98302e-05
0.0001212
0.000129683
6.83547e-05
0.000110964
9.6696e-05
0.000125007
0.000119987
0.00011441
9.58995e-05
0.000129427
0.000112009
9.60104e-05
6.86868e-05
9.85675e-05
9.36941e-05
0.000122547
9.10502e-05
0.000117517
9.4146e-05
8.46659e-05
9.96329e-05
8.83971e-05
0.00012588
0.000123313
0.000122862
9.92085e-05
0.000108233
0.000124925
0.000100651
8.21655e-05
0.000102627
0.000107176
0.000132963
0.000108356
8.40424e-05
8.39315e-05
7.99991e-05
9.31673e-05
0.000106719
0.00010752
0.000128492
0.000105955
0.000128533
0.000136032
0.000133003
0.000104681
0.000108402
0.000109161
0.00010626
0.000115217
0.000118741
0.000117565
0.000104058
0.000110194
0.0001085
0.000104136
0.000121207
0.000104761
0.000108468
0.000103031
0.000102364
0.000100656
9.67082e-05
0.000118583
8.11763e-05
8.10512e-05
0.00010742
0.000105981
0.000112814
0.000103035
7.54881e-05
0.000105876
6.81306e-05
0.000136489
0.000103272
8.92222e-05
0.000108385
0.000115533
0.000123032
0.00012151
0.000103266
0.000109495
0.000120322
9.47334e-05
0.000121306
9.89371e-05
0.000113713
0.000138843
0.000118084
0.000125508
0.000150969
9.29273e-05
0.000120776
8.65519e-05
9.0453e-05
0.000126446
9.61415e-05
0.000108859
7.79783e-05
0.000104576
9.38177e-05
0.000108416
0.000126077
9.50394e-05
8.20425e-05
8.89455e-05
9.91757e-05
9.52409e-05
0.000154789
0.000257122
0.000114563
0.000107598
0.000111567
0.000152115
0.000107484
9.39719e-05
0.000115296
0.000118361
8.30956e-05
0.000103398
7.37039e-05
0.000105776
0.000166759
0.000105618
0.00010193
9.36009e-05
0.000100988
0.000116292
0.000127369
0.0001157
0.000104132
6.8467e-05
0.000106245
0.000230156
0.00011065
0.000110537
8.85126e-05
0.000122278
7.88977e-05
0.000120077
8.27873e-05
9.62734e-05
7.73717e-05
0.00033451
0.000111007
0.000224255
0.000105477
0.000106108
0.000115096
0.000102937
0.000118847
0.000124999
0.000102858
0.000108263
0.000106363
0.000130298
7.83047e-05
0.000119069
0.000125352
0.000101079
0.000124603
0.0001082
8.45014e-05
0.00011118
0.000113797
0.000123901
0.000144605
0.000135811
0.000112195
0.000112316
0.000108063
0.00013446
0.000100634
7.01625e-05
0.000111011
7.40432e-05
0.000115411
0.000111665
8.76843e-05
9.45249e-05
8.97135e-05
8.25756e-05
0.000100313
7.45759e-05
0.000120029
0.000117759
0.000107911
0.000127506
0.000100311
9.70804e-05
0.000123618
0.000100793
0.000120956
0.000102461
0.000132223
0.000126983
0.000120929
7.88533e-05
9.99437e-05
9.98078e-05
9.05377e-05
0.000105147
0.000125807
0.000113191
0.000124054
9.37574e-05
9.51241e-05
0.00010919
7.98736e-05
9.47581e-05
0.000121553
8.84882e-05
0.000109586
9.16887e-05
0.000113759
9.03028e-05
0.000114286
0.000120647
0.000120174
0.000109386
0.000100101
0.000100266
0.000111733
0.000119595
0.00010463
0.000122137
0.00012845
0.000113072
0.000105932
9.72551e-05
0.000112128
0.000130001
0.000135097
8.31465e-05
8.14771e-05
0.000115253
0.000119333
0.000129487
0.000106281
0.000107541
0.000119124
0.000108514
0.00012781
9.10181e-05
0.000105459
9.87911e-05
0.00010398
0.000106392
0.00012825
0.000104737
0.00011919
0.000124146
0.000104119
9.09638e-05
0.000113386
0.000110366
0.00012846
0.000127891
0.000108863
9.16269e-05
0.000100538
0.000125865
9.10521e-05
9.95019e-05
9.53208e-05
9.47202e-05
0.000135454
0.000125336
9.13223e-05
0.000121535
0.000130072
0.000308228
9.63235e-05
0.000116519
0.000114548
9.36236e-05
0.000121098
7.96338e-05
0.000102555
0.000119543
9.6074e-05
0.000148479
0.000124658
0.000119518
8.77103e-05
0.000447507
8.38972e-05
0.000112997
0.000113599
0.000132196
8.1152e-05
9.45888e-05
0.000114113
0.000128251
0.0001049
0.00012977
0.000138501
0.000119957
9.75555e-05
9.97054e-05
8.41648e-05
0.000126679
8.35878e-05
0.000134318
8.68902e-05
0.000107031
0.000111997
0.000113385
0.000102713
0.000138702
8.88655e-05
0.000128809
0.000107546
0.000118395
0.000128034
0.000219293
0.000101101
9.82233e-05
8.09126e-05
0.000201672
8.60931e-05
0.00011147
0.000118767
0.000105203
0.000118216
0.000131665
0.000109676
0.000138528
0.000106009
0.000119927
8.60991e-05
9.77106e-05
0.000100798
0.000132775
0.000112573
0.000119865
0.000121264
0.000126795
0.000126209
0.000134899
0.000117414
0.00010005
0.000117086
0.00012096
0.000111935
0.000118992
9.6285e-05
0.000108396
9.73963e-05
8.78653e-05
0.000129173
0.000105866
0.000121938
0.000107547
0.000119622
0.000105307
0.000100888
9.65813e-05
0.000102273
0.000113171
9.5001e-05
0.000103018
0.000108729
0.000115965
9.66008e-05
0.00010724
7.21929e-05
0.000126328
0.000102801
8.51497e-05
6.33768e-05
0.00010887
6.83507e-05
5.49736e-05
0.000114582
8.77962e-05
0.000110423
9.90666e-05
0.00011477
9.12618e-05
0.00012288
9.27264e-05
0.000102182
0.000133198
0.000135568
0.000128722
8.17391e-05
7.51718e-05
0.000132943
0.000100832
7.5267e-05
0.000115019
0.000125981
0.00010561
0.000123232
0.00011002
0.000117192
7.31981e-05
0.000152864
0.000132848
7.26288e-05
7.54039e-05
0.00010983
0.000101485
0.000111956
0.000119903
9.30017e-05
0.000114124
9.3209e-05
8.98172e-05
9.68022e-05
9.11488e-05
0.000110408
0.000115651
0.000102083
6.86166e-05
7.31797e-05
0.00014044
7.63223e-05
0.000118286
9.96425e-05
0.00011891
0.000101138
0.000116448
0.000119656
0.0001148
0.000124972
0.000107001
8.99056e-05
9.83251e-05
0.000113713
8.66435e-05
0.000123229
0.000124663
0.000118636
0.000142732
9.89211e-05
0.000100822
0.00011869
0.000123342
9.15006e-05
9.74892e-05
0.000120136
0.000109441
0.00011416
9.17195e-05
0.000102067
0.000121055
9.28516e-05
0.000132206
9.46822e-05
0.000118813
0.000136002
0.000100692
8.65187e-05
0.000118005
0.000105493
0.000123526
0.000126694
0.000131213
0.00014511
0.000120187
0.000155594
0.000122783
8.49689e-05
9.71397e-05
0.000138089
8.75687e-05
0.000100291
9.13925e-05
6.36172e-05
0.000136864
0.000102716
0.000109235
0.000109348
0.000139973
0.000110446
7.72462e-05
0.000123035
0.00012165
9.56401e-05
0.000118473
0.000118739
0.000104438
0.000112787
0.000118072
0.000123177
0.000106581
0.000136564
0.00011104
0.000130426
8.23515e-05
0.0001046
7.27057e-05
9.08417e-05
0.000119037
0.000109527
0.000111114
9.96589e-05
0.000113392
9.11053e-05
0.000118203
7.69535e-05
0.000113844
9.73686e-05
0.000110136
0.000110526
0.000127322
0.000141024
0.00010174
0.000125402
8.3862e-05
0.000124184
0.00010085
0.000104654
0.000124229
0.0001071
0.000119165
0.000123797
0.00011899
0.000109002
9.77062e-05
0.000101607
9.83664e-05
0.000115348
0.000115942
8.70611e-05
9.40151e-05
0.000105615
8.94896e-05
0.000112972
0.000119386
9.14905e-05
0.000112875
9.00547e-05
0.000111849
0.000119457
0.000120962
0.000100158
8.77225e-05
9.57125e-05
9.3774e-05
0.000136886
0.000111284
0.000119439
0.00011464
0.000141282
0.000100971
8.80023e-05
0.000106777
8.57616e-05
0.000134776
9.86461e-05
9.26975e-05
0.000128854
0.000105319
0.000135208
0.000114394
0.000114669
0.00011168
0.000123616
0.000205556
0.000115313
0.000343228
0.000114952
0.000144671
0.000120475
0.000115425
7.0176e-05
0.000106639
0.000114374
0.000142848
7.15526e-05
7.9895e-05
0.000105399
0.00011188
7.60293e-05
0.000106402
0.000122872
0.000111885
8.31151e-05
0.00012478
9.99872e-05
9.68687e-05
0.000105569
9.78216e-05
7.40544e-05
0.000107985
0.00010065
0.000122883
8.22606e-05
0.000105601
8.6687e-05
6.32876e-05
7.76418e-05
9.66395e-05
0.000114174
0.00010239
8.38852e-05
0.000108295
0.000134818
0.00010445
0.000106174
0.000111081
0.00010455
8.75303e-05
0.000103228
0.000106275
9.49222e-05
0.000106812
0.000116888
9.6769e-05
0.000140984
0.000110705
0.00010606
0.000104436
8.1795e-05
0.000125499
0.000114379
0.000119596
9.87315e-05
8.87422e-05
0.000125685
0.000112648
0.000116393
0.000147763
0.000129221
0.000101551
9.45797e-05
9.70752e-05
0.000117313
0.000132278
0.000102142
9.13578e-05
0.000124414
0.000105608
0.000127881
0.000118964
0.000127462
9.10528e-05
0.000139655
0.000111814
7.45597e-05
9.5901e-05
9.09979e-05
9.54238e-05
0.000122454
0.00014537
9.93411e-05
0.000105599
9.74325e-05
0.000121006
7.25228e-05
9.24886e-05
0.000103756
9.45365e-05
0.000104881
0.000114189
9.33678e-05
8.39631e-05
9.93822e-05
0.000127911
0.000109199
0.000115857
0.000120005
9.51646e-05
0.000116711
0.000105562
0.000110317
0.000103286
0.00010728
8.07926e-05
0.000118838
0.000100331
0.000101235
9.86395e-05
0.000128219
8.00931e-05
0.000100954
0.000123193
0.000116199
0.000108933
0.000106948
8.3553e-05
0.000112078
8.5659e-05
0.000110934
8.4296e-05
8.99573e-05
0.000106167
0.000119968
0.000116551
8.89526e-05
0.000101754
0.000100171
0.000103662
8.91246e-05
0.000106194
0.000117089
0.00011651
0.000104474
0.000126685
0.00010884
9.33045e-05
0.000124029
0.000114046
9.25798e-05
0.000101098
8.7781e-05
0.000103809
8.59206e-05
0.000118384
8.90347e-05
0.000104994
9.47019e-05
0.000107063
9.87508e-05
0.000114205
0.000148785
0.000108929
9.99508e-05
9.16317e-05
0.000101521
0.000111537
0.000111526
0.000124158
6.43203e-05
0.000115519
0.000115982
0.000102105
0.000100116
0.000114278
8.29979e-05
8.7314e-05
0.000105198
0.000110954
0.000110557
0.000124467
0.000127038
0.000111545
0.000109163
0.000134045
0.000105204
0.000128959
0.000124207
0.000121624
0.000123106
0.000132527
0.000160385
0.000120394
0.000112636
0.000126902
0.000106347
9.51019e-05
0.000114829
0.00011595
0.000126933
0.000113364
9.60547e-05
9.33538e-05
0.000102449
0.000105173
0.000103584
0.000110699
0.000105851
0.000120498
0.000111917
7.84509e-05
0.000114726
0.000110406
0.00010173
8.21416e-05
0.000127755
0.000135095
0.000105681
0.000111052
0.000132804
0.000139985
0.000104609
0.000103829
9.37541e-05
9.73758e-05
9.80372e-05
0.000134138
9.78213e-05
0.00015222
0.000128171
0.000135949
8.79993e-05
7.47955e-05
0.000107519
9.1785e-05
0.000104688
0.000112279
9.6847e-05
9.41746e-05
0.000117304
0.000119832
0.000123212
9.07398e-05
0.000120142
0.000108279
9.52223e-05
0.000109766
0.000125028
0.00012164
7.74846e-05
0.000141088
0.000120293
9.2193e-05
0.00010461
0.000111492
0.000114434
0.000160553
0.000145003
0.000104737
0.000103946
0.000132106
0.000603099
8.83791e-05
9.7092e-05
0.000124067
9.32851e-05
0.000127923
0.000107737
7.40351e-05
8.79446e-05
0.000130702
0.000151231
8.62954e-05
0.000116849
0.00013005
0.000106677
0.000104847
0.000110986
7.78837e-05
0.000103233
7.12858e-05
0.000122015
0.000119255
0.00010152
0.000120261
8.78971e-05
0.000111586
0.000104003
0.000107985
0.000119704
0.000102234
0.000121775
7.93298e-05
0.000115135
0.000131527
0.00012374
0.000121136
0.000122488
8.97021e-05
7.34773e-05
0.000118414
0.000136329
0.000102768
0.00010696
0.000120877
0.000116223
0.000122578
0.000134436
8.70898e-05
0.000112271
7.77212e-05
0.000108933
9.77324e-05
7.10876e-05
0.000123492
8.56225e-05
9.97634e-05
0.00013337
0.000101007
8.44659e-05
0.000101259
0.000105971
0.000106493
0.000100379
0.00012961
0.000106211
8.02897e-05
9.38111e-05
0.000115202
0.000123583
0.000113356
8.49321e-05
8.18763e-05
8.28672e-05
0.000107644
0.000109596
0.000108356
9.95082e-05
0.000135969
9.24965e-05
0.000103359
0.000100157
0.000118745
6.68527e-05
0.000100913
8.50595e-05
0.000133528
0.000106141
0.000128142
0.000105158
0.000120136
0.000112381
0.000105643
0.00010927
8.57407e-05
0.000120382
7.89649e-05
9.79924e-05
0.000108171
0.000100852
0.000117391
0.000100131
0.000120698
9.65451e-05
0.000115966
9.68858e-05
0.000107678
0.000110835
0.000104702
0.00010111
0.000120312
0.00011148
9.71483e-05
0.000104938
8.16946e-05
0.000118925
0.000109868
0.000111142
0.000130024
9.90225e-05
0.000319622
0.000122003
9.4594e-05
0.000120088
9.35266e-05
0.000143515
9.64318e-05
0.000105318
7.20057e-05
0.000106427
0.000153241
0.000140856
0.000131936
0.000114372
9.29329e-05
0.000112749
0.000142222
0.000132919
0.000132306
0.000120224
0.000111871
0.000118193
0.000107272
0.000100921
9.80002e-05
0.000117853
0.000125291
0.000123059
9.22113e-05
0.000120748
0.00010516
8.13196e-05
0.000127558
0.000115728
0.00010634
0.000110433
9.94148e-05
0.000124249
7.07214e-05
6.22726e-05
6.58214e-05
9.82537e-05
7.07495e-05
0.000126335
6.44291e-05
7.82964e-05
7.88708e-05
8.66925e-05
0.000107715
0.000102261
0.000131662
0.000120788
9.9569e-05
9.47944e-05
9.84388e-05
0.000110638
0.000105141
0.000129769
0.000130621
0.000135463
9.84155e-05
0.000128089
9.35385e-05
8.8021e-05
0.000115161
0.0001176
5.21745e-05
9.56201e-05
0.000102182
0.000107532
0.000118022
0.000100908
0.000114299
0.000113101
0.000113921
9.3234e-05
0.00011089
0.000100558
0.000113238
0.000117961
9.1234e-05
0.000137523
0.000116439
0.000125941
0.000110986
0.000137151
0.000106228
9.87053e-05
0.000125247
0.000113564
8.46655e-05
0.000114371
0.000124121
0.000106239
0.000109704
0.000132594
8.87526e-05
0.000109409
0.000113115
0.000115532
0.000145017
9.96653e-05
0.000122653
0.000118977
0.000114039
0.000108485
0.000121915
8.83291e-05
9.58314e-05
0.000123013
0.000112016
0.000110997
0.000140024
9.52642e-05
0.000103477
0.000101445
0.000112069
0.000123704
0.000116375
0.000128735
0.000128328
0.000141784
0.000100842
0.000127351
0.000111717
0.000100543
0.000122344
8.8007e-05
7.94759e-05
9.79281e-05
0.000109467
0.000118418
0.000132971
0.000119111
0.000113765
0.000106224
8.86594e-05
9.62754e-05
0.000121833
0.000112729
0.000107913
9.85104e-05
0.000136554
0.000121596
0.000100236
0.000107544
0.000105499
0.000102001
0.000116116
9.95895e-05
0.000126043
9.80949e-05
0.000100379
0.000111958
0.000120713
0.000104833
9.40241e-05
0.000100921
0.000122797
0.000105056
9.16347e-05
0.000138004
0.000127621
0.000121088
0.000101724
8.35523e-05
0.000116122
0.000114257
9.00769e-05
0.000109965
8.21055e-05
0.00014608
0.000115376
0.000127118
0.000117461
5.58376e-05
0.000102502
9.09114e-05
8.18124e-05
0.000128537
8.7242e-05
7.28513e-05
0.000113204
9.84594e-05
7.10587e-05
9.18647e-05
0.000117275
0.000119243
0.000109429
7.75743e-05
0.000107968
0.000130429
9.99269e-05
0.000111547
0.000103542
0.000115721
0.00010167
8.63058e-05
9.93452e-05
0.000127214
0.000119938
8.17622e-05
0.000100491
9.91387e-05
0.000132771
0.000101976
9.81347e-05
8.92338e-05
9.93771e-05
0.000119342
0.00011531
9.43528e-05
0.000104592
0.000105168
0.000101216
9.7801e-05
8.54248e-05
0.000104516
0.000111684
8.55567e-05
9.88286e-05
0.000128396
4.93396e-05
0.000105916
0.0001306
9.48149e-05
0.000138413
0.000118335
0.000105322
0.000103718
0.000100165
0.000108591
0.000108615
0.00010126
8.2258e-05
0.000117029
0.000105559
0.000133802
0.000122599
0.00012216
0.000117043
0.000107243
0.000102581
0.000106037
0.000100824
8.66285e-05
0.00010941
0.000105437
0.000106131
0.000107971
0.000123182
0.00012496
0.000109637
7.41805e-05
0.000116217
9.74741e-05
0.000111612
0.000109598
7.16052e-05
0.000114154
7.41486e-05
0.000103381
0.000102393
7.1929e-05
0.000106111
0.000105711
9.99293e-05
0.000111297
0.000126043
0.00012137
0.000132016
9.91961e-05
0.000108088
0.000114613
0.000142175
0.000133105
0.000116864
9.88387e-05
0.000101426
0.000120151
0.000126526
0.000129797
0.000122026
9.58372e-05
0.000124567
0.000107601
0.000105983
0.000131132
8.91684e-05
0.00011216
8.64909e-05
0.000109619
9.75805e-05
8.53355e-05
0.00011482
0.000101523
0.000112245
0.000117435
9.52785e-05
8.71336e-05
0.000106603
9.43856e-05
9.20106e-05
8.52669e-05
0.000123653
8.73596e-05
0.00010334
8.74124e-05
7.87988e-05
9.74528e-05
7.15745e-05
0.000105868
0.000112231
0.000104505
9.60632e-05
0.000141138
0.000115891
0.000123392
8.9713e-05
0.000111275
9.32987e-05
0.000123856
0.00013986
8.10625e-05
9.65589e-05
0.00011348
7.39827e-05
7.40135e-05
8.11721e-05
0.000116413
0.000109747
0.000113437
9.96116e-05
0.000112227
0.000101632
8.06139e-05
0.00011633
8.21854e-05
0.000110902
0.000101741
9.87029e-05
0.000132585
0.000107909
0.000103799
9.17197e-05
7.50267e-05
0.000129666
0.000108638
8.27621e-05
0.000124126
0.000108177
8.33467e-05
8.35268e-05
8.02131e-05
7.43995e-05
0.000106234
9.64094e-05
9.83709e-05
0.000134567
0.000114949
0.00012707
5.98531e-05
0.000102943
9.42674e-05
0.000126179
0.000101148
0.000111296
7.96371e-05
0.000113179
0.000108172
9.86217e-05
0.000141045
0.00011299
0.000107136
0.00010728
0.000120525
9.20262e-05
8.32346e-05
0.000130807
0.000113307
0.000107935
0.00011509
0.000118494
8.18464e-05
0.000103018
9.99563e-05
0.000115339
7.46268e-05
0.000105389
0.000112763
0.000119853
0.00012215
0.000111075
6.82283e-05
8.98012e-05
0.000120154
0.000121481
0.000134346
7.84294e-05
0.000121483
8.01301e-05
9.52505e-05
8.89542e-05
0.000109311
0.000102881
8.01566e-05
0.000117211
0.000101159
8.23122e-05
9.76012e-05
0.000105958
0.00010124
0.000129595
9.49779e-05
9.05536e-05
9.59127e-05
0.000112384
0.000110241
0.000102638
0.000104671
0.000107378
0.000111971
0.000101665
8.80146e-05
0.000101708
0.000122279
0.000114475
7.60031e-05
8.04533e-05
9.06066e-05
0.000107735
0.000102997
9.23999e-05
0.00012108
9.42586e-05
0.000122436
7.27493e-05
0.000118287
8.95176e-05
0.000115018
0.000117362
9.15783e-05
9.91241e-05
0.000137782
9.74995e-05
0.000141398
0.000107825
7.36927e-05
0.000118276
0.00012613
0.00011154
9.50324e-05
0.000163489
7.99184e-05
0.000121638
8.51528e-05
8.13803e-05
0.000107257
9.36909e-05
7.57066e-05
0.00010237
0.000104967
8.25985e-05
9.2556e-05
6.67587e-05
7.34401e-05
7.38675e-05
8.85193e-05
0.000104281
0.000111594
0.000111328
8.70779e-05
0.000108815
0.000100582
0.000107695
0.000138731
0.000129685
0.000116411
0.000111836
9.76249e-05
8.74151e-05
0.00011393
0.000105552
0.00013298
0.000127289
0.000105015
9.86246e-05
0.000109479
8.24086e-05
0.000106287
0.000107016
0.000113191
7.20485e-05
0.000102602
9.59549e-05
0.000111378
0.000116288
0.000102351
9.9413e-05
8.99541e-05
9.81139e-05
0.000107608
9.08672e-05
0.000107689
9.19914e-05
0.000130797
9.37614e-05
0.00010484
0.000119354
0.000120586
0.000109419
0.000106003
9.43888e-05
0.000109553
9.91399e-05
9.81601e-05
7.98735e-05
8.07495e-05
0.000108582
7.3949e-05
7.86408e-05
0.000213083
0.000125205
0.00012497
8.27322e-05
0.000136585
0.000109147
0.0001226
0.00010413
9.6776e-05
0.000115711
9.52806e-05
9.818e-05
0.000123394
0.000106704
0.000136811
0.000109049
0.000112369
0.000102211
0.000122637
0.000105698
0.000101815
0.000120165
0.000108113
0.000105977
0.000107548
0.000105499
0.000107846
0.0001071
9.84291e-05
6.95924e-05
8.71849e-05
0.00012694
9.6581e-05
0.000114077
0.000125211
0.000102037
0.000116847
9.5069e-05
0.000118019
9.87369e-05
0.000111543
0.000117681
0.000111009
0.000108632
0.00010612
7.64865e-05
9.44528e-05
0.000109859
7.71648e-05
0.000111944
0.000107198
8.79623e-05
9.54294e-05
0.000122301
0.000120189
0.000147323
0.000105031
0.000138382
5.66846e-05
7.73547e-05
0.000114782
0.000108222
0.000103108
0.000109908
0.000122303
0.000102959
7.53317e-05
0.000118869
0.000138558
0.000119808
0.00013482
0.000105921
0.000113982
0.000110161
0.000121004
0.000116611
0.000114137
0.00011996
0.000115386
0.000116871
0.000104711
0.000114467
0.000100376
0.000111795
0.000117256
0.00010667
7.08071e-05
8.32307e-05
0.000101151
0.00011521
0.000101877
0.000111196
0.00010625
0.000118134
6.61967e-05
9.76353e-05
0.000115361
8.53183e-05
0.000100475
0.000137419
9.31756e-05
0.000107029
0.00013805
7.59567e-05
9.23252e-05
7.41586e-05
9.60761e-05
0.000127382
0.000123304
9.54022e-05
8.62705e-05
0.000105201
0.000141443
0.000121738
0.000113173
0.000127182
8.93711e-05
0.00011266
0.000144804
7.53396e-05
0.000113447
0.000102498
0.000140455
8.91163e-05
0.000104995
8.28038e-05
0.000117295
0.000120602
0.000112979
0.0001399
0.000102063
0.000103382
0.000112533
0.000122225
0.000107909
8.48518e-05
0.000115495
0.000101904
0.000102781
9.73373e-05
0.000111235
0.000107466
9.56069e-05
8.69122e-05
0.000114295
8.77856e-05
0.000121075
0.000134643
0.0001322
0.000109347
0.000111297
0.000107022
0.000131952
0.000108794
0.000109993
0.000108595
8.52013e-05
0.000103125
0.000112736
9.98292e-05
9.9085e-05
0.000110924
9.58621e-05
0.000100284
9.55453e-05
8.49563e-05
0.00010205
0.000144454
8.28601e-05
0.000101323
9.5384e-05
0.000106094
0.000123157
0.00012351
0.000116213
9.79484e-05
0.000107066
0.000100166
9.68204e-05
0.000102763
9.87914e-05
9.45945e-05
0.000109178
0.00011668
9.95951e-05
9.3957e-05
9.56584e-05
0.000103987
0.000118994
9.25946e-05
9.79127e-05
9.39195e-05
0.000100212
0.000103805
9.06596e-05
0.00010248
0.000110636
8.59598e-05
9.9536e-05
0.000122413
0.000121864
0.000100154
0.000111019
9.14492e-05
6.55403e-05
0.000132407
9.41769e-05
0.000106332
9.60825e-05
0.000106779
0.000136708
0.000111764
0.000128032
0.000137459
0.000108467
0.000102574
0.000111214
9.06967e-05
0.000102966
9.24658e-05
8.46735e-05
8.24814e-05
0.000118861
0.000103522
0.000106951
0.000122687
0.000120234
8.67771e-05
9.82616e-05
9.38361e-05
8.50798e-05
0.00010251
0.000116473
9.77985e-05
9.98622e-05
0.000103647
0.00010845
0.000110906
8.76161e-05
0.000101902
0.000119588
0.000100014
0.000107794
0.000110309
0.000111113
8.28815e-05
0.000104779
0.000135979
9.70426e-05
8.49009e-05
9.67954e-05
0.000105682
8.97819e-05
0.000110504
0.000101526
0.000113939
0.000100344
8.61665e-05
0.000101969
0.000109901
6.31528e-05
9.6702e-05
0.000100291
0.000100289
8.98284e-05
0.000125531
0.00010524
0.000110549
0.000107823
9.82434e-05
0.000132572
9.77389e-05
9.82481e-05
9.14928e-05
0.000111206
7.89233e-05
0.000133637
9.70479e-05
0.000113617
8.50934e-05
0.000111976
8.38059e-05
9.30872e-05
0.00012254
0.000106937
0.000108355
0.000112234
8.63093e-05
9.28793e-05
0.000136715
9.22528e-05
8.36846e-05
9.96127e-05
0.000113727
0.000110251
0.000108039
0.000112047
0.000110901
0.000108544
0.000101114
0.000115024
0.000108861
0.000130012
0.000104406
0.000109594
0.000111764
9.89096e-05
0.000114568
0.000110665
0.000116041
0.000102697
0.000117565
0.000107544
0.000109901
0.000121771
0.000100769
0.000102737
0.000110223
0.000154216
8.85636e-05
0.000116053
0.000127779
0.000138963
0.000111325
0.000126624
0.000122596
0.000118753
0.000104416
0.000118028
7.29728e-05
0.000138666
0.000127246
0.000118069
0.000102418
0.00011155
0.000129381
8.79068e-05
0.00012035
6.89115e-05
0.000116855
0.000122689
8.3874e-05
0.000104612
9.56615e-05
0.000140502
9.96465e-05
0.000100955
5.74395e-05
8.5013e-05
0.00011855
8.16666e-05
9.46144e-05
9.6141e-05
9.04016e-05
8.52908e-05
0.000107508
0.000123606
0.000106211
0.00013121
0.000130293
0.000119941
0.000110497
0.000104754
8.85027e-05
0.000121222
9.43711e-05
0.000150347
8.80362e-05
0.000103292
0.000121727
8.09511e-05
9.67024e-05
9.00686e-05
8.71606e-05
9.96307e-05
8.54763e-05
0.00011107
0.000134398
0.000136247
8.13986e-05
9.28449e-05
8.97151e-05
0.000116295
7.50064e-05
8.42868e-05
0.000105453
0.00010963
0.000118709
0.000127268
0.000103783
0.000146281
0.000107551
0.000116876
0.000119935
0.000104382
0.000106304
0.000120984
9.75487e-05
0.000103967
9.50285e-05
0.000104012
0.000109863
0.000134105
8.13175e-05
0.0001195
9.73331e-05
8.09541e-05
0.000103028
8.73897e-05
7.88675e-05
0.000107066
9.97589e-05
8.18906e-05
0.0001029
9.96328e-05
0.000111119
8.03703e-05
0.000117586
0.000112127
8.44893e-05
0.00012285
0.000114887
9.5656e-05
0.000124501
0.000113938
8.54855e-05
0.000122586
0.000100767
8.18575e-05
0.000104299
0.000119951
0.000101008
8.18689e-05
0.000123274
0.000114086
0.000112218
0.00011852
0.000111486
0.000111693
0.000125888
9.21737e-05
0.000133181
0.00011526
9.42035e-05
0.000128872
0.000136569
0.000115964
0.000119173
0.000104809
0.00012092
9.9654e-05
0.000119644
8.85665e-05
0.000105665
0.000113195
0.000113637
0.000113178
0.000114275
0.000123218
0.000115657
8.08295e-05
0.000121695
0.000117706
0.000152733
0.000109038
0.000101138
0.000122498
6.12352e-05
0.000100453
9.86412e-05
0.000113786
8.07322e-05
0.000114081
0.000132316
0.00010192
0.000111444
0.000123784
6.94293e-05
0.000105267
0.000111331
0.000113147
0.000105863
0.000141669
0.000132153
6.79691e-05
0.000147933
0.000127915
6.63968e-05
0.00010326
0.000122308
6.33468e-05
0.000111975
0.000101247
0.00012694
0.000113916
9.29377e-05
0.000103572
6.58736e-05
0.000118371
0.00011345
6.61788e-05
0.000134291
0.000116219
7.17908e-05
0.000120091
0.000114245
0.000139671
0.000109587
0.000111202
0.000113004
0.00010478
7.90865e-05
0.000119594
0.000111859
7.9659e-05
0.000117283
0.000115802
7.53183e-05
9.91031e-05
0.000103889
9.9745e-05
0.000110063
0.000108258
0.000106614
0.000144776
0.000102493
0.000118624
0.00011209
7.00667e-05
0.000134328
0.000112402
7.05894e-05
9.49821e-05
7.50305e-05
0.000134597
0.000102338
0.00013383
0.000110755
6.55363e-05
0.000126393
7.00299e-05
0.000121374
0.000105619
7.15348e-05
0.000118261
0.000112166
0.000117343
7.64486e-05
0.00012298
0.000111238
6.87149e-05
9.68382e-05
0.000105479
7.56385e-05
7.11542e-05
0.000104929
0.000135215
8.52939e-05
0.000106654
6.89929e-05
0.000100629
0.000139553
0.000125872
8.0865e-05
0.000118074
8.9306e-05
7.21234e-05
0.000127312
0.000108906
0.000123065
7.04899e-05
0.000118582
0.0001181
0.000115369
0.000126806
0.00011152
0.000122782
6.7575e-05
0.000104426
0.000135879
7.59903e-05
7.36722e-05
0.000109543
0.000104481
0.000102123
0.000122581
0.000166747
6.3477e-05
9.97846e-05
9.1353e-05
0.000110984
7.34551e-05
6.47792e-05
6.60342e-05
0.00010917
6.88522e-05
0.000108162
7.2008e-05
7.43758e-05
0.000107311
0.000116272
0.000116321
0.000113113
7.79446e-05
0.000125677
0.000116252
0.000122709
0.000104596
0.000105727
0.000140326
0.000138069
0.000121304
0.000115788
7.96752e-05
0.00013252
0.000122141
0.000126457
0.000122085
6.81518e-05
6.80516e-05
9.86784e-05
0.000108042
0.000100061
0.000110593
9.28305e-05
0.000106874
9.94922e-05
8.14607e-05
8.30055e-05
9.74809e-05
7.69628e-05
0.000109751
0.000102896
0.000110648
8.21334e-05
0.000105218
0.000113688
0.00010121
0.000114004
0.000116324
0.000106905
7.52734e-05
0.000121738
0.000111935
9.9465e-05
0.000135381
7.15581e-05
0.000108085
0.000116562
0.000112903
9.55904e-05
0.000113339
0.0001042
0.000102551
8.13817e-05
0.000103383
0.000125822
0.000119365
8.83046e-05
7.78463e-05
0.000105089
7.22159e-05
9.01546e-05
0.000123306
0.000132148
9.56914e-05
0.000137286
0.000111941
0.000112229
0.000115719
0.000140986
0.000132293
9.30603e-05
7.27358e-05
0.000120437
9.44473e-05
7.2802e-05
0.000122751
0.000124747
0.000138858
9.88199e-05
0.000113971
0.000126415
0.000104032
0.000106895
0.000110192
7.50864e-05
0.000119451
9.57311e-05
8.6304e-05
0.000130876
0.000121186
0.000134987
7.65119e-05
0.000110491
0.000148563
0.000106913
7.96174e-05
9.10417e-05
9.23501e-05
0.000106612
7.67476e-05
8.99647e-05
0.00010573
7.2419e-05