/*--------------------------------*- C++ -*----------------------------------*\
| =========                 |                                                 |
| \\      /  F ield         | OpenFOAM: The Open Source CFD Toolbox           |
|  \\    /   O peration     | Version:  v2012                                 |
|   \\  /    A nd           | Website:  www.openfoam.com                      |
|    \\/     M anipulation  |                                                 |
\*---------------------------------------------------------------------------*/
FoamFile
{
    version     2.0;
    format      ascii;
    class       volScalarField;
    location    "1";
    object      CH4;
}
// * * * * * * * * * * * * * * * * * * * * * * * * * * * * * * * * * * * * * //

dimensions      [0 0 0 0 0 0 0];


internalField   nonuniform List<scalar> 
108993
(
0
3.3668e-161
3.83807e-119
0
8.01012e-295
0
0
0
0
1.81305e-197
0
0
4.48313e-289
0
6.73339e-238
1.51383e-50
0
0
0
9.31034e-187
0
2.99268e-247
5.13554e-164
4.01223e-239
0
0
0
0
0
3.62295e-246
0
4.67668e-179
0
1.00949e-166
1.57775e-266
0
0
0
8.66408e-66
0
0
1.69531e-209
0
0
0
0
0
2.49377e-193
0
0
0
0
0
4.33005e-258
0
0
1.10672e-254
5.91079e-274
0
0
0
0
0
0
5.18004e-285
3.90696e-220
1.61201e-290
0
0
0
1.53632e-247
5.00039e-277
4.21765e-264
8.68237e-278
5.35064e-218
3.6143e-225
5.82011e-282
4.33728e-176
2.94953e-261
0
0
0
5.8226e-249
0
0
0
0
0
2.13334e-285
0
1.44131e-286
0
3.79985e-290
0
0
0
0
0
0
0
1.24698e-272
0
0
0
0
6.78142e-287
0
0
1.59203e-271
0
0
8.17374e-284
3.4333e-126
4.96504e-76
0
1.13228e-68
5.49651e-286
2.87272e-161
3.01422e-82
0
6.38673e-201
0
2.20067e-68
0
0
1.27118e-71
0
3.70996e-180
0
0
3.00208e-145
2.59523e-243
0
0
3.22825e-222
0
0
3.52269e-217
2.89377e-234
0
0
0
0
3.93982e-237
0
0
0
0
0
0
0
0
6.83861e-120
2.38613e-25
1.10566e-239
0
0
7.14358e-260
0
0
1.12885e-26
0
0
0
8.47286e-185
2.44394e-91
2.44109e-295
8.09538e-282
4.98654e-279
4.35436e-204
9.18717e-277
0
0
0
0
2.62601e-216
9.32741e-86
3.24626e-279
7.08814e-186
1.22251e-252
0
8.50772e-236
1.23409e-262
4.44708e-147
5.42264e-167
1.51864e-234
1.75953e-260
0
0
5.78785e-145
0
0
0
1.8956e-95
1.43972e-217
1.18287e-126
0
1.26108e-218
8.70412e-234
0
6.33716e-291
0
0
0
0
8.77734e-40
0
5.60155e-97
0
0.00705121
0
4.53544e-234
2.29928e-87
2.45967e-95
8.96767e-57
0
0
0
3.9558e-260
0
1.20471e-220
1.16418e-25
2.14986e-109
2.75571e-86
0
4.21832e-279
1.27916e-265
4.69802e-158
1.2217e-52
2.4341e-208
6.41578e-108
0
1.02189e-276
1.35448e-206
0
0
1.77859e-239
1.37085e-247
0
0
0
0
0
3.34157e-262
2.43992e-245
0
0
2.50615e-64
1.6924e-254
0
6.67517e-229
0
0
2.66007e-215
4.78803e-255
1.38212e-258
0
5.72241e-143
0
1.15978e-293
0
0
1.58752e-96
6.47118e-69
0
0
4.5343e-166
0
1.42853e-290
6.46326e-202
0
1.03376e-130
0
3.48664e-07
0
1.51145e-194
0
2.02006e-75
5.39179e-149
1.60622e-180
0
0
0
2.11147e-237
5.10649e-219
1.07071e-105
0
2.29784e-175
9.36315e-138
2.98235e-131
0
4.12275e-179
1.95973e-172
1.02128e-177
0
1.93492e-164
0
1.5844e-170
1.02731e-164
0
0
1.66807e-22
0
0
0
5.40577e-233
0
0
7.07313e-230
2.48698e-100
3.37947e-281
1.60969e-246
0
1.44884e-269
0
2.26623e-32
9.44438e-288
3.6405e-126
5.53634e-93
0
0
0
4.85011e-234
1.00978e-238
1.28547e-206
1.05406e-36
2.38339e-15
2.20934e-30
0
2.45372e-126
1.74548e-201
5.37183e-40
6.10056e-11
0
0
0
0
0
1.20022e-198
4.43176e-227
0
8.50079e-63
2.16079e-182
0
0
0
5.62527e-153
0
0
0
0
0
1.96383e-120
0
0
2.57191e-219
0
0
0
0
0
0
0
1.02112e-152
8.68115e-219
0
4.38511e-152
2.24953e-217
0
1.36646e-11
2.30078e-103
0
1.84079e-145
1.79276e-12
7.03756e-160
8.29696e-25
0
0
1.0102e-32
0
1.54692e-33
1.62368e-30
0
1.72638e-46
3.4428e-227
5.00957e-189
1.20448e-149
9.01871e-88
0
1.16111e-114
2.02092e-32
5.94188e-192
5.49002e-30
0
0
0
0.000413466
1.24442e-263
1.52695e-67
2.11784e-215
0
0
2.69102e-90
0
0
1.44455e-194
6.08807e-183
1.00832e-220
1.68792e-119
2.58088e-05
0
1.47808e-159
3.59247e-35
4.08734e-240
0
3.05607e-210
8.39982e-20
6.57067e-150
0
0
0.000513047
8.75631e-160
6.50245e-06
0
1.39125e-289
8.0777e-09
1.85478e-261
0
1.48379e-11
0
0.000975224
0
1.53123e-05
4.66078e-245
0
0
0
1.5625e-221
3.28759e-265
5.24819e-208
0
1.20615e-162
1.15826e-155
6.75563e-297
2.63409e-135
6.81355e-111
1.39307e-121
0
4.77829e-160
4.34769e-300
0
4.08861e-293
2.23298e-159
0
3.37516e-263
5.74747e-235
0
0
5.83498e-176
1.79621e-260
0
1.54002e-114
0
0
3.1733e-130
1.97918e-132
2.27908e-240
0
2.56556e-130
0
0
1.83073e-281
1.81677e-222
7.52797e-104
0
0
1.84508e-209
0
0
9.23093e-70
1.86473e-226
0
0
1.25619e-155
0
0
3.32008e-126
8.29776e-136
0
0
0
7.60239e-194
4.8703e-67
0
0
4.04686e-243
0
1.28935e-175
0
0
1.11314e-254
0
1.01119e-193
4.6367e-139
2.27766e-67
1.49852e-38
0
1.2166e-203
0
1.19868e-146
0
0
2.89747e-214
2.98025e-125
0
2.51916e-255
0
0
0
0
0
0
0
0
2.91046e-211
0
2.99519e-213
5.61664e-159
0
0
1.4115e-265
2.18096e-272
0
3.89751e-181
0
2.46348e-208
0
0
9.85113e-159
0
0
0
0
0
0
0
0
0
0
0
1.9775e-61
3.32562e-259
0
0
0
0
0
1.21133e-136
0.0242253
0
2.83749e-157
0
2.71527e-137
0
0
3.42548e-65
4.14129e-191
1.17759e-205
9.37176e-151
0
0
0
0.0759383
0
1.00776e-46
3.05924e-120
1.55364e-202
1.02939e-165
2.4406e-10
0
0
3.58829e-188
6.97e-160
3.85812e-253
0
0
4.32926e-109
8.03596e-159
6.69229e-167
0
0
2.02667e-270
0
2.62354e-151
1.13999e-07
3.72177e-216
1.08092e-212
0
0
0
0
0
0
0
0
0
0.000331684
0
3.38223e-115
0
3.92421e-19
0
0
1.46295e-131
0
0
0
1.14098e-275
4.81223e-93
0
0
0
0
0
0
1.47031e-239
0
8.50914e-71
0
1.05632e-72
5.66556e-30
2.62595e-175
7.63771e-60
0
2.49279e-74
7.38313e-271
2.98802e-268
0
8.05349e-56
1.51921e-89
5.21551e-239
3.48826e-89
0
0
0
3.91524e-72
0
4.98855e-114
0
0
0
0
1.86593e-126
0
0
0
4.99161e-67
1.8153e-147
9.63164e-138
4.795e-145
0
0
0
0
0
2.09777e-143
7.47458e-231
0
9.06102e-121
3.33093e-137
0
3.97676e-161
5.82282e-90
1.2165e-147
0
0
4.33685e-78
0
0
3.64634e-108
0
3.15555e-142
0
6.44933e-81
8.05183e-126
5.71386e-78
3.34452e-115
0
0
1.4174e-20
4.29134e-250
0
7.59561e-90
0
1.16104e-228
9.10554e-46
2.3597e-183
0
0
3.95503e-62
7.204e-80
4.71528e-198
6.59199e-258
0
2.56598e-90
3.61474e-291
0
0
1.44246e-208
2.60598e-255
0
4.41526e-125
0
3.62356e-196
2.89186e-60
0
7.40662e-103
0
0
1.77122e-95
0
1.73306e-67
1.62367e-103
0
1.38645e-209
2.91058e-62
3.18497e-98
0
1.0468e-62
1.8456e-289
4.99573e-87
0
0
1.21194e-59
0
0
0
2.87373e-279
0
0
0
0
4.70681e-96
1.50455e-79
5.4978e-98
0
0
0
2.61744e-101
0
2.60613e-184
2.96639e-276
0
4.14432e-102
2.34324e-288
0
0
1.94412e-64
0
0
0
9.75156e-277
0
9.01959e-118
2.03652e-140
0
0
0
0
1.18345e-154
5.04257e-113
1.10894e-120
0
2.86974e-55
9.13955e-43
0
1.14827e-110
4.08767e-06
1.14902e-68
0
0
1.58102e-26
7.12405e-111
2.3304e-113
0
4.5678e-171
0
0
6.94462e-207
0
0
1.02642e-107
0
8.81576e-167
7.81201e-113
2.2163e-75
6.82389e-45
0
5.57387e-19
0
2.62109e-108
0
1.03011e-271
0
2.52714e-82
4.52662e-200
2.40336e-183
0
0
0
0
0
0
7.3883e-138
6.77116e-177
1.73356e-29
0
1.91795e-174
1.02869e-07
0
3.37193e-06
1.1982e-173
0
9.40657e-113
1.826e-18
0
2.36823e-237
4.52542e-136
4.429e-166
3.77461e-187
8.94501e-201
2.14838e-98
2.4076e-121
5.33795e-106
8.91029e-67
2.95635e-240
0
7.45964e-137
0
0
0
2.8982e-108
0
1.78765e-103
3.6141e-227
1.89949e-119
0
0
8.89125e-05
1.50168e-114
0.00100502
4.98092e-117
0
4.49712e-112
0
2.68906e-195
0
0
0
2.32731e-199
0
0
0
9.01807e-136
7.46775e-237
1.62004e-230
3.41999e-134
8.63715e-64
1.04988e-96
3.82817e-62
2.53383e-267
2.71861e-158
0
0
4.07323e-198
1.45385e-68
0
1.0224e-134
0
0
3.88085e-142
0
1.41533e-90
1.2429e-55
7.19641e-132
1.85601e-09
4.38255e-277
8.18508e-10
0
1.04334e-35
8.0148e-254
5.7356e-226
0
3.06012e-103
0
0
0
0
3.50552e-44
9.13578e-278
0
0
0
3.11881e-11
1.49329e-243
0
3.67604e-07
7.73568e-33
2.90813e-211
1.23559e-179
0
2.30255e-204
6.00603e-88
0
5.82862e-07
0
5.38477e-08
2.11459e-105
0
7.59821e-209
1.32869e-204
1.5265e-88
9.31821e-190
0
1.04652e-261
3.92511e-96
0
1.60482e-80
2.15197e-264
0
7.38113e-74
0
4.91353e-81
0
0
0
1.92303e-208
5.94274e-31
0
0
1.27211e-219
0
2.58977e-250
3.53284e-107
0
0
0
6.40122e-09
0
1.55749e-70
0
0
8.91783e-57
1.07124e-27
0
1.77445e-117
0
4.7854e-107
1.9333e-205
9.19706e-102
0
6.18788e-117
2.50315e-111
3.06022e-95
5.27176e-70
0
0
2.98236e-79
0
0
0
3.84461e-34
0
0
0
4.86947e-70
0
1.30279e-233
0
6.15899e-68
0
1.38917e-126
0
0
1.71843e-139
0
2.4226e-223
0
3.94911e-150
1.12189e-132
0
6.71614e-248
0
0
0
3.67463e-290
0
0
2.84445e-92
0
3.95265e-177
0
0
1.15873e-97
2.8988e-97
3.59049e-111
0
2.44278e-135
3.50154e-96
0
3.1195e-123
1.37733e-48
0
8.81473e-294
0
2.55564e-132
0
0
0
0
3.5829e-297
5.07213e-133
0
0
1.02199e-137
0
0
0
1.78359e-99
2.54924e-80
2.33916e-188
0
8.43994e-141
4.24399e-173
0
0
0
3.0644e-276
1.1683e-205
1.81296e-37
4.51605e-136
0
0
0
9.55981e-58
5.17903e-233
1.47221e-117
0
6.90834e-98
1.73507e-130
0
4.9639e-106
9.25026e-57
4.3257e-101
0
2.925e-239
0
0
6.72737e-98
0
0
0
0
6.07034e-105
0
0
0
0
3.88261e-117
4.21212e-92
0
1.30796e-22
0
2.26109e-83
2.96751e-176
0
9.14525e-273
0
0
7.63602e-280
0
2.78817e-64
0
1.39739e-104
1.82922e-134
4.28468e-148
1.18311e-161
1.0935e-82
3.40588e-35
0
0
0
1.37426e-128
0
2.18136e-98
0
0
0
0
3.27502e-298
0
4.1887e-153
5.51857e-250
3.78895e-261
0
0.012215
1.79857e-73
0
0
0
0
0
6.55966e-275
0
0
1.58377e-167
0
0
0
0
0
2.6807e-233
0
2.08816e-223
0
0
2.5797e-128
0
1.28445e-104
6.69681e-107
0
3.30217e-286
1.82036e-75
0
0
6.10306e-134
0
0
8.17656e-153
1.66212e-63
1.27992e-141
7.92659e-123
9.67805e-239
0
0
0
4.40079e-09
2.07827e-14
4.94816e-206
0
1.02454e-179
0
4.87923e-108
0
4.31891e-165
0
4.7046e-225
1.80486e-252
2.68138e-209
0
8.31897e-246
0
1.8631e-213
1.13316e-161
3.26905e-119
5.52665e-122
1.25772e-105
1.21685e-29
0
0
0
0
3.44099e-27
0
2.87635e-100
4.98003e-188
4.43016e-191
1.70409e-191
1.31241e-24
0
0
2.70139e-94
0
1.71226e-89
1.74576e-100
3.66284e-185
1.04908e-198
0
0
0
3.61927e-128
3.69725e-265
0
4.6202e-87
2.76824e-107
8.85988e-180
0
0
2.33399e-288
0
3.14995e-285
5.64639e-254
0
2.96789e-28
1.09705e-102
1.26337e-96
1.97963e-180
8.9796e-79
2.25843e-214
0
9.87144e-81
0
0
2.18604e-95
0
0
2.73597e-91
0
4.39097e-67
2.50603e-151
0
4.94036e-150
3.00264e-235
0
0.10006
6.0382e-187
0
0
0
0
0
4.92065e-111
0
7.55789e-67
2.60503e-77
0
0
8.26945e-158
0
2.20497e-232
5.36597e-167
8.18358e-245
1.78235e-96
0
2.5882e-45
0
0
5.38042e-104
0
6.40018e-241
0
0
1.78053e-08
2.40151e-147
1.10707e-83
0
9.87436e-06
0
0
2.15677e-220
0
6.02001e-189
0
1.77177e-125
4.63692e-123
0
0
1.59327e-244
5.3317e-123
7.9015e-120
0
0
4.80447e-272
0
3.3067e-186
0
5.98294e-190
0
1.41814e-247
0
4.55865e-153
0
5.97099e-235
4.68762e-177
0
2.06866e-139
0
7.65494e-208
0
6.02834e-103
9.8432e-65
0
0
0
0
5.14836e-216
0
2.62485e-65
0
1.8004e-143
3.10444e-143
0
6.72703e-152
3.31339e-140
0
1.27121e-143
7.21177e-18
3.1616e-149
0
0
0
0
4.15779e-139
2.07265e-178
3.23864e-268
1.11427e-155
0
0
0
6.9391e-91
2.00996e-265
0
0
7.12413e-33
0
0
9.52838e-98
9.21177e-238
1.11298e-72
4.72888e-242
2.03677e-256
0
2.30342e-144
0
3.15495e-128
0
2.19344e-70
0
0
5.36874e-58
2.0319e-224
0
0
0
0
0
1.23442e-21
6.20599e-242
0
0
2.69371e-151
0
0
0
0
0
0
2.98461e-226
0
0
0
0
2.08544e-95
0
0
0
0
0
4.3695e-85
5.62008e-92
0
8.16739e-50
0
0
4.00547e-62
0
0
8.17021e-106
1.26268e-172
0
4.79903e-90
0
0
0
2.35604e-78
6.15533e-104
0
6.06179e-175
0
0
0
0
0
0
0
0
0
1.55711e-262
0
5.97801e-58
7.30995e-213
0
1.68635e-223
0
0
1.21479e-126
6.68535e-138
0
0
2.48177e-106
0
0
2.84963e-54
6.1382e-288
0
0
4.41619e-103
0
4.73298e-206
0
0
1.85701e-105
9.75903e-88
4.92099e-21
1.01339e-128
9.82224e-107
7.21701e-218
1.97729e-44
5.35253e-153
1.3251e-208
4.77203e-232
0
3.94768e-242
0
0
0
5.23763e-80
0
2.35372e-77
1.5315e-142
0
1.9855e-206
2.50737e-268
0
0
0
0
1.83544e-116
5.60552e-222
4.03293e-170
0
0
2.49161e-165
6.92363e-200
3.99352e-115
7.63283e-159
8.16878e-211
0
5.67146e-169
0
8.58327e-159
5.06217e-90
1.20927e-27
4.64685e-208
0
1.44225e-53
0
0
0
0
5.44718e-120
0
5.28598e-73
1.03198e-231
0
2.38585e-33
6.86299e-230
1.98896e-172
4.96074e-137
0
6.38187e-111
1.31626e-224
3.34602e-174
1.56472e-217
1.04977e-174
3.55798e-56
0
9.77765e-175
0
0
1.1628e-283
2.27797e-72
0
1.19332e-229
2.94875e-220
0
2.0966e-242
4.24717e-175
0
1.14091e-243
0
2.209e-57
1.59598e-33
1.36821e-51
2.23051e-289
2.10293e-174
6.12515e-90
0
0
0
0
0
0
6.32424e-122
0
6.44336e-72
0
5.59968e-78
0
1.82375e-33
0
2.38381e-74
0
0
0
0
5.34467e-83
1.12447e-178
0
6.10572e-182
0
5.45613e-179
2.96286e-208
3.18006e-131
4.22558e-205
0
6.08159e-93
5.5054e-87
0
0
1.48701e-225
0
0
0
6.34544e-57
2.3292e-235
9.43092e-32
1.57376e-212
0
0
5.93924e-185
0
0
6.40557e-54
0
0
2.23104e-48
0
0
0
0
2.77449e-163
0
0
0
0
2.76355e-178
4.13532e-100
0
3.81862e-200
1.20338e-75
2.93657e-23
0
1.87286e-97
5.51602e-91
0
0
1.41418e-126
4.86763e-200
5.90358e-186
0
0
4.53866e-213
0
0
8.70175e-48
0
1.23809e-67
0
0
0
0
2.46663e-34
2.48054e-101
0
9.97948e-233
0
8.43107e-248
7.90468e-25
3.20921e-145
0
2.87174e-163
0
0
0
1.09401e-15
1.20811e-264
0
0
0
4.70633e-31
4.3987e-255
0
2.42139e-106
5.45767e-25
3.03601e-101
1.02777e-34
0
8.81264e-56
0
0
9.62882e-160
4.21837e-89
0
0
0
0
3.27668e-35
0
0
0
0
0
6.06855e-173
0
0
0
2.74571e-72
0
0
1.25131e-141
0
7.29428e-71
0
0
2.747e-225
3.04825e-162
1.31808e-121
0
4.79874e-251
1.44979e-157
0
1.6679e-267
1.06615e-160
0
0
0
2.89213e-56
0
0
0
1.42946e-293
7.73962e-70
6.74062e-23
0
2.42979e-37
1.79159e-42
5.61215e-65
1.38589e-32
0
0
0
0
5.5678e-192
0
0
0.033586
0
0
9.3717e-29
1.30418e-46
2.47764e-15
0
0
0
0
2.34979e-288
1.53128e-220
0
1.04492e-213
0
1.27296e-94
2.78235e-26
1.01847e-42
3.60913e-72
1.36055e-91
1.8955e-61
0
0
4.34592e-89
0
8.57887e-21
9.20027e-21
1.09423e-144
9.75748e-121
3.82073e-185
0
5.31178e-284
0
0
0
0
0
0
9.3426e-77
0
0
3.10554e-90
1.07418e-75
0
3.69698e-15
1.80029e-91
4.9719e-224
4.26916e-158
4.97343e-45
3.77417e-90
0
0
2.77373e-190
5.61788e-147
0
2.82412e-28
1.16228e-22
8.98095e-23
0
1.61503e-217
1.22083e-33
0
2.8379e-274
2.987e-81
6.0261e-156
1.34581e-195
3.09747e-56
0
2.64604e-199
0.00295101
6.78718e-147
3.99256e-103
2.15852e-196
7.49755e-113
0
5.40039e-217
0
0
4.28807e-127
1.59893e-31
0
5.45936e-118
0
0
0
0
2.76445e-156
1.17633e-164
5.10661e-67
0
0
0
6.2552e-114
0
0
0
0
5.73354e-94
2.78763e-133
0
6.59039e-50
2.46093e-62
0
4.05628e-91
6.02483e-154
4.42111e-95
0
0
0
0
5.07583e-175
0
1.49327e-262
0
0
0
7.51458e-127
1.0602e-135
0
1.5231e-55
0
0
1.7119e-153
0
1.94884e-135
0
0
2.03531e-75
0
6.64249e-198
5.1137e-70
2.47223e-30
4.38411e-124
4.95072e-27
1.8145e-58
2.13145e-139
0
0
4.83812e-17
0
0
0
7.1095e-70
2.3545e-14
0
0
0
0
8.3465e-125
0
0
5.91062e-68
0
1.94642e-128
0
1.18853e-144
2.97906e-135
0
0
0
4.09045e-192
3.15226e-155
5.68686e-234
1.43341e-290
0
0
7.19356e-133
3.36482e-100
6.65746e-231
3.4443e-243
1.12923e-99
0
0
1.91357e-84
0
0
0
1.17017e-150
0
0
1.48145e-101
0
2.28216e-248
9.59307e-135
2.02888e-193
1.00619e-109
1.87139e-38
4.164e-220
3.47513e-279
0
0
0
0
0
0
0
0
3.59773e-44
8.87332e-27
8.57795e-84
1.6523e-166
0
0
6.47276e-76
0
0
0
3.16109e-44
1.09694e-118
7.38893e-182
0
1.39938e-205
0
0
0
7.79326e-75
0
0
2.35335e-102
0
1.69441e-174
0
1.69766e-163
6.53813e-103
0
0
0
0
0
0
0
0
0
0
1.5006e-279
0
0
8.62358e-277
0
4.80993e-119
0
0
0
2.81662e-139
4.08598e-117
0
1.2706e-112
0
0
6.51428e-153
3.13901e-240
0
0
0
0
0
0
0
0
0
1.06034e-129
1.48459e-95
0
0
5.16384e-110
0
4.02531e-65
0
0
0
1.42274e-55
1.7276e-156
5.32043e-276
0
0
0
0
0
0
0
0
0
1.3428e-149
3.42702e-126
4.24181e-145
2.79725e-107
1.8293e-279
2.25636e-273
0
0
0
7.87596e-131
0
0
0
0
4.70919e-122
3.2285e-55
4.70197e-48
0
0
0
1.73149e-124
8.62219e-45
2.44041e-140
3.58611e-29
1.89017e-220
0
0
0
9.07303e-41
7.99319e-28
8.72148e-30
3.87711e-30
0
9.70232e-15
0
9.3501e-54
0
1.63212e-12
1.372e-31
3.94097e-286
0
2.66033e-39
0
2.1376e-65
0
0
0
0
0
0
2.54646e-225
0
0
1.16828e-175
2.66102e-45
1.53945e-247
0
0
0
0
0
4.19615e-139
6.60928e-197
0
3.16489e-74
0
1.0516e-125
0
2.49857e-77
0
9.82227e-68
0
0
2.69529e-123
0
0
0
1.52388e-98
0
1.07716e-63
0
5.06615e-62
1.82692e-69
4.20277e-93
9.23132e-97
0
7.49826e-192
4.47963e-94
0
0
0
0
0
0
1.76104e-98
0
0
2.55435e-90
0
0
0
1.24499e-58
3.1969e-64
0
3.02494e-35
7.58919e-197
0
1.23194e-23
0
0
0
0
3.56433e-161
2.18259e-141
0
1.84313e-169
4.27712e-83
4.63361e-203
2.9868e-149
7.07561e-185
2.07217e-131
7.78039e-20
4.86576e-184
7.90605e-135
9.2348e-157
0
3.68221e-187
0
0
3.33131e-90
0
5.14604e-199
0
3.80063e-224
0
3.08178e-07
0
0
3.98611e-06
0
1.39129e-162
0
0
6.88643e-06
0
0
0
0
4.80706e-05
0
2.16531e-240
2.38567e-153
0
2.00132e-177
8.31162e-238
1.60598e-168
1.30063e-184
5.29453e-229
3.68127e-138
0
9.26024e-235
0
1.14252e-231
0
1.17069e-49
1.89458e-181
1.71418e-241
4.40202e-64
2.70149e-59
7.76186e-167
4.95169e-198
2.44995e-267
0
2.25367e-164
0
7.84068e-151
6.31174e-32
0
1.31732e-169
2.11336e-164
1.57661e-161
0
0
0
5.09777e-50
0
3.2705e-43
2.08084e-75
0
1.98905e-75
4.14139e-195
5.04693e-149
0
0
0
0
1.66505e-192
0
0
0
2.47254e-81
0
0
0
0
0
0
4.4769e-56
3.84364e-199
0
0
0
0
0
4.22846e-59
0
1.83507e-66
0
8.9808e-62
0
0
0
2.24079e-32
0
4.75885e-70
0
1.10944e-180
0
6.44721e-114
0
0
2.70349e-207
0
6.81978e-121
0
0
5.59885e-180
1.25592e-130
0
2.87418e-163
5.62129e-199
0
0
0
0
8.0394e-151
4.37861e-179
2.57131e-209
0
7.04981e-174
0
0
0
1.4595e-180
6.63472e-49
0
0
0
0
1.30921e-190
0
0
3.87007e-244
0
0
2.56256e-199
7.69507e-54
7.74932e-57
0
0
0
1.9493e-269
0
1.63176e-64
0
0
0
0
0
2.00906e-47
1.10688e-201
1.06531e-148
0
0
9.05926e-273
3.03171e-107
3.88707e-96
0
0
1.55342e-219
0
2.2005e-200
6.44912e-158
0
1.11622e-223
3.07337e-202
0
3.11576e-133
3.08692e-208
0
0
5.8266e-136
0
0
2.64319e-141
1.18389e-120
0
0
0
0
1.96268e-161
4.08796e-07
0
0
2.34249e-166
0
7.26157e-138
4.18925e-147
0
1.25285e-139
0
1.39994e-142
1.05029e-138
0
1.36497e-171
0
1.42259e-140
0
0
0
0
3.48249e-200
0
5.33573e-130
0
0
0
0
0
3.2126e-45
0
0
4.32641e-71
0
0
4.3762e-19
1.64178e-87
0
0
4.00311e-202
0
1.04188e-118
0
0
0
9.20243e-197
0
0
4.53911e-188
1.82206e-113
1.31356e-104
0
0
1.34207e-229
4.18189e-152
0
0
0
0
0
3.71269e-237
1.31973e-149
0
0
1.64148e-154
0
0
0
3.43801e-149
7.10734e-217
4.53574e-217
0
8.31144e-226
0
1.50698e-172
4.49724e-176
5.26197e-98
3.3774e-119
0
0
0
0
4.38814e-228
0
0
3.69994e-139
1.03822e-135
2.82279e-122
0
0
0
0
3.50008e-40
2.81645e-150
0
0
1.89711e-47
1.2698e-69
9.48012e-152
1.10031e-76
0
0
6.72596e-145
0
1.09994e-161
1.84291e-108
0
2.62047e-166
0
3.42376e-180
1.8706e-148
5.15149e-159
8.3348e-137
0
0
6.88602e-107
0
0
2.58132e-102
1.75553e-116
0
0
1.41988e-197
0
1.13852e-208
8.86246e-35
2.34637e-39
0
0
8.49312e-203
0
8.49276e-100
1.54567e-176
1.19236e-39
0
3.59069e-97
0
7.85773e-94
0
3.34942e-34
0
0
2.02137e-79
1.20822e-102
0
1.3504e-73
0
0
0
4.43012e-201
0
0
0
0
0
1.54882e-52
0
2.71136e-128
0
0
2.98657e-98
0
1.02715e-160
0
1.50065e-153
0
0
5.71382e-114
3.04242e-191
4.65255e-108
0
1.32329e-137
0
0
2.90039e-158
5.10274e-70
0
0
1.68853e-262
7.65559e-201
0
1.54911e-260
0
6.72692e-55
0
9.80924e-94
3.42888e-255
0
0
1.52206e-122
3.21979e-262
2.06759e-162
0
0
0
4.35009e-51
9.4344e-261
3.02198e-97
0
0
0
0
0
0
4.57823e-195
0
0
5.12374e-191
2.55382e-234
0
0
1.94505e-112
4.77558e-120
7.29021e-276
0
0
0
6.81861e-247
3.41367e-168
0
0
0
0
0
6.70978e-164
0
1.07968e-93
3.82005e-152
0
1.28922e-210
0
0
0
2.62195e-208
1.30191e-199
4.37247e-204
3.68289e-203
1.57811e-208
0
0
1.14977e-250
3.46022e-202
5.48134e-204
1.92701e-54
0
3.39303e-199
0
9.5289e-115
2.31829e-224
3.73715e-169
5.31607e-30
0
0
0
0
5.94608e-164
0
8.78117e-108
2.23001e-166
2.82126e-191
3.46622e-195
3.25995e-161
1.04543e-176
9.05241e-193
2.37636e-137
0
0
2.47034e-62
0
0
2.38788e-57
0
0
0
0
0
1.46786e-208
3.45827e-216
1.73573e-270
2.28632e-158
0
0
6.78165e-189
3.35138e-168
0
0
0
0
0
1.16173e-211
1.90871e-234
0
2.13952e-217
4.71504e-151
6.66032e-117
9.04765e-188
0
0
0
0
9.17613e-244
5.26291e-97
5.72925e-85
6.682e-282
0
0
0
0
0
2.11792e-103
0
2.17443e-149
0
1.21832e-259
8.06245e-248
0
1.7158e-144
2.34163e-28
4.3704e-219
0
4.4537e-244
0
0
0
0
1.14862e-26
4.06578e-24
3.12915e-126
1.50101e-21
7.82783e-35
0
8.7331e-117
1.61728e-58
4.78484e-298
0
0
1.23838e-198
2.20652e-244
5.81664e-173
3.70988e-37
0
6.16731e-34
1.85858e-70
2.89508e-32
0
3.40695e-170
9.63443e-166
0
0
1.06966e-42
1.04878e-101
6.81362e-72
3.2089e-52
0
0
4.46532e-38
0
4.74967e-209
0
0
2.51042e-255
2.24793e-41
7.11854e-119
0
2.54617e-190
1.06774e-214
0
1.41761e-137
0
4.4403e-239
8.52479e-136
0
0
2.60028e-108
1.15665e-188
3.44655e-37
1.34468e-124
5.02974e-117
0
6.26205e-239
1.3045e-27
0
9.70839e-208
2.19682e-76
0
6.31706e-178
0
0
1.42638e-136
0
0
0
2.24892e-167
0
4.55431e-215
0
0
0
1.98662e-169
0
1.69189e-153
0
0
0
0
0
6.00912e-155
2.0797e-206
1.10718e-169
1.06409e-159
0
7.42629e-180
2.1105e-25
2.21617e-203
0
5.17497e-188
0
0
6.90071e-201
0
9.9078e-23
4.08239e-122
2.5201e-21
0
0
4.69522e-126
4.98251e-21
2.00646e-23
0
2.06672e-91
1.22836e-138
0
0
4.93334e-136
0
0
0
1.37856e-05
0
0
0
0
9.27553e-207
2.62731e-214
0
4.7054e-241
0
0
0
0
1.49626e-211
0
9.28029e-144
1.1025e-187
0
0
5.25262e-204
3.71854e-69
0
5.51786e-283
0
4.80481e-63
1.58416e-66
9.51544e-64
5.41894e-71
0
1.77571e-123
0
4.41723e-114
0
0
0
2.92541e-247
0
0
0
0
0
0
0
0
0
2.76215e-51
0
1.17914e-289
0
1.18518e-55
9.72046e-40
0
1.66365e-240
1.46502e-53
1.34399e-107
3.37835e-120
0
2.72474e-38
4.84075e-36
1.36942e-146
0
9.06966e-52
3.22444e-143
0
6.84536e-248
4.91419e-178
5.27924e-131
2.29248e-251
2.46456e-230
0
1.1754e-288
1.15366e-192
0
5.01281e-252
1.46406e-146
0
0
4.22888e-138
0
3.30251e-44
0
0
9.8697e-50
9.764e-43
2.13828e-134
0
4.45042e-42
0
1.40972e-47
0
0
0
0
0
5.70057e-109
0
0
3.51114e-71
4.90642e-258
4.9547e-123
3.76183e-265
0
0
8.66606e-71
9.75429e-183
0
0
0
1.35587e-132
2.13427e-68
3.54647e-66
0
8.00844e-211
1.09388e-57
0
8.8677e-133
0
8.08723e-137
0
7.17279e-32
0
0
1.66319e-132
0
5.27419e-194
1.58683e-230
0
0
1.0017e-174
3.27725e-238
0
0
1.33166e-163
0
0
1.48657e-260
2.28773e-283
0
0
0
1.04524e-261
0
0
0
3.33404e-120
3.71745e-97
2.02388e-217
0
1.087e-187
0
4.0099e-136
8.42058e-123
0
2.54615e-214
0
0
4.6994e-236
2.57115e-214
5.06197e-185
0
0
0
0
2.32808e-207
2.86264e-245
0
0
0
0
0
0
0
5.89822e-140
9.12147e-125
1.93396e-48
0
7.00516e-246
0
0
4.77361e-101
0
0
0
6.76072e-241
0
1.02013e-124
1.76186e-214
3.16645e-226
1.40395e-216
5.49559e-237
0
3.0231e-132
2.00525e-204
2.743e-201
0
0
2.98755e-171
0
0
0
0
2.76945e-251
0
0
5.23365e-245
0
0
7.17756e-146
1.40462e-159
3.1891e-143
1.16158e-121
0
0
0
6.90338e-207
0
3.34775e-228
0
0
3.13762e-133
1.70297e-100
1.28114e-249
0
1.57137e-261
5.8306e-234
0
7.58641e-117
4.49579e-257
0
1.20044e-146
0
3.41799e-216
2.83439e-277
0
1.51929e-219
2.40753e-24
5.57309e-178
0
3.23635e-161
0
0
0
0
0
0
1.12796e-95
5.62023e-171
0
7.02675e-128
3.27409e-183
0
0
0
3.40408e-22
3.21214e-216
0
0
0
6.99225e-128
8.75378e-126
5.32717e-67
2.25405e-280
7.52649e-57
0
5.38955e-276
0
0
1.75506e-184
1.06185e-283
0
0
0
0
1.15177e-56
2.94317e-107
0
1.41899e-21
0
0
6.33631e-274
0
6.01079e-238
5.17004e-191
0
0
3.19783e-259
0
4.89975e-44
2.07479e-121
0
0
0
3.35856e-58
5.16879e-95
5.94445e-81
0
6.31551e-262
0
0
0
2.31341e-288
0
0
0
0
0
0
0
0
0
4.02978e-265
0
2.92613e-81
5.26276e-166
0
3.97002e-38
0
1.60408e-171
0
1.7659e-258
3.17937e-173
0
1.45781e-216
9.41644e-147
1.79905e-261
0
0
2.4085e-225
0
1.06586e-213
1.9832e-129
0
0
0
7.71428e-128
0
2.08956e-198
0
1.46894e-143
0
3.93115e-211
1.53031e-57
0
2.63486e-61
0
2.35141e-97
0
0
0
0
7.64729e-233
4.1199e-99
7.38725e-50
0
2.22902e-168
6.28054e-17
6.92643e-95
3.72352e-203
3.83383e-117
3.21241e-162
0
4.14452e-227
1.22443e-190
2.2572e-270
5.18037e-28
0
2.49208e-34
0
6.05837e-91
0
0
0
1.44745e-290
0
0
7.4197e-226
0
4.06995e-48
0
0
0
3.31404e-92
0
0
3.46835e-160
3.3044e-194
0
4.96925e-79
0
1.68463e-147
3.80939e-94
1.17422e-84
0
3.90591e-117
0
0
1.06206e-92
1.92148e-118
0
0
2.98992e-39
1.08966e-100
7.0836e-98
0
0
3.04431e-73
0
4.05853e-100
1.20594e-60
0
0
0
0
0
4.1308e-141
7.82821e-106
3.54583e-43
6.67546e-95
0
2.1124e-80
6.72438e-256
2.4852e-242
0
1.34999e-123
2.00991e-190
0
6.08201e-246
1.85065e-185
7.11202e-192
1.30021e-34
7.6372e-83
0
3.53703e-193
0
0
0
0
1.37808e-52
0
0
0
3.69913e-129
0
0
0
4.8847e-75
3.51123e-161
4.64587e-60
7.68581e-175
1.89155e-150
0
4.7356e-130
9.17216e-253
1.50522e-168
8.10573e-50
0
2.15613e-175
0
0
4.19802e-249
0
0
0
3.94997e-98
0
0
0
0
0
0
8.13873e-75
3.18544e-286
0
3.01963e-283
0
0
1.97772e-30
1.30873e-124
4.0142e-264
0
4.73994e-292
1.86998e-289
2.43956e-102
0
0
4.67729e-113
1.97359e-134
0.0152566
0
0
4.79436e-71
3.00488e-23
1.03983e-189
0
1.28107e-65
0
1.71051e-110
0
2.0599e-280
0
0
0
0
0
0
0
4.11569e-34
0
0
0.000269898
1.32607e-56
2.00449e-32
0
2.485e-155
1.05546e-210
2.58212e-217
6.4859e-31
5.29742e-93
3.46613e-142
1.2194e-28
4.87582e-05
7.07713e-54
0
2.1602e-95
0
3.98236e-38
1.34361e-15
1.41945e-76
0
3.5016e-13
0
8.90013e-217
8.42939e-259
0
3.17665e-44
3.26005e-188
3.40404e-141
0
0
1.63216e-194
0
0
1.94844e-213
7.40017e-15
1.40914e-13
0
1.02898e-08
1.31243e-13
0
0
4.34213e-16
3.02901e-127
0
1.00924e-185
1.85343e-230
1.84489e-262
5.13876e-207
5.60737e-272
1.04665e-15
0
9.4203e-10
2.82875e-56
5.15353e-165
0
0
0
9.07103e-260
0
0
0
5.641e-274
1.32695e-18
0
0
7.67895e-14
3.9846e-53
9.8633e-51
0
0
6.46505e-12
0
0
4.65627e-69
3.44133e-70
1.25591e-50
6.30806e-117
1.31754e-211
0
1.14089e-66
2.86051e-189
1.16093e-18
0
5.71171e-33
1.75108e-11
0
0
3.55888e-14
0
0
1.31656e-12
0
3.11466e-68
0
4.72755e-11
0
5.84281e-19
2.69407e-68
4.39669e-290
1.64108e-143
3.81645e-181
1.31901e-239
6.94664e-243
1.19927e-71
0
2.83902e-37
0
3.82776e-69
8.22966e-54
4.35383e-28
7.7225e-70
2.31401e-246
1.35303e-170
1.69795e-121
4.57254e-11
0
0
9.56468e-69
0
0
0
1.12857e-66
0
0
7.41918e-173
7.52075e-140
0
0
0
0
5.03612e-150
0
0
0
3.18262e-258
5.64442e-146
0
0
6.61233e-148
0
0
0
0
3.06087e-190
1.50069e-144
1.06134e-21
0
0
0
0
1.21916e-215
0
8.48145e-194
1.00047e-117
7.34213e-37
2.86214e-159
1.75402e-164
4.06251e-218
1.96552e-243
9.98237e-254
2.06633e-37
1.91357e-187
6.59386e-246
0
1.13636e-269
0
0
0
0
0
0
7.10413e-175
0
3.44691e-251
1.67454e-181
0
3.98145e-220
4.65527e-243
2.48059e-118
1.12483e-185
9.10677e-40
2.12577e-90
0
1.33382e-150
0
0
0
0
3.80174e-294
0
1.65008e-258
5.53216e-195
0
0
0
5.07598e-117
0
1.64328e-76
7.60256e-36
0
5.08296e-210
0
0
5.50145e-61
0
2.93462e-77
0
2.85442e-276
1.7529e-163
9.86993e-263
1.10337e-258
0
0
0
0
2.46564e-244
0
0
1.82056e-138
0
3.2445e-252
1.40077e-211
1.39134e-201
0
0
2.24737e-57
0
0
0
0
9.5698e-61
0
0
0
0
0
3.27907e-184
0
1.02098e-130
2.28041e-173
0
0
4.10874e-176
4.06328e-16
0
3.82153e-112
5.603e-57
1.142e-186
6.58064e-11
0
1.02239e-09
8.68817e-66
1.76171e-11
0
4.54783e-156
0
0
0
0
0
5.29473e-14
1.76535e-197
0
3.92602e-228
0
0
0
1.68819e-20
1.66741e-181
0
4.74383e-149
0
0
2.67547e-183
6.36823e-22
2.39435e-07
4.08845e-61
0
0
4.16501e-39
0
0
0
4.09356e-142
0
4.41151e-252
5.48575e-205
0
6.60114e-170
0
0
2.18723e-144
6.32702e-27
0
0
1.36201e-17
0
1.52712e-252
9.43904e-211
0
0
0
0
3.89643e-276
0
0
2.85801e-244
1.06837e-240
0
0
4.51578e-240
0
0
0
0
0
3.2717e-284
0
0
0
1.82766e-33
8.03001e-49
3.00708e-281
0
0
0
2.41218e-83
0
0
9.22304e-229
3.11632e-291
4.69226e-244
3.87989e-288
0
5.52603e-223
0
0
4.2481e-285
0
4.3849e-58
0
0
7.28653e-54
0
0
0
8.52494e-56
0
0
0
0
5.3786e-253
0
1.39306e-298
0
1.03029e-211
0
0
9.42255e-89
0
0
0
0
6.34322e-297
1.27714e-264
6.29677e-265
0
0
1.56813e-48
6.93306e-250
1.03207e-46
0
0
1.06079e-42
1.04956e-40
1.07723e-188
5.89701e-159
0
1.0324e-185
5.28659e-229
0
1.78941e-164
1.61375e-263
9.59916e-45
4.00232e-227
1.01143e-42
0
0
3.21423e-242
5.03746e-54
2.01745e-52
0
1.75218e-172
4.78121e-252
1.62029e-164
0
0
4.23873e-205
0
0
0
3.37447e-220
5.47993e-50
1.1276e-245
0
0
0
0
0
8.99736e-267
7.52414e-135
2.67148e-65
1.39994e-162
9.71867e-189
4.01561e-163
1.44617e-188
1.14125e-230
0
3.45231e-186
0
2.65734e-183
0
0
0
8.8473e-174
1.15606e-99
0
8.57262e-73
0
1.90384e-173
3.49682e-51
4.2412e-183
7.53604e-49
0
1.62287e-141
2.06815e-103
0
0
1.07268e-145
6.8224e-173
0
0
7.84802e-239
9.97201e-49
0
5.74663e-129
0
0
1.63833e-39
8.88533e-16
2.30001e-241
0
0
1.31518e-191
1.09339e-169
0
4.56777e-154
0
0
3.8335e-34
1.04315e-114
0
3.99623e-146
0
2.42946e-246
9.71993e-167
6.54334e-154
0
7.56009e-65
0
5.30061e-119
0
1.30637e-56
0
2.02272e-179
3.47526e-158
2.13936e-225
0
0
0
0
0
2.89032e-144
5.52321e-226
1.39165e-63
2.49718e-59
5.69636e-256
0
5.66215e-54
0
0
2.7722e-172
2.95182e-185
8.47498e-180
8.828e-248
4.52664e-162
8.61021e-155
2.1416e-289
4.94525e-222
0
1.87033e-136
6.94458e-254
1.12938e-154
1.01617e-223
9.3516e-180
0
3.46884e-143
0
4.60163e-136
2.00766e-76
0
6.35191e-190
0
0
0
0
9.59864e-168
9.41719e-30
0
3.56916e-100
0
0
0
7.28497e-119
3.33428e-275
0
0
2.31486e-277
1.22294e-239
1.4304e-138
4.2542e-106
6.96361e-117
4.96954e-116
5.49161e-183
2.60917e-135
0
0
7.04421e-142
1.00635e-143
0
1.18242e-121
4.88737e-180
0
8.4429e-170
0
3.53231e-139
0
0
0
1.30289e-119
0
1.19417e-232
1.21122e-274
0
2.92484e-242
8.9443e-159
0
0
1.18012e-236
1.42004e-226
0
1.17147e-60
0
0
1.86758e-119
0
0
0
0
0
0
2.5144e-238
5.82677e-63
0
0
2.70227e-49
1.25103e-53
0
1.2457e-63
2.04718e-223
0
0
0
3.85155e-183
3.9985e-117
2.89111e-167
1.05023e-59
0
0
7.57704e-251
7.6361e-52
3.17942e-67
1.80051e-245
0
1.37556e-59
6.76402e-126
1.49413e-120
0
0
0
0
1.12333e-254
1.5383e-123
5.28446e-291
7.47814e-183
0
4.60581e-289
0
0
1.10293e-175
7.94931e-191
7.9313e-119
1.96007e-82
3.05002e-152
1.37197e-114
0
2.67615e-150
0
2.00338e-81
3.91655e-184
0
0
0
0
2.19233e-150
4.70563e-72
3.22985e-64
0
9.70252e-74
0
1.79704e-275
0
2.36675e-248
0
8.73822e-80
0
1.10758e-175
0
9.07385e-193
4.40685e-213
0
0
0
0
0
0
1.14879e-194
0
0
2.26968e-256
0
0
2.0968e-196
3.35e-126
2.77123e-241
8.13288e-242
0
2.08026e-49
0
2.5297e-115
0
3.64981e-186
0
3.5475e-194
3.43341e-141
7.29826e-217
1.22309e-252
0
7.29449e-172
0
0
0
7.01251e-128
0
0
0
4.19782e-170
6.93019e-92
0
8.51282e-164
0
2.33527e-178
4.12308e-36
3.30138e-89
3.22459e-79
1.58253e-161
2.26788e-106
0
2.61447e-134
9.5006e-87
0
2.13279e-69
1.15504e-229
0
2.14496e-62
3.14924e-258
0
3.59328e-44
7.27142e-28
0
0
4.85573e-82
5.08022e-80
0
0
0
0
0
0
6.41759e-238
1.1684e-91
0
0
1.25062e-163
5.21275e-128
0
2.93849e-171
1.2038e-97
0
1.65371e-151
1.00899e-138
8.65866e-185
7.87566e-185
0
0
0
0
0
3.97816e-168
0
2.38028e-87
0
0
0
0
0
0
4.96299e-131
0
0
0
3.15289e-174
0
0
0
1.07393e-179
1.18145e-162
0
0
0
0
0
0
2.54729e-234
2.8157e-104
1.78717e-177
0
0
0
0
0
0
1.17765e-226
1.86643e-231
0
0
6.51511e-237
0
0
1.49635e-170
0
0
0
0
0
0
2.31349e-250
1.47621e-256
5.8713e-113
0
0
9.38724e-243
0
0
0
1.23453e-274