/*--------------------------------*- C++ -*----------------------------------*\
| =========                 |                                                 |
| \\      /  F ield         | OpenFOAM: The Open Source CFD Toolbox           |
|  \\    /   O peration     | Version:  v2012                                 |
|   \\  /    A nd           | Website:  www.openfoam.com                      |
|    \\/     M anipulation  |                                                 |
\*---------------------------------------------------------------------------*/
FoamFile
{
    version     2.0;
    format      ascii;
    class       volScalarField;
    location    "1";
    object      CO2;
}
// * * * * * * * * * * * * * * * * * * * * * * * * * * * * * * * * * * * * * //

dimensions      [0 0 0 0 0 0 0];


internalField   nonuniform List<scalar> 
108993
(
0
2.9868e-164
1.17536e-119
0
0
0
0
0
0
0
0
0
7.2205e-286
1.08728e-186
0
3.31882e-51
0
0
0
7.94974e-188
9.82371e-297
8.86898e-250
2.44028e-165
0
2.94631e-286
0
0
7.04278e-193
0
5.85447e-249
1.59427e-247
1.39483e-179
7.63931e-262
1.89913e-168
1.18414e-269
0
9.13425e-259
1.08536e-253
2.70417e-66
0
0
1.55951e-211
2.82716e-194
1.60117e-286
0
1.0379e-114
5.22885e-265
0
0
0
0
0
0
1.46001e-261
3.94519e-221
0
1.35945e-257
3.01821e-269
0
0
0
0
4.51618e-234
6.01327e-281
3.17803e-279
2.97878e-215
1.70084e-283
0
1.37402e-175
0
0
0
1.12601e-260
0
7.62309e-220
4.12224e-227
2.95188e-282
7.61232e-178
0
0
9.70935e-202
0
0
1.3987e-197
0
0
6.37035e-183
0
5.37375e-279
2.23122e-287
4.33742e-278
0
0
0
0
0
6.83546e-239
0
0
0
4.01852e-268
0
0
0
0
0
1.13809e-224
0
5.97655e-275
0
0
0
1.53497e-127
5.86533e-77
0
1.66983e-69
6.39401e-277
0
3.06043e-83
0
0
0
5.08606e-69
0
0
2.19337e-72
6.59249e-158
1.27895e-178
0
0
1.80047e-146
0
8.46859e-215
0
1.45826e-222
0
0
1.67281e-219
5.79698e-236
0
0
0
8.04134e-93
3.06043e-239
0
0
0
2.41598e-124
0
0
0
3.78526e-260
1.19185e-120
5.25978e-26
1.56173e-241
0
5.05165e-181
5.7548e-261
0
0
2.23465e-27
2.30624e-265
0
0
9.33154e-186
3.42926e-92
5.99287e-285
4.00172e-282
2.49778e-279
1.09788e-207
0
0
0
0
0
9.63409e-218
0
1.59105e-279
1.66465e-185
8.92579e-240
4.50073e-170
5.40672e-238
3.39116e-265
0
1.79209e-169
0
0
0
1.07809e-202
1.28182e-145
0
0
3.98692e-203
3.1962e-96
0
1.10698e-128
0
0
1.45421e-236
8.28976e-149
3.97563e-285
0
0
4.09487e-259
0
2.19674e-40
0
4.78063e-98
9.23013e-201
0.00219695
0
2.34523e-237
0
2.28003e-96
4.27181e-57
1.51218e-243
3.79376e-210
0
4.41535e-261
2.70884e-235
0
2.69396e-26
1.82726e-110
6.37932e-87
0
5.00399e-279
0
0
1.56162e-52
1.06805e-209
5.21958e-109
0
4.9904e-277
3.88012e-206
5.44639e-225
0
2.95399e-240
0
0
0
2.62858e-248
0
0
5.92775e-264
2.04533e-247
0
0
5.40038e-65
1.05163e-255
2.63949e-250
4.64194e-231
0
0
9.96073e-215
2.16336e-256
8.07898e-260
0
2.03069e-143
1.34852e-233
9.40987e-293
0
0
0
1.10164e-69
0
0
9.34391e-168
6.23331e-228
1.15875e-289
0
0
3.65541e-132
0
1.43488e-07
0
1.88981e-193
2.91926e-245
4.7314e-76
0
1.28813e-183
5.35893e-181
0
5.17393e-115
9.15515e-239
2.12181e-222
1.19153e-106
9.21098e-281
2.02677e-177
5.08088e-139
1.50182e-132
0
7.72691e-181
1.73404e-174
1.84108e-179
0
0
0
3.72525e-172
2.19334e-166
0
0
3.82673e-23
0
0
0
2.23736e-233
0
0
2.22545e-230
4.23462e-101
7.65912e-277
2.21111e-249
0
4.30188e-268
0
5.03517e-33
2.2219e-289
3.39097e-127
1.73971e-93
0
0
0
7.02273e-236
0
1.78102e-207
2.33038e-37
7.58735e-16
5.34514e-31
0
1.61199e-127
1.1723e-202
1.21923e-40
1.78279e-11
0
0
0
0
0
0
0
1.25045e-221
1.31357e-63
1.27171e-183
5.43979e-212
0
1.62494e-232
1.89644e-150
0
0
0
0
0
1.36868e-121
0
0
0
0
3.80696e-139
6.35689e-185
0
0
0
0
1.11468e-151
1.21481e-220
0
6.38289e-153
1.62057e-219
0
6.2253e-12
4.2162e-99
0
3.0907e-147
6.19089e-13
5.19748e-161
1.84522e-25
0
4.16614e-193
2.04976e-33
1.86093e-189
5.24768e-34
3.1011e-31
0
3.20417e-47
1.16335e-223
0
3.62994e-151
1.62191e-88
0
5.55025e-116
3.85904e-33
0
1.1931e-30
0
1.635e-133
0
0.000200015
5.55422e-257
6.32677e-69
1.41592e-218
0
0
2.39226e-89
3.76187e-221
0
0
0
1.5206e-222
0
6.28108e-06
0
1.09306e-160
9.05271e-36
9.03167e-243
0
0
2.53234e-20
1.215e-151
1.17585e-144
0
0.000158845
2.19295e-161
2.66521e-06
0
8.92045e-284
1.92798e-09
3.03205e-261
0
8.73878e-12
0
0.000618493
0
1.66721e-05
1.04202e-247
0
0
0
2.96114e-221
4.30914e-263
7.41348e-210
7.77327e-207
3.09035e-165
4.68679e-158
1.31598e-292
1.37126e-136
6.13712e-112
9.80396e-123
0
1.21648e-162
3.78524e-300
0
0
1.72296e-161
4.68548e-157
3.75783e-260
5.81214e-232
0
1.09039e-293
6.7904e-176
5.11356e-251
0
5.12627e-116
0
0
1.30404e-130
1.06332e-133
0
0
2.05798e-131
0
0
1.49866e-272
2.30052e-224
7.53017e-105
0
3.39492e-97
5.30144e-211
0
0
7.86047e-71
0
0
0
3.13514e-157
0
1.1585e-134
9.0479e-127
3.3398e-137
0
0
0
2.97268e-191
1.96562e-68
0
0
7.10019e-246
0
0
0
0
3.30078e-257
0
0
1.86399e-139
4.53583e-68
2.79953e-39
1.31853e-153
2.74295e-205
0
2.94357e-147
0
0
3.36394e-216
3.20802e-126
0
5.30879e-258
1.39526e-252
0
0
6.65024e-211
0
0
0
0
2.32067e-211
0
0
0
0
0
0
7.7975e-271
0
4.46251e-182
0
3.63813e-210
0
0
3.67434e-160
0
9.49449e-231
0
3.99697e-297
0
1.64756e-177
0
0
0
1.64723e-198
8.36849e-243
4.55316e-62
5.43837e-261
0
0
0
4.54216e-231
0
0
0.00515289
0
3.65274e-158
0
0
0
0
7.9424e-66
7.88901e-193
1.48758e-207
3.74778e-152
4.88274e-166
0
0
0.0283125
0
3.13407e-47
1.02894e-116
3.0004e-200
2.06924e-167
7.9635e-11
0
0
2.0601e-187
9.70491e-160
0
0
0
7.93005e-110
1.44974e-160
1.66749e-168
0
3.55205e-148
2.66654e-267
0
1.14516e-151
3.578e-08
2.44409e-218
0
0
0
0
0
0
0
0
2.13402e-191
0
0.000134719
1.75029e-269
1.82674e-116
0
9.67937e-20
0
5.56041e-90
0
0
0
0
2.62428e-272
9.60371e-94
9.05929e-246
0
1.02784e-242
5.69557e-182
0
0
2.0815e-242
0
2.062e-71
0
2.00665e-73
1.23635e-30
0
2.22146e-60
0
3.93436e-75
6.10407e-270
3.90849e-265
0
1.38107e-56
3.97945e-90
0
6.02165e-90
0
0
0
5.98758e-73
0
4.11187e-115
0
0
0
0
1.72697e-127
0
0
0
1.23461e-68
1.04082e-148
0
4.16076e-146
0
0
0
0
0
1.41655e-144
5.52803e-231
0
8.5321e-122
0
0
1.76048e-162
5.98352e-91
2.75793e-149
0
0
8.89773e-76
0
0
1.1352e-108
0
1.35355e-143
0
7.11809e-82
1.42407e-126
9.67809e-79
2.05172e-114
0
0
4.84459e-21
4.84581e-246
0
2.52731e-90
0
2.67348e-230
2.10832e-46
3.47422e-185
0
0
9.0788e-63
6.96685e-81
6.40822e-200
3.1097e-261
0
1.12819e-91
6.95746e-286
0
0
1.08412e-207
5.55081e-259
1.49425e-91
5.31926e-126
0
1.11965e-194
8.87577e-61
8.57505e-174
2.7113e-103
0
0
4.14983e-97
0
0
1.31874e-104
0
2.7113e-206
5.5144e-63
1.59063e-99
0
1.99644e-63
0
4.9616e-88
0
0
2.02219e-60
0
0
0
1.41155e-279
0
0
0
0
3.76543e-96
4.50607e-80
2.25583e-99
0
4.78889e-98
0
1.24902e-102
0
2.27554e-186
1.45706e-276
0
1.0476e-102
3.83787e-288
0
0
3.67945e-65
0
0
0
5.09618e-277
0
4.1051e-117
2.13372e-142
0
0
4.59804e-131
0
3.65898e-156
2.02088e-111
4.94235e-122
4.4406e-226
6.25479e-56
1.99128e-43
0
5.8686e-109
1.74087e-06
2.48345e-69
0
0
5.21873e-27
1.76971e-110
5.17837e-112
0
2.58731e-172
0
0
2.99714e-202
0
6.51416e-240
2.02518e-108
0
1.7408e-167
6.97227e-114
3.76093e-76
2.66558e-45
0
1.32669e-19
0
1.84176e-109
0
3.68785e-272
0
3.26084e-83
0
2.46007e-186
4.9774e-201
0
0
0
0
2.47742e-245
7.73867e-140
0
3.77105e-30
0
3.51347e-175
4.989e-08
0
9.73176e-07
1.22136e-174
0
0
6.64828e-19
0
3.31176e-234
2.25499e-137
0
0
8.37074e-198
3.4212e-99
1.19104e-122
3.58931e-107
1.35902e-67
4.28452e-237
0
1.66215e-137
0
0
3.20997e-205
3.92356e-109
0
1.78962e-104
8.90839e-228
8.85664e-121
0
0
5.93213e-05
5.58678e-113
0.000795071
6.27829e-118
0
2.40678e-110
0
1.57486e-198
0
0
0
0
2.57379e-205
0
0
0
4.78409e-238
1.01555e-231
6.12031e-135
1.13173e-64
1.22739e-97
1.15108e-62
2.49324e-269
3.75597e-161
0
0
1.46435e-200
1.29237e-69
0
1.01707e-130
0
0
1.52528e-143
0
1.12576e-91
2.25376e-56
0
5.64761e-10
4.68814e-273
2.60932e-10
0
3.50698e-36
3.09872e-256
0
0
1.61737e-105
0
0
0
0
6.4112e-45
5.75503e-272
0
0
0
8.65332e-12
5.69087e-246
1.49318e-225
1.26383e-07
2.70008e-33
5.37881e-213
0
0
0
1.57012e-89
0
1.89626e-07
8.06267e-161
1.67142e-08
1.0483e-106
0
0
0
5.63798e-90
1.67438e-190
0
0
1.86981e-97
0
2.35699e-81
0
0
1.1594e-74
0
6.04259e-83
0
8.44606e-95
0
3.6091e-210
1.17817e-31
3.21224e-229
7.07762e-96
0
0
1.11432e-251
4.02463e-108
0
0
0
1.91167e-09
0
3.68601e-71
0
0
1.90341e-57
2.27483e-28
0
0
0
0
0
2.14451e-102
0
4.9259e-117
7.79587e-112
3.59515e-96
5.65299e-71
0
0
3.08798e-80
0
0
0
9.77902e-35
0
0
0
5.09999e-71
0
4.92323e-231
2.52728e-251
6.45482e-69
0
3.44925e-127
1.86691e-142
0
0
0
1.04938e-221
0
2.89914e-149
5.90742e-134
0
4.19266e-250
0
6.00524e-201
3.03388e-220
0
0
0
3.21726e-93
0
1.63004e-178
1.34229e-139
0
2.87223e-98
0
3.90547e-112
0
0
7.21639e-98
0
2.32829e-124
2.59238e-49
1.13023e-130
3.30392e-293
0
2.92553e-133
0
4.52088e-116
0
2.60874e-204
2.75715e-299
2.4157e-134
0
0
1.94191e-139
0
0
1.385e-141
8.67774e-99
3.63955e-81
0
0
0
2.38812e-176
2.00357e-117
0
0
3.38822e-272
1.53706e-207
4.81685e-38
1.54359e-137
0
0
0
1.71218e-58
1.5989e-233
1.02759e-118
0
5.9945e-98
6.23227e-132
0
0
7.49252e-58
1.73004e-101
0
0
0
0
6.22003e-99
0
0
0
0
2.65701e-105
0
1.89989e-101
0
0
1.68539e-118
3.56865e-93
0
2.19499e-23
0
3.41767e-84
5.68752e-178
0
0
0
0
0
0
4.09075e-65
0
2.58928e-105
1.19181e-135
7.84625e-149
0
8.9385e-84
7.25503e-36
0
1.7789e-148
0
0
0
4.90122e-100
0
0
1.38338e-199
0
5.17848e-296
0
2.55234e-154
3.32984e-249
9.21575e-264
0
0.00883641
2.07769e-74
4.51946e-280
0
0
0
8.84931e-167
2.85505e-273
0
0
5.06331e-168
0
0
1.88484e-148
0
0
2.0241e-234
1.09573e-163
0
0
0
0
0
0
4.57196e-108
0
4.16986e-279
2.867e-76
6.64841e-213
0
2.71744e-134
0
6.93793e-116
8.26716e-153
3.14876e-64
3.7597e-143
3.18547e-118
1.11718e-237
0
0
0
1.61699e-09
7.94222e-15
0
1.04329e-217
4.33477e-182
0
6.19651e-109
0
6.6828e-167
8.22364e-218
2.99649e-226
1.33576e-255
4.30795e-211
7.38191e-283
1.44411e-245
0
0
1.70202e-163
2.63795e-117
0
9.83989e-102
3.1015e-30
0
0
3.63722e-226
0
8.61909e-28
0
3.12155e-101
7.68078e-190
4.4375e-193
2.08089e-193
4.01752e-25
0
0
1.54506e-95
0
8.44211e-91
2.40784e-102
6.20539e-189
4.37085e-200
0
0
0
0
1.27635e-268
0
9.34597e-88
1.25654e-108
4.48628e-181
1.95244e-275
0
8.45343e-290
3.33242e-239
1.14098e-286
9.01976e-257
5.8321e-287
7.80753e-29
5.82411e-104
2.17566e-97
1.18139e-182
1.59555e-79
0
0
4.22651e-81
9.06798e-160
0
3.89342e-96
0
0
1.02256e-92
0
7.22057e-68
4.02766e-151
0
2.0199e-151
5.64916e-238
0
0.0228458
2.30968e-189
0
2.76318e-215
0
2.13312e-168
0
4.21431e-112
0
1.15316e-67
4.16868e-78
0
3.30499e-109
0
0
2.83609e-229
0
1.02636e-247
3.44075e-95
4.30024e-267
5.33422e-46
0
2.95583e-235
4.99151e-105
8.89372e-222
4.17487e-242
7.20008e-217
0
7.34855e-09
2.44934e-148
1.70735e-85
0
3.81377e-06
0
2.53772e-178
0
0
0
0
1.72537e-127
1.89306e-124
0
0
2.60591e-247
7.07155e-125
1.31625e-121
3.85525e-190
3.94399e-192
4.56439e-269
0
0
0
2.58971e-190
0
1.6651e-243
0
1.81297e-153
0
1.09367e-237
4.16599e-174
0
1.09173e-140
0
4.41282e-209
0
6.13626e-103
7.39385e-65
0
0
0
0
0
0
4.23195e-66
9.63987e-183
3.84748e-145
0
0
6.46258e-153
1.74864e-141
0
6.92906e-145
2.16635e-18
1.65867e-150
0
0
0
0
0
3.90463e-180
0
0
0
0
0
6.33052e-91
2.50492e-265
0
0
1.67838e-33
0
0
1.44568e-98
6.63633e-239
2.47438e-73
9.82209e-245
3.26961e-258
2.7194e-263
7.597e-146
7.77873e-184
1.74177e-129
0
3.36373e-71
0
0
8.54308e-59
2.2008e-221
0
0
0
0
0
2.77514e-22
1.45647e-244
9.41538e-232
0
6.28862e-153
0
0
0
0
0
0
0
0
0
0
0
2.30251e-97
0
0
0
0
0
1.57675e-85
1.60211e-91
0
1.44108e-50
0
0
3.40083e-63
0
0
3.35919e-107
2.05503e-174
0
7.36229e-91
1.74682e-254
3.82844e-182
1.79747e-79
3.11663e-79
7.60557e-105
0
8.6777e-177
0
0
0
0
0
8.30851e-257
0
0
0
0
0
1.32337e-58
6.5445e-212
0
1.26036e-225
0
0
4.22754e-128
2.68792e-139
0
0
7.28397e-107
0
0
6.02729e-55
4.99027e-287
0
0
1.47205e-103
0
0
0
4.21414e-217
8.52337e-107
2.88337e-88
1.10825e-21
5.19192e-130
4.25714e-108
0
4.91769e-45
1.04959e-155
0
6.45563e-232
0
8.03567e-245
0
0
0
9.7427e-81
0
3.75907e-78
2.23246e-142
0
1.27915e-207
3.15359e-271
0
1.77999e-295
0
0
8.3437e-118
2.05978e-223
6.96985e-172
0
0
7.67849e-167
1.4569e-196
0
0
0
0
1.91825e-170
0
6.04289e-160
1.23623e-90
2.74638e-28
0
0
2.15715e-54
1.14311e-211
4.81852e-214
0
1.05897e-155
1.88765e-121
0
1.08306e-73
2.67956e-233
0
5.29089e-34
1.47009e-224
6.55834e-174
0
0
0
8.02552e-226
1.11811e-175
0
3.61803e-176
1.06987e-56
0
3.21359e-176
0
0
2.22697e-278
3.01768e-73
0
0
4.59161e-223
2.79583e-168
2.05713e-243
8.1678e-177
8.23399e-152
1.40607e-245
0
3.35388e-59
3.27078e-34
3.03092e-52
1.68589e-286
1.31779e-177
2.82565e-91
0
0
0
0
3.83787e-220
0
5.84575e-123
0
1.58233e-72
3.49812e-194
1.26817e-78
0
3.94373e-34
0
5.7819e-75
0
0
0
3.55067e-185
8.96355e-84
3.51632e-180
0
4.40689e-183
0
1.6721e-180
7.17045e-206
1.43547e-132
1.03971e-202
5.48256e-198
1.40587e-93
1.64867e-87
0
0
2.70007e-228
0
0
0
1.05872e-57
6.82514e-236
3.73469e-32
1.37279e-212
0
0
1.23983e-186
0
0
1.42172e-54
0
0
7.44311e-49
0
0
0
0
2.80507e-165
0
0
0
0
5.34351e-180
4.82905e-101
0
3.91969e-201
2.05684e-76
6.57047e-24
0
0
5.97325e-92
0
4.16038e-285
7.85766e-123
6.16023e-201
5.16686e-187
0
0
0
3.90115e-190
0
1.34951e-48
0
1.69307e-68
0
0
0
0
5.37266e-35
1.48472e-102
0
4.26314e-234
0
4.29456e-250
1.78453e-25
2.22488e-146
2.57805e-134
2.86184e-165
0
6.88005e-283
0
2.71532e-16
0
0
0
0
1.07342e-31
1.54669e-250
0
1.39272e-107
1.3487e-25
2.82818e-102
2.28721e-35
0
1.54984e-56
0
0
7.87523e-161
1.16967e-89
0
0
1.08097e-154
0
6.27686e-36
5.45648e-147
6.24722e-176
0
0
0
1.17507e-174
0
0
0
4.46335e-73
0
0
5.55969e-143
0
1.17453e-71
0
0
1.04056e-226
2.52712e-165
2.03413e-117
0
0
1.00495e-158
0
0
9.7369e-163
0
0
0
5.05431e-57
2.70989e-143
0
0
2.63757e-290
3.12889e-71
1.63778e-23
1.84754e-125
4.71333e-38
3.31559e-43
8.62948e-67
3.51675e-33
0
0
0
0
1.9848e-193
0
0
0.00926682
0
0
1.89063e-29
2.83147e-47
5.95761e-16
0
0
0
0
0
6.71856e-222
0
9.40134e-215
0
9.71298e-96
9.02472e-27
1.94322e-43
4.23683e-73
1.02773e-92
3.31019e-62
0
0
1.64368e-89
0
1.55913e-21
4.42081e-21
7.11136e-146
6.68984e-122
1.29908e-185
0
3.2513e-278
0
0
0
0
0
0
1.42644e-77
0
0
3.12479e-91
1.13547e-76
0
1.54724e-15
7.20062e-92
1.85508e-224
1.34808e-160
1.05013e-45
8.68561e-91
5.66276e-271
0
0
3.92353e-148
0
6.98756e-29
3.94177e-23
2.75274e-23
0
0
2.81279e-34
0
5.41276e-277
4.08937e-83
1.47608e-157
0
5.06833e-57
0
2.15117e-201
0.000773492
4.76629e-148
2.14607e-104
9.195e-202
5.14757e-113
0
7.53437e-219
0
0
1.57877e-128
3.60427e-32
0
4.4867e-119
0
4.80428e-152
0
0
2.12371e-157
3.70034e-165
1.24268e-67
0
4.3336e-162
0
1.33186e-116
0
0
0
0
4.96068e-95
0
0
1.20907e-50
4.30886e-63
2.02439e-268
4.96175e-92
3.52071e-155
5.72401e-96
0
7.23864e-221
0
0
5.80182e-177
0
0
1.27528e-155
4.40641e-137
0
3.35513e-127
0
0
2.74742e-56
0
0
5.12938e-154
3.60743e-84
1.90558e-136
0
0
2.30418e-76
4.73013e-185
0
8.02636e-70
7.28511e-31
2.72025e-125
1.13705e-27
2.93339e-59
0
0
0
1.71126e-17
0
0
0
1.09419e-70
5.9935e-15
0
4.16596e-287
0
0
1.12525e-123
0
0
1.25689e-68
0
0
0
0
4.48067e-134
6.66472e-252
0
0
1.71171e-193
0
9.86945e-232
5.07751e-290
0
0
7.53273e-132
3.64616e-101
1.15526e-228
3.8343e-246
1.01045e-100
0
0
5.14588e-85
0
0
0
6.00259e-151
0
0
4.40861e-102
0
5.00504e-246
3.69206e-136
1.22018e-194
7.46785e-111
6.44789e-39
0
1.80453e-279
0
8.20003e-137
0
0
0
0
4.17755e-253
0
1.15521e-44
3.33064e-27
1.01122e-84
0
0
0
6.02552e-77
0
0
0
1.04977e-44
1.03287e-119
1.31802e-183
0
0
0
0
0
1.18082e-75
0
0
7.21254e-103
0
3.13502e-176
0
3.64954e-165
2.00068e-103
0
0
0
0
8.86822e-243
0
0
0
0
0
1.79659e-279
0
0
5.68446e-277
0
3.31157e-121
0
3.34562e-205
1.71187e-188
1.29419e-140
1.27254e-117
0
0
0
0
9.1225e-155
0
0
0
0
0
0
0
0
0
0
4.62762e-131
0
0
0
1.32473e-111
4.65833e-150
9.91545e-67
0
0
0
2.55407e-56
6.18926e-158
5.11607e-276
0
0
0
4.51191e-270
0
0
0
0
0
1.77136e-151
2.0884e-127
1.93199e-148
0
3.08916e-279
1.10828e-273
0
0
7.50718e-294
3.16674e-131
2.38789e-117
0
2.04362e-124
0
1.28254e-123
5.91023e-56
8.28531e-49
1.98273e-296
0
0
0
1.42011e-45
5.4595e-140
4.71771e-30
1.60374e-221
0
0
0
2.32255e-41
2.45742e-28
2.00196e-30
1.12456e-30
0
4.67493e-15
0
2.0881e-54
1.44336e-300
4.25701e-13
2.25524e-32
7.66101e-281
0
6.87013e-40
0
5.03191e-66
5.69743e-299
0
0
0
0
0
7.9264e-225
4.39391e-296
0
3.74083e-177
5.28448e-46
0
0
0
0
0
0
1.88208e-140
7.51954e-197
0
6.61847e-72
0
1.03187e-126
2.25014e-142
1.33508e-77
0
2.02288e-68
0
0
1.39192e-124
0
0
0
2.03989e-99
0
3.36e-64
0
7.68986e-63
4.09546e-70
5.5326e-94
1.17377e-97
0
0
2.85358e-95
0
0
0
0
0
0
2.49398e-99
0
1.06398e-102
3.87755e-91
0
0
0
2.09971e-59
1.02512e-64
5.07371e-216
7.2955e-36
1.49136e-195
0
3.0454e-24
0
0
0
0
2.72573e-162
3.0693e-142
0
2.0583e-170
4.46449e-84
1.01383e-204
6.25933e-151
0
4.1314e-133
1.89546e-20
9.70133e-184
0
0
0
1.47557e-186
2.36051e-289
0
2.86118e-91
0
5.03157e-200
0
1.94991e-225
0
1.73641e-07
0
1.55428e-104
2.05998e-06
0
5.18227e-164
0
0
3.51057e-06
0
0
0
7.51896e-200
2.55896e-05
0
2.34898e-241
3.99912e-154
0
0
9.27612e-239
1.9711e-168
5.05971e-185
9.59884e-230
0
0
1.20612e-235
0
2.0719e-232
0
2.53735e-50
3.12667e-181
1.73443e-243
9.5869e-65
5.88443e-60
2.00929e-168
4.75036e-203
1.01578e-269
0
8.42309e-161
0
3.57859e-151
1.3092e-32
0
5.60732e-171
4.57249e-166
4.27784e-163
0
4.31608e-182
0
8.82777e-51
0
6.58874e-44
7.12903e-76
0
2.97662e-76
0
7.36992e-151
0
2.13018e-202
0
0
5.9751e-196
0
0
2.31052e-199
1.26215e-81
0
0
0
0
0
4.00036e-193
8.08105e-57
0
0
5.55203e-182
0
0
0
9.25172e-60
0
3.21741e-67
0
1.63365e-62
0
0
2.06555e-212
4.94806e-33
0
7.92582e-71
2.45229e-116
1.15926e-182
0
4.83956e-114
0
0
2.40455e-209
0
2.65831e-123
0
0
1.28082e-181
5.702e-133
0
4.98717e-161
1.70285e-199
0
0
0
0
0
7.36599e-181
0
0
3.0775e-175
0
0
3.9286e-241
4.63594e-184
1.80399e-49
0
0
0
3.60232e-277
8.17846e-193
0
8.2599e-199
6.98276e-239
0
0
0
1.677e-54
1.16881e-57
0
0
9.15086e-112
1.796e-270
0
2.53605e-65
0
1.7064e-196
0
0
0
4.26679e-48
1.00186e-203
2.64794e-150
0
0
6.84132e-274
0
7.35482e-97
0
0
4.31197e-222
0
1.08384e-202
1.00688e-157
0
5.65366e-225
0
0
7.36048e-135
2.87956e-209
0
0
6.62469e-137
0
0
0
9.43731e-122
0
0
0
9.33736e-208
2.25336e-162
1.88658e-07
4.54403e-152
5.31137e-156
7.66612e-168
0
1.51487e-138
1.8023e-147
0
2.50378e-137
0
0
4.64482e-140
0
3.5203e-173
0
2.46942e-141
0
0
0
1.93537e-140
0
0
3.32257e-131
1.41418e-137
0
0
0
0
6.0706e-46
5.42887e-135
0
5.27766e-72
0
0
1.15499e-19
4.26873e-88
0
0
1.69296e-200
0
5.08165e-121
0
0
1.31969e-189
0
0
0
9.40311e-189
1.28782e-115
1.8297e-105
0
0
8.59958e-231
0
0
1.4407e-236
0
0
0
0
6.47164e-151
0
0
0
0
1.55071e-133
2.00791e-204
0
9.26575e-219
5.91522e-219
0
7.59671e-228
0
7.44678e-174
5.84251e-178
1.00253e-98
2.51266e-120
1.31139e-197
0
0
0
0
0
0
4.69831e-140
6.62101e-137
5.16969e-123
0
0
0
0
1.18942e-40
1.27224e-151
0
0
3.87592e-48
1.96228e-70
0
3.39406e-78
0
0
3.81021e-146
0
9.84797e-164
2.14122e-109
0
6.54418e-167
0
5.90684e-180
4.34909e-150
2.89827e-161
8.32026e-138
0
0
5.6098e-108
0
0
2.51031e-103
4.56506e-119
0
0
0
0
0
1.86262e-35
7.95075e-40
0
0
2.13725e-201
3.68378e-277
8.25887e-101
5.70508e-178
2.23212e-40
0
3.49849e-98
0
1.27575e-94
0
7.56984e-35
0
0
4.08141e-80
2.46831e-103
0
1.46797e-74
0
0
7.09014e-255
0
0
0
0
0
0
2.39819e-53
0
1.96713e-129
0
0
4.20527e-99
0
2.58805e-162
0
0
0
0
9.03626e-116
0
1.13319e-109
0
3.80321e-138
0
0
6.95101e-160
1.14308e-70
2.19705e-143
1.96209e-116
0
2.27937e-198
0
1.88257e-256
0
1.03931e-55
0
8.46048e-95
7.20491e-251
1.69602e-186
0
8.37185e-124
1.98142e-258
1.66396e-163
0
0
0
8.16929e-52
0
2.70772e-98
0
0
0
0
0
0
9.05243e-192
3.32773e-242
0
0
2.42759e-230
0
0
1.72639e-114
3.25735e-122
0
0
1.21984e-219
0
7.2736e-239
0
0
0
0
0
0
0
0
1.57873e-94
7.45202e-154
0
1.06846e-211
4.56881e-239
0
0
7.27205e-210
0
0
0
3.32494e-206
0
0
2.58232e-251
0
0
6.3538e-55
0
5.38424e-201
0
3.21549e-114
0
1.0751e-170
1.9251e-30
9.50066e-265
0
0
0
1.30525e-164
0
1.43747e-108
6.41725e-168
1.2721e-192
1.54881e-196
1.03089e-162
7.59199e-178
4.78888e-194
9.31598e-139
0
6.0834e-159
3.65846e-63
4.03385e-203
0
7.49992e-58
0
0
0
0
0
1.40819e-210
0
1.83004e-272
8.02177e-160
0
0
2.58865e-185
1.41039e-169
0
0
1.64725e-282
0
0
2.1275e-213
4.00702e-228
0
1.54213e-219
3.97041e-152
1.29985e-118
0
0
0
0
0
1.16185e-241
1.46669e-97
1.33644e-85
5.43339e-281
0
1.12237e-244
0
2.27456e-226
0
2.88536e-104
0
4.09354e-151
4.0267e-229
0
1.15343e-246
0
8.34613e-146
8.5944e-29
1.39845e-220
0
1.43575e-240
0
0
0
0
4.20598e-27
1.70099e-24
2.13117e-127
5.90109e-22
2.23278e-35
1.12726e-182
1.55005e-118
3.16676e-59
1.40103e-294
2.74391e-223
2.92875e-296
0
0
4.21838e-171
1.32893e-37
0
1.43529e-34
4.34565e-71
9.43255e-33
0
5.68312e-169
1.97144e-166
0
0
2.72245e-43
0
4.56339e-73
5.77774e-53
0
1.82248e-119
9.38458e-39
0
9.82003e-208
0
0
2.38999e-258
8.86579e-42
1.31891e-119
0
0
6.71765e-216
0
7.48146e-139
2.83311e-264
5.12633e-239
0
0
0
0
2.16674e-190
8.49809e-38
0
0
0
2.96248e-242
3.9277e-28
0
4.06898e-208
3.68686e-78
0
0
0
1.63262e-165
6.445e-138
0
0
0
0
0
2.21897e-214
0
0
0
1.56357e-169
0
1.62536e-154
0
0
0
0
2.04307e-205
1.17191e-155
1.67318e-209
1.09362e-173
2.58457e-162
0
1.06466e-182
5.59865e-26
1.54216e-206
0
7.01758e-190
0
5.93971e-235
7.92424e-204
0
3.1848e-23
3.43538e-123
8.37428e-22
3.92595e-222
3.11995e-121
0
1.62937e-21
5.42135e-24
0
2.66983e-92
1.20283e-141
2.9104e-204
0
1.77527e-138
0
0
0
3.94213e-06
7.85908e-217
0
0
1.10606e-137
3.40278e-210
7.57391e-216
1.16014e-181
0
0
2.01051e-104
0
6.05843e-230
4.31335e-213
0
0
4.28116e-189
0
0
8.44699e-208
1.13998e-69
0
5.16337e-280
0
1.46976e-63
4.83344e-67
2.89847e-64
1.65374e-71
0
2.312e-124
0
5.61684e-115
0
0
1.67142e-204
5.51671e-242
0
0
0
0
0
0
0
0
0
5.5947e-52
0
0
0
2.07897e-56
2.12813e-40
0
1.70167e-242
2.4264e-54
4.54882e-108
1.77658e-121
0
6.48657e-39
1.09232e-36
5.07782e-147
0
1.46522e-52
5.40556e-144
0
3.29305e-249
0
4.03237e-131
1.68492e-247
1.05426e-231
0
0
1.06091e-193
0
3.85835e-249
6.60118e-148
0
0
1.77466e-139
0
7.22733e-45
0
0
1.6182e-50
2.11475e-43
0
5.5564e-295
9.72359e-43
0
3.18847e-48
0
0
0
0
0
2.2652e-109
0
0
7.70821e-72
1.77791e-253
3.48326e-124
7.16839e-264
0
1.04288e-253
1.86658e-71
0
0
0
0
3.3263e-134
4.99756e-69
8.44796e-67
0
2.12648e-213
2.07396e-58
0
4.87977e-133
0
1.08796e-137
0
1.55331e-32
0
0
0
8.89301e-177
0
0
0
0
4.1336e-176
0
0
0
5.78491e-162
0
0
3.18056e-253
8.2286e-282
0
0
0
7.84827e-263
7.84184e-222
0
0
2.3272e-121
3.71928e-98
9.17701e-221
0
0
2.43275e-215
4.38775e-136
5.42215e-124
0
6.72699e-216
0
0
1.40638e-238
9.0861e-216
0
0
0
0
0
0
2.9501e-242
4.50336e-189
0
0
0
0
0
0
1.80131e-141
0
4.37002e-49
3.01805e-239
2.05856e-247
2.81622e-245
0
3.96922e-102
0
0
0
2.89015e-244
0
0
3.34816e-216
8.60167e-228
9.43575e-214
1.15349e-236
0
1.40634e-133
5.99728e-208
8.23527e-205
0
0
3.12431e-172
0
0
2.14752e-154
0
0
0
0
7.06905e-233
0
0
1.07335e-146
0
3.00349e-144
4.09363e-124
0
0
0
6.79508e-205
0
4.35875e-223
0
0
0
1.94481e-100
5.70038e-236
1.34338e-145
1.74982e-264
3.88194e-235
0
9.73619e-117
1.48931e-259
0
0
1.47144e-271
0
1.89976e-271
0
0
7.02965e-25
7.00062e-180
0
2.21774e-162
0
0
0
0
4.72193e-74
0
1.48488e-96
1.82948e-171
0
1.69676e-129
6.60026e-183
0
0
0
1.09683e-22
1.41164e-217
0
0
0
0
0
2.20257e-67
0
1.41311e-57
0
0
0
0
3.00675e-183
1.35283e-286
0
1.04084e-150
0
0
2.10117e-57
2.08662e-108
0
3.42092e-22
0
0
8.0285e-276
0
1.19058e-234
0
0
0
5.3394e-261
6.4485e-248
1.0137e-44
1.35657e-122
0
0
1.511e-217
7.96089e-59
6.76293e-96
1.04647e-81
0
1.10577e-263
5.02722e-83
0
0
6.45941e-291
0
0
0
2.9088e-225
0
0
0
0
0
0
0
6.70394e-82
1.28363e-167
0
6.6344e-39
0
2.09643e-173
0
3.12255e-260
3.9951e-174
0
0
4.54812e-148
3.13634e-263
0
0
0
0
1.37324e-217
1.37269e-130
0
0
5.52776e-219
0
0
2.20916e-202
0
2.0033e-145
0
1.73452e-212
6.04797e-58
0
4.70313e-62
0
2.57793e-98
0
0
0
0
0
5.54719e-101
1.32446e-50
0
3.41748e-170
2.56907e-17
8.45808e-96
1.59222e-204
0
5.05108e-164
9.14488e-224
0
3.22958e-189
2.62441e-272
1.21564e-28
0
3.39118e-35
3.30369e-182
0
0
8.23733e-289
0
0
0
0
1.07254e-227
1.33052e-160
1.51094e-48
0
1.26113e-98
0
4.70924e-93
0
0
9.14821e-162
2.92513e-196
0
6.55647e-80
0
7.2692e-149
6.76957e-95
1.66088e-85
0
0
0
0
1.39121e-93
3.92564e-120
1.46545e-153
0
7.38933e-40
8.25823e-101
5.26218e-98
0
0
5.37223e-74
0
6.0995e-101
4.38629e-61
0
0
0
0
0
2.26514e-142
5.69977e-107
7.83669e-44
4.92495e-95
0
1.37786e-81
8.82355e-258
6.44662e-246
0
8.79844e-125
4.72678e-192
4.63694e-152
1.89703e-249
1.26471e-184
1.46546e-193
3.29442e-35
6.7208e-84
0
8.12055e-195
0
0
0
0
3.90931e-53
1.0598e-131
0
0
2.33839e-130
0
2.76811e-192
0
8.00785e-76
1.25443e-162
1.59502e-60
2.97196e-176
3.53678e-151
0
8.97695e-131
6.20105e-252
8.25709e-170
2.83994e-50
0
7.87256e-177
0
1.11278e-250
8.90665e-253
0
0
0
3.32014e-99
4.84056e-208
0
0
0
0
0
4.66519e-75
2.27105e-280
0
2.08042e-277
0
0
5.172e-31
8.88342e-126
0
9.34264e-142
3.06486e-286
1.21976e-283
4.88101e-103
0
0
0
1.7386e-135
0.00772307
8.88464e-284
4.78026e-226
6.83336e-72
9.23506e-24
1.39254e-189
8.42453e-155
6.00339e-66
0
2.50805e-111
0
1.77433e-274
0
0
0
0
0
0
0
8.43522e-35
0
0
0.000128483
4.13261e-57
4.12573e-33
0
0
2.21233e-212
0
1.38729e-31
4.31806e-94
1.24267e-143
2.61963e-29
1.85097e-05
1.20056e-54
0
2.41482e-96
0
7.23528e-39
3.37797e-16
0
5.06532e-189
8.95406e-14
0
0
1.49271e-257
0
6.38898e-45
1.19101e-189
1.50275e-142
0
0
0
0
0
0
1.85586e-15
3.43577e-14
0
2.93093e-09
3.31267e-14
0
0
9.54446e-17
5.12424e-128
0
2.65592e-186
5.82804e-229
1.80807e-260
1.71354e-208
3.20921e-275
5.59358e-16
0
2.02e-10
5.44307e-57
2.00879e-166
0
5.34179e-195
4.55595e-265
1.46878e-257
0
1.75212e-273
0
8.73443e-271
2.72762e-19
0
3.23357e-109
2.14943e-14
7.02704e-54
1.6363e-51
0
0
1.96101e-12
0
0
3.02751e-69
4.049e-71
2.24306e-51
1.53214e-115
1.69986e-212
0
0
1.14326e-190
2.81501e-19
0
1.20926e-33
4.62877e-12
0
0
7.50924e-15
0
0
3.60645e-13
0
5.80991e-69
0
1.43679e-11
0
1.22818e-19
6.51958e-69
2.07555e-289
9.38714e-145
0
0
0
9.3793e-73
0
6.3658e-38
0
9.06922e-70
1.60619e-54
1.0215e-28
1.54599e-70
3.65334e-249
4.27934e-172
1.77556e-122
9.38766e-12
0
0
1.8156e-69
0
0
0
2.13163e-67
0
0
6.62266e-176
1.73583e-140
0
1.07419e-171
0
0
9.84015e-152
8.11173e-228
0
1.18203e-191
3.22459e-256
0
0
0
1.29179e-149
0
0
1.02185e-200
0
5.29177e-191
2.93406e-146
2.53184e-22
7.33206e-247
0
0
0
1.30682e-217
0
1.27051e-195
0
1.65361e-37
1.00431e-160
0
7.49075e-218
4.63163e-240
1.11868e-249
4.47875e-38
2.42939e-188
1.08452e-240
0
3.89127e-268
0
0
0
1.56195e-118
0
0
4.09952e-176
0
9.43242e-247
0
0
0
4.39157e-238
4.10771e-119
2.99531e-187
1.90397e-40
1.15086e-91
0
9.65204e-152
0
0
0
0
0
0
1.25434e-255
3.16051e-196
0
0
0
9.2154e-118
0
3.875e-77
1.20587e-36
0
0
0
0
1.07534e-61
0
8.88343e-78
0
0
2.44923e-165
0
8.29868e-256
0
0
0
0
0
0
0
1.24423e-139
0
3.94372e-255
9.11722e-213
2.64429e-199
0
0
3.70067e-58
0
0
0
0
1.73939e-61
0
0
0
0
4.19812e-300
7.28633e-183
0
1.80642e-131
8.35566e-172
0
0
2.00766e-174
1.00098e-16
0
1.72705e-110
6.80477e-58
7.8586e-188
1.84611e-11
0
2.69912e-10
1.58989e-66
4.1644e-12
0
4.02271e-157
6.36366e-242
0
0
0
0
1.32745e-14
0
8.97122e-141
1.74015e-229
0
1.30238e-254
0
4.19696e-21
3.3006e-181
0
3.19718e-150
0
0
0
1.45894e-22
7.39858e-08
7.41166e-62
0
0
9.07648e-40
0
0
0
5.15378e-143
0
0
4.44374e-206
0
1.7973e-171
2.35866e-278
4.18763e-251
1.4693e-144
1.44525e-27
0
0
3.1873e-18
0
0
9.8661e-213
0
9.77714e-276
0
0
1.49028e-269
0
7.08847e-195
1.84548e-245
0
0
0
2.98407e-241
0
0
0
0
0
2.21922e-278
0
1.72883e-220
0
4.08065e-34
1.4317e-49
2.03972e-275
0
0
0
4.84094e-84
3.81614e-200
0
1.86733e-230
2.51788e-290
0
3.13805e-287
0
2.42969e-224
0
0
3.44215e-284
0
8.26755e-59
0
0
1.21968e-54
0
0
0
1.54298e-56
0
0
1.06423e-293
0
3.13676e-253
0
2.13956e-292
0
3.91744e-210
0
0
1.49509e-89
0
0
0
0
3.95776e-295
0
0
0
0
3.69445e-49
9.5082e-252
2.43503e-47
0
3.54058e-213
2.62415e-43
2.59818e-41
0
3.68923e-160
0
0
0
3.2906e-264
1.41925e-159
0
2.32519e-45
0
2.46466e-43
1.15777e-284
1.59047e-280
1.33735e-243
1.08777e-54
4.34087e-53
0
0
0
3.78713e-166
0
0
0
0
1.01984e-233
0
5.97297e-223
9.98277e-51
7.05965e-248
0
0
1.15958e-259
0
0
7.50386e-266
3.41915e-136
5.93964e-67
6.79234e-164
0
9.22082e-167
0
8.61715e-232
0
0
0
0
0
0
0
2.75136e-173
7.25142e-101
0
2.49052e-73
0
0
6.12265e-52
0
1.26923e-49
0
6.53145e-143
8.76492e-105
0
0
1.70494e-147
0
0
0
2.28921e-240
1.75739e-49
0
5.99096e-130
0
0
3.03601e-40
2.11562e-16
0
0
0
5.65594e-193
3.99212e-171
0
4.69177e-155
0
0
7.49903e-35
3.2487e-115
0
1.55028e-147
0
2.0358e-248
0
2.29997e-155
0
1.42604e-65
0
0
0
6.67681e-59
5.86319e-200
3.1896e-180
1.16016e-159
1.34811e-226
0
3.0081e-227
0
0
0
6.11772e-143
3.53455e-227
1.24494e-65
2.9429e-61
4.42248e-254
0
9.21987e-55
0
0
1.14646e-173
1.5995e-186
4.99224e-181
7.18743e-250
3.2023e-163
0
9.05803e-281
2.16247e-223
0
7.26546e-137
8.26674e-254
8.67072e-156
0
3.79217e-181
0
3.18016e-143
0
2.41635e-137
3.55785e-77
0
1.82145e-190
0
0
0
0
2.6796e-169
1.81569e-30
0
1.98979e-101
0
0
0
0
6.53e-271
0
0
6.38702e-276
0
8.80576e-140
3.33379e-107
0
3.12087e-118
2.25784e-184
1.59435e-136
4.31038e-142
0
5.56217e-143
0
0
1.61245e-125
2.82529e-181
0
3.90021e-169
0
2.5087e-140
0
0
0
4.23098e-120
4.03748e-274
1.35204e-232
1.41779e-274
0
0
3.21272e-160
0
0
1.87322e-234
8.99049e-225
0
2.76231e-61
0
0
0
0
1.3041e-175
3.65571e-169
0
0
0
4.91445e-238
1.36279e-63
0
0
6.52963e-50
2.64739e-54
0
2.55797e-64
1.31008e-224
0
0
0
2.32507e-184
0
1.30348e-168
2.62491e-60
0
0
2.55849e-250
1.61433e-52
5.7674e-68
9.1291e-244
0
3.25179e-60
1.34558e-130
0
0
0
0
0
1.62333e-256
1.63492e-128
0
3.41319e-184
0
0
0
0
4.88465e-177
0
0
2.21396e-83
2.48196e-150
5.12141e-116
0
3.36085e-151
0
1.62001e-82
8.21434e-185
0
0
0
0
1.21756e-151
5.2247e-73
5.06837e-65
0
1.89e-74
0
7.93765e-276
1.12122e-296
0
0
7.79223e-81
0
3.37761e-177
0
2.47362e-194
6.32759e-214
0
0
0
1.51154e-276
0
0
4.24489e-192
0
0
3.36199e-258
0
0
0
2.07054e-127
0
1.38879e-243
0
5.17087e-50
0
0
0
1.39324e-185
0
1.53628e-195
4.21362e-142
3.60537e-217
0
0
5.09263e-171
0
0
0
2.30589e-129
0
0
0
1.59726e-172
1.0205e-88
0
4.10254e-165
0
6.47394e-180
9.75127e-37
3.46517e-90
6.67432e-80
9.84466e-163
1.05787e-101
0
0
0
0
3.37765e-70
0
3.94443e-264
3.52721e-63
2.0515e-260
0
6.55362e-45
1.59871e-28
8.52313e-267
0
3.50094e-83
3.01282e-81
0
0
0
0
1.85751e-127
0
1.0967e-234
2.37984e-92
0
0
1.6304e-165
1.14655e-128
0
1.73395e-173
2.02805e-98
0
2.6848e-153
1.79768e-139
0
1.01343e-185
1.92684e-99
0
0
1.81351e-152
0
0
0
1.68823e-88
0
0
0
0
0
0
3.34343e-131
0
0
0
0
0
0
3.24364e-195
0
5.20999e-164
0
4.6003e-119
1.14545e-156
0
0
0
2.58244e-234
2.72223e-105
1.12617e-178
0
0
0
0
0
0
8.43679e-229