/*--------------------------------*- C++ -*----------------------------------*\
| =========                 |                                                 |
| \\      /  F ield         | OpenFOAM: The Open Source CFD Toolbox           |
|  \\    /   O peration     | Version:  v2012                                 |
|   \\  /    A nd           | Website:  www.openfoam.com                      |
|    \\/     M anipulation  |                                                 |
\*---------------------------------------------------------------------------*/
FoamFile
{
    version     2.0;
    format      ascii;
    class       volScalarField;
    location    "1";
    object      G;
}
// * * * * * * * * * * * * * * * * * * * * * * * * * * * * * * * * * * * * * //

dimensions      [1 0 -3 0 0 0 0];


internalField   nonuniform List<scalar> 
108993
(
1837.21
1837.22
1837.21
1837.21
1837.21
1837.21
1837.22
1837.21
1837.21
1837.22
1837.21
1837.21
1837.21
1837.21
1837.21
1837.21
1837.22
1837.21
1837.21
1837.24
1837.21
1837.21
1837.27
1837.21
1837.21
1837.21
1837.21
1837.24
1837.23
1837.21
1837.21
1837.21
1837.21
1837.21
1837.21
1837.21
1837.21
1837.21
1843.6
1839.85
1837.25
1837.21
1837.21
1837.21
1837.23
1837.8
1837.21
1837.23
1837.22
1837.22
1837.21
1842.67
1837.22
1837.21
1837.21
1837.21
1837.21
1837.21
1837.21
1837.21
1837.21
1837.21
1837.21
1837.21
1837.21
1837.21
1837.21
1837.21
1837.21
1837.39
1837.21
1837.21
1837.21
1837.21
1837.22
1837.21
1837.21
1837.22
1837.21
1837.21
1837.21
1837.21
1837.21
1837.21
1837.21
1837.21
1837.21
1837.21
1837.21
1837.21
1837.21
1837.21
1837.21
1837.21
1837.21
1837.21
1837.21
1837.21
1837.21
1837.21
1837.21
1837.21
1837.21
1837.21
1837.21
1837.21
1837.21
1837.21
1837.21
1843.64
1837.94
1837.21
1840.02
1844.78
1837.21
1845.94
1837.21
1837.21
1837.22
1837.21
1837.21
1837.21
1837.56
1837.21
1837.21
1837.21
1837.26
1837.21
1837.21
1837.21
1837.21
1837.21
1837.21
1859.72
1837.21
1837.21
1837.21
1837.21
1837.21
1837.21
1837.21
1837.21
1837.24
1837.21
1837.21
1837.21
1837.21
1840.8
1837.21
1865.38
1866.3
1837.21
1837.21
1872.97
1837.21
1838.45
1837.21
1837.21
1837.21
1839.77
1872.19
1837.21
1837.21
1837.21
1837.21
1843.87
1837.21
1837.21
1837.21
1837.21
1837.21
1837.21
1839.65
1837.21
1837.24
1837.21
1837.23
1837.21
1837.21
1837.21
1837.22
1837.21
1837.21
1837.21
1837.21
1837.21
1837.21
1837.21
1837.21
1837.21
1837.21
1837.21
1837.21
1837.22
1837.21
1837.21
1837.25
1837.21
1837.21
1837.21
1837.21
1837.53
1837.21
1837.21
1837.53
1839.21
1837.21
1847.01
1837.21
2344.09
1839.46
1837.21
1837.23
1840.04
1845.42
1837.21
1837.21
1837.21
1837.21
1837.21
1837.22
1861.23
1837.21
1837.23
1837.21
1837.21
1837.21
1837.21
1849.11
1837.21
1838.89
1837.21
1837.21
1837.23
1837.21
1837.21
1837.21
1837.21
1839.18
1837.21
1837.21
1837.21
1837.21
1837.21
1837.21
1837.21
1840.69
1837.37
1837.21
1837.21
1837.21
1837.21
1837.21
1837.21
1837.21
1837.21
1837.21
1837.21
1837.21
1837.21
1837.21
1837.22
1837.22
1837.21
1837.21
1837.21
1837.21
1837.22
1837.21
1837.21
1837.21
1837.21
1840.76
2072.24
1842.12
1837.21
1837.21
1837.86
1837.21
1837.22
1837.22
1838.15
1838.04
1837.21
1837.21
1837.21
1837.21
1837.23
1837.21
1842.83
1837.21
1837.21
1837.23
1837.21
1837.21
1837.21
1837.21
1837.21
1837.27
1837.21
1838.07
1837.56
1837.21
1837.21
1837.21
1837.26
1837.21
1837.22
1837.27
1840.05
1837.21
1837.21
1837.22
1837.21
1837.26
1838.49
1837.21
1837.22
1844.09
1837.21
1837.24
1837.21
1837.22
1837.22
1837.21
1844.37
1931.03
1839.81
1837.21
1837.21
1837.21
1838.67
1912.31
1837.21
1851.92
1837.21
1837.21
1837.21
1837.21
1837.21
1837.21
1837.66
1837.24
1837.21
1837.21
1837.21
1837.21
1837.21
1837.21
1837.21
1837.21
1837.21
1838.11
1841.13
1837.22
1837.21
1837.21
1841.01
1837.21
1837.21
1837.21
1837.23
1837.21
1837.21
1837.22
1837.24
1837.21
1837.21
1837.21
1960.83
1837.21
1837.21
1837.21
1914.74
1837.24
1866.34
1837.21
1837.21
1843.17
1837.21
1845.73
1845.47
1837.25
1837.21
1837.21
1837.61
1837.22
1841.83
1837.21
1843.42
1851.6
1837.65
1852.16
1837.21
1840.56
1837.23
2178.6
1837.21
1837.21
1837.21
1837.24
1838.21
1839.57
1837.21
1837.21
1837.64
1837.62
1837.21
1837.21
2094.71
1837.21
1837.22
1855.98
1837.21
1837.21
1837.21
1899.96
1837.35
1841.76
1837.21
2150.9
1837.23
1965.97
1837.21
1837.21
2017.77
1837.21
1843.59
1965.14
1837.21
2284.35
1839.82
2137.92
1837.21
1837.21
1837.22
1837.21
1837.21
1837.21
1837.21
1837.21
1837.21
1837.21
1837.23
1838.93
1837.25
1837.25
1839.73
1837.21
1837.23
1837.21
1837.21
1837.21
1837.21
1837.21
1837.21
1837.21
1837.22
1837.21
1837.21
1837.53
1837.21
1837.52
1854.52
1837.28
1837.21
1837.22
1837.51
1837.21
1837.21
1837.31
1837.21
1837.21
1837.21
1837.21
1837.21
1837.21
1838.84
1842.79
1837.23
1837.21
1837.21
1837.21
1837.21
1837.21
1837.21
1837.21
1837.21
1839.09
1837.21
1837.21
1837.21
1837.21
1837.21
1837.21
1837.21
1837.21
1837.21
1837.21
1837.22
1837.21
1837.21
1837.21
1837.21
1837.21
1840.26
1837.21
1837.21
1841.05
1837.21
1837.21
1837.24
1837.21
1837.21
1837.21
1837.21
1837.21
1837.21
1837.22
1837.23
1837.22
1837.22
1837.24
1837.43
1837.22
1837.4
1837.57
1837.21
1837.52
1837.42
1837.23
1837.21
1837.35
1837.21
1837.21
1837.21
1840.27
1837.21
1837.22
1840.55
1837.21
1841.27
1837.21
1837.21
1837.21
1837.21
1837.21
1837.42
1837.21
1837.21
1837.91
1837.23
1839.03
1837.21
1837.21
1837.21
1837.21
1837.24
2030.84
1837.22
1837.21
1837.21
1837.21
1837.26
1838.42
1842.67
1837.21
1837.21
1837.23
1837.24
1837.21
1837.21
5237.58
1838.44
1842.4
1837.24
1837.21
1838.37
2017.65
1837.24
1837.21
1837.21
1837.21
1837.21
1837.21
1837.21
1837.88
1838.66
1837.21
1837.21
1837.25
1837.21
1837.22
1837.21
2037.99
1837.21
1837.21
1837.21
1837.22
1837.24
1837.21
1837.21
2303.38
1837.21
1837.21
1837.21
2137.53
1837.21
1837.22
1837.21
1891.49
1837.21
1837.58
1837.21
1837.25
1837.21
1837.21
1837.21
1844.36
1837.21
1849.79
1837.21
1837.21
1844.92
1837.22
1837.21
1837.21
1837.26
1838.07
1837.21
1842.83
1837.22
1837.72
1846.11
1837.21
1837.21
1837.21
1858.28
1837.24
1841.84
1837.21
1842.73
1837.21
1837.21
1837.21
1837.21
1837.21
1839.61
1837.21
1837.21
1837.21
1837.21
1842.75
1838.13
1837.34
1837.22
1837.22
1838.23
1837.41
1838.25
1838.26
1837.21
1837.22
1837.21
1837.21
1837.22
1837.47
1837.21
1841.3
1842.66
1837.21
1837.47
1844.59
1838.2
1838.14
1837.21
1837.22
1837.3
1837.21
1842.67
1837.22
1839.55
1837.29
1837.21
1843.14
1837.21
1837.98
1837.3
1837.29
1900.87
1837.21
1837.21
1839.44
1837.22
1837.22
1844.92
1837.25
1848.57
1837.24
1840.29
1839.51
1837.21
1837.21
1837.21
1837.22
1837.21
1837.22
1837.3
1837.21
1837.21
1837.36
1842.33
1838.41
1837.21
1845.59
1837.21
1840.67
1837.26
1837.21
1841.14
1837.22
1837.21
1839.45
1837.21
1837.21
1837.21
1838.44
1838.27
1837.32
1837.21
1840.27
1837.21
1837.21
1837.21
1837.21
1837.21
1838.4
1837.21
1837.21
1837.22
1837.21
1837.21
1838.6
1847.58
1837.21
1837.98
1837.21
1837.21
1837.21
1837.22
1837.21
1837.21
1837.21
1837.21
1837.21
1837.46
1837.21
1837.21
1837.22
1837.22
1837.21
1837.21
1837.21
1837.21
1837.21
1837.23
1837.22
1840.7
1837.21
1837.21
1837.21
1837.97
1837.21
1838.03
1837.45
1837.21
1837.21
2074.13
1840.27
1837.22
1837.21
1837.22
1837.21
1837.21
1837.65
1837.22
1837.27
1837.21
1837.21
1837.21
1837.21
1841.2
1837.21
1837.21
1839.18
1837.21
1855.23
1838.23
1873.69
1837.21
1837.27
1837.21
1837.21
1837.21
1837.21
1837.21
1837.21
1837.21
1837.21
1837.21
1837.21
1837.24
1837.21
1837.22
1837.21
1841.82
1837.24
1837.21
1976.34
1837.24
2079.33
1837.22
1837.21
1837.21
1875.3
1837.24
1837.26
1837.21
1838.18
1837.22
1837.43
1844.77
1837.22
1837.21
1837.57
1837.25
1837.21
1837.21
1838.71
1837.21
1837.21
1837.21
1837.24
1837.21
1837.27
1837.23
1837.21
1837.21
2056.41
1837.21
2443.13
1837.21
2040.67
1837.21
1837.25
1837.39
1837.22
1838.4
1837.21
1837.41
1837.39
1837.47
1837.37
1838.46
1837.21
1837.21
1837.21
1837.28
1837.21
1837.22
1837.21
1837.21
1837.21
1838.54
1837.21
1837.21
1837.35
1837.22
1837.23
1838.12
1838.67
1838.53
1837.51
1839.68
1837.26
1895.87
1837.21
1921.92
1839.92
1870.88
1837.21
1837.21
1837.21
1837.23
1838.88
1837.21
1837.21
1837.21
1837.66
1837.21
1842.79
1837.25
1837.22
1896.78
1837.21
1837.21
1990.84
1868.35
1837.22
1837.22
1837.21
1837.21
1837.22
1844.11
1930.2
1837.21
1935.02
1837.21
1837.22
1837.22
1837.21
1837.22
1837.38
1837.23
1837.21
1837.21
1837.21
1844.7
1837.22
1837.21
1837.25
1837.21
1838.08
1837.21
1837.21
1837.22
1837.21
1843.7
1837.21
1838.81
1837.23
1837.21
1837.21
1838.51
1842.6
1837.21
1837.22
1904.48
1841.87
1839.16
1837.21
1837.22
1837.29
1837.62
1837.21
1837.22
1852.57
1837.22
1837.23
1837.22
1837.21
1839.1
1842.12
1843.04
1837.22
1837.24
1837.22
1837.23
1837.22
1837.23
1837.24
1842.86
1837.22
1837.21
1837.23
1837.26
1837.21
1837.21
1837.21
1837.26
1837.21
1837.21
1837.21
1837.23
1837.21
1837.21
1837.22
1847.9
1837.21
1837.21
1837.22
1837.21
1842.25
1837.21
1837.21
1837.23
1837.21
1837.23
1839.13
1837.86
1837.21
1837.21
1837.21
1839.49
1837.56
1841.99
1837.22
1837.21
1841.42
1837.21
1837.23
1837.33
1838.2
1837.21
1837.21
1837.21
1837.21
1837.21
1837.32
1837.21
1837.21
1837.21
1837.21
1842.38
1837.21
1837.41
1837.21
1837.21
1837.59
1840.9
1837.89
1837.78
1837.21
1837.21
1837.28
1839.38
1837.21
1837.21
1837.21
1860.82
1837.21
1837.6
1837.21
1837.21
1837.21
1837.21
1838.2
1838.84
1837.23
1837.56
1840.91
1837.22
1837.22
1837.55
1838.02
1837.22
1837.21
1837.21
1840.33
1837.21
2112.87
1837.3
1837.29
1837.21
1837.27
1837.22
1837.21
1837.21
1841.41
1837.21
1837.22
1837.58
1840.2
1839.06
1837.21
1837.21
1837.21
1837.21
1837.21
1837.21
1837.21
1845.16
1837.23
1838.57
1837.21
1837.21
1837.21
1838.66
1853.58
1837.21
1837.21
1837.21
1837.21
1837.21
1837.21
1864.12
1837.21
1837.21
1838.99
1837.22
1837.21
1837.21
1837.21
1837.21
1837.28
2917.26
1837.35
1837.21
1837.21
1837.21
1837.21
1837.21
1837.21
1837.21
1837.21
1837.21
1837.21
1837.21
1837.21
1837.21
1837.21
1837.21
1837.21
1837.21
1837.21
1837.21
1838.44
1841.13
1840.14
1845.01
1837.21
1837.21
1837.21
1837.21
1837.21
1837.21
1837.22
1837.21
1837.21
1846.06
1837.21
1837.57
1837.22
1837.22
1837.21
1837.21
1974.65
1939.86
1837.21
1837.21
1837.21
1837.49
1837.21
1837.21
1842.43
1837.21
1837.21
1837.21
1837.21
1837.21
1837.43
1837.21
1837.22
1842.5
1837.24
1837.23
1837.22
1845.42
1837.29
1837.21
1837.21
1837.22
1860.54
1837.21
1839.29
1837.57
1837.59
1837.57
1891.26
1837.46
1837.21
1837.22
1837.21
1837.22
1837.23
1837.56
1837.21
1837.21
1837.21
1837.21
1837.21
1837.21
1845.36
1842.06
1837.22
1837.21
1837.21
1837.22
1837.23
1837.21
1837.23
1837.21
1837.22
1852.94
1837.26
1841.34
1837.21
1837.26
1837.21
1837.39
1838.13
1837.26
1837.21
1837.22
1837.21
1838.27
1837.22
1837.54
1843.03
1837.21
1837.21
1837.22
1837.21
1837.21
3512.41
1837.21
1837.21
1837.21
1850.52
1837.21
1837.21
1837.24
1837.21
1837.49
1849.46
1837.21
1837.74
1837.21
1837.6
1837.21
1837.21
1837.21
1837.41
1837.21
1837.31
1837.25
1837.21
1844.05
1837.21
1837.21
1837.21
1838.35
1958.27
1837.21
1837.5
1838.58
2068.96
1837.32
1837.22
1837.21
1837.21
1837.21
1840.15
1840.38
1840.33
1838.66
1840.4
1837.21
1840.53
1840.55
1837.75
1837.78
1837.21
1838.4
1837.21
1837.21
1837.21
1837.91
1837.21
1837.21
1837.21
1837.34
1837.21
1837.21
1837.22
1837.21
1837.22
1837.22
1837.21
1839.47
1844.87
1837.22
1840.06
1837.22
1837.22
1837.23
1837.22
1837.22
1837.21
1837.23
1838.79
1837.22
1837.21
1837.21
1837.21
1837.21
1881.55
1837.21
1837.23
1837.21
1837.25
1837.62
1837.21
1837.21
1837.23
1837.21
1837.21
1837.21
1837.21
1837.21
1837.23
1837.21
1837.22
1842.29
1837.21
1840.08
1844.09
1837.21
1837.28
1837.21
1837.23
1837.23
1837.21
1837.21
1842.39
1841.04
1841.3
1837.21
1861.75
1837.23
1837.21
1837.21
1837.21
1837.21
1837.21
1837.4
1868.41
1837.21
1837.21
1837.21
1837.22
1837.23
1837.21
1837.21
1837.77
1838.59
1837.23
1837.21
1838.33
1837.23
1837.22
1837.21
1837.21
1839.48
1837.21
1837.22
1837.21
1837.22
1839.19
1837.23
1837.22
1837.27
1837.53
1837.22
1837.21
1847.29
1837.22
1837.21
1837.22
1841.24
1837.21
1837.21
1837.22
1842.22
1837.26
1843.35
1837.22
1837.22
1847.27
1837.22
1837.21
1844.14
1837.22
1837.21
1837.22
1837.21
1840.77
1837.21
1837.21
1846.15
1837.22
1840.58
1837.22
1845.36
1837.22
1837.21
1843.14
1837.22
1837.21
1838
1837.22
1837.22
1843.19
1837.21
1837.21
1837.21
1844.84
1840.63
1837.21
1837.31
1837.21
1837.37
1847.92
1859.67
1837.22
1838.77
1837.21
1847.88
1837.21
1837.21
1837.22
1837.21
1837.21
1837.21
1837.21
1837.22
1837.71
1855.56
1837.22
1837.28
1837.23
1837.21
1837.21
1837.23
1837.23
1837.21
1840.94
1837.56
1837.21
1837.21
1837.21
1844.37
1837.21
1837.21
1841.96
1837.21
1837.21
1837.21
1837.22
1837.73
1838.39
1843.52
1855.99
1837.21
1837.21
1854.42
1837.21
1837.21
1837.22
1841.94
1843.66
1838.06
1839.06
1837.21
1837.21
1850.53
1837.21
1837.22
1837.21
1837.21
1837.21
1837.21
1837.21
1837.21
1837.21
1844.68
1837.22
1837.21
1837.34
1837.22
1837.21
1845.75
1837.21
1837.21
1837.21
1837.21
1837.21
1837.21
1837.42
1837.21
1837.24
1844.35
1837.32
1837.75
1837.22
1837.21
1839.1
1850.94
1837.21
1837.64
1837.21
1837.21
1838.51
1843.63
1839.91
1840.36
1837.21
1839.31
1839.3
1853.27
1837.21
1841.49
1838.48
1838.35
1849.02
1837.5
1838.81
1838.26
1837.22
1838.22
1838.34
1838.42
1837.54
1838.79
1837.54
1837.64
1844.25
1840.79
1839.61
1837.21
1837.21
1838.78
1837.21
1837.22
1844.76
1837.21
1878.17
1837.56
1837.21
1837.21
1837.21
1837.21
1837.52
1838.67
1845.74
1837.63
1855.56
1837.21
1865.18
1837.57
1838.23
1837.21
1837.42
1837.21
1837.21
1837.23
1837.21
1837.7
1837.21
1837.21
1837.21
1868.88
1837.52
1838.59
1838.22
1837.24
1837.23
1837.26
1837.21
1837.21
1837.22
1837.21
1837.21
1837.21
1841.14
1851.53
1839.98
1844.2
1839.14
1837.33
1837.21
1838.96
1838.32
1837.85
1839.23
1837.21
1837.21
1837.21
1840.7
1837.99
1837.71
1837.21
1837.21
1837.21
1837.21
1872.55
1837.21
1838.99
1837.21
1840.05
1838.89
1837.21
1837.22
1839.63
1841.68
1845.35
1841.45
1837.21
1851.61
1838.97
1837.21
1837.56
1837.9
1837.21
1839.09
1837.21
1839.12
1874.62
1842.33
1838.85
1850.12
1839.56
1839.2
1837.21
1839.73
1902.39
1837.23
1845.01
1837.22
1837.21
1837.57
1837.21
1845.1
1837.22
1837.23
1837.23
1837.22
1837.33
1837.23
1837.23
1837.64
1837.21
1837.21
1837.21
1837.23
1837.21
1839.58
1843.49
1837.22
1851.08
1837.21
1837.21
1837.21
1857.09
1844.3
1837.21
1837.22
1850.15
1852.64
1840.45
1863.31
1837.21
1844.29
1837.22
1837.21
1837.21
2934.54
1837.21
1843.25
1837.21
1849.45
1878.59
1838.92
1837.21
1839.06
1837.22
1837.23
1837.21
1837.21
1837.21
1837.21
1837.21
1878.55
1848.78
1839.16
1837.21
1844.51
1838.65
1844.93
1837.21
1845.03
1850.8
1869.62
1837.23
1837.21
1837.21
1837.21
1837.21
1837.21
1837.63
1837.3
1838.66
1842.14
1838.9
1837.78
1847.5
1839.16
1838.91
1843.97
1837.21
1940.94
1839.94
1837.21
1837.21
1862.86
1844.89
1837.21
1837.21
1837.21
1837.92
1837.21
1874.45
1886.04
1890.87
1861.76
1837.21
1864.13
1842.3
1837.21
1837.39
1837.21
1837.23
1845.22
1837.26
1837.23
2049.33
1838.05
1837.21
1837.23
1837.21
1837.21
1837.21
1837.29
1837.21
1837.23
1838.76
1846.66
1843.94
1838.84
1837.4
1837.22
1837.21
1837.21
1837.21
1847.96
1848.48
1837.21
1837.21
1837.64
1837.21
1837.21
1837.21
1837.21
1841.04
1842.45
1838.7
1847.68
1845.9
1837.21
1845.54
1837.21
1839.48
1843.96
1837.21
1844.27
1837.21
1837.21
1844.47
1837.21
1837.22
1842.58
1844.57
1843.57
1842.31
1837.21
1837.83
1838.21
1841.4
1837.43
1837.62
1842.23
1843.54
1841.73
1841.01
1837.21
1837.21
1837.69
1873.45
1840.96
1844.12
1837.23
1842.45
1837.21
1837.21
1889.69
1842.78
1837.99
1843.56
1838.74
1885.1
1839.79
1837.21
1841.43
1837.22
1842.76
1837.21
1842.14
1844.91
1837.21
1843.94
1837.21
1842.56
1842.51
1837.21
1837.21
1844.27
1837.21
1837.21
1837.21
1837.21
1841.94
1837.22
1842.29
1837.84
1837.21
1837.21
1841.05
1837.39
1837.21
1838.19
1837.21
1837.21
1837.21
1837.21
1838.75
1838.77
1841.48
1837.21
1837.21
1842.48
1837.21
1837.51
1871.02
1837.21
1837.21
1837.22
1837.22
1850.35
1837.21
1837.21
1837.21
1837.21
1837.21
1864.75
1868.23
1837.23
1837.22
1859.72
1837.22
1842.99
1837.21
1838.65
1837.21
1853.33
1841.76
1837.21
1837.21
1837.22
1840.88
1843.82
1837.21
1838.23
1837.22
1837.21
1837.24
1837.22
1837.21
1838.14
1837.21
1845.01
1837.21
1837.21
1837.21
1837.22
1837.21
1844.25
1839.18
1837.21
1837.21
1844.47
1837.21
1837.3
1837.21
1837.21
1838.29
1840.23
1837.33
1837.22
1837.21
1837.23
1841.07
1837.21
1843.87
1837.21
1842.28
1843.09
1837.21
1840.31
1842.42
1840.62
1838.8
1844.08
1837.21
1837.21
1837.21
1837.3
1837.22
1837.78
1839.47
1837.21
1837.4
1837.21
1837.22
1841.57
1842.49
1837.21
1841.2
1838.32
1837.21
1838.9
1837.21
1837.21
1837.21
1841.69
1844.34
1843.37
1837.21
1837.21
1837.21
1839.14
1837.22
1839.57
1837.21
1837.21
1838.71
1843.25
1837.21
1837.21
1837.59
1837.21
1837.21
1837.22
1842.54
1844.62
1837.5
1837.21
1837.69
1839.73
1837.25
1855.59
1837.41
1865.58
1837.24
1839.25
1840.67
1839.02
1846.33
1860.71
1867.4
1854.77
1837.21
1930.78
1845.56
1850.38
1837.21
1901.07
1856.58
1837.21
1842.66
1845.83
1837.21
1840.78
1837.21
1839.51
1844.44
1847.73
1842.48
1846.99
1837.21
1837.21
1837.22
1837.21
1844.31
1837.21
1848.83
1839.15
1837.22
1837.22
1837.22
1837.21
1837.21
1837.21
1837.24
1837.21
1842.53
1837.21
1844.38
1837.22
1837.41
1837.21
1837.21
1837.55
1837.22
1837.22
1837.21
1837.21
1837.25
1842.79
1841.96
1847.41
1837.55
1837.22
1837.23
1837.21
1837.78
1837.21
1837.23
1837.21
1841.38
1838.15
1843.13
1837.26
1837.22
1837.22
1842.39
1837.28
1837.23
1837.3
1837.21
1837.25
1846.3
1837.52
1847.6
1837.24
1837.25
1852.14
1867.36
1837.21
1837.58
1838.07
1837.23
1838.52
1837.36
1837.22
1837.22
1837.22
1837.22
1837.21
1837.21
1865.62
1837.21
1837.36
1837.22
1837.22
1837.21
1837.21
1837.22
1838.28
1843.03
1837.43
1837.21
1837.21
1838.32
2123.1
1837.22
1837.46
2291.95
1837.21
1837.23
1837.67
1837.36
2014.92
1837.22
1838.02
1837.55
1837.21
2309.23
1837.22
1837.21
1837.21
1837.21
1837.21
1837.21
1837.21
1837.21
1837.21
1837.22
1837.22
1837.21
1837.37
1837.22
1837.21
1838.3
1837.21
1837.21
1842.51
1841.31
1837.21
1837.37
1837.21
1837.22
1837.83
1837.22
1837.21
1837.31
1837.63
1837.21
1837.21
1837.21
1837.21
1837.21
1837.23
1837.22
1847.19
1848.35
1851.88
1837.21
1838.05
1837.37
1837.22
1848.5
1837.38
1837.21
1844.62
1837.41
1847.2
1837.21
1837.39
1837.21
1838.51
1837.3
1837.9
1837.44
1837.23
1837.91
1837.87
1837.21
1837.29
1837.21
1837.29
1837.87
1837.21
1837.5
1837.77
1838.44
1837.22
1838.54
1837.88
1837.21
1837.21
1839.45
1837.23
1837.21
1837.21
1837.21
1837.78
1837.22
1837.21
1837.24
1837.21
1837.21
1837.22
1837.21
1837.54
1837.21
1837.22
1837.21
1837.21
1837.47
1837.21
1838.2
1837.21
1837.21
1837.21
1837.21
1837.94
1837.21
1837.21
1837.21
1837.21
1837.21
1837.21
1848.39
1837.21
1837.22
1857.07
1837.21
1837.27
1837.21
1837.21
1837.21
1837.22
1837.21
1837.21
1837.21
1837.23
1837.21
1837.21
1837.21
1837.21
1837.21
1843.08
1837.21
1837.21
1839.95
1837.21
1837.21
1837.21
1837.21
1837.33
1838.69
1837.21
1837.21
1838.14
1839.5
1838.35
1837.21
1837.21
1837.21
1837.21
1837.6
1837.41
1837.21
1837.21
1837.22
1843.07
1837.21
1837.21
1837.21
1838.56
1838.75
1837.29
1838.63
1839.08
1837.21
1837.25
1837.21
1837.22
1837.31
1986.2
1837.72
1837.21
1837.83
1838.62
1837.21
1837.21
1838.49
1838.19
1838.49
1837.21
1837.23
1837.21
1837.3
1839.42
1837.21
1839.4
1837.21
1837.21
1839.03
1837.22
1837.21
1837.74
1839.07
1837.21
1837.23
1839.01
1837.21
1837.21
1839.39
1837.73
1837.21
1837.23
1837.66
1881.45
1837.42
1838.65
1837.21
1837.21
1838.27
1837.22
1838.23
1837.22
1837.21
1837.21
1837.23
1837.24
1837.22
1837.22
1837.23
1837.21
1837.25
1837.22
1837.23
1842.67
1837.22
1837.21
1837.27
1842.77
1837.21
1839.39
1838.44
1837.21
1837.22
1837.21
1839.68
1837.21
1837.26
1837.21
1837.21
1837.21
1837.21
1842.56
1837.28
1837.29
1843.3
1839.77
1837.21
1837.22
1837.29
1837.21
1837.21
1837.22
1837.61
1837.22
1837.34
1837.21
1845.67
1843.52
1837.29
1837.63
1863.4
1839.1
1837.23
1837.29
1856.58
1838.14
1837.67
1837.33
1838.08
1837.21
1837.69
1862.04
1838.04
1837.49
1837.21
1838.02
1839.68
1837.21
1838.76
1838.05
1837.23
1838.63
1837.31
1838.91
1840.95
1837.21
1838.57
1837.23
1837.22
1841.65
1837.22
1838.43
1837.21
1874.46
1867.78
1841.32
1837.21
1837.21
1837.21
1839.02
1837.23
1872.4
1837.21
1839.08
1838.43
1842.95
1837.21
1855.99
1838.01
1838.33
1840.44
1840.94
1837.21
1837.23
1837.21
1837.21
1837.22
1837.21
1837.21
1837.22
1837.21
1837.21
1837.21
1842.33
1837.21
1837.22
1837.21
1843.47
1839.1
1837.29
1838.98
1837.21
1837.21
1837.21
1837.21
1837.21
1837.21
1837.21
1837.21
1837.26
1837.22
1841.52
1837.21
1837.23
1838.91
1838.74
1837.21
1837.93
1837.26
1837.21
1837.21
1840.31
1837.21
1837.21
1837.21
1837.21
1837.21
1837.21
1837.21
1837.21
1837.21
1837.21
1839.02
1842.07
1837.21
1838.36
1837.21
1844.07
1839.42
1837.21
1837.21
1842.64
1837.21
1837.4
1837.21
1837.79
1837.4
1837.21
1837.21
1838.11
1839.61
1837.22
1838.82
1837.21
1837.22
1837.4
1838.38
1837.21
1837.24
1837.23
1837.23
1837.21
1838
1837.38
1841.75
1843.14
1837.23
1837.25
1837.39
1837.97
1837.21
1837.22
1837.21
1837.21
1837.21
1837.21
1837.21
1842.83
1837.39
1837.22
1837.28
1856.21
1853.13
1837.21
1839.02
1840.67
1837.22
1839.02
1856.03
1837.21
1841.96
1843.59
1837.22
1837.25
1837.22
1840.15
1839.04
1837.31
1837.31
1837.24
1837.21
1837.35
1837.4
1839.06
1838.15
1837.21
1837.21
1837.21
1855.95
1837.31
1837.23
1837.22
1849.56
1856.59
1837.21
1837.24
1837.22
1837.3
1838.79
1842.53
1837.44
1838.28
1837.24
1839.13
1837.21
1837.21
1837.74
1837.21
1837.21
1837.21
1837.21
1837.21
1837.21
1837.21
1837.22
1837.22
1837.26
1837.22
1837.21
1846.13
1839.22
1837.21
1837.93
1837.21
1837.21
1837.21
1841.62
1840.07
1837.82
1837.21
1837.21
1837.21
1837.22
1837.83
1837.21
1859.24
1837.22
1837.21
1837.31
1838.51
1838.65
1838.08
1837.21
1862.09
1859.15
1839.8
1883.42
1865.22
1837.22
1844.29
1840.31
1837.22
1837.21
1837.21
1837.21
1837.21
1837.21
1851.53
1841.93
1867.04
1839.72
1866.99
1837.21
1837.35
1837.34
1852.1
1837.87
1859.91
1838.04
1844.95
1845.04
1837.21
1837.64
1864.06
1837.22
1837.21
1838.58
1837.21
1837.21
1866.68
1838.07
1837.21
1837.21
1837.22
1837.23
1837.21
1837.21
1837.21
1837.43
1837.71
1837.21
1837.21
1837.23
1870.73
1839.21
1837.21
1837.21
1837.21
1876.31
1837.21
1837.22
1838.56
1837.21
1837.22
1837.21
1837.21
1843.01
1837.74
1837.21
1837.21
1837.21
1837.21
1837.23
1837.81
1837.21
1837.4
1837.33
1837.21
1838.92
1837.21
1837.21
1837.21
1837.21
1837.21
1837.21
1837.22
1837.21
1837.21
1842.02
1837.21
1855.09
1837.22
1837.21
1837.21
1837.21
1837.21
1837.22
1839.54
1869.12
1843.9
1867.52
1837.51
1837.49
1838.82
1874.37
1865.59
1839.7
1840.01
1837.21
1837.22
1837.21
1837.21
1837.21
1837.21
1838.85
1943.55
1837.21
1837.81
1837.21
1837.22
1837.22
1837.21
1837.78
1837.22
1837.34
1838.53
1837.73
1837.22
1837.21
1837.22
1837.25
1837.21
1837.22
1847.23
1837.22
1850.42
1837.21
1837.21
1837.49
1853.9
1847.79
1851.67
1850.46
1839.1
1838.14
1838.44
1840.55
1850.61
1837.21
1837.24
1837.21
1837.22
1839.73
1847.2
1840.33
1838.52
1847.82
1846.77
1837.21
1846.87
1851.41
1837.21
1837.21
1837.21
1844.78
1844.22
1837.25
1837.21
1844.79
1846.76
1839.45
1837.89
1838.57
1844.29
1838.42
1837.21
1838.01
1838.29
1839.17
1837.21
1837.22
1839.13
1837.21
1837.21
1838.49
1837.21
1837.21
1852.84
1837.23
1838.39
1852.07
1837.23
1837.22
1838.7
1839.25
1837.67
1839.19
1843.84
1843.63
1837.31
1837.21
1839.47
1837.22
1838.75
1838.32
1837.24
1841.15
1837.37
1839.23
1837.67
1837.21
1837.33
1840.42
1837.21
1837.91
1837.21
1837.21
1837.21
1840.75
1837.22
1837.5
1837.21
1837.21
1840.14
1840.55
1840.89
1839.45
1837.21
1850.37
1837.76
1838.19
1837.21
1841.03
1840.14
1853.57
1837.72
1837.21
1842.78
1837.21
1837.21
1837.21
1837.21
1837.22
1837.22
1837.21
1837.67
1837.22
1837.45
1837.21
1837.21
1837.21
1837.21
1837.21
1840.26
1839.01
1837.21
1837.21
1842.56
1837.23
1837.91
1837.22
1837.21
1845.36
1837.22
1837.21
1837.21
1837.8
1837.22
1837.21
1837.33
1837.35
1837.22
1837.21
1837.47
1837.21
1837.21
1837.21
1837.21
1837.21
1837.22
1837.22
1838.04
1837.21
1837.22
1837.21
1840.89
1837.21
1837.21
1837.23
1851.59
1837.23
1837.23
1837.22
1837.22
1841.93
1837.24
1837.21
1837.21
1837.21
1837.21
1840.14
1837.21
1837.21
1837.21
1837.23
1837.21
1839.14
1837.21
1837.21
1837.23
1837.22
1837.21
1837.21
1837.21
1837.21
1837.21
1837.21
1837.21
1837.76
1837.21
1837.21
1837.21
1837.21
1837.21
1837.21
1840.38
1837.22
1837.22
1837.21
1837.21
1837.97
1837.21
1837.22
1839.03
1837.28
1840.15
1837.21
1837.21
1837.21
1837.23
1842.14
1837.21
1837.21
1841.83
1837.21
1837.21
1837.21
1837.21
1837.22
1837.22
1877.52
1837.21
1837.21
1837.21
1842.15
1842.05
1841.96
1837.5
1849.57
1839.44
1837.22
1837.21
1837.22
1841.85
1837.21
1837.23
1837.21
1837.23
1903.95
1837.21
1837.21
1837.22
1838.42
1837.27
1838.59
1840.94
1837.22
1844.42
1844.59
1837.22
1837.27
1837.21
1837.21
1837.22
1837.22
1837.22
1837.22
1837.22
1841.49
1840.71
1842.52
1873.21
1855.53
1837.39
1837.22
1837.22
1837.24
1837.45
1837.22
1837.21
1837.21
1837.23
1849.53
1837.23
1838.21
1838.43
1837.21
1852.57
1838.38
1840.8
1837.23
1837.21
1840.06
1837.21
1837.21
1837.21
1844.09
1852.38
1854.46
1837.21
1851.89
1837.21
1837.21
1837.21
1837.21
1837.21
1842.72
1838.59
1837.21
1837.21
1838.77
1837.46
1837.21
1849.37
1837.22
1837.21
1841.72
1837.21
1837.22
1837.22
1838.21
1837.22
1837.21
1837.22
1837.21
1837.35
1837.22
1838.16
1837.21
1837.21
1837.22
1837.26
1841.82
1837.21
1837.22
1837.21
1852.18
1837.69
1849.51
1862.03
1843.2
1837.21
1841.29
1842.68
1837.22
1837.22
1846.96
1837.3
1837.21
1842.39
1919.07
1837.22
1837.24
1837.21
1842.68
1837.21
1837.21
1837.21
1837.23
1867.88
1837.23
1854.87
1837.23
1841.26
1837.23
1837.22
1840.38
1837.23
1837.36
1837.21
1837.21
1837.5
1860.2
1842.37
1841.07
1842.57
1843.29
1842.46
1837.22
1837.21
1837.21
1841.62
1841.44
1838.62
1837.24
1837.23
1842.89
1842.55
1840.25
1844.09
1837.21
1838.3
1839.75
1842.43
1837.21
1853.55
1838.89
1838.97
1838.11
1842.67
1838.83
1866.54
1837.22
1853.9
1837.21
1838.9
1837.59
1841.13
1861.84
1837.21
1837.22
1837.72
1838.83
1837.25
1840.93
1837.21
1837.21
1856.56
1837.21
1837.22
1837.24
1837.21
1837.65
1837.21
1862.26
1838.51
1837.21
1837.22
1859.47
1837.31
1838.24
1840.43
1865.64
1837.33
1837.21
1837.22
1841.79
1837.21
1837.21
1837.21
1837.21
1837.24
1859.47
1837.22
1837.21
1844.58
1838.71
1837.21
1837.22
1851.07
1837.22
1837.23
1838.78
1837.21
1837.21
1837.21
1844.28
1844.79
1846.34
1837.22
1837.23
1837.21
1842.09
1841.05
1837.4
1838.63
1837.21
1837.21
1837.21
1837.22
1837.21
1874.39
1840.87
1837.21
1838.52
1837.21
1837.21
1839.74
1837.21
1837.5
1837.21
1841.71
2282.36
1837.21
1837.21
1839.62
1870.28
1837.21
1837.59
1842.65
1837.21
1837.21
1837.21
1837.21
1837.21
1837.21
1837.21
1837.21
1837.22
1837.21
1837.23
1864.46
1837.21
1842.61
2330.77
1839.52
1865.07
1837.21
1838.42
1837.23
1837.21
1862.27
1848.08
1838.65
1866.9
1984.4
1858.84
1837.22
1839.4
1880.01
1844.73
1883.37
1842.09
1837.24
1912.42
1837.21
1837.21
1837.21
1837.51
1852.41
1837.24
1842.16
1837.21
1837.21
1837.22
1848.43
1838.1
1837.21
1895.23
1893.05
1839.67
1912.23
1890.42
1837.21
1837.21
1870.8
1837.22
1837.21
1837.21
1837.21
1837.21
1837.24
1837.21
1922.28
1841.96
1904.12
1842.66
1837.55
1840.23
1837.22
1837.21
1837.21
1887.5
1837.21
1837.21
1837.21
1902.71
1837.25
1843.13
1868.64
1838.14
1837.52
1846.16
1837.24
1870.49
1837.22
1837.22
1838.7
1841.73
1847.2
1837.24
1837.23
1837.47
1841.32
1837.22
1868.24
1840.36
1853.32
1912.22
1837.22
1837.22
1877.69
1839.49
1837.22
1897.57
1841.74
1839.92
1837.21
1897.29
1838.55
1891.66
1837.21
1837.21
1837.22
1837.53
1837.21
1837.22
1847.41
1843.27
1857.09
1837.24
1837.21
1848.79
1849.89
1837.21
1837.21
1837.21
1838.91
1902.73
1845.13
1866.89
1837.21
1843.45
1843.32
1837.33
1837.21
1837.23
1837.22
1837.22
1837.21
1838.63
1837.21
1837.23
1837.47
1843.1
1837.21
1837.21
1837.21
1837.21
1842.77
1849.3
1837.22
1843.13
1837.24
1837.21
1837.21
1837.21
1837.21
1843.21
1840.88
1837.21
1837.21
1843.12
1837.22
1837.23
1837.22
1837.21
1837.21
1862.39
1837.23
1837.69
1837.22
1837.21
1837.21
1860.92
1837.21
1837.21
1843.94
1837.22
1837.26
1837.21
1837.21
1841.07
1837.22
1838.07
1837.24
1837.96
1837.21
1837.22
1837.22
1837.21
1837.21
1837.23
1837.22
1857.73
1841.8
1837.21
1837.21
1837.25
1837.21
1837.23
1837.21
1837.22
1837.22
1837.23
1837.23
1837.23
1837.21
1837.25
1838.06
1844.2
1837.23
1842.77
1837.29
1837.24
1838.37
1837.23
1840.92
1837.25
1839.8
1837.23
1837.21
1837.21
1837.21
1837.23
1837.23
1837.31
1856.16
1837.22
1837.21
1837.21
1837.23
1837.24
1837.22
1837.21
1837.22
1837.21
1837.3
1837.32
1837.26
1837.24
1837.21
1837.33
1837.33
1837.32
1837.24
1837.24
1837.22
1837.9
1837.22
1837.77
1837.58
1837.22
1837.33
1838
1861.96
1837.32
1898.08
1841.86
1837.21
1847.92
1837.21
1919.22
1837.21
1923.17
1840.18
1904.26
1853.06
1837.21
1837.21
1837.22
1841.84
1841.1
1837.21
1884.67
1837.3
1838.76
1837.21
1837.22
1837.21
1837.22
1879.28
1837.21
1837.22
1837.22
1837.21
1837.22
1837.21
1882.61
1947.7
1840.42
1837.22
1837.21
1846.91
1837.21
1837.21
1838.35
1838.95
1838.42
1837.21
1837.21
1850.24
1838.31
1837.21
1837.21
1842.7
1872.01
1842.56
1837.21
1903.9
1837.65
1837.21
1837.23
1837.21
1837.21
1837.24
1837.26
1837.21
1837.21
1837.21
1837.24
1837.24
1837.21
1837.21
1837.21
1837.21
1837.21
1837.21
1837.21
1837.21
1837.21
1837.21
1837.21
1839.09
1852.37
1847.32
1837.21
1837.21
1837.21
1837.21
1838.22
1837.21
1837.22
1837.23
1837.21
1837.22
1837.21
1837.36
1837.21
1837.21
1837.22
1837.21
1837.21
1837.23
1837.21
1837.23
1837.32
1840.86
1837.21
1837.21
1837.7
1837.21
1837.21
1837.22
1837.21
1837.21
1837.21
1837.21
1837.23
1837.22
1837.23
1844.51
1844.87
1837.21
1837.23
1837.22
1837.21
1837.21
1837.21
1837.23
1837.21
1841.31
1847.63
1837.21
1847.89
1837.22
1837.21
1845.69
1848.27
1837.21
1838.91
1841.05
1837.21
1837.21
1837.21
1837.23
1837.21
1847.96
1837.21
1849.37
1837.22
1837.21
1837.21
1855
1855.24
1853.48
1837.22
1837.21
1837.21
1837.21
1837.21
1837.21
1837.21
1837.21
1837.21
1837.21
1854.96
1837.21
1837.23
1837.23
1837.23
1837.22
1837.21
1837.22
1840.19
1837.48
1838.23
1837.21
1837.23
1837.22
1837.21
1837.23
1837.21
1837.23
1837.21
1838.57
1837.22
1837.21
1837.22
1838.59
1837.21
1837.39
1837.24
1837.22
1837.22
1837.21
1837.22
1839.45
1837.21
1837.57
1837.21
1837.21
1837.21
1837.22
1837.21
1837.21
1837.22
1837.21
1837.22
1837.22
1837.21