/*--------------------------------*- C++ -*----------------------------------*\
| =========                 |                                                 |
| \\      /  F ield         | OpenFOAM: The Open Source CFD Toolbox           |
|  \\    /   O peration     | Version:  v2012                                 |
|   \\  /    A nd           | Website:  www.openfoam.com                      |
|    \\/     M anipulation  |                                                 |
\*---------------------------------------------------------------------------*/
FoamFile
{
    version     2.0;
    format      ascii;
    class       volScalarField;
    location    "1";
    object      H2O;
}
// * * * * * * * * * * * * * * * * * * * * * * * * * * * * * * * * * * * * * //

dimensions      [0 0 0 0 0 0 0];


internalField   nonuniform List<scalar> 
108993
(
0
2.44527e-164
9.62261e-120
0
0
0
0
0
0
0
0
0
5.91136e-286
8.90143e-187
0
2.71709e-51
0
0
0
6.50838e-188
8.04258e-297
7.26096e-250
1.99784e-165
0
2.41212e-286
0
0
5.76586e-193
0
4.793e-249
1.30522e-247
1.14193e-179
6.25424e-262
1.5548e-168
9.69447e-270
0
7.47813e-259
8.88576e-254
2.21388e-66
0
0
1.27676e-211
2.31457e-194
1.31086e-286
0
8.49723e-115
4.28082e-265
0
0
0
0
0
0
1.1953e-261
3.22989e-221
0
1.11297e-257
2.47098e-269
0
0
0
0
3.69736e-234
4.92301e-281
2.60182e-279
2.4387e-215
1.39246e-283
0
1.1249e-175
0
0
0
9.21853e-261
0
6.24096e-220
3.37484e-227
2.41668e-282
6.23214e-178
0
0
7.94896e-202
0
0
1.1451e-197
0
0
5.21535e-183
0
4.39944e-279
1.82668e-287
3.55101e-278
0
0
0
0
0
5.59613e-239
0
0
0
3.28993e-268
0
0
0
0
0
9.31744e-225
0
4.89295e-275
0
0
0
1.25667e-127
4.80189e-77
0
1.36707e-69
5.23472e-277
0
2.50555e-83
0
0
0
4.16392e-69
0
0
1.79569e-72
5.39721e-158
1.04707e-178
0
0
1.47403e-146
0
6.93316e-215
0
1.19387e-222
0
0
1.36951e-219
4.74593e-236
0
0
0
6.58337e-93
2.50555e-239
0
0
0
1.97794e-124
0
0
0
3.09896e-260
9.7576e-121
4.30614e-26
1.27857e-241
0
4.13574e-181
4.7114e-261
0
0
1.82949e-27
1.8881e-265
0
0
7.63965e-186
2.80751e-92
4.90631e-285
3.27617e-282
2.04491e-279
8.98822e-208
0
0
0
0
0
7.88735e-218
0
1.30258e-279
1.36283e-185
7.30747e-240
3.68471e-170
4.42644e-238
2.77632e-265
0
1.46717e-169
0
0
0
8.82625e-203
1.04942e-145
0
0
3.26406e-203
2.6167e-96
0
9.06277e-129
0
0
1.19055e-236
6.78675e-149
3.25481e-285
0
0
3.35243e-259
0
1.79845e-40
0
3.91386e-98
7.55663e-201
0.00179862
0
1.92002e-237
0
1.86664e-96
3.49729e-57
1.23801e-243
3.10592e-210
0
3.61481e-261
2.2177e-235
0
2.20552e-26
1.49596e-110
5.22269e-87
0
4.09672e-279
0
0
1.27849e-52
8.74406e-210
4.27322e-109
0
4.0856e-277
3.17662e-206
4.45891e-225
0
2.4184e-240
0
0
0
2.152e-248
0
0
4.853e-264
1.6745e-247
0
0
4.42125e-65
8.60958e-256
2.16093e-250
3.80032e-231
0
0
8.15477e-215
1.77113e-256
6.61419e-260
0
1.66251e-143
1.10402e-233
7.70378e-293
0
0
0
9.01902e-70
0
0
7.64977e-168
5.10316e-228
9.48656e-290
0
0
2.99265e-132
0
1.17473e-07
0
1.54717e-193
2.38997e-245
3.87356e-76
0
1.05458e-183
4.38731e-181
0
4.23585e-115
7.49524e-239
1.73711e-222
9.75492e-107
7.54095e-281
1.6593e-177
4.15967e-139
1.22953e-132
0
6.32595e-181
1.41965e-174
1.50727e-179
0
0
0
3.04983e-172
1.79567e-166
0
0
3.13291e-23
0
0
0
1.83171e-233
0
0
1.82195e-230
3.46685e-101
6.27045e-277
1.81022e-249
0
3.52191e-268
0
4.12225e-33
1.81905e-289
2.77616e-127
1.42428e-93
0
0
0
5.74945e-236
0
1.4581e-207
1.90787e-37
6.2117e-16
4.37602e-31
0
1.31972e-127
9.59748e-203
9.98174e-41
1.45955e-11
0
0
0
0
0
0
0
1.02373e-221
1.07541e-63
1.04114e-183
4.45351e-212
0
1.33033e-232
1.5526e-150
0
0
0
0
0
1.12053e-121
0
0
0
0
3.11672e-139
5.20433e-185
0
0
0
0
9.12578e-152
9.94557e-221
0
5.22562e-153
1.32674e-219
0
5.0966e-12
3.45177e-99
0
2.53033e-147
5.06843e-13
4.25513e-161
1.51067e-25
0
3.41078e-193
1.67812e-33
1.52353e-189
4.29623e-34
2.53884e-31
0
2.62323e-47
9.52423e-224
0
2.9718e-151
1.32784e-88
0
4.54394e-116
3.15936e-33
0
9.76779e-31
0
1.33856e-133
0
0.00016375
4.54719e-257
5.17967e-69
1.1592e-218
0
0
1.95853e-89
3.07981e-221
0
0
0
1.2449e-222
0
5.14227e-06
0
8.94876e-161
7.41137e-36
7.39415e-243
0
0
2.0732e-20
9.9471e-152
9.62661e-145
0
0.000130045
1.79535e-161
2.18199e-06
0
7.30309e-284
1.57842e-09
2.48232e-261
0
7.15436e-12
0
0.000506355
0
1.36493e-05
8.53093e-248
0
0
0
2.42426e-221
3.52785e-263
6.06935e-210
6.36391e-207
2.53004e-165
3.83704e-158
1.07739e-292
1.12264e-136
5.0244e-112
8.02641e-123
0
9.95922e-163
3.09894e-300
0
0
1.41057e-161
3.83597e-157
3.0765e-260
4.75835e-232
0
8.92696e-294
5.55924e-176
4.18642e-251
0
4.19683e-116
0
0
1.06761e-130
8.70535e-134
0
0
1.68485e-131
0
0
1.22694e-272
1.88342e-224
6.16488e-105
0
2.77939e-97
4.34024e-211
0
0
6.4353e-71
0
0
0
2.56671e-157
0
9.48452e-135
7.40744e-127
2.73426e-137
0
0
0
2.43371e-191
1.60924e-68
0
0
5.81286e-246
0
0
0
0
2.70232e-257
0
0
1.52603e-139
3.71344e-68
2.29195e-39
1.07947e-153
2.24563e-205
0
2.40987e-147
0
0
2.75403e-216
2.62638e-126
0
4.34626e-258
1.14229e-252
0
0
5.4445e-211
0
0
0
0
1.89991e-211
0
0
0
0
0
0
6.38374e-271
0
3.65342e-182
0
2.9785e-210
0
0
3.00815e-160
0
7.77305e-231
0
3.27229e-297
0
1.34884e-177
0
0
0
1.34857e-198
6.85121e-243
3.72763e-62
4.45235e-261
0
0
0
3.71863e-231
0
0
0.00421862
0
2.99046e-158
0
0
0
0
6.50237e-66
6.45866e-193
1.21787e-207
3.06827e-152
3.99746e-166
0
0
0.0231792
0
2.56584e-47
8.42382e-117
2.4564e-200
1.69407e-167
6.51964e-11
0
0
1.68659e-187
7.94532e-160
0
0
0
6.49226e-110
1.18689e-160
1.36516e-168
0
2.90803e-148
2.18307e-267
0
9.37533e-152
2.92928e-08
2.00096e-218
0
0
0
0
0
0
0
0
1.74711e-191
0
0.000110294
1.43294e-269
1.49554e-116
0
7.92441e-20
0
4.55226e-90
0
0
0
0
2.14847e-272
7.86248e-94
7.41676e-246
0
8.41482e-243
4.66292e-182
0
0
1.70411e-242
0
1.68814e-71
0
1.64283e-73
1.01219e-30
0
1.81869e-60
0
3.22102e-75
4.99735e-270
3.19985e-265
0
1.13067e-56
3.25794e-90
0
4.92987e-90
0
0
0
4.90198e-73
0
3.36635e-115
0
0
0
0
1.41386e-127
0
0
0
1.01077e-68
8.52108e-149
0
3.40638e-146
0
0
0
0
0
1.15972e-144
4.52575e-231
0
6.98516e-122
0
0
1.44129e-162
4.89866e-91
2.2579e-149
0
0
7.28449e-76
0
0
9.29377e-109
0
1.10814e-143
0
5.82752e-82
1.16587e-126
7.92337e-79
1.67973e-114
0
0
3.96623e-21
3.96722e-246
0
2.06909e-90
0
2.18875e-230
1.72607e-46
2.84431e-185
0
0
7.43274e-63
5.7037e-81
5.24636e-200
2.54588e-261
0
9.23642e-92
5.69601e-286
0
0
8.87562e-208
4.5444e-259
1.22333e-91
4.35483e-126
0
9.16647e-195
7.26652e-61
7.02031e-174
2.21972e-103
0
0
3.39743e-97
0
0
1.07964e-104
0
2.21972e-206
4.51459e-63
1.30224e-99
0
1.63447e-63
0
4.06202e-88
0
0
1.65555e-60
0
0
0
1.15563e-279
0
0
0
0
3.08272e-96
3.68908e-80
1.84683e-99
0
3.92062e-98
0
1.02256e-102
0
1.86296e-186
1.19288e-276
0
8.57663e-103
3.14203e-288
0
0
3.01233e-65
0
0
0
4.1722e-277
0
3.36081e-117
1.74686e-142
0
0
3.76437e-131
0
2.99558e-156
1.65448e-111
4.04626e-122
3.63548e-226
5.12074e-56
1.63024e-43
0
4.80457e-109
1.42523e-06
2.03318e-69
0
0
4.27253e-27
1.44885e-110
4.23949e-112
0
2.11821e-172
0
0
2.45374e-202
0
5.33309e-240
1.658e-108
0
1.42517e-167
5.70814e-114
3.07904e-76
2.18229e-45
0
1.08615e-19
0
1.50783e-109
0
3.01921e-272
0
2.66962e-83
0
2.01404e-186
4.07495e-201
0
0
0
0
2.02824e-245
6.33558e-140
0
3.08733e-30
0
2.87645e-175
4.08445e-08
0
7.9673e-07
9.99917e-175
0
0
5.44289e-19
0
2.71131e-234
1.84614e-137
0
0
6.85305e-198
2.80091e-99
9.75094e-123
2.93854e-107
1.11262e-67
3.5077e-237
0
1.36079e-137
0
0
2.62797e-205
3.21219e-109
0
1.46515e-104
7.29322e-228
7.25085e-121
0
0
4.85659e-05
4.57385e-113
0.000650918
5.13998e-118
0
1.97041e-110
0
1.28932e-198
0
0
0
0
2.10714e-205
0
0
0
3.91669e-238
8.31418e-232
5.01064e-135
9.26539e-65
1.00485e-97
9.42381e-63
2.0412e-269
3.07498e-161
0
0
1.19885e-200
1.05805e-69
0
8.32663e-131
0
0
1.24873e-143
0
9.2165e-92
1.84513e-56
0
4.62365e-10
3.83814e-273
2.13623e-10
0
2.87113e-36
2.53689e-256
0
0
1.32413e-105
0
0
0
0
5.24879e-45
4.71159e-272
0
0
0
7.0844e-12
4.65907e-246
1.22245e-225
1.03469e-07
2.21054e-33
4.40358e-213
0
0
0
1.28544e-89
0
1.55245e-07
6.60084e-161
1.36838e-08
8.58238e-107
0
0
0
4.61577e-90
1.3708e-190
0
0
1.5308e-97
0
1.92964e-81
0
0
9.49189e-75
0
4.94702e-83
0
6.91472e-95
0
2.95474e-210
9.64553e-32
2.62983e-229
5.79439e-96
0
0
9.12285e-252
3.29493e-108
0
0
0
1.56507e-09
0
3.0177e-71
0
0
1.55831e-57
1.86238e-28
0
0
0
0
0
1.75569e-102
0
4.03279e-117
6.38241e-112
2.94332e-96
4.62806e-71
0
0
2.5281e-80
0
0
0
8.006e-35
0
0
0
4.17532e-71
0
4.03061e-231
2.06906e-251
5.28451e-69
0
2.82387e-127
1.52842e-142
0
0
0
8.59118e-222
0
2.3735e-149
4.83636e-134
0
3.4325e-250
0
4.91644e-201
2.48381e-220
0
0
0
2.63394e-93
0
1.3345e-178
1.09892e-139
0
2.35147e-98
0
3.19738e-112
0
0
5.90799e-98
0
1.90615e-124
2.12236e-49
9.25305e-131
2.70489e-293
0
2.39511e-133
0
3.70121e-116
0
2.13575e-204
2.25725e-299
1.97771e-134
0
0
1.58983e-139
0
0
1.13389e-141
7.10439e-99
2.97967e-81
0
0
0
1.95513e-176
1.6403e-117
0
0
2.7739e-272
1.25837e-207
3.94351e-38
1.26373e-137
0
0
0
1.40174e-58
1.30901e-233
8.41275e-119
0
4.90765e-98
5.10231e-132
0
0
6.13406e-58
1.41637e-101
0
0
0
0
5.09228e-99
0
0
0
0
2.17527e-105
0
1.55543e-101
0
0
1.37981e-118
2.92162e-93
0
1.79702e-23
0
2.79802e-84
4.65632e-178
0
0
0
0
0
0
3.34906e-65
0
2.11982e-105
9.75725e-136
6.42366e-149
0
7.31787e-84
5.93963e-36
0
1.45637e-148
0
0
0
4.01258e-100
0
0
1.13256e-199
0
4.23958e-296
0
2.08958e-154
2.72611e-249
7.54486e-264
0
0.00723429
1.70099e-74
3.70004e-280
0
0
0
7.24486e-167
2.3374e-273
0
0
4.14529e-168
0
0
1.5431e-148
0
0
1.65711e-234
8.97063e-164
0
0
0
0
0
0
3.74302e-108
0
3.41383e-279
2.34718e-76
5.44299e-213
0
2.22474e-134
0
5.68003e-116
6.76825e-153
2.57787e-64
3.07803e-143
2.60792e-118
9.14624e-238
0
0
0
1.32382e-09
6.50222e-15
0
8.54132e-218
3.54884e-182
0
5.07303e-109
0
5.47115e-167
6.73262e-218
2.4532e-226
1.09358e-255
3.52688e-211
6.04351e-283
1.18228e-245
0
0
1.39343e-163
2.15967e-117
0
8.05583e-102
2.53917e-30
0
0
2.97776e-226
0
7.05637e-28
0
2.55559e-101
6.28818e-190
3.63294e-193
1.70361e-193
3.28911e-25
0
0
1.26493e-95
0
6.91148e-91
1.97128e-102
5.0803e-189
3.57837e-200
0
0
0
0
1.04494e-268
0
7.65146e-88
1.02872e-108
3.67288e-181
1.59844e-275
0
6.92075e-290
2.72822e-239
9.34114e-287
7.3844e-257
4.77469e-287
6.39195e-29
4.76815e-104
1.78119e-97
9.67195e-183
1.30626e-79
0
0
3.46021e-81
7.42388e-160
0
3.18751e-96
0
0
8.3716e-93
0
5.91142e-68
3.29741e-151
0
1.65367e-151
4.62492e-238
0
0.0187037
1.89092e-189
0
2.26219e-215
0
1.74636e-168
0
3.45022e-112
0
9.4408e-68
3.41286e-78
0
2.70577e-109
0
0
2.32189e-229
0
8.40273e-248
2.81691e-95
3.52057e-267
4.36708e-46
0
2.41992e-235
4.08651e-105
7.28121e-222
3.41793e-242
5.89464e-217
0
6.01619e-09
2.00525e-148
1.39779e-85
0
3.1223e-06
0
2.07761e-178
0
0
0
0
1.41254e-127
1.54983e-124
0
0
2.13344e-247
5.78942e-125
1.0776e-121
3.15626e-190
3.22891e-192
3.73683e-269
0
0
0
2.12017e-190
0
1.36321e-243
0
1.48426e-153
0
8.95379e-238
3.41066e-174
0
8.93793e-141
0
3.61274e-209
0
5.0237e-103
6.05328e-65
0
0
0
0
0
0
3.46466e-66
7.89208e-183
3.1499e-145
0
0
5.29086e-153
1.4316e-141
0
5.67276e-145
1.77357e-18
1.35793e-150
0
0
0
0
0
3.19669e-180
0
0
0
0
0
5.18274e-91
2.05076e-265
0
0
1.37407e-33
0
0
1.18357e-98
5.43311e-239
2.02575e-73
8.04126e-245
2.6768e-258
2.22635e-263
6.2196e-146
6.36838e-184
1.42597e-129
0
2.75386e-71
0
0
6.99414e-59
1.80178e-221
0
0
0
0
0
2.27198e-22
1.1924e-244
7.70829e-232
0
5.14844e-153
0
0
0
0
0
0
0
0
0
0
0
1.88505e-97
0
0
0
0
0
1.29087e-85
1.31164e-91
0
1.1798e-50
0
0
2.78423e-63
0
0
2.75014e-107
1.68244e-174
0
6.02744e-91
1.4301e-254
3.13431e-182
1.47158e-79
2.55156e-79
6.22662e-105
0
7.10436e-177
0
0
0
0
0
6.80211e-257
0
0
0
0
0
1.08344e-58
5.35792e-212
0
1.03185e-225
0
0
3.46105e-128
2.20057e-139
0
0
5.96333e-107
0
0
4.93449e-55
4.08549e-287
0
0
1.20515e-103
0
0
0
3.45008e-217
6.97801e-107
2.36059e-88
9.07318e-22
4.25058e-130
3.48528e-108
0
4.02607e-45
8.59291e-156
0
5.28516e-232
0
6.57873e-245
0
0
0
7.97626e-81
0
3.07752e-78
1.8277e-142
0
1.04723e-207
2.58181e-271
0
1.45727e-295
0
0
6.83091e-118
1.68632e-223
5.70615e-172
0
0
6.28631e-167
1.19275e-196
0
0
0
0
1.57046e-170
0
4.94726e-160
1.01209e-90
2.24844e-28
0
0
1.76604e-54
9.35852e-212
3.94488e-214
0
8.66969e-156
1.5454e-121
0
8.86689e-74
2.19373e-233
0
4.33161e-34
1.20355e-224
5.36925e-174
0
0
0
6.57042e-226
9.15386e-176
0
2.96205e-176
8.75897e-57
0
2.63093e-176
0
0
1.8232e-278
2.47055e-73
0
0
3.75911e-223
2.28892e-168
1.68415e-243
6.6869e-177
6.74109e-152
1.15114e-245
0
2.74579e-59
2.67776e-34
2.48139e-52
1.38022e-286
1.07886e-177
2.31334e-91
0
0
0
0
3.14203e-220
0
4.78586e-123
0
1.29544e-72
2.86388e-194
1.03824e-78
0
3.2287e-34
0
4.73359e-75
0
0
0
2.9069e-185
7.33838e-84
2.87878e-180
0
3.60788e-183
0
1.36893e-180
5.87038e-206
1.17521e-132
8.51201e-203
4.48852e-198
1.15097e-93
1.34975e-87
0
0
2.21053e-228
0
0
0
8.66762e-58
5.58768e-236
3.05756e-32
1.12389e-212
0
0
1.01504e-186
0
0
1.16395e-54
0
0
6.09361e-49
0
0
0
0
2.29649e-165
0
0
0
0
4.37468e-180
3.9535e-101
0
3.20902e-201
1.68391e-76
5.37918e-24
0
0
4.89024e-92
0
3.40606e-285
6.433e-123
5.04332e-201
4.23007e-187
0
0
0
3.19384e-190
0
1.10484e-48
0
1.3861e-68
0
0
0
0
4.39855e-35
1.21553e-102
0
3.4902e-234
0
3.51592e-250
1.46098e-25
1.82149e-146
2.11063e-134
2.34296e-165
0
5.63264e-283
0
2.22301e-16
0
0
0
0
8.78802e-32
1.26626e-250
0
1.14021e-107
1.10417e-25
2.3154e-102
1.87252e-35
0
1.26884e-56
0
0
6.44738e-161
9.57598e-90
0
0
8.84978e-155
0
5.13881e-36
4.46718e-147
5.11454e-176
0
0
0
9.62021e-175
0
0
0
3.65411e-73
0
0
4.55167e-143
0
9.61577e-72
0
0
8.51896e-227
2.06893e-165
1.66533e-117
0
0
8.22743e-159
0
0
7.97151e-163
0
0
0
4.13792e-57
2.21856e-143
0
0
2.15936e-290
2.5616e-71
1.34084e-23
1.51257e-125
3.85876e-38
2.71445e-43
7.06488e-67
2.87913e-33
0
0
0
0
1.62494e-193
0
0
0.00758666
0
0
1.54784e-29
2.3181e-47
4.87745e-16
0
0
0
0
0
5.50043e-222
0
7.6968e-215
0
7.95193e-96
7.38846e-27
1.5909e-43
3.46865e-73
8.41395e-93
2.71002e-62
0
0
1.34567e-89
0
1.27645e-21
3.61928e-21
5.82201e-146
5.47692e-122
1.06355e-185
0
2.66181e-278
0
0
0
0
0
0
1.16781e-77
0
0
2.55824e-91
9.29602e-77
0
1.26672e-15
5.89509e-92
1.51874e-224
1.10366e-160
8.59731e-46
7.11084e-91
4.63605e-271
0
0
3.21216e-148
0
5.72065e-29
3.22709e-23
2.25365e-23
0
0
2.30281e-34
0
4.43138e-277
3.34793e-83
1.20845e-157
0
4.1494e-57
0
1.76114e-201
0.000633251
3.90212e-148
1.75697e-104
7.52786e-202
4.21427e-113
0
6.16832e-219
0
0
1.29253e-128
2.95078e-32
0
3.67323e-119
0
3.93322e-152
0
0
1.73866e-157
3.02944e-165
1.01737e-67
0
3.54788e-162
0
1.09039e-116
0
0
0
0
4.06127e-95
0
0
9.89856e-51
3.52763e-63
1.65735e-268
4.06214e-92
2.88237e-155
4.6862e-96
0
5.92621e-221
0
0
4.7499e-177
0
0
1.04406e-155
3.60749e-137
0
2.74682e-127
0
0
2.24929e-56
0
0
4.19938e-154
2.95337e-84
1.56008e-136
0
0
1.88641e-76
3.87252e-185
0
6.57111e-70
5.96426e-31
2.22704e-125
9.30895e-28
2.40154e-59
0
0
0
1.401e-17
0
0
0
8.95801e-71
4.90683e-15
0
3.41063e-287
0
0
9.21232e-124
0
0
1.029e-68
0
0
0
0
3.66829e-134
5.45635e-252
0
0
1.40137e-193
0
8.08003e-232
4.15692e-290
0
0
6.16698e-132
2.98508e-101
9.45804e-229
3.13911e-246
8.27248e-101
0
0
4.21289e-85
0
0
0
4.91427e-151
0
0
3.60929e-102
0
4.09758e-246
3.02265e-136
9.9895e-195
6.11386e-111
5.27883e-39
0
1.47736e-279
0
6.71329e-137
0
0
0
0
3.42013e-253
0
9.45762e-45
2.72677e-27
8.27879e-85
0
0
0
4.93304e-77
0
0
0
8.59433e-45
8.45603e-120
1.07905e-183
0
0
0
0
0
9.66723e-76
0
0
5.90484e-103
0
2.56662e-176
0
2.98785e-165
1.63794e-103
0
0
0
0
7.26033e-243
0
0
0
0
0
1.47086e-279
0
0
4.65382e-277
0
2.71115e-121
0
2.73903e-205
1.40149e-188
1.05954e-140
1.04181e-117
0
0
0
0
7.46851e-155
0
0
0
0
0
0
0
0
0
0
3.7886e-131
0
0
0
1.08455e-111
3.81373e-150
8.1177e-67
0
0
0
2.09099e-56
5.06709e-158
4.18848e-276
0
0
0
3.69386e-270
0
0
0
0
0
1.45019e-151
1.70976e-127
1.5817e-148
0
2.52907e-279
9.07337e-274
0
0
6.14606e-294
2.59258e-131
1.95495e-117
0
1.67309e-124
0
1.05e-123
4.83866e-56
6.78311e-49
1.62324e-296
0
0
0
1.16263e-45
4.46964e-140
3.86235e-30
1.31297e-221
0
0
0
1.90145e-41
2.01187e-28
1.63899e-30
9.20665e-31
0
3.82733e-15
0
1.70951e-54
1.18166e-300
3.48518e-13
1.84634e-32
6.272e-281
0
5.62451e-40
0
4.11958e-66
4.66443e-299
0
0
0
0
0
6.48928e-225
3.59726e-296
0
3.06259e-177
4.32636e-46
0
0
0
0
0
0
1.54084e-140
6.15618e-197
0
5.41848e-72
0
8.44782e-127
1.84217e-142
1.09302e-77
0
1.65611e-68
0
0
1.13955e-124
0
0
0
1.67004e-99
0
2.75081e-64
0
6.29562e-63
3.35292e-70
4.52949e-94
9.60955e-98
0
0
2.3362e-95
0
0
0
0
0
0
2.0418e-99
0
8.71074e-103
3.17451e-91
0
0
0
1.71901e-59
8.39253e-65
4.1538e-216
5.97277e-36
1.22096e-195
0
2.49324e-24
0
0
0
0
2.23153e-162
2.51281e-142
0
1.68511e-170
3.65504e-84
8.3001e-205
5.12446e-151
0
3.38234e-133
1.5518e-20
7.94239e-184
0
0
0
1.20804e-186
1.93253e-289
0
2.34242e-91
0
4.1193e-200
0
1.59638e-225
0
1.42158e-07
0
1.27247e-104
1.68649e-06
0
4.24268e-164
0
0
2.87408e-06
0
0
0
6.15571e-200
2.095e-05
0
1.92309e-241
3.27404e-154
0
0
7.59428e-239
1.61372e-168
4.14234e-185
7.85848e-230
0
0
9.87437e-236
0
1.69625e-232
0
2.0773e-50
2.55978e-181
1.41996e-243
7.84871e-65
4.81753e-60
1.64499e-168
3.88908e-203
8.31614e-270
0
6.89591e-161
0
2.92976e-151
1.07183e-32
0
4.59066e-171
3.74345e-166
3.50223e-163
0
3.53353e-182
0
7.22722e-51
0
5.39414e-44
5.83647e-76
0
2.43693e-76
0
6.03369e-151
0
1.74396e-202
0
0
4.89176e-196
0
0
1.8916e-199
1.03331e-81
0
0
0
0
0
3.27506e-193
6.61588e-57
0
0
4.5454e-182
0
0
0
7.57431e-60
0
2.63406e-67
0
1.33745e-62
0
0
1.69105e-212
4.05094e-33
0
6.4888e-71
2.00767e-116
9.49074e-183
0
3.96211e-114
0
0
1.96858e-209
0
2.17633e-123
0
0
1.0486e-181
4.66818e-133
0
4.08295e-161
1.39411e-199
0
0
0
0
0
6.03047e-181
0
0
2.51952e-175
0
0
3.21631e-241
3.7954e-184
1.47691e-49
0
0
0
2.94919e-277
6.69563e-193
0
6.76231e-199
5.71672e-239
0
0
0
1.37294e-54
9.56898e-58
0
0
7.49173e-112
1.47037e-270
0
2.07625e-65
0
1.39702e-196
0
0
0
3.49318e-48
8.2021e-204
2.16785e-150
0
0
5.60093e-274
0
6.02133e-97
0
0
3.53017e-222
0
8.87333e-203
8.24324e-158
0
4.6286e-225
0
0
6.02596e-135
2.35747e-209
0
0
5.42357e-137
0
0
0
7.72624e-122
0
0
0
7.64442e-208
1.84481e-162
1.54452e-07
3.72016e-152
4.34837e-156
6.27619e-168
0
1.24021e-138
1.47553e-147
0
2.04982e-137
0
0
3.80268e-140
0
2.88204e-173
0
2.02169e-141
0
0
0
1.58447e-140
0
0
2.72016e-131
1.15778e-137
0
0
0
0
4.96995e-46
4.44457e-135
0
4.32077e-72
0
0
9.45582e-20
3.49477e-88
0
0
1.38601e-200
0
4.1603e-121
0
0
1.08042e-189
0
0
0
7.69824e-189
1.05433e-115
1.49796e-105
0
0
7.0404e-231
0
0
1.17948e-236
0
0
0
0
5.29827e-151
0
0
0
0
1.26955e-133
1.64386e-204
0
7.58579e-219
4.84274e-219
0
6.21936e-228
0
6.09662e-174
4.78321e-178
8.20764e-99
2.0571e-120
1.07362e-197
0
0
0
0
0
0
3.84647e-140
5.42056e-137
4.23238e-123
0
0
0
0
9.73766e-41
1.04157e-151
0
0
3.17318e-48
1.6065e-70
0
2.77869e-78
0
0
3.11938e-146
0
8.06245e-164
1.753e-109
0
5.35766e-167
0
4.83588e-180
3.56056e-150
2.37279e-161
6.81172e-138
0
0
4.59269e-108
0
0
2.05517e-103
3.73738e-119
0
0
0
0
0
1.52491e-35
6.50921e-40
0
0
1.74975e-201
3.01588e-277
6.76146e-101
4.6707e-178
1.82742e-40
0
2.86418e-98
0
1.04445e-94
0
6.19737e-35
0
0
3.34141e-80
2.02078e-103
0
1.20181e-74
0
0
5.80463e-255
0
0
0
0
0
0
1.96338e-53
0
1.61047e-129
0
0
3.44282e-99
0
2.11881e-162
0
0
0
0
7.3979e-116
0
9.27737e-110
0
3.11365e-138
0
0
5.69073e-160
9.35825e-71
1.79871e-143
1.60635e-116
0
1.8661e-198
0
1.54124e-256
0
8.50877e-56
0
6.92652e-95
5.89859e-251
1.38852e-186
0
6.85396e-124
1.62217e-258
1.36227e-163
0
0
0
6.68812e-52
0
2.21678e-98
0
0
0
0
0
0
7.41115e-192
2.72438e-242
0
0
1.98745e-230
0
0
1.41338e-114
2.66676e-122
0
0
9.98673e-220
0
5.95483e-239
0
0
0
0
0
0
0
0
1.29249e-94
6.10091e-154
0
8.74742e-212
3.74044e-239
0
0
5.95356e-210
0
0
0
2.7221e-206
0
0
2.11412e-251
0
0
5.2018e-55
0
4.40803e-201
0
2.6325e-114
0
8.80175e-171
1.57606e-30
7.77811e-265
0
0
0
1.0686e-164
0
1.17685e-108
5.25375e-168
1.04146e-192
1.26799e-196
8.43982e-163
6.2155e-178
3.92062e-194
7.62691e-139
0
4.98043e-159
2.99515e-63
3.30248e-203
0
6.14012e-58
0
0
0
0
0
1.15287e-210
0
1.49824e-272
6.56736e-160
0
0
2.1193e-185
1.15468e-169
0
0
1.34859e-282
0
0
1.74177e-213
3.28051e-228
0
1.26252e-219
3.25054e-152
1.06417e-118
0
0
0
0
0
9.51194e-242
1.20077e-97
1.09414e-85
4.44827e-281
0
9.18877e-245
0
1.86216e-226
0
2.36222e-104
0
3.35135e-151
3.29663e-229
0
9.44306e-247
0
6.8329e-146
7.03616e-29
1.1449e-220
0
1.17544e-240
0
0
0
0
3.4434e-27
1.39258e-24
1.74477e-127
4.83117e-22
1.82796e-35
9.22876e-183
1.26901e-118
2.5926e-59
1.14701e-294
2.24641e-223
2.39774e-296
0
0
3.45355e-171
1.08798e-37
0
1.17506e-34
3.55775e-71
7.72235e-33
0
4.65272e-169
1.614e-166
0
0
2.22885e-43
0
3.73601e-73
4.73018e-53
0
1.49205e-119
7.68307e-39
0
8.03957e-208
0
0
1.95666e-258
7.25834e-42
1.07978e-119
0
0
5.49969e-216
0
6.125e-139
2.31944e-264
4.19688e-239
0
0
0
0
1.77389e-190
6.95732e-38
0
0
0
2.42535e-242
3.21557e-28
0
3.33124e-208
3.0184e-78
0
0
0
1.33662e-165
5.27646e-138
0
0
0
0
0
1.81665e-214
0
0
0
1.28008e-169
0
1.33066e-154
0
0
0
0
1.67265e-205
9.59431e-156
1.36982e-209
8.95339e-174
2.11597e-162
0
8.71625e-183
4.58356e-26
1.26256e-206
0
5.74523e-190
0
4.86279e-235
6.48751e-204
0
2.60737e-23
2.81251e-123
6.85595e-22
3.21414e-222
2.55427e-121
0
1.33395e-21
4.43841e-24
0
2.18577e-92
9.84743e-142
2.38272e-204
0
1.45339e-138
0
0
0
3.22738e-06
6.43416e-217
0
0
9.05525e-138
2.78582e-210
6.20069e-216
9.49796e-182
0
0
1.64599e-104
0
4.95998e-230
3.5313e-213
0
0
3.50495e-189
0
0
6.91548e-208
9.33289e-70
0
4.2272e-280
0
1.20328e-63
3.9571e-67
2.37295e-64
1.3539e-71
0
1.89282e-124
0
4.59846e-115
0
0
1.36838e-204
4.51648e-242
0
0
0
0
0
0
0
0
0
4.58033e-52
0
0
0
1.70204e-56
1.74228e-40
0
1.39314e-242
1.98648e-54
3.72408e-108
1.45447e-121
0
5.3105e-39
8.94276e-37
4.15717e-147
0
1.19956e-52
4.42549e-144
0
2.69599e-249
0
3.30127e-131
1.37943e-247
8.63116e-232
0
0
8.6856e-194
0
3.1588e-249
5.40433e-148
0
0
1.4529e-139
0
5.91695e-45
0
0
1.32481e-50
1.73133e-43
0
4.54898e-295
7.96061e-43
0
2.61037e-48
0
0
0
0
0
1.8545e-109
0
0
6.31065e-72
1.45556e-253
2.85171e-124
5.8687e-264
0
8.53798e-254
1.52815e-71
0
0
0
0
2.72321e-134
4.09146e-69
6.91627e-67
0
1.74093e-213
1.69793e-58
0
3.99503e-133
0
8.90701e-138
0
1.27168e-32
0
0
0
7.28063e-177
0
0
0
0
3.38414e-176
0
0
0
4.73605e-162
0
0
2.60389e-253
6.73668e-282
0
0
0
6.42531e-263
6.42005e-222
0
0
1.90525e-121
3.04495e-98
7.51314e-221
0
0
1.99167e-215
3.59221e-136
4.43906e-124
0
5.50733e-216
0
0
1.15139e-238
7.43871e-216
0
0
0
0
0
0
2.41522e-242
3.68686e-189
0
0
0
0
0
0
1.47472e-141
0
3.5777e-49
2.47085e-239
1.68533e-247
2.30562e-245
0
3.24956e-102
0
0
0
2.36614e-244
0
0
2.74111e-216
7.04211e-228
7.72497e-214
9.44353e-237
0
1.15136e-133
4.90992e-208
6.74214e-205
0
0
2.55784e-172
0
0
1.75816e-154
0
0
0
0
5.78737e-233
0
0
8.78742e-147
0
2.45893e-144
3.35142e-124
0
0
0
5.56307e-205
0
3.56847e-223
0
0
0
1.5922e-100
4.66685e-236
1.09982e-145
1.43256e-264
3.17811e-235
0
7.97094e-117
1.21929e-259
0
0
1.20465e-271
0
1.55532e-271
0
0
5.75512e-25
5.73135e-180
0
1.81564e-162
0
0
0
0
3.8658e-74
0
1.21566e-96
1.49778e-171
0
1.38912e-129
5.40357e-183
0
0
0
8.97964e-23
1.15569e-217
0
0
0
0
0
1.80322e-67
0
1.1569e-57
0
0
0
0
2.4616e-183
1.10755e-286
0
8.52127e-151
0
0
1.72021e-57
1.7083e-108
0
2.80068e-22
0
0
6.57286e-276
0
9.74715e-235
0
0
0
4.37132e-261
5.27933e-248
8.29904e-45
1.11061e-122
0
0
1.23704e-217
6.51751e-59
5.53675e-96
8.56736e-82
0
9.05287e-264
4.11574e-83
0
0
5.28827e-291
0
0
0
2.38141e-225
0
0
0
0
0
0
0
5.48846e-82
1.0509e-167
0
5.43153e-39
0
1.71633e-173
0
2.55641e-260
3.27075e-174
0
0
3.72351e-148
2.56769e-263
0
0
0
0
1.12426e-217
1.12381e-130
0
0
4.52553e-219
0
0
1.80862e-202
0
1.64009e-145
0
1.42004e-212
4.95142e-58
0
3.85041e-62
0
2.11053e-98
0
0
0
0
0
4.54144e-101
1.08432e-50
0
2.79786e-170
2.10328e-17
6.92456e-96
1.30353e-204
0
4.13528e-164
7.48683e-224
0
2.64403e-189
2.14858e-272
9.9523e-29
0
2.77633e-35
2.7047e-182
0
0
6.74383e-289
0
0
0
0
8.78076e-228
1.08929e-160
1.23699e-48
0
1.03248e-98
0
3.85541e-93
0
0
7.48956e-162
2.39478e-196
0
5.36772e-80
0
5.95123e-149
5.54219e-95
1.35975e-85
0
0
0
0
1.13897e-93
3.21389e-120
1.19976e-153
0
6.04958e-40
6.76094e-101
4.3081e-98
0
0
4.3982e-74
0
4.9936e-101
3.59102e-61
0
0
0
0
0
1.85445e-142
4.66635e-107
6.41583e-44
4.03201e-95
0
1.12804e-81
7.22376e-258
5.27779e-246
0
7.2032e-125
3.86977e-192
3.79623e-152
1.55308e-249
1.0354e-184
1.19976e-193
2.69711e-35
5.50226e-84
0
6.64822e-195
0
0
0
0
3.20052e-53
8.67649e-132
0
0
1.91442e-130
0
2.26623e-192
0
6.55595e-76
1.02699e-162
1.30583e-60
2.43312e-176
2.89553e-151
0
7.34935e-131
5.07674e-252
6.76e-170
2.32503e-50
0
6.4452e-177
0
9.11022e-251
7.29179e-253
0
0
0
2.71817e-99
3.96292e-208
0
0
0
0
0
3.81935e-75
1.85929e-280
0
1.70322e-277
0
0
4.23427e-31
7.27278e-126
0
7.64873e-142
2.50918e-286
9.98611e-284
3.99604e-103
0
0
0
1.42338e-135
0.00632281
7.27377e-284
3.91356e-226
5.59441e-72
7.56066e-24
1.14006e-189
6.89709e-155
4.91492e-66
0
2.05332e-111
0
1.45262e-274
0
0
0
0
0
0
0
6.90584e-35
0
0
0.000105188
3.38333e-57
3.3777e-33
0
0
1.81122e-212
0
1.13576e-31
3.53516e-94
1.01736e-143
2.14467e-29
1.51537e-05
9.82888e-55
0
1.97699e-96
0
5.92346e-39
2.76552e-16
0
4.14694e-189
7.33061e-14
0
0
1.22207e-257
0
5.2306e-45
9.75072e-190
1.23029e-142
0
0
0
0
0
0
1.51938e-15
2.81284e-14
0
2.39953e-09
2.71206e-14
0
0
7.81397e-17
4.19517e-128
0
2.17438e-186
4.77137e-229
1.48025e-260
1.40286e-208
2.62736e-275
4.57941e-16
0
1.65375e-10
4.45619e-57
1.64458e-166
0
4.37328e-195
3.72991e-265
1.20247e-257
0
1.43444e-273
0
7.1508e-271
2.23308e-19
0
2.6473e-109
1.75972e-14
5.75297e-54
1.33962e-51
0
0
1.60546e-12
0
0
2.4786e-69
3.31488e-71
1.83638e-51
1.25435e-115
1.39166e-212
0
0
9.3598e-191
2.30462e-19
0
9.90011e-34
3.78953e-12
0
0
6.14775e-15
0
0
2.95257e-13
0
4.75652e-69
0
1.17629e-11
0
1.0055e-19
5.33752e-69
1.69924e-289
7.68517e-145
0
0
0
7.67875e-73
0
5.21162e-38
0
7.42489e-70
1.31497e-54
8.3629e-29
1.26569e-70
2.99096e-249
3.50346e-172
1.45363e-122
7.6856e-12
0
0
1.48641e-69
0
0
0
1.74515e-67
0
0
5.42191e-176
1.4211e-140
0
8.79427e-172
0
0
8.05605e-152
6.64101e-228
0
9.67717e-192
2.63994e-256
0
0
0
1.05758e-149
0
0
8.36582e-201
0
4.33233e-191
2.40209e-146
2.0728e-22
6.00269e-247
0
0
0
1.06988e-217
0
1.04015e-195
0
1.3538e-37
8.2222e-161
0
6.13261e-218
3.79187e-240
9.15851e-250
3.66671e-38
1.98892e-188
8.87888e-241
0
3.18575e-268
0
0
0
1.27876e-118
0
0
3.35624e-176
0
7.72224e-247
0
0
0
3.59534e-238
3.36295e-119
2.45223e-187
1.55876e-40
9.42198e-92
0
7.90204e-152
0
0
0
0
0
0
1.02692e-255
2.58749e-196
0
0
0
7.54457e-118
0
3.17243e-77
9.87233e-37
0
0
0
0
8.80373e-62
0
7.27279e-78
0
0
2.00516e-165
0
6.79406e-256
0
0
0
0
0
0
0
1.01864e-139
0
3.22869e-255
7.46418e-213
2.16486e-199
0
0
3.02971e-58
0
0
0
0
1.42402e-61
0
0
0
0
3.43697e-300
5.96525e-183
0
1.4789e-131
6.8407e-172
0
0
1.64365e-174
8.19496e-17
0
1.41392e-110
5.57101e-58
6.43376e-188
1.5114e-11
0
2.20974e-10
1.30163e-66
3.40936e-12
0
3.29336e-157
5.20987e-242
0
0
0
0
1.08677e-14
0
7.34466e-141
1.42464e-229
0
1.06625e-254
0
3.43601e-21
2.70217e-181
0
2.61751e-150
0
0
0
1.19442e-22
6.05715e-08
6.06786e-62
0
0
7.43084e-40
0
0
0
4.21935e-143
0
0
3.63805e-206
0
1.47143e-171
1.93101e-278
3.42837e-251
1.2029e-144
1.18322e-27
0
0
2.60941e-18
0
0
8.07729e-213
0
8.00446e-276
0
0
1.22008e-269
0
5.80327e-195
1.51088e-245
0
0
0
2.44303e-241
0
0
0
0
0
1.81685e-278
0
1.41537e-220
0
3.3408e-34
1.17212e-49
1.6699e-275
0
0
0
3.96323e-84
3.12424e-200
0
1.52876e-230
2.06136e-290
0
2.5691e-287
0
1.98917e-224
0
0
2.81806e-284
0
6.76857e-59
0
0
9.98543e-55
0
0
0
1.26322e-56
0
0
8.71276e-294
0
2.56804e-253
0
1.75164e-292
0
3.20717e-210
0
0
1.22402e-89
0
0
0
0
3.24018e-295
0
0
0
0
3.02462e-49
7.78428e-252
1.99354e-47
0
2.89864e-213
2.14837e-43
2.12711e-41
0
3.02034e-160
0
0
0
2.69399e-264
1.16193e-159
0
1.90361e-45
0
2.0178e-43
9.47854e-285
1.3021e-280
1.09488e-243
8.9055e-55
3.55383e-53
0
0
0
3.10049e-166
0
0
0
0
8.34932e-234
0
4.89001e-223
8.1728e-51
5.77967e-248
0
0
9.49338e-260
0
0
6.14334e-266
2.79923e-136
4.86273e-67
5.56083e-164
0
7.54901e-167
0
7.05479e-232
0
0
0
0
0
0
0
2.25251e-173
5.93667e-101
0
2.03897e-73
0
0
5.01256e-52
0
1.03911e-49
0
5.34724e-143
7.17577e-105
0
0
1.39582e-147
0
0
0
1.87416e-240
1.43876e-49
0
4.90475e-130
0
0
2.48555e-40
1.73204e-16
0
0
0
4.63047e-193
3.26832e-171
0
3.84111e-155
0
0
6.13939e-35
2.65968e-115
0
1.2692e-147
0
1.66669e-248
0
1.88297e-155
0
1.16749e-65
0
0
0
5.46624e-59
4.80014e-200
2.61129e-180
9.49814e-160
1.10369e-226
0
2.46271e-227
0
0
0
5.00852e-143
2.8937e-227
1.01922e-65
2.40933e-61
3.62064e-254
0
7.54823e-55
0
0
9.38598e-174
1.3095e-186
4.0871e-181
5.88429e-250
2.62169e-163
0
7.41573e-281
1.7704e-223
0
5.94817e-137
6.76791e-254
7.09864e-156
0
3.10462e-181
0
2.60357e-143
0
1.97825e-137
2.91278e-77
0
1.4912e-190
0
0
0
0
2.19377e-169
1.48649e-30
0
1.62902e-101
0
0
0
0
5.34606e-271
0
0
5.229e-276
0
7.2092e-140
2.72934e-107
0
2.55503e-118
1.84848e-184
1.30528e-136
3.52887e-142
0
4.5537e-143
0
0
1.3201e-125
2.31304e-181
0
3.19307e-169
0
2.05385e-140
0
0
0
3.46387e-120
3.30545e-274
1.1069e-232
1.16073e-274
0
0
2.63022e-160
0
0
1.53359e-234
7.36044e-225
0
2.26148e-61
0
0
0
0
1.06765e-175
2.99289e-169
0
0
0
4.02341e-238
1.1157e-63
0
0
5.34575e-50
2.1674e-54
0
2.09418e-64
1.07255e-224
0
0
0
1.90352e-184
0
1.06715e-168
2.14899e-60
0
0
2.09462e-250
1.32163e-52
4.72172e-68
7.47391e-244
0
2.66221e-60
1.10162e-130
0
0
0
0
0
1.32901e-256
1.3385e-128
0
2.79435e-184
0
0
0
0
3.99902e-177
0
0
1.81255e-83
2.03196e-150
4.19285e-116
0
2.7515e-151
0
1.32629e-82
6.72501e-185
0
0
0
0
9.96802e-152
4.27741e-73
4.14943e-65
0
1.54733e-74
0
6.49848e-276
9.17934e-297
0
0
6.37943e-81
0
2.76522e-177
0
2.02513e-194
5.18034e-214
0
0
0
1.23749e-276
0
0
3.47526e-192
0
0
2.75243e-258
0
0
0
1.69513e-127
0
1.13699e-243
0
4.23334e-50
0
0
0
1.14064e-185
0
1.25774e-195
3.44966e-142
2.95168e-217
0
0
4.16929e-171
0
0
0
1.88781e-129
0
0
0
1.30766e-172
8.35475e-89
0
3.35871e-165
0
5.30016e-180
7.98328e-37
2.8369e-90
5.46421e-80
8.05973e-163
8.66072e-102
0
0
0
0
2.76525e-70
0
3.22927e-264
2.88769e-63
1.67954e-260
0
5.36539e-45
1.30885e-28
6.97781e-267
0
2.86619e-83
2.46657e-81
0
0
0
0
1.52073e-127
0
8.97861e-235
1.94835e-92
0
0
1.33479e-165
9.3867e-129
0
1.41957e-173
1.66034e-98
0
2.19803e-153
1.47175e-139
0
8.29687e-186
1.57748e-99
0
0
1.4847e-152
0
0
0
1.38214e-88
0
0
0
0
0
0
2.73724e-131
0
0
0
0
0
0
2.65554e-195
0
4.26537e-164
0
3.76623e-119
9.37768e-157
0
0
0
2.11422e-234
2.22867e-105
9.21982e-179
0
0
0
0
0
0
6.90712e-229