/*--------------------------------*- C++ -*----------------------------------*\
| =========                 |                                                 |
| \\      /  F ield         | OpenFOAM: The Open Source CFD Toolbox           |
|  \\    /   O peration     | Version:  v2012                                 |
|   \\  /    A nd           | Website:  www.openfoam.com                      |
|    \\/     M anipulation  |                                                 |
\*---------------------------------------------------------------------------*/
FoamFile
{
    version     2.0;
    format      ascii;
    class       volScalarField;
    location    "1";
    object      k;
}
// * * * * * * * * * * * * * * * * * * * * * * * * * * * * * * * * * * * * * //

dimensions      [0 2 -2 0 0 0 0];


internalField   nonuniform List<scalar> 
108993
(
9.10641e-05
9.06548e-05
8.84719e-05
9.13001e-05
9.13339e-05
8.58979e-05
9.02333e-05
8.94906e-05
9.12823e-05
9.07291e-05
9.16837e-05
9.16262e-05
8.98297e-05
8.99052e-05
9.04026e-05
8.88395e-05
8.93139e-05
9.05332e-05
8.99376e-05
9.05195e-05
8.87126e-05
9.09285e-05
8.95399e-05
9.1265e-05
9.10923e-05
9.05078e-05
9.01089e-05
9.10378e-05
9.18249e-05
8.74631e-05
9.18681e-05
9.15623e-05
9.03096e-05
9.14377e-05
9.00493e-05
9.13466e-05
9.01693e-05
9.12942e-05
8.96659e-05
9.03909e-05
9.21826e-05
9.18137e-05
9.06351e-05
9.14067e-05
9.04786e-05
8.77114e-05
9.03438e-05
9.03434e-05
9.23276e-05
9.11621e-05
9.13504e-05
9.20761e-05
9.0814e-05
9.1034e-05
9.15214e-05
9.17479e-05
9.05613e-05
9.08449e-05
8.93931e-05
9.18916e-05
9.10383e-05
9.11343e-05
9.0927e-05
8.99461e-05
9.06376e-05
9.18716e-05
8.93654e-05
9.15598e-05
9.21413e-05
9.12276e-05
9.07473e-05
9.04647e-05
9.12509e-05
9.10193e-05
9.023e-05
9.17414e-05
8.95185e-05
9.22806e-05
9.09708e-05
9.09088e-05
9.05919e-05
9.01723e-05
8.99026e-05
8.97767e-05
9.18231e-05
9.04927e-05
9.18688e-05
9.02573e-05
9.06518e-05
9.16058e-05
9.08118e-05
8.96028e-05
9.15616e-05
8.87742e-05
9.13182e-05
9.12352e-05
8.95442e-05
8.83582e-05
8.93751e-05
8.97553e-05
9.14834e-05
9.22993e-05
9.21176e-05
9.18183e-05
8.9037e-05
9.15079e-05
9.18258e-05
9.19849e-05
9.16685e-05
9.18656e-05
8.98994e-05
9.07413e-05
9.07059e-05
9.10929e-05
9.12493e-05
8.99923e-05
9.01017e-05
8.95287e-05
9.20991e-05
9.10003e-05
9.08616e-05
9.04139e-05
9.05777e-05
8.75733e-05
9.03506e-05
9.09542e-05
9.12683e-05
9.02013e-05
8.96325e-05
9.15229e-05
9.03085e-05
9.1586e-05
9.19647e-05
9.18694e-05
9.09409e-05
8.96184e-05
9.05003e-05
9.00824e-05
8.99633e-05
9.06065e-05
8.98916e-05
8.91501e-05
9.05907e-05
9.06788e-05
9.14353e-05
9.11532e-05
8.95326e-05
8.96827e-05
9.06022e-05
9.08035e-05
9.0897e-05
8.93785e-05
8.9336e-05
9.15381e-05
9.11058e-05
9.07855e-05
9.22316e-05
9.12468e-05
9.16085e-05
9.09738e-05
9.15527e-05
9.09923e-05
9.1923e-05
9.04642e-05
9.06521e-05
9.14779e-05
9.06962e-05
8.94803e-05
8.93984e-05
9.20307e-05
9.14511e-05
9.14457e-05
9.14697e-05
9.00271e-05
9.07701e-05
9.0549e-05
9.05202e-05
9.00289e-05
9.15685e-05
8.98619e-05
9.01781e-05
8.95536e-05
9.04113e-05
7.82876e-05
9.21442e-05
9.11754e-05
9.05489e-05
9.11708e-05
9.1147e-05
8.00323e-05
9.11718e-05
9.1155e-05
9.00945e-05
9.11332e-05
9.15785e-05
9.07249e-05
9.19339e-05
9.12634e-05
9.17351e-05
8.18327e-05
9.15537e-05
9.15732e-05
8.87071e-05
8.97812e-05
9.13908e-05
9.60969e-05
9.02688e-05
9.12412e-05
9.07752e-05
0.000473218
8.9795e-05
9.05443e-05
9.03698e-05
9.12609e-05
9.23914e-05
8.80825e-05
9.01333e-05
9.10759e-05
9.05409e-05
9.23911e-05
9.10027e-05
9.00216e-05
9.1541e-05
9.067e-05
9.0132e-05
8.89614e-05
9.01533e-05
9.18358e-05
9.15896e-05
8.94841e-05
8.43935e-05
9.11628e-05
8.95927e-05
8.95239e-05
9.04881e-05
8.88836e-05
9.14153e-05
9.0391e-05
9.05398e-05
9.04221e-05
8.7619e-05
9.15324e-05
8.74191e-05
9.09528e-05
9.17596e-05
9.05603e-05
0.00010232
9.07232e-05
9.11327e-05
9.17513e-05
8.98533e-05
9.1027e-05
9.07412e-05
9.14815e-05
9.11779e-05
9.08915e-05
9.10657e-05
9.08252e-05
9.19915e-05
8.7368e-05
9.1018e-05
8.97632e-05
9.18496e-05
8.94204e-05
8.86448e-05
9.09833e-05
9.17614e-05
9.21244e-05
8.72991e-05
9.08732e-05
8.82152e-05
8.90478e-05
9.12551e-05
0.000194763
9.0478e-05
9.05394e-05
9.15044e-05
9.55043e-05
9.17311e-05
9.09294e-05
9.14969e-05
8.89856e-05
8.77294e-05
9.02373e-05
9.13892e-05
9.10804e-05
8.89706e-05
9.15035e-05
9.19673e-05
8.61333e-05
9.07779e-05
8.96393e-05
9.17591e-05
9.13938e-05
9.10199e-05
8.95598e-05
9.19698e-05
9.08713e-05
8.96151e-05
8.62062e-05
8.98362e-05
8.94641e-05
9.15778e-05
8.89856e-05
9.12468e-05
8.93351e-05
8.83556e-05
8.98959e-05
8.88692e-05
9.29151e-05
9.16217e-05
9.16144e-05
8.98517e-05
9.06177e-05
9.16828e-05
9.001e-05
8.81064e-05
9.01566e-05
9.05129e-05
9.21665e-05
9.05769e-05
8.82939e-05
8.82919e-05
8.77989e-05
8.92733e-05
9.06631e-05
9.24703e-05
9.19803e-05
9.04285e-05
9.1912e-05
9.22973e-05
9.21825e-05
0.000172452
9.06043e-05
9.13839e-05
9.04705e-05
9.10874e-05
9.13719e-05
9.12534e-05
9.02551e-05
9.07567e-05
9.15403e-05
9.02835e-05
9.14702e-05
9.03586e-05
9.06273e-05
9.01361e-05
9.01625e-05
8.99623e-05
8.96044e-05
9.13174e-05
8.79385e-05
8.79347e-05
9.05064e-05
9.04349e-05
9.09481e-05
9.01722e-05
8.71861e-05
9.04138e-05
8.61426e-05
9.23152e-05
9.02031e-05
8.89541e-05
9.06075e-05
9.10971e-05
9.16264e-05
9.1502e-05
9.02047e-05
9.07102e-05
9.25434e-05
8.94327e-05
9.14976e-05
8.98103e-05
9.30203e-05
9.24782e-05
9.13003e-05
9.17635e-05
9.30151e-05
8.96365e-05
9.14794e-05
8.86847e-05
8.90949e-05
9.18107e-05
8.95683e-05
9.06303e-05
8.75919e-05
9.02976e-05
8.93783e-05
9.05924e-05
9.1776e-05
9.92307e-05
8.80309e-05
8.91949e-05
8.98539e-05
8.95498e-05
9.31657e-05
0.000579951
9.10869e-05
9.0536e-05
9.08669e-05
9.30664e-05
9.46646e-05
8.95911e-05
9.10934e-05
9.13283e-05
8.81659e-05
9.01681e-05
8.6953e-05
9.04193e-05
0.000283144
9.03753e-05
9.00744e-05
9.05426e-05
9.00027e-05
9.11696e-05
9.18314e-05
9.14147e-05
9.0313e-05
8.60618e-05
9.04556e-05
0.000393176
9.07811e-05
0.000151478
8.87616e-05
9.15526e-05
9.96584e-05
9.14066e-05
8.81815e-05
9.23121e-05
8.74614e-05
0.00124675
9.0797e-05
0.000417018
9.0413e-05
9.04316e-05
9.10449e-05
9.02342e-05
9.13205e-05
9.17202e-05
9.01743e-05
9.0602e-05
9.04662e-05
9.20156e-05
8.76308e-05
9.13612e-05
9.17144e-05
9.00027e-05
9.16822e-05
9.0599e-05
8.83361e-05
9.08098e-05
9.09981e-05
9.1638e-05
9.27207e-05
9.22991e-05
9.08753e-05
9.09055e-05
9.05571e-05
9.22199e-05
8.99634e-05
8.67351e-05
9.08391e-05
8.74374e-05
9.11618e-05
9.08302e-05
8.87007e-05
8.94404e-05
8.89027e-05
8.81488e-05
8.99407e-05
8.71201e-05
9.13974e-05
9.12502e-05
9.05179e-05
9.18493e-05
9.01233e-05
8.96164e-05
9.16411e-05
9.00301e-05
9.14501e-05
9.01719e-05
9.212e-05
9.18262e-05
9.14586e-05
8.85857e-05
8.9898e-05
8.98922e-05
8.90108e-05
9.03719e-05
9.17661e-05
9.09688e-05
9.16506e-05
8.97536e-05
8.94535e-05
9.06797e-05
8.77959e-05
8.9606e-05
9.15036e-05
8.87949e-05
9.07134e-05
8.91323e-05
9.09888e-05
8.90106e-05
9.10043e-05
9.14355e-05
9.13333e-05
9.06321e-05
8.98835e-05
8.99954e-05
9.08517e-05
9.13628e-05
9.03697e-05
9.15271e-05
9.19111e-05
9.09341e-05
9.04383e-05
8.96568e-05
9.08985e-05
9.19737e-05
9.22584e-05
8.83826e-05
8.81043e-05
9.11183e-05
9.1376e-05
9.198e-05
9.04302e-05
9.05838e-05
9.13465e-05
9.06151e-05
9.18637e-05
8.90436e-05
9.04083e-05
8.98527e-05
9.025e-05
9.04987e-05
9.19199e-05
9.03219e-05
9.13549e-05
9.16523e-05
9.03311e-05
8.90968e-05
9.1061e-05
9.07661e-05
9.1914e-05
9.18786e-05
9.06728e-05
8.91452e-05
8.99887e-05
9.17633e-05
8.90753e-05
8.99348e-05
8.95007e-05
8.97809e-05
9.22994e-05
9.17144e-05
8.91405e-05
9.1509e-05
9.19737e-05
0.00136409
8.96345e-05
9.12298e-05
9.10496e-05
8.94097e-05
9.14587e-05
8.77216e-05
9.02045e-05
9.1382e-05
8.95564e-05
9.28851e-05
9.16968e-05
9.13668e-05
8.87263e-05
0.0158228
8.82894e-05
9.09629e-05
9.09523e-05
9.21033e-05
8.79229e-05
9.69614e-05
9.1039e-05
9.1913e-05
9.03081e-05
9.19851e-05
9.24328e-05
9.13961e-05
8.97164e-05
8.9963e-05
8.83319e-05
9.18153e-05
8.82784e-05
9.22209e-05
8.86406e-05
9.05067e-05
9.0825e-05
0.000123145
9.01923e-05
9.24239e-05
8.88154e-05
9.19318e-05
9.05272e-05
9.12786e-05
9.18886e-05
0.000246085
8.99979e-05
8.97759e-05
8.79149e-05
0.000269529
8.86034e-05
9.08401e-05
9.13329e-05
9.14677e-05
9.12663e-05
9.21056e-05
9.0694e-05
9.24493e-05
9.04021e-05
9.13755e-05
8.86193e-05
8.97563e-05
8.99857e-05
9.21651e-05
9.08819e-05
9.13936e-05
9.14897e-05
9.18418e-05
9.17541e-05
9.22586e-05
9.13216e-05
8.98595e-05
9.12113e-05
9.15399e-05
9.08516e-05
9.13392e-05
8.97633e-05
9.0589e-05
8.96987e-05
8.87466e-05
9.202e-05
9.0415e-05
9.15347e-05
9.0512e-05
9.1401e-05
9.03383e-05
9.00613e-05
8.96323e-05
9.01034e-05
9.09559e-05
8.94552e-05
9.01743e-05
9.06536e-05
9.11468e-05
8.96243e-05
9.10006e-05
8.6615e-05
9.17529e-05
9.02106e-05
8.85175e-05
8.50984e-05
9.06427e-05
8.61088e-05
8.33928e-05
9.1056e-05
8.8768e-05
9.07504e-05
8.98248e-05
9.13049e-05
8.90953e-05
9.15659e-05
8.94296e-05
9.01557e-05
9.21886e-05
9.22896e-05
9.19595e-05
8.7969e-05
8.71106e-05
9.21626e-05
9.00417e-05
8.71664e-05
9.10702e-05
9.17893e-05
9.03959e-05
9.16093e-05
9.07496e-05
9.12326e-05
8.68424e-05
9.31079e-05
9.21429e-05
8.6785e-05
8.72192e-05
9.09569e-05
9.02084e-05
9.08866e-05
9.1374e-05
8.922e-05
9.10541e-05
8.94282e-05
8.89804e-05
8.96521e-05
8.90905e-05
9.07973e-05
9.15049e-05
9.01229e-05
8.62093e-05
8.68446e-05
9.25218e-05
8.7288e-05
9.12876e-05
8.98838e-05
9.13186e-05
8.99681e-05
9.11689e-05
9.14344e-05
9.10932e-05
9.17046e-05
9.05343e-05
8.8957e-05
8.99907e-05
9.09756e-05
8.85708e-05
9.15898e-05
9.16771e-05
9.13297e-05
9.26303e-05
8.98375e-05
9.0054e-05
9.13236e-05
9.16273e-05
8.91083e-05
8.97535e-05
9.14115e-05
9.07151e-05
9.10475e-05
8.90915e-05
9.00724e-05
9.14927e-05
8.91536e-05
9.21099e-05
8.93926e-05
9.13206e-05
9.2308e-05
8.99661e-05
8.8528e-05
9.13086e-05
9.04217e-05
9.16484e-05
9.18472e-05
9.20751e-05
9.2744e-05
9.14342e-05
9.32072e-05
9.1582e-05
8.85054e-05
8.96214e-05
9.24423e-05
8.86808e-05
8.99668e-05
8.91514e-05
8.68182e-05
9.23509e-05
9.01153e-05
9.06307e-05
9.06562e-05
9.2548e-05
9.07488e-05
8.74543e-05
9.15897e-05
9.15097e-05
8.95959e-05
9.13214e-05
9.1331e-05
9.03011e-05
9.09227e-05
9.12787e-05
9.16619e-05
9.04904e-05
9.23576e-05
9.07997e-05
0.000143075
8.8064e-05
9.02982e-05
8.67272e-05
9.49463e-05
9.13619e-05
9.07059e-05
9.082e-05
9.02164e-05
9.09806e-05
8.90834e-05
9.13127e-05
8.73413e-05
9.09754e-05
8.96723e-05
9.07165e-05
9.07431e-05
9.18447e-05
9.25713e-05
9.01114e-05
9.17551e-05
9.0067e-05
9.16485e-05
9.00162e-05
9.03099e-05
9.17066e-05
9.04905e-05
9.13571e-05
9.16375e-05
9.13522e-05
9.06147e-05
8.9708e-05
9.0083e-05
8.99527e-05
9.11185e-05
9.11192e-05
8.85999e-05
8.94041e-05
9.06952e-05
8.88675e-05
9.09278e-05
0.000111834
8.91272e-05
0.000116961
8.89714e-05
9.08606e-05
9.14224e-05
0.000109473
8.99232e-05
8.87417e-05
8.94313e-05
8.93215e-05
9.23734e-05
9.08262e-05
9.14145e-05
9.10364e-05
9.25669e-05
9.00352e-05
8.87487e-05
9.04992e-05
8.84796e-05
9.22494e-05
9.00728e-05
8.92306e-05
9.19428e-05
9.03948e-05
9.22606e-05
9.1023e-05
9.10465e-05
9.08517e-05
9.16045e-05
0.00095014
9.11156e-05
0.00245379
9.11016e-05
0.000437525
9.14491e-05
9.11065e-05
8.63951e-05
9.05115e-05
9.10502e-05
9.26591e-05
8.65922e-05
8.77349e-05
9.03659e-05
9.08863e-05
8.72255e-05
9.0466e-05
9.16031e-05
9.08275e-05
8.82924e-05
9.17039e-05
8.99282e-05
8.96773e-05
9.04169e-05
8.97531e-05
8.69122e-05
9.05738e-05
8.99426e-05
9.15994e-05
8.82737e-05
9.04131e-05
8.86235e-05
8.50119e-05
8.74967e-05
8.96287e-05
9.10196e-05
9.01894e-05
0.000111841
9.06444e-05
0.000272122
9.02963e-05
9.03959e-05
9.08278e-05
9.02979e-05
8.86731e-05
9.02026e-05
9.06799e-05
8.94946e-05
9.04948e-05
9.12164e-05
8.96962e-05
9.25688e-05
9.07689e-05
9.04695e-05
9.03072e-05
0.000102213
9.17233e-05
9.10561e-05
0.00016637
8.98988e-05
8.88513e-05
9.17382e-05
9.08842e-05
9.11736e-05
9.28534e-05
9.19879e-05
0.00010129
8.94505e-05
9.68612e-05
9.12321e-05
9.21362e-05
9.0146e-05
8.90752e-05
9.16635e-05
9.03395e-05
9.18555e-05
9.13414e-05
9.18913e-05
8.90773e-05
9.25012e-05
9.08623e-05
8.7072e-05
8.9484e-05
8.89908e-05
8.95353e-05
9.15846e-05
9.27385e-05
8.98857e-05
9.0412e-05
8.96928e-05
9.1482e-05
8.68463e-05
8.92436e-05
9.02443e-05
8.9449e-05
9.05241e-05
9.10448e-05
8.92461e-05
8.82683e-05
9.74099e-05
9.18664e-05
9.06808e-05
9.11303e-05
9.14205e-05
8.95661e-05
9.12755e-05
9.04138e-05
9.08304e-05
9.02835e-05
9.04883e-05
8.78593e-05
9.13656e-05
8.99621e-05
9.00205e-05
8.98448e-05
9.19143e-05
8.78787e-05
8.99346e-05
9.16034e-05
9.11904e-05
9.06805e-05
9.04946e-05
8.82139e-05
9.09437e-05
8.84975e-05
9.08109e-05
8.82932e-05
8.89453e-05
9.04404e-05
9.13891e-05
9.12125e-05
8.89127e-05
9.00703e-05
8.99155e-05
9.02296e-05
8.88289e-05
9.04336e-05
9.12017e-05
9.1153e-05
9.0537e-05
9.18115e-05
9.06582e-05
8.9297e-05
9.1639e-05
9.10154e-05
8.9286e-05
9.0026e-05
8.87205e-05
9.02564e-05
8.85619e-05
9.12759e-05
8.88352e-05
9.0503e-05
8.9445e-05
9.04851e-05
9.00319e-05
9.10302e-05
9.29095e-05
9.06738e-05
8.99353e-05
9.07101e-05
9.00501e-05
9.08571e-05
9.08557e-05
9.16781e-05
8.54322e-05
9.1098e-05
9.11247e-05
9.0115e-05
9.00243e-05
9.10267e-05
8.8146e-05
8.85685e-05
9.03523e-05
9.08001e-05
9.07986e-05
9.16824e-05
9.18206e-05
9.0848e-05
9.06583e-05
9.22125e-05
9.03979e-05
9.19422e-05
9.16699e-05
9.15086e-05
9.16042e-05
9.21119e-05
9.3382e-05
9.14154e-05
9.10322e-05
9.18137e-05
9.05122e-05
8.9492e-05
9.10763e-05
9.1132e-05
9.18246e-05
9.08967e-05
8.96319e-05
8.92726e-05
9.0262e-05
9.04535e-05
9.02273e-05
9.08013e-05
9.03865e-05
9.14551e-05
9.08686e-05
8.76177e-05
9.1056e-05
9.07412e-05
9.00771e-05
8.80737e-05
9.19021e-05
0.000203975
9.04273e-05
9.07778e-05
9.21594e-05
9.2507e-05
9.02814e-05
9.0269e-05
8.93553e-05
8.98498e-05
9.01191e-05
9.22385e-05
9.5846e-05
9.30927e-05
9.18989e-05
9.23125e-05
8.87294e-05
8.71916e-05
9.05648e-05
8.91067e-05
9.02666e-05
9.09278e-05
8.96646e-05
8.94089e-05
9.1224e-05
9.14058e-05
9.162e-05
8.9032e-05
9.14134e-05
9.06852e-05
8.93864e-05
9.07339e-05
9.17445e-05
9.14888e-05
8.74679e-05
9.25795e-05
9.14815e-05
9.01754e-05
9.03494e-05
9.08077e-05
9.10509e-05
9.33844e-05
9.27578e-05
9.05886e-05
9.05158e-05
9.20995e-05
0.00844262
8.87886e-05
8.96754e-05
9.16703e-05
8.92123e-05
9.18944e-05
9.05575e-05
8.69646e-05
8.86883e-05
9.20249e-05
9.30226e-05
8.85848e-05
9.12073e-05
9.19928e-05
9.04841e-05
9.03264e-05
9.08152e-05
8.75289e-05
9.02212e-05
8.74007e-05
9.1542e-05
9.13562e-05
9.00799e-05
9.14149e-05
8.87557e-05
9.08439e-05
9.02652e-05
9.05617e-05
9.13942e-05
9.00833e-05
9.15357e-05
8.77578e-05
9.10952e-05
9.20614e-05
9.16762e-05
9.14695e-05
9.16021e-05
8.89681e-05
8.69132e-05
9.13176e-05
9.23491e-05
9.96973e-05
9.08425e-05
9.14553e-05
9.11639e-05
9.15887e-05
9.22391e-05
8.872e-05
9.08861e-05
8.74876e-05
9.0616e-05
8.9757e-05
8.65573e-05
9.16351e-05
8.8445e-05
8.98868e-05
9.21959e-05
9.00526e-05
8.83358e-05
9.00581e-05
9.0414e-05
9.04586e-05
9.68764e-05
9.19836e-05
9.04549e-05
8.7866e-05
8.9344e-05
9.1175e-05
9.16347e-05
9.09459e-05
8.84079e-05
8.80116e-05
8.81304e-05
9.07679e-05
9.06988e-05
9.05574e-05
8.98619e-05
9.23061e-05
8.92799e-05
9.02246e-05
8.98996e-05
9.13094e-05
8.58016e-05
8.99999e-05
8.83643e-05
9.21812e-05
9.04159e-05
9.18618e-05
9.03511e-05
9.13629e-05
9.08734e-05
9.03875e-05
9.06966e-05
8.84524e-05
9.14341e-05
8.77214e-05
8.97323e-05
9.05593e-05
9.03369e-05
9.12033e-05
9.01122e-05
9.1468e-05
8.96058e-05
9.11388e-05
8.9639e-05
9.05164e-05
9.07899e-05
9.03184e-05
9.00197e-05
9.1416e-05
9.08573e-05
8.96887e-05
9.02735e-05
8.81237e-05
9.13329e-05
9.07343e-05
9.07971e-05
9.20189e-05
8.98217e-05
0.00541262
9.15566e-05
8.94758e-05
9.14087e-05
9.52057e-05
9.26803e-05
8.96048e-05
9.03949e-05
8.71779e-05
9.10071e-05
9.31221e-05
9.25472e-05
9.21112e-05
9.10472e-05
8.92897e-05
9.09143e-05
9.26105e-05
9.21369e-05
9.21041e-05
9.1421e-05
9.32834e-05
9.12732e-05
9.05318e-05
8.99929e-05
8.97635e-05
9.12594e-05
9.17221e-05
9.15904e-05
9.28702e-05
9.14609e-05
9.03565e-05
8.80008e-05
0.000132806
9.11271e-05
9.04872e-05
9.07772e-05
9.03102e-05
9.16826e-05
8.68231e-05
8.53219e-05
8.6102e-05
8.97594e-05
8.76045e-05
9.17893e-05
8.56598e-05
8.78353e-05
8.7743e-05
8.85655e-05
9.05746e-05
9.0096e-05
9.20927e-05
9.14902e-05
8.98683e-05
8.9439e-05
8.98047e-05
9.07436e-05
9.03369e-05
9.19994e-05
9.20485e-05
9.23174e-05
9.09347e-05
9.19117e-05
8.97895e-05
8.99397e-05
9.11116e-05
9.12433e-05
8.95591e-05
8.98156e-05
9.02632e-05
9.05366e-05
9.13036e-05
9.00086e-05
9.10237e-05
9.09499e-05
9.0995e-05
8.92522e-05
9.07894e-05
9.01193e-05
9.09878e-05
9.12873e-05
8.91402e-05
9.23998e-05
9.16212e-05
9.1762e-05
9.07678e-05
9.23704e-05
9.04835e-05
9.00758e-05
9.17475e-05
9.0972e-05
8.83376e-05
9.1008e-05
9.16733e-05
9.04555e-05
9.07284e-05
9.21614e-05
8.88091e-05
9.06769e-05
9.09222e-05
9.11573e-05
9.27378e-05
9.06439e-05
9.15686e-05
9.13196e-05
9.62626e-05
9.0601e-05
9.14859e-05
8.8869e-05
8.95262e-05
9.15678e-05
9.08719e-05
9.08996e-05
9.25528e-05
8.95039e-05
9.02621e-05
9.00096e-05
9.08839e-05
9.16319e-05
9.11609e-05
9.19348e-05
9.19177e-05
9.25869e-05
9.02904e-05
9.18508e-05
9.08519e-05
8.99965e-05
9.15671e-05
8.87865e-05
8.89236e-05
8.99953e-05
9.07078e-05
9.13131e-05
9.2175e-05
9.13444e-05
9.10416e-05
9.04433e-05
8.88786e-05
9.02581e-05
9.15221e-05
9.09232e-05
9.0602e-05
8.97085e-05
9.23493e-05
9.15201e-05
8.99708e-05
9.05204e-05
9.04077e-05
9.00141e-05
9.12472e-05
8.98666e-05
9.17712e-05
8.98587e-05
8.99168e-05
9.08845e-05
9.14748e-05
9.03217e-05
8.93866e-05
8.99959e-05
9.15981e-05
9.03637e-05
8.91227e-05
9.25275e-05
9.18979e-05
9.15148e-05
9.00725e-05
8.82087e-05
9.11628e-05
9.10435e-05
8.89483e-05
9.07392e-05
8.81001e-05
9.27863e-05
9.10854e-05
9.1835e-05
9.12513e-05
8.45061e-05
9.01033e-05
8.90176e-05
8.80301e-05
9.19178e-05
8.87075e-05
8.68257e-05
9.09818e-05
8.97478e-05
8.65535e-05
8.91345e-05
9.12514e-05
9.13729e-05
9.06702e-05
8.74425e-05
9.0625e-05
9.20252e-05
8.99179e-05
9.0873e-05
9.02326e-05
9.1399e-05
9.0071e-05
8.85824e-05
8.98555e-05
9.19197e-05
9.14073e-05
8.80684e-05
8.99636e-05
8.99816e-05
9.2138e-05
9.00912e-05
8.97302e-05
8.89116e-05
8.98928e-05
9.14094e-05
9.10899e-05
8.94161e-05
9.40168e-05
9.0399e-05
9.01676e-05
8.97258e-05
8.84452e-05
9.03001e-05
9.08567e-05
8.84917e-05
8.9788e-05
9.19087e-05
9.4367e-05
9.03973e-05
9.20335e-05
8.94926e-05
9.24203e-05
9.12969e-05
9.03387e-05
9.02487e-05
8.99439e-05
9.06176e-05
9.06282e-05
9.00568e-05
8.80754e-05
9.12045e-05
9.03438e-05
9.2372e-05
9.17049e-05
9.1522e-05
9.1214e-05
9.12546e-05
9.01169e-05
9.03948e-05
8.99823e-05
8.85664e-05
9.06881e-05
9.04311e-05
9.0405e-05
9.05626e-05
9.16124e-05
9.18557e-05
9.06939e-05
8.69408e-05
9.11703e-05
8.96903e-05
9.08205e-05
9.06881e-05
8.65972e-05
9.10228e-05
8.72797e-05
9.0232e-05
9.02926e-05
8.69761e-05
9.0454e-05
9.03958e-05
8.995e-05
9.08227e-05
9.17906e-05
9.14744e-05
9.20966e-05
8.98492e-05
9.05827e-05
9.10662e-05
9.26204e-05
9.21536e-05
9.12123e-05
9.26005e-05
8.99693e-05
9.15079e-05
9.17947e-05
9.19966e-05
9.14855e-05
8.95939e-05
9.16721e-05
9.07978e-05
9.04218e-05
9.20478e-05
8.89028e-05
9.09054e-05
8.9098e-05
9.0782e-05
8.97328e-05
8.84412e-05
9.10879e-05
9.01199e-05
9.08785e-05
9.1416e-05
8.94543e-05
8.86885e-05
9.04456e-05
8.93746e-05
8.91868e-05
8.84713e-05
9.16149e-05
8.87621e-05
9.03131e-05
8.87557e-05
8.76167e-05
8.96848e-05
8.66975e-05
9.04134e-05
9.09247e-05
9.02987e-05
8.95599e-05
9.25755e-05
9.11465e-05
9.16156e-05
8.88965e-05
9.08165e-05
8.94473e-05
9.16531e-05
9.25299e-05
8.79421e-05
8.95748e-05
9.10056e-05
8.69926e-05
8.696e-05
8.79796e-05
9.12036e-05
9.07326e-05
9.11875e-05
8.99005e-05
9.08656e-05
9.00734e-05
8.78625e-05
9.11706e-05
8.81166e-05
9.07911e-05
9.01123e-05
8.97692e-05
9.21282e-05
9.05527e-05
9.02397e-05
8.91605e-05
8.71258e-05
9.19853e-05
9.09452e-05
8.81586e-05
9.16571e-05
9.06027e-05
8.82243e-05
8.82407e-05
8.80686e-05
8.706e-05
9.04411e-05
8.96261e-05
8.98295e-05
9.22457e-05
9.10833e-05
9.19545e-05
8.58473e-05
9.08661e-05
9.01146e-05
9.17812e-05
9.00848e-05
9.08226e-05
8.77133e-05
9.09689e-05
9.06145e-05
8.98609e-05
9.25772e-05
9.08733e-05
9.05288e-05
9.05865e-05
9.1456e-05
8.9183e-05
8.8205e-05
9.20538e-05
9.09733e-05
9.05766e-05
9.19916e-05
9.13206e-05
8.80046e-05
9.02365e-05
8.99235e-05
9.10035e-05
8.70212e-05
9.09443e-05
9.08941e-05
9.14874e-05
9.15699e-05
9.07692e-05
8.60416e-05
8.89919e-05
9.14376e-05
9.1491e-05
9.22485e-05
8.76452e-05
9.14851e-05
8.7926e-05
8.95139e-05
8.88554e-05
9.07181e-05
9.02752e-05
8.78768e-05
9.12066e-05
9.01991e-05
8.81099e-05
8.97264e-05
9.04481e-05
9.13499e-05
9.19749e-05
8.99292e-05
8.90147e-05
8.95103e-05
9.08884e-05
9.07685e-05
9.31737e-05
9.02448e-05
9.05177e-05
9.08574e-05
9.01079e-05
8.89217e-05
9.0046e-05
9.15643e-05
9.1058e-05
8.72186e-05
8.78846e-05
8.90456e-05
9.05496e-05
9.01226e-05
8.92416e-05
9.14315e-05
8.94112e-05
9.16157e-05
8.67575e-05
9.1297e-05
8.89736e-05
9.14237e-05
9.1246e-05
8.93163e-05
8.97897e-05
9.23978e-05
8.98397e-05
9.26318e-05
9.05497e-05
8.68431e-05
9.13194e-05
9.17882e-05
9.08355e-05
8.9496e-05
0.000597213
8.77155e-05
9.15576e-05
9.5197e-05
8.80826e-05
9.11758e-05
8.92468e-05
8.72225e-05
9.01222e-05
9.03184e-05
8.81123e-05
8.92477e-05
8.66344e-05
8.68502e-05
8.69295e-05
8.88149e-05
9.04668e-05
9.10771e-05
9.07988e-05
8.86975e-05
9.06268e-05
9.00021e-05
9.06435e-05
9.24969e-05
9.20239e-05
9.13291e-05
9.13011e-05
8.97206e-05
8.89116e-05
9.10166e-05
9.0357e-05
9.21465e-05
9.18237e-05
9.03626e-05
8.98262e-05
9.06958e-05
9.3156e-05
9.04556e-05
9.04688e-05
9.09688e-05
8.6605e-05
9.01285e-05
8.99044e-05
9.08303e-05
9.2586e-05
9.01278e-05
8.99455e-05
8.89877e-05
8.98164e-05
9.15918e-05
8.90333e-05
9.05477e-05
8.91586e-05
9.20465e-05
8.94355e-05
9.05882e-05
9.18024e-05
9.20108e-05
9.06663e-05
9.04695e-05
8.96943e-05
9.076e-05
8.98493e-05
8.98533e-05
8.77303e-05
8.78793e-05
9.06408e-05
8.70815e-05
8.75899e-05
0.000365073
9.17365e-05
9.16926e-05
8.81255e-05
9.23434e-05
9.07069e-05
9.15859e-05
9.04379e-05
8.96398e-05
9.11299e-05
8.95399e-05
8.99545e-05
9.16751e-05
9.04906e-05
9.23702e-05
9.06776e-05
9.09165e-05
9.01338e-05
9.15807e-05
9.04081e-05
9.06831e-05
9.14283e-05
9.05577e-05
9.04144e-05
9.05416e-05
9.03783e-05
9.05701e-05
9.05072e-05
8.9864e-05
8.63274e-05
8.87412e-05
9.19022e-05
9.13776e-05
9.10201e-05
9.17273e-05
9.01217e-05
0.000112621
8.94757e-05
9.12731e-05
8.98483e-05
9.08451e-05
9.12387e-05
9.08613e-05
9.06376e-05
9.04443e-05
8.72992e-05
9.0092e-05
9.06709e-05
8.78893e-05
9.08883e-05
9.05954e-05
9.19758e-05
9.07341e-05
9.15805e-05
9.14436e-05
9.28282e-05
9.05214e-05
9.24901e-05
8.4124e-05
8.74115e-05
9.10404e-05
9.06736e-05
9.68456e-05
9.07556e-05
9.15688e-05
9.01784e-05
8.76611e-05
9.13021e-05
9.24204e-05
9.18632e-05
9.2234e-05
9.04961e-05
9.10522e-05
9.10061e-05
9.20331e-05
9.12005e-05
9.10236e-05
9.14277e-05
9.10948e-05
9.12034e-05
9.03533e-05
9.10733e-05
9.0062e-05
9.07976e-05
9.12173e-05
9.0461e-05
8.70057e-05
8.81786e-05
9.00097e-05
9.10928e-05
9.0085e-05
9.08083e-05
9.04162e-05
9.12918e-05
8.57071e-05
8.98197e-05
9.11123e-05
8.84647e-05
8.99692e-05
9.23783e-05
8.93328e-05
9.05253e-05
9.24058e-05
8.72663e-05
9.08995e-05
8.70117e-05
8.9561e-05
9.18377e-05
9.16225e-05
8.94356e-05
8.85928e-05
9.03508e-05
9.25618e-05
9.15333e-05
9.10417e-05
9.18689e-05
8.89312e-05
9.09634e-05
9.27411e-05
8.72102e-05
9.12056e-05
9.02061e-05
9.2575e-05
8.88451e-05
9.03205e-05
8.8109e-05
9.15673e-05
9.14623e-05
9.10622e-05
9.26449e-05
9.0106e-05
9.02228e-05
9.11524e-05
9.15338e-05
9.05706e-05
8.83848e-05
9.11734e-05
9.01152e-05
9.01475e-05
9.13284e-05
9.08187e-05
9.05654e-05
8.95619e-05
8.86823e-05
9.10525e-05
8.87496e-05
9.19784e-05
9.22494e-05
9.2102e-05
9.06767e-05
9.0814e-05
9.04948e-05
9.2135e-05
9.06386e-05
9.07503e-05
9.06222e-05
8.84176e-05
9.02121e-05
9.09233e-05
8.99205e-05
8.985e-05
9.0764e-05
8.95344e-05
8.9964e-05
9.05792e-05
8.83856e-05
9.00853e-05
9.27256e-05
8.81774e-05
9.00855e-05
8.95164e-05
9.044e-05
9.16304e-05
9.16313e-05
9.11563e-05
8.99937e-05
9.05097e-05
8.99446e-05
8.96435e-05
9.01274e-05
8.9819e-05
8.94382e-05
9.06932e-05
9.12301e-05
8.99363e-05
8.93453e-05
9.04683e-05
9.02733e-05
9.13319e-05
8.92129e-05
8.97359e-05
8.93702e-05
8.99323e-05
9.0239e-05
8.91346e-05
9.01505e-05
9.07346e-05
8.85194e-05
9.01027e-05
9.15787e-05
9.15123e-05
8.99938e-05
9.08055e-05
8.91051e-05
8.55001e-05
9.2108e-05
8.94031e-05
9.0477e-05
8.95166e-05
9.05424e-05
9.23962e-05
9.08801e-05
9.18962e-05
9.23884e-05
9.0607e-05
9.01453e-05
9.08149e-05
8.90095e-05
9.01593e-05
8.91813e-05
8.8745e-05
8.81046e-05
9.13081e-05
9.02586e-05
9.04822e-05
9.1579e-05
9.14229e-05
8.91924e-05
8.98419e-05
8.93598e-05
8.84667e-05
9.00876e-05
9.11857e-05
8.98488e-05
8.99634e-05
9.02176e-05
9.07535e-05
9.09546e-05
8.878e-05
9.00885e-05
9.13645e-05
8.98976e-05
9.07241e-05
9.10611e-05
9.10604e-05
8.8151e-05
9.14242e-05
9.23265e-05
9.0835e-05
8.84496e-05
9.03317e-05
9.05116e-05
8.88977e-05
9.07887e-05
9.01276e-05
9.09904e-05
8.99511e-05
8.85414e-05
9.00797e-05
9.07708e-05
8.71804e-05
8.96452e-05
8.99799e-05
8.99572e-05
8.89751e-05
9.17549e-05
9.0332e-05
9.09375e-05
9.05403e-05
8.9791e-05
9.21341e-05
8.97302e-05
8.97584e-05
8.911e-05
9.08007e-05
8.7623e-05
9.21933e-05
8.98171e-05
9.10019e-05
8.838e-05
9.08598e-05
9.01082e-05
8.9352e-05
9.16837e-05
9.04742e-05
9.06375e-05
9.08948e-05
8.85435e-05
8.92266e-05
9.23639e-05
8.92178e-05
8.82208e-05
8.9905e-05
9.09688e-05
9.07432e-05
9.05962e-05
9.08703e-05
9.07824e-05
9.06388e-05
8.99611e-05
9.11628e-05
9.06465e-05
9.19855e-05
9.02931e-05
9.07079e-05
9.08533e-05
8.98277e-05
9.10404e-05
9.07794e-05
9.1201e-05
9.01318e-05
9.12633e-05
9.05416e-05
9.06892e-05
9.15242e-05
9.00118e-05
9.01304e-05
9.09014e-05
9.3143e-05
8.87583e-05
9.14977e-05
9.19836e-05
9.24528e-05
9.09214e-05
9.18136e-05
9.1597e-05
9.13405e-05
9.03113e-05
9.12518e-05
8.68236e-05
9.24524e-05
9.18444e-05
9.12465e-05
9.01026e-05
9.12916e-05
9.19608e-05
8.87874e-05
9.1425e-05
8.62248e-05
9.12347e-05
9.15875e-05
8.83372e-05
9.03269e-05
8.95776e-05
9.25296e-05
8.99259e-05
8.99621e-05
8.39527e-05
0.000196014
9.13166e-05
8.86458e-05
0.000194055
8.95598e-05
8.90233e-05
8.84978e-05
9.05168e-05
0.00040506
9.04718e-05
9.20641e-05
9.19854e-05
9.13993e-05
0.000239334
9.03232e-05
8.88083e-05
9.15023e-05
8.94579e-05
9.29944e-05
8.87939e-05
9.01984e-05
9.15412e-05
8.79108e-05
8.95869e-05
8.89427e-05
8.86346e-05
9.00011e-05
8.84612e-05
9.07791e-05
9.23049e-05
9.23319e-05
8.80885e-05
8.93851e-05
8.90299e-05
9.11648e-05
8.71268e-05
8.83051e-05
9.03925e-05
9.07225e-05
9.13334e-05
9.18595e-05
9.05483e-05
9.2817e-05
9.0584e-05
9.12259e-05
9.14195e-05
9.02972e-05
9.0464e-05
9.14574e-05
8.96956e-05
9.02733e-05
8.95636e-05
9.02507e-05
9.07262e-05
9.22145e-05
8.79437e-05
9.13466e-05
8.96706e-05
8.78757e-05
9.0165e-05
9.98621e-05
8.7709e-05
9.05419e-05
8.98827e-05
8.80124e-05
9.02081e-05
8.98041e-05
9.24932e-05
8.78903e-05
9.20178e-05
9.08635e-05
8.83088e-05
9.16238e-05
9.10784e-05
8.96863e-05
9.16679e-05
9.09986e-05
8.84793e-05
9.15854e-05
9.00869e-05
8.81395e-05
9.04653e-05
9.13896e-05
9.01094e-05
8.81123e-05
9.16334e-05
9.1037e-05
9.11875e-05
9.13136e-05
9.08284e-05
9.08316e-05
9.17664e-05
8.91728e-05
9.21458e-05
9.10638e-05
8.94163e-05
9.1956e-05
9.23583e-05
9.11366e-05
9.13703e-05
9.03486e-05
9.14882e-05
8.99976e-05
9.14283e-05
8.88006e-05
9.0412e-05
9.09505e-05
9.09772e-05
9.10093e-05
9.10388e-05
9.16072e-05
9.11343e-05
8.79274e-05
9.15197e-05
9.13816e-05
9.30783e-05
9.0636e-05
9.00147e-05
9.15916e-05
8.48756e-05
8.99547e-05
8.98458e-05
9.1046e-05
8.79037e-05
9.10072e-05
9.21209e-05
9.00842e-05
9.0816e-05
9.16336e-05
8.62407e-05
9.03489e-05
9.08201e-05
9.09337e-05
9.04061e-05
9.257e-05
9.2134e-05
8.59717e-05
9.28646e-05
9.19372e-05
8.57115e-05
9.02017e-05
9.15169e-05
8.5276e-05
9.08623e-05
9.05665e-05
9.18265e-05
9.09592e-05
8.92997e-05
9.02358e-05
8.56919e-05
9.12838e-05
9.09901e-05
8.5632e-05
9.22208e-05
9.11654e-05
8.66732e-05
9.13841e-05
9.10528e-05
9.25093e-05
9.07127e-05
9.08295e-05
9.09403e-05
9.03236e-05
8.76937e-05
9.13615e-05
9.08707e-05
8.77148e-05
9.1218e-05
9.10973e-05
8.71048e-05
8.98283e-05
9.02608e-05
8.98951e-05
9.07388e-05
9.06293e-05
9.04785e-05
0.000105937
9.01241e-05
9.13463e-05
9.09112e-05
8.6422e-05
9.22203e-05
9.09144e-05
8.65266e-05
8.94441e-05
8.71373e-05
9.22554e-05
9.01187e-05
9.2211e-05
9.07815e-05
8.56109e-05
9.18034e-05
8.63843e-05
9.14869e-05
9.04057e-05
8.65777e-05
9.12906e-05
9.08973e-05
9.12278e-05
8.73012e-05
9.15975e-05
9.0833e-05
8.65522e-05
8.96369e-05
9.03554e-05
8.72303e-05
8.70005e-05
9.03366e-05
9.22685e-05
8.89028e-05
9.14153e-05
8.85981e-05
8.99837e-05
9.24908e-05
9.17775e-05
8.79728e-05
9.1378e-05
8.88681e-05
8.66136e-05
9.18359e-05
9.06348e-05
9.15807e-05
8.64625e-05
9.12997e-05
9.13042e-05
9.10617e-05
9.18096e-05
9.0825e-05
9.16421e-05
8.58928e-05
9.03199e-05
9.23263e-05
8.72449e-05
8.69197e-05
9.06641e-05
9.03113e-05
9.01519e-05
9.15954e-05
9.36101e-05
8.52505e-05
9.00334e-05
8.91351e-05
9.07738e-05
8.68031e-05
8.55261e-05
8.56678e-05
9.0677e-05
8.62854e-05
9.06331e-05
8.66789e-05
8.70184e-05
9.05105e-05
9.11534e-05
9.11544e-05
9.09493e-05
8.75497e-05
9.17616e-05
9.11488e-05
9.1591e-05
9.03009e-05
9.03952e-05
9.2532e-05
9.24155e-05
9.15587e-05
9.114e-05
8.78142e-05
9.21199e-05
9.15573e-05
9.17902e-05
9.15457e-05
8.60493e-05
8.83504e-05
8.99561e-05
9.0568e-05
8.99334e-05
9.08008e-05
8.92365e-05
9.04683e-05
9.22086e-05
8.79728e-05
8.82228e-05
8.97238e-05
8.73779e-05
9.07106e-05
9.01748e-05
9.07841e-05
8.80941e-05
9.0298e-05
9.09901e-05
9.00636e-05
9.10202e-05
9.11617e-05
9.04974e-05
8.71728e-05
9.14941e-05
9.08549e-05
8.98933e-05
9.2296e-05
8.66657e-05
9.05625e-05
9.12605e-05
9.10555e-05
8.97216e-05
9.09749e-05
9.02718e-05
9.01618e-05
8.81743e-05
9.01753e-05
9.17986e-05
9.13642e-05
8.87854e-05
8.75707e-05
9.03652e-05
8.66538e-05
8.91657e-05
9.159e-05
9.21064e-05
8.94992e-05
9.2394e-05
9.08786e-05
9.0876e-05
9.11486e-05
9.25756e-05
9.21327e-05
8.93149e-05
8.6997e-05
9.14534e-05
8.93967e-05
8.67763e-05
9.15863e-05
9.1765e-05
9.24576e-05
8.98091e-05
9.10077e-05
9.17878e-05
9.02465e-05
9.04793e-05
9.07267e-05
8.73343e-05
9.14051e-05
8.97235e-05
8.85697e-05
9.20322e-05
9.14632e-05
9.22926e-05
8.73571e-05
9.07476e-05
9.2909e-05
9.04978e-05
8.76984e-05
8.98454e-05
8.92886e-05
9.05131e-05
8.7315e-05
8.89513e-05
0.000102377
8.67211e-05
9.10308e-05