/*--------------------------------*- C++ -*----------------------------------*\
| =========                 |                                                 |
| \\      /  F ield         | OpenFOAM: The Open Source CFD Toolbox           |
|  \\    /   O peration     | Version:  v2012                                 |
|   \\  /    A nd           | Website:  www.openfoam.com                      |
|    \\/     M anipulation  |                                                 |
\*---------------------------------------------------------------------------*/
FoamFile
{
    version     2.0;
    format      ascii;
    class       volScalarField;
    location    "1";
    object      nut;
}
// * * * * * * * * * * * * * * * * * * * * * * * * * * * * * * * * * * * * * //

dimensions      [0 2 -1 0 0 0 0];


internalField   nonuniform List<scalar> 
108993
(
9.77397e-05
9.28455e-05
7.27687e-05
0.000101355
0.000101584
5.72022e-05
8.878e-05
8.15564e-05
0.000100387
9.37955e-05
0.000106481
0.00010564
8.42436e-05
8.51745e-05
9.03051e-05
7.6095e-05
7.98403e-05
9.11914e-05
8.57686e-05
9.13816e-05
7.43688e-05
9.59328e-05
8.1855e-05
0.000100681
9.82115e-05
9.13885e-05
8.6863e-05
9.74065e-05
0.000108161
6.62895e-05
0.000108378
0.000104535
8.79778e-05
0.00010288
8.59219e-05
0.000101608
8.79445e-05
0.00010055
8.26102e-05
9.01638e-05
0.000113691
0.000107908
9.29613e-05
0.000100051
9.09541e-05
6.76838e-05
8.79892e-05
8.91416e-05
0.000116614
9.93716e-05
0.000101403
0.000112077
9.48304e-05
9.76439e-05
0.000103948
0.000107159
9.15496e-05
9.50327e-05
8.06684e-05
0.000108894
9.69815e-05
9.8672e-05
9.62201e-05
8.61117e-05
9.30344e-05
0.000108628
7.94535e-05
0.000104741
0.00011289
9.99075e-05
9.44407e-05
9.08646e-05
0.000100448
9.73609e-05
8.79676e-05
0.000106837
8.17481e-05
0.000115539
9.60993e-05
9.57983e-05
9.24641e-05
8.77092e-05
8.51337e-05
8.35016e-05
0.000108321
9.11417e-05
0.000108584
8.84398e-05
9.30868e-05
0.000105194
9.44029e-05
8.18652e-05
0.000104935
7.49316e-05
0.000101412
9.99049e-05
8.14271e-05
7.19293e-05
7.96785e-05
8.38915e-05
0.000103293
0.000115483
0.000112805
0.000108255
7.71223e-05
0.000103566
0.000108265
0.00011009
0.000106024
0.000108895
8.49399e-05
9.35783e-05
9.23812e-05
9.83677e-05
0.000100156
8.55769e-05
8.70712e-05
8.15531e-05
0.00011264
9.71238e-05
9.54723e-05
9.04407e-05
9.13085e-05
6.68726e-05
8.94175e-05
9.68336e-05
0.000100313
8.81645e-05
8.21429e-05
0.00010358
8.90402e-05
0.000105054
0.000110264
8.24896e-05
9.64646e-05
8.24865e-05
9.19296e-05
8.71107e-05
8.58365e-05
9.24766e-05
8.54576e-05
7.8182e-05
9.24671e-05
9.36027e-05
0.000102825
9.91906e-05
8.15125e-05
8.04492e-05
9.29158e-05
9.44286e-05
9.50824e-05
8.03495e-05
7.99071e-05
0.000103299
9.88228e-05
9.43337e-05
0.000114882
0.000101321
9.9106e-05
9.68357e-05
0.000104822
9.00512e-05
0.000109789
9.10989e-05
9.31163e-05
0.000103013
9.3635e-05
8.14193e-05
8.03452e-05
0.000111467
0.000103041
0.00010278
0.000102926
8.64928e-05
9.40607e-05
9.17274e-05
8.73017e-05
8.70436e-05
0.000104715
8.48047e-05
8.77367e-05
8.21291e-05
9.02181e-05
3.29802e-05
0.000113161
9.94937e-05
9.15603e-05
9.90922e-05
9.92808e-05
3.67737e-05
9.91476e-05
9.81408e-05
8.69735e-05
9.78543e-05
0.000105219
9.39208e-05
0.000110055
0.000100537
0.000107379
4.07238e-05
0.000104569
0.000104111
7.40803e-05
8.3934e-05
0.000102022
7.62552e-05
8.88991e-05
9.99386e-05
9.41387e-05
0.000181623
8.41194e-05
9.10602e-05
8.22954e-05
9.0354e-05
7.99975e-05
7.00909e-05
8.75528e-05
9.79148e-05
9.25667e-05
0.00011759
9.69569e-05
8.54315e-05
0.000103464
9.31068e-05
8.76249e-05
7.67817e-05
8.74169e-05
0.00010853
0.000103132
8.12104e-05
5.09504e-05
9.91719e-05
8.23466e-05
8.15816e-05
9.11756e-05
7.61032e-05
0.000102638
8.99741e-05
9.17886e-05
9.00421e-05
6.70215e-05
0.000104223
6.57615e-05
9.66912e-05
0.000107274
9.18562e-05
0.000100547
9.42371e-05
9.83902e-05
0.000107538
8.43898e-05
9.69631e-05
9.39743e-05
0.000103671
9.94312e-05
9.59245e-05
9.76417e-05
9.49358e-05
0.000110599
6.53259e-05
9.72361e-05
8.33557e-05
0.000108426
8.11334e-05
7.30588e-05
9.67857e-05
0.000107674
0.000112559
6.50125e-05
9.57554e-05
7.10331e-05
7.70442e-05
9.94036e-05
0.000128469
9.12978e-05
9.15992e-05
0.00010381
0.000113825
0.000106957
9.63834e-05
0.000104113
7.72502e-05
6.72094e-05
8.86798e-05
0.000102433
9.81936e-05
7.66603e-05
0.000103422
0.000110657
5.83404e-05
9.46965e-05
8.25014e-05
0.00010667
0.000102373
9.76216e-05
8.18245e-05
0.000110431
9.55671e-05
8.19425e-05
5.86242e-05
8.41001e-05
7.99378e-05
0.000104586
7.77116e-05
0.000100276
8.03532e-05
7.22391e-05
8.5036e-05
7.54461e-05
0.000107425
0.000105245
0.000104851
8.46567e-05
9.2374e-05
0.000106622
8.58744e-05
7.0101e-05
8.75725e-05
9.14675e-05
0.000113454
9.24688e-05
7.17026e-05
7.16348e-05
6.82789e-05
7.95068e-05
9.10601e-05
9.17389e-05
0.000109632
9.0407e-05
0.000109678
0.00011606
0.000113482
8.9311e-05
9.24976e-05
9.31566e-05
9.06934e-05
9.83016e-05
0.000101336
0.000100317
8.87939e-05
9.40225e-05
9.2569e-05
8.88568e-05
0.00010344
8.94002e-05
9.25769e-05
8.79076e-05
8.73647e-05
8.58765e-05
8.25128e-05
0.000101175
6.92839e-05
6.9177e-05
9.16815e-05
9.04322e-05
9.62755e-05
8.79275e-05
6.44285e-05
9.03306e-05
5.81273e-05
0.000116455
8.81198e-05
7.6125e-05
9.24729e-05
9.86068e-05
0.000104982
0.000103672
8.81181e-05
9.34419e-05
0.000102661
8.08326e-05
0.000103499
8.44127e-05
9.70211e-05
0.00011847
0.000100753
0.000107102
0.000128818
7.9286e-05
0.000103054
7.38484e-05
7.71754e-05
0.000107897
8.20323e-05
9.29106e-05
6.65375e-05
8.92414e-05
8.0064e-05
9.25161e-05
0.000107603
8.10899e-05
7.00055e-05
7.58909e-05
8.46311e-05
8.12827e-05
0.00013208
0.000222024
9.77488e-05
9.1801e-05
9.5198e-05
0.000129798
9.17174e-05
8.01888e-05
9.83719e-05
0.000100994
7.09036e-05
8.82271e-05
6.28983e-05
9.02576e-05
0.000142336
9.01319e-05
8.69641e-05
7.98697e-05
8.61931e-05
9.92207e-05
0.000108679
9.87191e-05
8.88728e-05
5.84309e-05
9.06803e-05
0.000198089
9.44297e-05
9.43241e-05
7.55163e-05
0.000104359
6.73141e-05
0.000102481
7.06387e-05
8.21398e-05
6.60365e-05
0.000296211
9.47389e-05
0.000191552
9.0007e-05
9.0533e-05
9.82283e-05
8.78267e-05
0.000101419
0.00010665
8.77586e-05
9.23944e-05
9.07552e-05
0.000111182
6.68322e-05
0.00010162
0.000106965
8.62522e-05
0.000106323
9.2323e-05
7.21215e-05
9.48563e-05
9.71201e-05
0.000105719
0.000123408
0.000115876
9.57558e-05
9.5851e-05
9.22296e-05
0.00011473
8.58596e-05
5.98675e-05
9.47164e-05
6.31788e-05
9.847e-05
9.52961e-05
7.48117e-05
8.06771e-05
7.65493e-05
7.04527e-05
8.55846e-05
6.36505e-05
0.000102438
0.000100479
9.20671e-05
0.000108786
8.55829e-05
8.28268e-05
0.0001055
8.60245e-05
0.00010321
8.74407e-05
0.00011282
0.000108349
0.000103176
6.72752e-05
8.52694e-05
8.51565e-05
7.72444e-05
8.97215e-05
0.000107373
9.65986e-05
0.000105874
7.9991e-05
8.11574e-05
9.31622e-05
6.81713e-05
8.08451e-05
0.00010371
7.55007e-05
9.35216e-05
7.82428e-05
9.70652e-05
7.70455e-05
9.75097e-05
0.000102933
0.00010253
9.33272e-05
8.54048e-05
8.55667e-05
9.53313e-05
0.000102048
8.92849e-05
0.000104211
0.0001096
9.64754e-05
9.03951e-05
8.30022e-05
9.56711e-05
0.000110955
0.0001153
7.09389e-05
6.95143e-05
9.83513e-05
0.000101835
0.000110507
9.06902e-05
9.1778e-05
0.000101642
9.25964e-05
0.000109071
7.76834e-05
9.00063e-05
8.42991e-05
8.87318e-05
9.07932e-05
0.000109427
8.93699e-05
0.000101704
0.000105952
8.88627e-05
7.76378e-05
9.67754e-05
9.41974e-05
0.000109636
0.000109122
9.28947e-05
7.81996e-05
8.579e-05
0.000107401
7.76851e-05
8.4898e-05
8.13552e-05
8.08372e-05
0.000115605
0.000106964
7.79438e-05
0.00010369
0.000110986
0.000346626
8.22048e-05
9.94405e-05
9.77309e-05
7.98769e-05
0.00010334
6.79675e-05
8.75104e-05
0.00010202
8.19692e-05
0.000126697
0.000106371
0.000101972
7.48485e-05
0.000969065
7.16059e-05
9.64149e-05
9.69276e-05
0.000112814
6.92635e-05
8.07037e-05
9.73883e-05
0.000109437
8.95238e-05
0.000110735
0.000118193
0.000102382
8.32318e-05
8.50968e-05
7.1834e-05
0.000108086
7.13159e-05
0.000114612
7.41603e-05
9.1351e-05
9.55598e-05
9.6739e-05
8.76501e-05
0.000118351
7.58468e-05
0.000109937
9.1776e-05
0.00010102
0.000109247
0.000171635
8.62622e-05
8.38178e-05
6.9059e-05
0.000173436
7.34807e-05
9.51189e-05
0.000101329
8.97603e-05
0.000100859
0.000112355
9.3573e-05
0.000118211
9.04442e-05
0.000102326
7.34858e-05
8.33799e-05
8.59997e-05
0.00011329
9.60465e-05
0.000102296
0.000103496
0.000108217
0.000107708
0.000115103
0.000100176
8.53915e-05
9.98974e-05
0.000103206
9.55243e-05
0.000101523
8.21514e-05
9.24832e-05
8.3124e-05
7.49924e-05
0.000110228
9.03291e-05
0.000104046
9.17893e-05
0.00010207
8.98453e-05
8.6078e-05
8.24042e-05
8.72594e-05
9.65573e-05
8.10682e-05
8.78987e-05
9.27678e-05
9.89424e-05
8.24207e-05
9.15197e-05
6.16164e-05
0.00010782
8.77406e-05
7.26604e-05
5.40915e-05
9.29202e-05
5.83366e-05
4.69198e-05
9.77888e-05
7.49193e-05
9.42157e-05
8.45337e-05
9.79184e-05
7.78904e-05
0.000104838
7.91309e-05
8.72066e-05
0.000113648
0.000115695
0.000109835
6.97643e-05
6.41586e-05
0.000113455
8.60359e-05
6.42401e-05
9.81628e-05
0.000107522
9.01339e-05
0.000105175
9.38916e-05
9.9988e-05
6.24738e-05
0.000130425
0.000113378
6.19888e-05
6.43568e-05
9.37139e-05
8.65963e-05
9.55278e-05
0.000102308
7.93754e-05
9.74025e-05
7.95379e-05
7.66591e-05
8.26089e-05
7.77944e-05
9.42189e-05
9.86705e-05
8.70946e-05
5.85421e-05
6.24351e-05
0.000119837
6.51411e-05
0.00010092
8.50269e-05
0.000101454
8.62888e-05
9.93571e-05
0.000102122
9.79736e-05
0.000106657
9.1312e-05
7.67261e-05
8.38986e-05
9.70383e-05
7.39502e-05
0.000105145
0.000106399
0.000101221
0.000121798
8.43998e-05
8.60479e-05
0.000101266
0.000105249
7.8067e-05
8.31751e-05
0.000102528
9.3384e-05
9.74026e-05
7.82531e-05
8.70838e-05
0.000103284
7.92483e-05
0.000112835
8.07806e-05
0.000101376
0.000116076
8.59075e-05
7.38197e-05
0.000100712
9.00268e-05
0.000105403
0.000108109
0.000111963
0.000123818
0.000102555
0.000132784
0.000104783
7.24938e-05
8.28772e-05
0.00011783
7.47112e-05
8.55807e-05
7.79742e-05
5.42764e-05
0.00011678
8.76675e-05
9.3206e-05
9.32944e-05
0.000119438
9.42383e-05
6.59293e-05
0.000104988
0.000103828
8.16237e-05
0.000101101
0.000101315
8.9113e-05
9.62532e-05
0.000100744
0.000105097
9.09352e-05
0.000116538
9.47463e-05
0.000111292
7.02697e-05
8.92663e-05
6.20306e-05
7.75063e-05
0.000101568
9.34549e-05
9.48129e-05
8.5026e-05
9.67609e-05
7.7758e-05
0.000100862
6.56799e-05
9.71311e-05
8.31003e-05
9.39655e-05
9.4309e-05
0.000108667
0.000120322
8.68142e-05
0.000107004
7.15503e-05
0.00010599
8.60574e-05
8.92888e-05
0.00010602
9.13751e-05
0.00010167
0.000105626
0.000101546
9.30185e-05
8.33783e-05
8.6699e-05
8.39233e-05
9.84277e-05
9.89208e-05
7.4306e-05
8.02211e-05
9.01154e-05
7.6379e-05
9.6399e-05
0.000101863
7.80863e-05
9.63114e-05
7.6852e-05
9.54472e-05
0.000101926
0.000103211
8.54648e-05
7.48706e-05
8.16884e-05
8.00311e-05
0.000116829
9.49808e-05
0.00010193
9.78385e-05
0.000120547
8.61542e-05
7.51097e-05
9.11059e-05
7.31962e-05
0.000115029
8.41689e-05
7.91169e-05
0.000109949
8.98876e-05
0.000115372
9.76336e-05
9.78651e-05
9.52917e-05
0.000105469
0.000176137
9.8393e-05
0.000308826
9.80908e-05
0.000123422
0.000102798
9.84951e-05
5.98742e-05
9.09929e-05
9.76077e-05
0.000121889
6.10488e-05
6.81662e-05
8.99518e-05
9.54633e-05
6.48907e-05
9.07853e-05
0.000104836
9.54576e-05
7.09218e-05
0.000106464
8.53186e-05
8.26667e-05
9.00789e-05
8.34593e-05
6.32054e-05
9.21317e-05
8.58859e-05
0.000104843
7.02065e-05
9.01236e-05
7.39829e-05
5.40146e-05
6.62668e-05
8.24526e-05
9.74107e-05
8.73566e-05
7.15692e-05
9.24252e-05
0.000115024
8.91466e-05
9.0599e-05
9.47951e-05
8.92117e-05
7.46894e-05
8.80868e-05
9.06704e-05
8.09857e-05
9.11566e-05
9.97272e-05
8.2562e-05
0.000120319
9.44584e-05
9.05022e-05
8.91342e-05
6.97859e-05
0.00010708
9.76186e-05
0.000102038
8.42481e-05
7.57413e-05
0.000107269
9.6144e-05
9.93258e-05
0.000126083
0.000110262
8.66429e-05
8.07103e-05
8.28233e-05
0.000100114
0.00011287
8.71779e-05
7.79462e-05
0.000106158
9.01038e-05
0.000109144
0.000101513
0.000108761
7.77034e-05
0.000119165
9.5429e-05
6.36183e-05
8.18205e-05
7.76439e-05
8.14199e-05
0.000104475
0.00012404
8.47668e-05
9.01116e-05
8.3131e-05
0.000103276
6.18904e-05
7.89391e-05
8.85474e-05
8.06699e-05
8.94811e-05
9.74386e-05
7.96667e-05
7.16622e-05
8.47925e-05
0.000109149
9.31655e-05
9.88775e-05
0.000102397
8.11919e-05
9.95757e-05
9.00823e-05
9.41479e-05
8.814e-05
9.15397e-05
6.89566e-05
0.000101402
8.56046e-05
8.63725e-05
8.41885e-05
0.000109411
6.83453e-05
8.61458e-05
0.000105139
9.91515e-05
9.29424e-05
9.1251e-05
7.12977e-05
9.56261e-05
7.31093e-05
9.46514e-05
7.19463e-05
7.6763e-05
9.05799e-05
0.000102387
9.94483e-05
7.59052e-05
8.6828e-05
8.54654e-05
8.84567e-05
7.60671e-05
9.06116e-05
9.99136e-05
9.94402e-05
8.91342e-05
0.000108104
9.28591e-05
7.96294e-05
0.000105843
9.73352e-05
7.89867e-05
8.62837e-05
7.49209e-05
8.86007e-05
7.33323e-05
0.000101028
7.59839e-05
8.95819e-05
8.08102e-05
9.13744e-05
8.42513e-05
9.74541e-05
0.00012696
9.2938e-05
8.52892e-05
7.81861e-05
8.66166e-05
9.51869e-05
9.51597e-05
0.000105963
5.48973e-05
9.85745e-05
9.89695e-05
8.71405e-05
8.54161e-05
9.75084e-05
7.08115e-05
7.45221e-05
8.97647e-05
9.4671e-05
9.43357e-05
0.000106207
0.000108396
9.51862e-05
9.31496e-05
0.00011437
8.97717e-05
0.000110051
0.000105979
0.000103782
0.000105035
0.000113077
0.00013686
0.000102736
9.61041e-05
0.000108278
9.07475e-05
8.11396e-05
9.79867e-05
9.89324e-05
0.000108325
9.67222e-05
8.19656e-05
7.96768e-05
8.74062e-05
8.97434e-05
8.83948e-05
9.4475e-05
9.03191e-05
0.000102814
9.54991e-05
6.6958e-05
9.79128e-05
9.42239e-05
8.68191e-05
7.00926e-05
0.000109024
0.000115027
9.018e-05
9.47488e-05
0.000113321
0.00011945
8.92703e-05
8.85869e-05
8.00074e-05
8.30872e-05
8.36614e-05
0.000114481
8.34605e-05
0.000129884
0.000109368
0.000116003
7.5079e-05
6.38149e-05
9.17383e-05
7.83085e-05
8.9342e-05
9.58248e-05
8.26404e-05
8.0371e-05
0.000100113
0.00010227
0.000105133
7.74168e-05
0.000102516
9.23819e-05
8.12408e-05
9.3679e-05
0.000106699
0.000103793
6.6109e-05
0.000120387
0.000102636
7.86563e-05
8.92517e-05
9.51274e-05
9.76669e-05
0.000137013
0.00012374
8.93713e-05
8.8704e-05
0.000112728
0.000781379
7.54027e-05
8.28571e-05
0.000105876
7.95904e-05
0.000109149
9.19242e-05
6.31656e-05
7.50606e-05
0.000111543
0.000129061
7.36289e-05
9.97118e-05
0.000110976
9.10411e-05
8.94653e-05
9.46925e-05
6.64489e-05
8.80988e-05
6.08426e-05
0.000104116
0.000101777
8.66154e-05
0.000102607
7.50158e-05
9.52159e-05
8.87572e-05
9.21308e-05
0.000102165
8.72568e-05
0.000103911
6.77076e-05
9.8232e-05
0.000112227
0.000105581
0.000103353
0.000104515
7.65606e-05
6.27129e-05
0.000101044
0.000116336
8.76824e-05
9.12612e-05
0.000103155
9.91874e-05
0.000104588
0.000114717
7.43024e-05
9.57884e-05
6.63352e-05
9.29386e-05
8.33891e-05
6.06498e-05
0.000105379
7.30508e-05
8.51478e-05
0.000113824
8.62093e-05
7.20912e-05
8.64022e-05
9.04237e-05
9.08682e-05
8.56426e-05
0.000110604
9.0644e-05
6.85211e-05
8.00606e-05
9.82895e-05
0.000105476
9.6729e-05
7.24695e-05
6.98621e-05
7.07081e-05
9.18496e-05
9.35217e-05
9.24477e-05
8.49174e-05
0.000116032
7.89338e-05
8.82049e-05
8.54606e-05
0.000101345
5.70426e-05
8.61009e-05
7.25781e-05
0.000113945
9.05767e-05
0.00010933
8.97431e-05
0.000102523
9.58813e-05
9.01325e-05
9.3251e-05
7.31793e-05
0.000102713
6.7396e-05
8.36363e-05
9.23226e-05
8.60535e-05
0.000100183
8.54458e-05
0.000102982
8.23745e-05
9.89694e-05
8.26869e-05
9.1868e-05
9.45682e-05
8.93382e-05
8.62865e-05
0.000102656
9.5143e-05
8.29035e-05
8.95636e-05
6.97099e-05
0.00010148
9.37699e-05
9.48512e-05
0.000110966
8.45155e-05
0.000622974
0.000104093
8.07354e-05
0.000102484
7.98018e-05
0.000122462
8.22743e-05
8.98686e-05
6.14332e-05
9.08001e-05
0.000130769
0.000120185
0.000112575
9.76076e-05
7.9318e-05
9.6227e-05
0.000121379
0.000113441
0.000112889
0.000102572
9.5445e-05
0.000100867
9.15539e-05
8.61249e-05
8.36389e-05
0.000100556
0.000106909
0.000105002
7.86726e-05
0.00010302
8.97308e-05
6.93809e-05
0.000108861
9.87703e-05
9.07261e-05
9.42441e-05
8.48178e-05
0.00010604
6.03504e-05
5.31411e-05
5.61689e-05
8.38286e-05
6.03747e-05
0.000107802
5.49815e-05
6.68149e-05
6.73006e-05
7.3975e-05
9.1934e-05
8.72489e-05
0.000112366
0.000103066
8.49497e-05
8.08891e-05
8.39976e-05
9.44033e-05
8.97136e-05
0.000110721
0.000111474
0.000115604
8.39659e-05
0.000109313
7.98054e-05
7.50972e-05
9.82579e-05
0.00010034
4.45202e-05
8.1581e-05
8.7199e-05
9.17441e-05
0.000100704
8.61246e-05
9.75517e-05
9.6503e-05
9.71967e-05
7.95551e-05
9.46316e-05
8.57946e-05
9.66375e-05
0.000100669
7.78387e-05
0.000117363
9.93489e-05
0.000107479
9.46922e-05
0.00011704
9.06465e-05
8.42124e-05
0.000106887
9.68937e-05
7.22617e-05
9.75813e-05
0.000105926
9.06428e-05
9.36016e-05
0.000113133
7.57495e-05
9.33494e-05
9.65093e-05
9.85732e-05
0.000123759
8.50323e-05
0.000104674
0.000101543
9.73034e-05
9.25666e-05
0.000104052
7.53884e-05
8.17608e-05
0.000104958
9.56042e-05
9.4719e-05
0.000119483
8.13008e-05
8.83026e-05
8.65508e-05
9.56441e-05
0.00010558
9.93192e-05
0.000109866
0.000109516
0.00012099
8.60391e-05
0.00010867
9.53201e-05
8.57816e-05
0.000104415
7.51138e-05
6.78067e-05
8.355e-05
9.34273e-05
0.000101066
0.000113486
0.00010163
9.70613e-05
9.06549e-05
7.565e-05
8.21393e-05
0.000103946
9.61928e-05
9.20681e-05
8.40555e-05
0.000116524
0.000103777
8.55397e-05
9.1766e-05
9.00386e-05
8.7025e-05
9.90906e-05
8.49771e-05
0.000107542
8.36951e-05
8.56497e-05
9.55279e-05
0.000103028
8.94544e-05
8.02199e-05
8.61212e-05
0.000104806
8.96366e-05
7.81805e-05
0.000117775
0.000108924
0.000103348
8.68117e-05
7.13119e-05
9.91049e-05
9.751e-05
7.68803e-05
9.38233e-05
7.00773e-05
0.000124635
9.84712e-05
0.000108492
0.000100248
4.76456e-05
8.74844e-05
7.75918e-05
6.98271e-05
0.000109703
7.44609e-05
6.21552e-05
9.66181e-05
8.40344e-05
6.06255e-05
7.84042e-05
0.00010009
0.000101738
9.3364e-05
6.62078e-05
9.21375e-05
0.000111318
8.52821e-05
9.5175e-05
8.83669e-05
9.87381e-05
8.67702e-05
7.36554e-05
8.47833e-05
0.000108541
0.000102362
6.97767e-05
8.57685e-05
8.45975e-05
0.000113293
8.70361e-05
8.37574e-05
7.61316e-05
8.47952e-05
0.000101827
9.83799e-05
8.05294e-05
8.92427e-05
8.97285e-05
8.63544e-05
8.34711e-05
7.29095e-05
8.91871e-05
9.53202e-05
7.30224e-05
8.43486e-05
0.000109547
4.21048e-05
9.03933e-05
0.00011145
8.09042e-05
0.000118108
0.000100968
8.98849e-05
8.85182e-05
8.54676e-05
9.26525e-05
9.27006e-05
8.64216e-05
7.02067e-05
9.98837e-05
9.00859e-05
0.000114185
0.000104606
0.00010426
9.98935e-05
9.14994e-05
8.75524e-05
9.04978e-05
8.60526e-05
7.39371e-05
9.33798e-05
8.99904e-05
9.05718e-05
9.21506e-05
0.000105133
0.000106629
9.35717e-05
6.33129e-05
9.91535e-05
8.31898e-05
9.52365e-05
9.35376e-05
6.11148e-05
9.74205e-05
6.32855e-05
8.82206e-05
8.73623e-05
6.13914e-05
9.05337e-05
9.01932e-05
8.52863e-05
9.49681e-05
0.000107548
0.000103587
0.00011267
8.46315e-05
9.22384e-05
9.7802e-05
0.000121321
0.000113598
9.97267e-05
8.43406e-05
8.65343e-05
0.000102518
0.000107989
0.000110746
0.000104143
8.1767e-05
0.000106296
9.1812e-05
9.04446e-05
0.000111919
7.61046e-05
9.57196e-05
7.38138e-05
9.35387e-05
8.32743e-05
7.28212e-05
9.79929e-05
8.66238e-05
9.57763e-05
0.000100211
8.13201e-05
7.43678e-05
9.09705e-05
8.05335e-05
7.85249e-05
7.27751e-05
0.000105498
7.45616e-05
8.81807e-05
7.46067e-05
6.72549e-05
8.31684e-05
6.10885e-05
9.03422e-05
9.57728e-05
8.9189e-05
8.19839e-05
0.000120429
9.88818e-05
0.000105304
7.65689e-05
9.49711e-05
7.96e-05
0.000105686
0.000119342
6.91871e-05
8.24127e-05
9.68525e-05
6.31437e-05
6.31701e-05
6.92807e-05
9.93299e-05
9.36623e-05
9.67931e-05
8.49982e-05
9.57775e-05
8.67144e-05
6.88034e-05
9.92654e-05
7.01286e-05
9.46363e-05
8.68358e-05
8.42426e-05
0.000113138
9.20984e-05
8.85587e-05
7.82812e-05
6.40347e-05
0.00011063
9.2693e-05
7.06374e-05
0.000105925
9.23238e-05
7.1114e-05
7.129e-05
6.84574e-05
6.34993e-05
9.06675e-05
8.22847e-05
8.39596e-05
0.000114833
9.8105e-05
0.000108435
5.10677e-05
8.78278e-05
8.04398e-05
0.000107686
8.6316e-05
9.49884e-05
6.79703e-05
9.65647e-05
9.23038e-05
8.41568e-05
0.00012035
9.6416e-05
9.14056e-05
9.15325e-05
0.000102844
7.85413e-05
7.10235e-05
0.000111608
9.67066e-05
9.21165e-05
9.81934e-05
0.000101123
6.98556e-05
8.78939e-05
8.52931e-05
9.84078e-05
6.3694e-05
8.99278e-05
9.62364e-05
0.00010226
0.000104242
9.47727e-05
5.82283e-05
7.66186e-05
0.00010254
0.000103677
0.000114632
6.69137e-05
0.000103647
6.83913e-05
8.12649e-05
7.59222e-05
9.32684e-05
8.78052e-05
6.84139e-05
0.000100029
8.63235e-05
7.02529e-05
8.32992e-05
9.0425e-05
8.63835e-05
0.000110577
8.10511e-05
7.72797e-05
8.18578e-05
9.59187e-05
9.40627e-05
8.7588e-05
8.93086e-05
9.16341e-05
9.55607e-05
8.67655e-05
7.51146e-05
8.67962e-05
0.000104363
9.76817e-05
6.48441e-05
6.86402e-05
7.73145e-05
9.1937e-05
8.79076e-05
7.88575e-05
0.00010332
8.04381e-05
0.000104478
6.20913e-05
0.000100957
7.6374e-05
9.81366e-05
0.000100167
7.81381e-05
8.45772e-05
0.000117575
8.31926e-05
0.000120665
9.19974e-05
6.28727e-05
0.000100941
0.000107645
9.51727e-05
8.10884e-05
0.000216932
6.81847e-05
0.000103796
7.26534e-05
6.94324e-05
9.15095e-05
7.99595e-05
6.45914e-05
8.73703e-05
8.95889e-05
7.04978e-05
7.8974e-05
5.69566e-05
6.2681e-05
6.30218e-05
7.55226e-05
8.89779e-05
9.52238e-05
9.50079e-05
7.42933e-05
9.2859e-05
8.58283e-05
9.19036e-05
0.000118373
0.000110658
9.93204e-05
9.54252e-05
8.33016e-05
7.45869e-05
9.72258e-05
9.00725e-05
0.000113491
0.000108602
8.96139e-05
8.41733e-05
9.34233e-05
7.03255e-05
9.07145e-05
9.13035e-05
9.65968e-05
6.1488e-05
8.75649e-05
8.1885e-05
9.50606e-05
9.9221e-05
8.73283e-05
8.48212e-05
7.67573e-05
8.37161e-05
9.18244e-05
7.75257e-05
9.18837e-05
7.84849e-05
0.000111603
8.00185e-05
8.9458e-05
0.000101841
0.000102893
9.33626e-05
9.04518e-05
8.05413e-05
9.3468e-05
8.45839e-05
8.37473e-05
6.81464e-05
6.89194e-05
9.2656e-05
6.31152e-05
6.712e-05
0.000190401
0.000106833
0.00010663
7.06113e-05
0.00011654
9.31393e-05
0.000104632
8.8847e-05
8.25843e-05
9.87286e-05
8.12912e-05
8.3766e-05
0.000105309
9.10515e-05
0.000116745
9.307e-05
9.5876e-05
8.72312e-05
0.000104661
9.01862e-05
8.68907e-05
0.000102551
9.22472e-05
9.04506e-05
9.17834e-05
9.00319e-05
9.20386e-05
9.14019e-05
8.39936e-05
5.93972e-05
7.44095e-05
0.00010831
8.24017e-05
9.73544e-05
0.000106855
8.70815e-05
9.97133e-05
8.11371e-05
0.000100718
8.42593e-05
9.51845e-05
0.000100411
9.47411e-05
9.26991e-05
9.05619e-05
6.52813e-05
8.06054e-05
9.37628e-05
6.58604e-05
9.55241e-05
9.14671e-05
7.50556e-05
8.14359e-05
0.000104352
0.000102558
0.000125736
8.96419e-05
0.000118098
4.83723e-05
6.60222e-05
9.79656e-05
9.23379e-05
8.79775e-05
9.37994e-05
0.000104352
8.78435e-05
6.42958e-05
0.000101442
0.000118256
0.000102227
0.000115065
9.03786e-05
9.72503e-05
9.3999e-05
0.000103241
9.95258e-05
9.74061e-05
0.000102358
9.84798e-05
9.97469e-05
8.93671e-05
9.76655e-05
8.56415e-05
9.5409e-05
0.000100077
9.10401e-05
6.04335e-05
7.10369e-05
8.63321e-05
9.8327e-05
8.69435e-05
9.49016e-05
9.06556e-05
0.000100793
5.64975e-05
8.33266e-05
9.84578e-05
7.28185e-05
8.57527e-05
0.000117247
7.95167e-05
9.13405e-05
0.000117789
6.48041e-05
7.87798e-05
6.32703e-05
8.19702e-05
0.000108713
0.00010521
8.14257e-05
7.36313e-05
8.97854e-05
0.000120688
0.00010388
9.65934e-05
0.000108534
7.62724e-05
9.61355e-05
0.000123553
6.42779e-05
9.67901e-05
8.74524e-05
0.000119856
7.60608e-05
8.96096e-05
7.06729e-05
0.000100084
0.000102897
9.64082e-05
0.000119377
8.70774e-05
8.82149e-05
9.60218e-05
0.000104282
9.20708e-05
7.24207e-05
9.85477e-05
8.69561e-05
8.77017e-05
8.30658e-05
9.49111e-05
9.17221e-05
8.16005e-05
7.41528e-05
9.75485e-05
7.49249e-05
0.000103313
0.000114913
0.000112827
9.3309e-05
9.4982e-05
9.13103e-05
0.000112595
9.28218e-05
9.38722e-05
9.26517e-05
7.27196e-05
8.80113e-05
9.62107e-05
8.52022e-05
8.45608e-05
9.46637e-05
8.18179e-05
8.55918e-05
8.15354e-05
7.24827e-05
8.70991e-05
0.000123288
7.06949e-05
8.64758e-05
8.141e-05
9.05506e-05
0.000105112
0.000105411
9.91866e-05
8.3599e-05
9.13518e-05
8.54877e-05
8.26066e-05
8.77026e-05
8.43176e-05
8.07365e-05
9.31645e-05
9.95849e-05
8.49975e-05
8.01891e-05
8.16339e-05
8.87309e-05
0.000101525
7.90194e-05
8.35592e-05
8.01578e-05
8.55158e-05
8.85959e-05
7.73646e-05
8.7456e-05
9.43939e-05
7.33513e-05
8.49541e-05
0.000104478
0.000103974
8.54504e-05
9.47534e-05
7.80231e-05
5.59344e-05
0.000112969
8.03801e-05
9.07481e-05
8.20061e-05
9.11258e-05
0.000116666
9.5375e-05
0.000109259
0.000117295
9.25761e-05
8.7539e-05
9.49189e-05
7.73804e-05
8.78495e-05
7.89167e-05
7.22449e-05
7.03979e-05
0.000101413
8.83564e-05
9.12497e-05
0.000104677
0.000102619
7.40626e-05
8.38375e-05
8.00585e-05
7.26158e-05
8.7492e-05
9.93988e-05
8.34664e-05
8.52014e-05
8.84303e-05
9.25385e-05
9.46463e-05
7.47751e-05
8.69656e-05
0.000102051
8.53431e-05
9.19793e-05
9.41249e-05
9.48113e-05
7.07394e-05
8.94014e-05
0.000116052
8.27955e-05
7.24632e-05
8.25862e-05
9.01783e-05
7.66286e-05
9.43071e-05
8.66334e-05
9.72462e-05
8.56303e-05
7.35427e-05
8.70303e-05
9.37745e-05
5.38837e-05
8.25274e-05
8.55885e-05
8.55966e-05
7.6668e-05
0.000107127
8.98164e-05
9.43358e-05
9.20165e-05
8.38368e-05
0.000113149
8.34176e-05
8.38528e-05
7.80867e-05
9.48937e-05
6.73607e-05
0.000114057
8.28055e-05
9.69676e-05
7.26264e-05
9.55498e-05
7.1518e-05
7.9448e-05
0.000104557
9.12584e-05
9.24539e-05
9.57842e-05
7.36621e-05
7.92694e-05
0.000116661
7.87113e-05
7.14243e-05
8.50086e-05
9.70544e-05
9.40808e-05
9.21828e-05
9.55971e-05
9.46194e-05
9.264e-05
8.62814e-05
9.8137e-05
9.28835e-05
0.000110931
8.90772e-05
9.35046e-05
9.53782e-05
8.43891e-05
9.77504e-05
9.44218e-05
9.90115e-05
8.76319e-05
0.000100325
9.17883e-05
9.37664e-05
0.000103898
8.59952e-05
8.76832e-05
9.40502e-05
0.000131603
7.5589e-05
9.90167e-05
0.000109023
0.000118579
9.4979e-05
0.000108041
0.000104606
0.000101325
8.90883e-05
0.000100728
6.22588e-05
0.000118348
0.000108569
0.000100758
8.73805e-05
9.5174e-05
0.000110418
7.50258e-05
0.000102684
5.87935e-05
9.97285e-05
0.000104708
7.15595e-05
8.92732e-05
8.16282e-05
0.000119907
8.5048e-05
8.6149e-05
4.90241e-05
7.25332e-05
0.000101175
6.96951e-05
8.07467e-05
8.20347e-05
7.71522e-05
7.27862e-05
9.17541e-05
0.000105495
9.06199e-05
0.000111968
0.000111204
0.000102354
9.44949e-05
8.9401e-05
7.55084e-05
0.000103435
8.05197e-05
0.00012831
7.51108e-05
8.8126e-05
0.000103886
6.90659e-05
8.25327e-05
7.68458e-05
7.43639e-05
8.50027e-05
7.29268e-05
9.477e-05
0.000114672
0.000116277
6.94471e-05
7.92243e-05
7.65522e-05
9.92499e-05
6.39944e-05
7.1915e-05
8.99994e-05
9.35622e-05
0.000101286
0.000108592
8.85487e-05
0.000124837
9.17886e-05
9.97459e-05
0.000102356
8.90584e-05
9.07025e-05
0.00010323
8.32304e-05
8.87268e-05
8.10792e-05
8.87632e-05
9.37393e-05
0.000114435
6.93788e-05
0.000101961
8.30653e-05
6.90694e-05
8.79298e-05
7.4563e-05
6.7289e-05
9.13715e-05
8.51289e-05
6.98687e-05
8.7797e-05
8.50353e-05
9.48124e-05
6.85957e-05
0.00010033
9.56678e-05
7.21116e-05
0.000104822
9.80393e-05
8.16243e-05
0.000106247
9.7246e-05
7.29612e-05
0.000104589
8.59788e-05
6.98656e-05
8.89975e-05
0.000102345
8.61886e-05
6.98753e-05
0.000105213
9.73618e-05
9.5748e-05
0.000101148
9.51224e-05
9.53009e-05
0.000107408
7.867e-05
0.000113627
9.83462e-05
8.03833e-05
0.00010998
0.000116549
9.89378e-05
0.000101684
8.94542e-05
0.000103188
8.5039e-05
0.000102113
7.55626e-05
9.01833e-05
9.65959e-05
9.69534e-05
9.65788e-05
9.75031e-05
0.000105131
9.86956e-05
6.89785e-05
0.000103849
0.000100444
0.000130335
9.30286e-05
8.63203e-05
0.000104517
5.22473e-05
8.57369e-05
8.41744e-05
9.70973e-05
6.89013e-05
9.73629e-05
0.000112911
8.69812e-05
9.51166e-05
0.000105641
5.92478e-05
8.98371e-05
9.49849e-05
9.65445e-05
9.03232e-05
0.000120879
0.000112771
5.80018e-05
0.000126217
0.000109149
5.6661e-05
8.81238e-05
0.000104371
5.40579e-05
9.55633e-05
8.63812e-05
0.000108331
9.72217e-05
7.93157e-05
8.83937e-05
5.62139e-05
0.000101013
9.68227e-05
5.64836e-05
0.000114604
9.91862e-05
6.12634e-05
0.000102486
9.74709e-05
0.00011918
9.35265e-05
9.48833e-05
9.64403e-05
8.9426e-05
6.74996e-05
0.000102044
9.54435e-05
6.79887e-05
0.000100098
9.88207e-05
6.42842e-05
8.45731e-05
8.86636e-05
8.51115e-05
9.39096e-05
9.2367e-05
9.09647e-05
0.000123526
8.74468e-05
0.000101217
9.56685e-05
5.98021e-05
0.000114616
9.59094e-05
6.02482e-05
8.10363e-05
6.40384e-05
0.000114844
8.73357e-05
0.000114199
9.45155e-05
5.59347e-05
0.000107848
5.97699e-05
0.000103557
9.01305e-05
6.10547e-05
0.000100932
9.57164e-05
0.000100141
6.52483e-05
0.000104928
9.49158e-05
5.86481e-05
8.26236e-05
8.99991e-05
6.45567e-05
6.07137e-05
8.95341e-05
0.000115398
7.27782e-05
9.09966e-05
5.88692e-05
8.58763e-05
0.000119072
0.000107429
6.89924e-05
0.000100738
7.61938e-05
6.15574e-05
0.000108646
9.29486e-05
0.00010503
6.01629e-05
0.000101206
0.000100761
9.84346e-05
0.000108229
9.51804e-05
0.000104766
5.76754e-05
8.91196e-05
0.000115969
6.48567e-05
6.28788e-05
9.34859e-05
8.91741e-05
8.7143e-05
0.000104613
0.000142277
5.41778e-05
8.5135e-05
7.7958e-05
9.47186e-05
6.26937e-05
5.52681e-05
5.63385e-05
9.31682e-05
5.87426e-05
9.23018e-05
6.14586e-05
6.34798e-05
9.15826e-05
9.92261e-05
9.92624e-05
9.65375e-05
6.65256e-05
0.000107245
9.92157e-05
0.000104693
8.92667e-05
9.02197e-05
0.000119764
0.000117818
0.000103495
9.88186e-05
6.8003e-05
0.000113076
0.000104227
0.00010793
0.00010419
5.81674e-05
5.80647e-05
8.41894e-05
9.22132e-05
8.53776e-05
9.43886e-05
7.92009e-05
9.12109e-05
8.49001e-05
6.95264e-05
7.08356e-05
8.31731e-05
6.56879e-05
9.36673e-05
8.78042e-05
9.4418e-05
7.01002e-05
8.97922e-05
9.70122e-05
8.63512e-05
9.72972e-05
9.92532e-05
9.12327e-05
6.42434e-05
0.000103867
9.55361e-05
8.48787e-05
0.000115538
6.10724e-05
9.22468e-05
9.94556e-05
9.63411e-05
8.15765e-05
9.67327e-05
8.89284e-05
8.75224e-05
6.94561e-05
8.8233e-05
0.000107356
0.000101878
7.53641e-05
6.64386e-05
8.96733e-05
6.16125e-05
7.69275e-05
0.000105241
0.000112787
8.16622e-05
0.000117162
9.55087e-05
9.57632e-05
9.87519e-05
0.000120295
0.00011289
7.94185e-05
6.20559e-05
0.000102789
8.05828e-05
6.21125e-05
0.000104758
0.000106454
0.000118476
8.43241e-05
9.72585e-05
0.000107859
8.87579e-05
9.12033e-05
9.40482e-05
6.40614e-05
0.000101929
8.16791e-05
7.366e-05
0.000111672
0.000103414
0.000115186
6.52782e-05
9.42935e-05
0.000126793
9.12368e-05
6.79276e-05
7.76839e-05
7.8812e-05
9.09927e-05
6.54966e-05
7.67801e-05
9.02135e-05
6.18021e-05
9.72519e-05