/*--------------------------------*- C++ -*----------------------------------*\
| =========                 |                                                 |
| \\      /  F ield         | OpenFOAM: The Open Source CFD Toolbox           |
|  \\    /   O peration     | Version:  v2012                                 |
|   \\  /    A nd           | Website:  www.openfoam.com                      |
|    \\/     M anipulation  |                                                 |
\*---------------------------------------------------------------------------*/
FoamFile
{
    version     2.0;
    format      ascii;
    class       volScalarField;
    location    "1";
    object      p_rgh;
}
// * * * * * * * * * * * * * * * * * * * * * * * * * * * * * * * * * * * * * //

dimensions      [1 -1 -2 0 0 0 0];


internalField   nonuniform List<scalar> 
108993
(
0.0683097
0.0638915
0.0663681
0.0225131
0.0306607
0.0385752
0.0708127
0.03008
0.0295
0.0768861
0.0683093
0.0670038
0.0260771
0.0745891
0.0628411
0.131757
0.0803944
0.0687872
0.0244194
0.0470761
0.0380022
0.019189
0.0733378
0.0526478
0.0252273
0.0397632
0.02035
0.0505601
0.0435828
0.0399917
0.0243568
0.0737202
0.0198406
0.0755279
0.0169301
0.0364752
0.0219365
0.0423734
0.231265
0.193651
0.0648008
0.0428088
0.0743666
0.0206991
0.140412
0.216692
0.0206125
0.0713337
0.0417302
0.0437782
0.0232987
0.116466
0.0636066
0.0239768
0.0697084
0.0587886
0.0196957
0.0306584
0.0339835
0.0304845
0.0315496
0.0272219
0.039598
0.0304851
0.0229384
0.0416451
0.0250073
0.0304933
0.0739459
0.104478
0.0521041
0.0290256
0.036093
0.0300206
0.0454482
0.0284283
0.0307373
0.081162
0.0198118
0.0254986
0.0471448
0.0730054
0.0298891
0.0600247
0.0682464
0.0744206
0.0582398
0.0686768
0.0301909
0.0266635
0.0273288
0.0270681
0.0278265
0.0285113
0.0279823
0.0759648
0.0265589
0.0478756
0.0250587
0.0296016
0.02826
0.0251014
0.0589085
0.072477
0.0437298
0.0274279
0.0418509
0.00895007
0.0227429
0.182569
0.125539
0.0267787
0.0956595
0.118924
0.0434747
0.172471
0.0320818
0.0592462
0.113673
0.0263736
0.0730479
0.0231225
0.127238
0.0662224
0.0403419
0.116372
0.0664233
0.0556487
0.0217852
0.0191016
0.0766664
0.0213669
0.0383522
0.185224
0.0405489
0.0587505
0.0235634
0.041304
0.0400886
0.0745804
0.0644342
0.033706
0.122039
0.0222629
0.0200785
0.0382119
0.0455964
0.17261
0.0657262
0.252822
0.262725
0.0387573
0.0790432
0.265946
0.035021
0.0911614
0.0646915
0.00616769
0.0117386
0.115244
0.262897
0.00467755
0.0272847
0.0478486
0.0726592
0.1039
0.0302965
0.0314429
0.0312042
0.0474269
0.026853
0.0572201
0.118231
0.0542448
0.0328063
0.0373111
0.105977
0.0316941
0.048699
0.0332225
0.0808594
0.03222
0.0112517
0.0650786
0.0742283
0.0491214
0.0142363
0.0688449
0.068055
0.0654575
0.0579937
0.0145715
0.0592127
0.0947581
0.0435706
0.0689758
0.0649322
0.0502752
0.0420693
0.0645017
0.0305919
0.0995652
0.0424581
0.00209195
0.081857
0.235598
0.0431706
0.144705
0.04439
1.58709
0.0993652
0.0462124
0.104901
0.0250067
0.281795
0.0438694
0.0642448
0.0430901
0.0101294
0.0238285
0.0259223
0.25777
0.0839686
0.0975478
0.0233881
0.0321198
0.00617674
0.0513446
0.157422
0.0396838
0.202808
0.0519411
0.0319532
0.0621615
0.0328064
0.0254624
0.0210086
0.0243599
0.0951955
0.00610423
0.0288085
0.0449966
0.0302766
0.00408564
0.012298
0.130703
0.0388552
0.150735
0.00637007
0.0252842
0.0307524
0.0222561
0.0357508
0.0456049
0.0092588
0.00435133
0.00924455
0.0682397
0.0238807
0.0388133
0.0471219
0.0454319
0.105398
0.120908
0.016967
0.0431837
0.0473602
0.0401704
0.0388267
0.0410556
0.0299287
0.0616706
0.12559
0.450891
0.164268
0.0472132
0.0266181
0.0834693
0.0662998
0.0455826
0.0447181
0.223447
0.22333
0.0393295
0.026242
0.0926797
0.0260411
0.0411832
0.0726347
0.163396
0.0736622
0.0425808
0.0418996
0.0434002
0.0360042
0.0485906
0.0262451
0.0451909
0.0934524
0.0303955
0.177953
0.272177
0.043629
0.0302294
0.0369838
0.0679826
0.0122456
0.0497774
0.0683365
0.105454
0.0310042
0.0288366
0.0927665
0.0384857
0.0679681
0.232134
0.030659
0.0904205
0.206392
0.0402036
0.0618891
0.0303977
0.0534699
0.0530533
0.0502686
0.253111
0.479777
0.248693
0.0267826
0.0694157
0.0231814
0.203323
0.313091
0.0367471
0.179867
0.0448493
0.0382985
0.0299947
0.0441601
0.0249798
0.0347514
0.161377
0.033967
0.0456641
0.0656013
0.0658951
0.0541977
0.0355181
0.0263848
0.0551499
0.04371
0.0385417
0.222412
0.14215
0.0147286
0.0418993
0.0468793
0.178027
0.0644235
0.0325791
0.0887402
0.0322203
0.0539508
0.0542347
0.0444774
0.0467555
0.05237
0.0270847
0.0666735
0.621418
0.0787474
0.0873159
0.0556815
0.375969
0.0464842
0.310851
0.0744253
0.0446938
0.273732
0.0583464
0.264434
0.277929
0.0429253
0.140507
0.0655362
0.0755283
0.0840178
0.217033
0.0453925
0.157687
0.276254
0.0755259
0.277984
0.075853
0.138766
0.0397696
0.759727
0.0267936
0.12312
0.0298007
0.0428745
0.0720093
0.108046
0.0379959
0.0211919
0.0756201
0.0755466
0.0470111
0.0701979
0.424367
0.0725509
0.0571548
0.361484
0.047332
0.0707325
0.0329663
0.31856
0.102889
0.125168
0.0310069
0.477425
0.0631011
0.457153
0.032166
0.0301742
0.431867
0.0421979
0.16089
0.460854
0.0298249
0.941081
0.213056
0.542993
0.0209847
0.0435171
0.0776901
0.00876737
0.0339881
0.032842
0.0362735
0.0676438
0.0502495
0.0526696
0.0295988
0.105308
0.0818765
0.0744167
0.119068
0.05112
0.029457
0.0755939
0.0293349
0.0518605
0.0773005
0.0331571
0.0604754
0.0688319
0.0292926
0.0595661
0.0310291
0.113567
0.0693455
0.112689
0.213201
0.104225
0.0614744
0.0423977
0.115768
0.0626427
0.0659975
0.0965343
0.0331367
0.0295923
0.0819857
0.0116194
0.114646
0.0364852
0.0943466
0.140111
0.125843
0.0423392
0.0318882
0.0344197
0.0514213
0.0834625
0.0636981
0.0643077
0.0623674
0.120368
0.0718068
0.0691037
0.0549494
0.123768
0.0659426
0.136511
0.0393808
0.0849855
0.0495721
0.0554948
0.0555246
0.0227719
0.0346265
0.0399132
0.0579729
0.136747
0.208043
0.0542566
0.0376007
0.207076
0.0545931
0.113548
0.0763668
0.0322451
0.0835353
0.0538366
0.00415875
0.0404102
0.0528178
0.0515299
0.0636664
0.00701965
0.00314079
0.073008
0.0729428
0.0419636
0.1336
0.0720124
0.0548242
0.133394
0.0726794
0.0387083
0.0375533
0.131862
0.0751095
0.0441128
0.0446233
0.0862685
0.0715258
0.0849683
0.141404
0.0418136
0.149938
0.0301757
0.040327
0.0617187
0.0450925
0.0374648
0.13177
0.0509952
0.0295205
0.167904
0.0377425
0.237353
0.0438153
0.0680066
0.041084
0.0269299
0.0621962
2.89906
0.05134
0.0762795
0.0331815
0.0632199
0.0742807
0.102179
0.158957
0.0648184
0.036822
0.0625154
0.0637624
0.0658924
0.0660351
6.70176
0.102347
0.185021
0.0767691
0.0639871
0.101745
0.479557
0.0848305
0.083853
0.0610643
0.0527643
0.0259374
0.0538468
0.134408
0.219279
0.102004
0.0751129
0.0325518
0.0675433
0.0469283
0.0520654
0.0544851
0.460017
0.0298489
0.0324364
0.0464658
0.0631816
0.106276
0.0582242
0.0691448
-0.657308
0.0974967
0.0739599
0.0487329
0.443634
0.0479538
0.0941459
0.0680348
0.259228
0.0719538
0.124496
0.0681232
0.0696623
0.0560133
0.107628
0.0470322
0.140052
0.0287684
0.127033
0.0287856
0.0584392
0.158283
0.0581455
0.0319323
0.0344307
0.147952
0.221079
0.110145
0.245622
0.0492405
0.154602
0.257016
0.107568
0.0397928
0.0477847
0.243175
0.140635
0.114448
0.0704971
0.113503
0.0495199
0.0902293
0.0384312
0.109665
0.0833093
0.105766
0.132528
0.109376
0.106564
0.140976
0.129523
0.203669
0.101531
0.0525986
0.144971
0.20405
0.104029
0.204039
0.203779
0.0381693
0.0918778
0.0422341
0.0389041
0.0570695
0.07117
0.106706
0.110506
0.133209
0.110584
0.0750707
0.106996
0.203622
0.203805
0.0274268
0.0975444
0.0962018
0.0351914
0.175274
0.0659634
0.0989574
0.10464
0.105855
0.165283
0.10746
0.111366
0.0957102
0.0956844
0.347049
0.0156861
0.0595114
0.119462
0.0737846
0.055076
0.282991
0.0881174
0.163541
0.0887937
0.242569
0.108125
0.0386258
0.0287724
0.0286224
0.114563
0.0319312
0.137737
0.06905
0.0378554
0.0287283
0.0926836
0.146697
0.231751
0.049902
0.236242
0.0580545
0.107866
0.113072
0.0302673
0.11317
0.0520268
0.113876
0.0949121
0.128748
0.0711454
0.119516
0.0897054
0.119487
0.159012
0.0331661
0.115866
0.115146
0.133888
0.121982
0.0783184
0.0304948
0.0909869
0.0314578
0.0611327
0.0672469
0.0694662
0.127256
0.214536
0.174046
0.0921177
0.0845475
0.0975376
0.101604
0.0939747
0.102563
0.0650778
0.031672
0.0307353
0.0898487
0.0314036
0.0857929
0.0306854
0.114982
0.126411
0.0440387
0.102809
0.0315578
0.0900677
0.0781474
0.102923
0.0559166
0.0635644
0.139291
0.0240187
0.0517655
0.0791483
0.096225
0.0376355
0.157786
0.206949
0.0776259
0.0809812
0.616088
0.143805
0.0818216
0.0552115
0.188
0.0819403
0.0810181
0.0809956
0.0393559
0.0833973
0.0309352
0.0405726
0.102814
0.0291914
0.199013
0.0395537
0.0601188
0.198004
0.109483
0.220396
0.0786874
0.351135
0.0401242
0.0834306
0.116218
0.0274426
0.0799731
0.11029
0.0360404
0.0620847
0.0729966
0.0492229
0.049324
0.0757694
0.0624194
0.0305136
0.103367
0.0542963
0.20391
0.0665555
0.0712718
0.565748
0.0668222
0.509763
0.0799425
0.0752079
0.0890711
0.516491
0.0893278
0.0675974
0.101855
0.0858035
0.0632243
0.0762478
0.137213
0.10348
0.07525
0.138909
0.0668961
0.0779264
0.104955
0.205327
0.0784227
0.0562277
0.0846337
0.0803743
0.0851955
0.0682684
0.107488
0.0794399
0.0716172
0.415082
0.077485
0.905195
0.0786277
0.413808
0.0795274
0.07973
0.0759087
0.134899
0.0796883
0.0737701
0.0759347
0.0759161
0.110016
0.078631
0.210968
0.019555
0.0186895
0.07548
0.136235
0.0967868
0.134803
0.0278585
0.052776
0.135724
0.210662
0.0474492
0.12775
0.138698
0.0997138
0.0591576
0.0845032
0.204643
0.210297
0.0955095
0.142512
0.0789048
0.328419
0.0303804
0.332816
0.196285
0.300827
0.0275794
0.0261078
0.125591
0.107356
0.0984118
0.00692538
0.0329328
0.13124
0.209762
0.0282463
0.171218
0.079644
0.0474884
0.306528
0.0232607
0.0547985
0.384027
0.314819
0.0489664
0.0686381
0.0305709
0.0720761
0.113017
0.10873
0.372359
0.0640856
0.356007
0.109912
0.112538
0.0544794
0.0742824
0.107543
0.0756788
0.0452247
0.00699815
0.0986017
0.0497273
0.111091
0.0310847
0.0364364
0.162634
0.0362387
0.130589
0.131817
0.103907
0.104153
0.0331374
0.268336
0.0555808
0.201626
0.0652742
0.0537356
0.00604659
0.0944425
0.106069
0.0367
0.0800602
0.376724
0.103272
0.160534
0.0365028
0.099922
0.165533
0.268843
0.0726606
0.10836
0.177561
0.103159
0.079629
0.102048
0.0762071
0.10204
0.17476
0.105727
0.139222
0.130637
0.0860065
0.121917
0.066723
0.0805095
0.132889
0.226591
0.0796748
0.0256977
0.0327229
0.134575
0.0267673
0.0490152
0.0212966
0.138064
0.0726452
0.0642281
0.0704078
0.0328915
0.0696642
0.0692281
0.0454485
0.157942
0.0689605
0.0758449
0.0769382
0.0280624
0.187955
0.0539427
0.0456048
0.0332525
0.0420916
0.0336271
0.206243
0.11032
0.0560293
0.0716778
0.0329625
0.110929
0.124713
0.0941301
0.038507
0.0713607
0.107793
0.0710885
0.0870885
0.148466
0.0943282
0.0386866
0.0732804
0.0722835
0.0518806
0.0878167
0.0852166
0.0737532
0.0386907
0.0659385
0.0359435
0.13134
0.0643996
0.0853124
0.00355411
0.0639681
0.0901119
0.12121
0.074271
0.0784092
0.0638886
0.051383
0.0771103
0.0887506
0.0560503
0.0219989
0.0332811
0.321413
0.0804494
0.0870243
0.0442389
0.107378
0.121952
0.0257742
0.222708
0.113904
0.118227
0.0797863
0.193814
0.103547
0.136135
0.0859578
0.22217
0.035815
0.0536355
0.0535055
0.111295
0.105361
0.542276
0.124836
0.0745188
0.0915763
0.0667936
0.115678
0.080154
0.1167
0.100719
0.115562
0.0885977
0.199867
0.130215
0.125188
0.0461542
0.0324909
0.0329997
0.0499695
0.0325118
0.0301397
0.0800026
0.153416
0.038806
0.212534
0.089313
0.065791
0.0524878
0.12751
0.186713
0.0324963
0.0889716
0.0609385
0.0874457
0.0329358
0.0978776
0.233172
0.141911
0.0560115
0.13082
0.0298516
0.0558986
0.0600843
0.00416344
0.0198329
0.0671212
3.81054
0.137254
0.0262144
0.0587896
0.0331012
0.0782355
0.0759118
0.0327789
0.0734123
0.0611873
0.0583302
0.0287025
0.0663247
0.0666893
0.0522179
0.0647174
0.0136984
0.0505176
0.0507918
0.0743604
0.0699891
0.10788
0.117983
0.103955
0.181485
0.0705571
0.0321318
0.106986
0.0451818
0.0704914
0.0681147
0.0529151
0.0698177
0.0674443
0.133085
0.0792227
0.0806462
0.0537934
0.0524985
0.0665333
0.0765971
0.57629
0.45812
0.0551148
0.0437179
0.043812
0.074398
0.081637
0.0430885
0.14072
0.0348416
0.0278648
0.0280459
0.0302204
0.0325159
0.0700499
0.0943777
0.0527781
0.14074
0.0692971
0.0680422
0.0756843
0.283173
0.0821737
0.0926313
0.0428191
0.0566996
0.251724
0.0307533
0.112969
0.0757312
0.0757504
0.0756451
0.315188
0.0932497
0.025232
0.123716
0.0341478
0.130926
0.118933
0.0755609
0.0550339
0.0595896
0.0840587
0.0599647
0.0849416
0.0319538
0.202606
0.206332
0.11312
0.0460389
0.0255855
0.112182
0.0302472
0.026334
0.030375
0.0344084
0.0300187
0.304256
0.113881
0.100886
0.0616357
0.136814
0.0465856
0.105352
0.146976
0.0709613
0.0177011
0.120467
0.107148
0.0949802
0.127946
0.0760939
0.141159
0.0556219
0.0532421
0.0865909
0.0332123
0.0703678
6.26232
0.0504048
0.0692485
0.0452275
0.246336
0.0549912
0.0413114
0.0791492
0.0740076
0.153858
0.15614
0.0407305
0.0870305
0.0741476
0.078349
0.0497104
0.0765926
0.0344354
0.0918596
0.0265777
0.193191
0.0991231
0.0496627
0.140576
0.0500863
0.0128916
0.0329612
0.0843037
0.412837
0.0748154
0.130388
0.11975
0.515795
0.10491
0.0680873
0.0423777
0.132692
0.0549846
0.0932296
0.09718
0.0928962
0.147261
0.0947984
0.0145148
0.0977754
0.095988
0.0752515
0.0752313
0.0375806
0.12185
0.0564197
0.0325488
0.0450367
0.075159
0.021746
0.0559329
0.0534757
0.148984
0.032287
0.0557252
0.0124907
0.0760429
0.0133293
0.00322849
0.0493756
0.0953404
0.180854
0.00202189
0.114548
0.0967003
0.0626757
0.0661645
0.0405866
0.133647
0.0676064
0.0561499
0.0858093
0.00683519
0.0725714
0.0745321
0.00465896
0.074956
0.32745
0.0731764
0.138016
0.0795937
0.116149
0.140277
0.0836908
0.0424804
0.0364456
0.0553171
0.0842484
0.036622
0.0241869
0.0943252
0.0366149
0.0918079
0.0768337
0.228296
0.081302
0.156055
0.140036
0.036662
0.100796
0.0235186
0.037917
0.0381289
0.0797049
0.0743282
0.149734
0.120093
0.129881
0.0908096
0.203449
0.173869
0.0455254
0.0680925
0.0303668
0.0846353
0.0862476
0.0739076
0.27913
0.0230148
0.028557
0.0783095
0.091051
0.0372106
0.0841009
0.0862783
0.215409
0.206831
0.0906714
0.0293917
0.17338
0.0329508
0.057218
0.139059
0.0811875
0.0857773
0.0591594
0.0574583
0.0844852
0.0896623
0.209986
0.119444
0.0827675
0.198603
0.0975014
0.056726
0.136526
0.261554
0.0531566
0.075123
0.0823753
0.0971149
0.119037
0.0329119
0.0801597
0.122915
0.161043
0.132051
0.0806126
0.0812143
0.164788
0.0723418
0.0363717
0.14671
0.0725733
0.0244921
0.073227
0.0790254
0.195156
0.0392524
0.0536928
0.183674
0.0736736
0.189997
0.0727024
0.159602
0.0731225
0.0897392
0.145746
0.0950424
0.0894948
0.224507
0.0841589
0.0744761
0.143016
0.0391918
0.0302584
0.0564331
0.181001
0.125076
0.0474883
0.128807
0.0425844
0.11587
0.179747
0.289571
0.100542
0.204527
0.0476764
0.281139
0.0540847
0.0509566
0.0584178
0.0292998
0.0244383
0.0205551
0.0343165
0.028937
0.0786814
0.240193
0.154162
0.0914061
0.0292541
0.0414677
0.0370911
0.0289712
0.029471
0.0429169
0.162693
0.109777
0.0380799
0.0463645
0.0454652
0.127303
0.0655821
0.0528516
0.0978168
0.0525354
0.050946
0.0499021
0.073481
0.211862
0.0845713
0.122778
0.275324
0.0519838
0.0863272
0.236556
0.0483446
0.0451777
0.0385988
0.141276
0.167361
0.0928423
0.227932
0.0409383
0.0310842
0.359582
0.043764
0.0738536
0.0692091
0.0448056
0.0738909
0.0414365
0.0701787
0.0434831
0.0713886
0.251111
0.164867
0.072566
0.167393
0.146637
0.0315598
0.123984
0.0520561
0.0482231
0.0414419
0.0499593
0.0249256
0.0470039
0.0734674
0.0336983
0.106813
0.177641
0.242768
0.16534
0.0300323
0.047208
0.220167
0.238048
0.0353128
0.125587
0.0428192
0.0458363
0.089085
0.129604
0.22614
0.126547
0.0453143
0.214198
0.216507
0.23771
0.0405231
0.120185
0.0890646
0.0880087
0.170126
0.075797
0.227869
0.0869176
0.0127091
0.0869213
0.103016
0.0879547
0.0765048
0.0956647
0.076518
0.0738315
0.13698
0.211685
0.224294
0.0318131
0.0277778
0.242728
0.030462
0.0593399
0.203961
0.0189806
0.283395
0.0759456
0.0581968
0.0648318
0.0630855
0.0600709
0.0752191
0.166207
0.169944
0.0410392
0.214362
0.0453727
0.212333
0.0760191
0.0787676
0.066793
0.0722981
0.0673685
0.0609909
0.0339091
0.0650314
0.0931998
0.0637676
0.0592622
0.10873
0.327963
0.0752716
0.121427
0.22875
0.143051
0.0315935
0.103111
0.0583561
0.0610792
0.0487128
0.0545556
0.0374954
0.0696687
0.0945647
0.226733
0.114485
0.152839
0.201338
0.117186
0.0607512
0.0991291
0.230314
0.0875691
0.211685
0.0172124
0.118324
0.0180987
0.262278
0.0769414
0.0955822
0.0663454
0.0300164
0.0357965
0.0334005
0.315731
0.0267761
0.099226
0.0214965
0.222869
0.245668
0.042588
0.00329774
0.196698
0.276943
0.125365
0.228907
0.0399199
0.210838
0.239537
0.0392806
0.0761701
0.141718
0.121898
0.0975001
0.0543966
0.0976316
0.245639
0.138147
0.0983637
0.190689
0.104838
0.0986288
0.0666862
0.248175
0.455622
0.13251
0.196727
0.0765369
0.10239
0.103917
0.0798119
0.21172
0.139875
0.0994083
0.0494202
0.0656087
0.104538
0.0621801
0.0342998
0.0742434
0.0881913
0.0290756
0.0674763
0.0711268
0.0487963
0.221497
0.192215
0.0924856
0.286677
0.0974269
0.0307036
0.121403
0.287384
0.167101
0.160534
0.152497
0.172866
0.262084
0.26865
0.212759
0.0880533
0.198642
0.0510127
0.0719605
0.0784497
4.13879
0.094241
0.13051
0.180436
0.158908
0.301338
0.205832
0.0901945
0.094321
0.0624641
0.0304228
0.0379573
0.0896986
0.051931
0.093903
0.113094
0.29918
0.233689
0.245973
0.113028
0.250115
0.0809374
0.171089
0.0948153
0.161906
0.29221
0.376827
0.0562683
0.0721819
0.0487968
0.0281089
0.0296468
0.0121496
0.121466
0.105479
0.081859
0.17786
0.0928034
0.132045
0.210777
0.205041
0.231245
0.150781
0.0362507
0.405101
0.129884
0.0422956
0.0675973
0.217422
0.145272
0.0296185
0.0746615
0.0730756
0.078786
0.030121
0.310563
0.336885
0.334407
0.216995
0.028865
0.311788
0.126252
0.0301085
0.133474
0.0524377
0.0823458
0.199584
0.0906228
0.0820115
0.910003
0.0786327
0.0767487
0.0818539
0.0709682
0.00892039
0.0431677
0.129963
0.0712209
0.0625214
0.231939
0.236148
0.135005
0.0813522
0.0731602
0.0453686
0.0733416
0.0737238
0.0653523
0.160105
0.175031
0.0665609
0.0301217
0.21665
0.0735659
0.0230758
0.0727317
0.0743418
0.112785
0.163276
0.217951
0.185765
0.191066
0.024707
0.153638
0.0752552
0.0307576
0.150162
0.0373601
0.135663
0.0368559
0.0434656
0.16931
0.0156684
0.0638376
0.158352
0.140145
0.160359
0.161888
0.0493863
0.14158
0.131648
0.107899
0.0758027
0.128999
0.148195
0.158679
0.122701
0.178199
0.0667666
0.0741808
0.124113
0.29835
0.136439
0.263113
0.172362
0.160033
0.0375847
0.0333837
0.505086
0.157431
0.147725
0.177799
0.0865499
0.378506
0.198345
0.0262368
0.115502
0.0313349
0.160482
0.0575428
0.147152
0.177942
0.0503213
0.166014
0.0559218
0.152566
0.158243
0.0396688
0.0582489
0.145449
0.055989
0.0528743
0.0287005
0.0391434
0.141183
0.0308474
0.159961
0.224247
0.0288717
0.0305908
0.194025
0.0749255
0.0736084
0.111939
0.0737494
0.0735724
0.0340353
0.0601643
0.0919313
0.092199
0.192037
0.0596644
0.0303933
0.149764
0.0422621
0.113244
0.253495
0.0289694
0.032566
0.0949859
0.0593379
0.163691
0.0298297
0.043833
0.0302556
0.00446098
0.024835
0.235541
0.324659
0.0979559
0.046247
0.40798
0.0725619
0.123878
0.0299561
0.155863
0.0350357
0.217616
0.113685
0.0747022
0.0434139
0.055665
0.136201
0.144275
0.0299601
0.0727661
0.0963975
0.0313572
0.112102
0.110225
0.0438651
0.0829721
0.0482626
0.168064
0.0479419
0.0297136
0.0359711
0.0602861
0.0418357
0.153411
0.11569
0.0300441
0.0300923
0.150438
0.0321137
0.0991713
0.0802391
0.0323606
0.222301
0.189021
0.0872135
0.0606019
0.065614
0.101296
0.175678
0.0600346
0.184897
0.0573961
0.198091
0.141208
0.0450587
0.230538
0.154849
0.213029
0.217299
0.156291
0.0753836
0.0535126
0.0353619
0.116882
0.105342
0.1218
0.188902
0.0561496
0.114014
0.0545055
0.149561
0.160608
0.154356
0.0541459
0.144834
0.0913446
0.0320988
0.205126
0.0658355
0.0373668
0.0386633
0.167725
0.123803
0.125513
0.042245
0.0337863
0.0563352
0.194163
0.0725384
0.202848
0.0319333
0.0319597
0.205087
0.255922
0.037188
0.0618177
0.215717
0.0653772
0.0668249
0.0718407
0.186377
0.143794
0.205978
0.0365582
0.219906
0.21799
0.104469
0.22999
0.0793958
0.346361
0.0272856
0.097691
0.213112
0.205839
0.272116
0.339907
0.311243
0.327722
0.0352391
0.575426
0.152529
0.232025
0.0357811
0.354641
0.357043
0.0314065
0.140881
0.290853
0.0374723
0.225904
0.0353778
0.196826
0.137537
0.231967
0.122668
0.162909
0.046558
0.0360783
0.0570093
0.0632556
0.306418
0.0394742
0.164301
0.0993493
0.0285014
0.0284697
0.0283514
0.0632346
0.0596255
0.0446202
0.101789
0.0456654
0.178905
0.0623031
0.15533
0.0285281
0.110369
0.0725285
0.100842
0.0925861
0.0282506
0.0283105
0.0579205
0.0844455
0.0873984
0.236366
0.237137
0.166267
0.108437
0.0830135
0.0861015
0.0388508
0.0751235
0.111627
0.0851204
0.0737213
0.131794
0.138915
0.239045
0.0856448
0.0801771
0.0595358
0.0993187
0.126517
0.0126346
0.0754783
0.080006
0.142351
0.238752
0.0727499
0.257661
0.0414994
0.0871951
0.201292
0.264931
0.0391222
0.0868601
0.0803518
0.0665819
0.082951
0.0761871
0.0618085
0.15315
0.0540293
0.0575934
0.0698078
0.084871
0.292664
0.0529024
0.105572
0.0521203
0.153436
0.0528013
0.0299368
0.154558
0.122918
0.12253
0.0710505
0.0369585
0.040402
0.204103
0.470998
0.0351302
0.11282
0.486521
0.0764914
0.090806
0.114335
0.102791
0.463717
0.0402761
0.0753774
0.0779376
0.0691261
0.493153
0.0815697
0.00167068
0.0773082
0.0814066
0.0583638
0.00352419
0.0528999
0.0540823
0.00269754
0.0992635
0.0616937
0.00394754
0.131402
0.00213063
0.105416
0.169344
0.0542057
0.000722513
0.160751
0.166341
0.0641108
0.0758202
0.0119279
0.0558529
0.0832006
0.0674186
0.061227
0.172045
0.072686
0.0632897
0.0655784
0.0665633
0.0845483
0.0687947
0.132802
0.145457
0.195858
0.163201
0.190782
0.132375
0.131632
0.0757705
0.0583732
0.189972
0.0758418
0.0745252
0.25191
0.0758183
0.182183
0.07328
0.07583
0.0925475
0.0889784
0.0951608
0.0836806
0.0972374
0.0669733
0.0836144
0.143505
0.0705269
0.150833
0.0666226
0.0961502
0.0828122
0.127472
0.141124
0.0817201
0.0942377
0.126034
0.112135
0.0826941
0.0822338
0.0396717
0.181366
0.0920775
0.110852
0.0802007
0.0747834
0.0818003
0.0747329
0.102925
0.124518
0.0411366
0.0396508
0.0678034
0.112981
0.0978581
0.0445073
0.0962158
0.0810559
0.0531439
0.0753906
0.0461455
0.0947907
0.0801814
0.0828482
0.0721831
0.044472
0.0735443
0.0463952
0.0489746
0.05037
0.096088
0.0695289
0.045925
0.231028
0.0693139
0.122888
0.253119
0.0396595
0.0698429
0.106305
0.0476757
0.042458
0.0529135
0.0224705
0.0469008
0.141007
0.1367
0.106945
0.0613277
0.0908836
0.0223493
0.11887
0.132139
0.0237165
0.047075
0.117702
0.0233219
0.0473966
0.143921
0.0427902
0.102637
0.108147
0.0532548
0.0226954
0.119058
0.211953
0.203848
0.0717991
0.0403622
0.0229294
0.0523363
0.0800838
0.072484
0.039632
0.0357554
0.0783895
0.148268
0.0531253
0.0363393
0.0370943
0.208809
0.104092
0.117629
0.208566
0.106133
0.074281
0.0911397
0.0887595
0.00220182
0.0739773
0.443042
0.0803898
0.0603543
0.0864756
0.209098
0.0632168
0.0605904
0.209745
0.0897701
0.209561
0.0635094
0.0933283
0.063702
0.0698949
0.185341
0.0636559
0.186529
0.0823455
0.0705849
0.189154
0.0755091
0.073243
0.0891902
0.189389
0.0788067
0.129358
0.187797
0.0768693
0.147068
0.18817
0.114685
0.117767
0.0391668
0.118584
0.263066
0.116367
0.203445
0.0244448
0.0678318
0.114484
0.0703381
0.114898
0.102977
0.0728098
0.0578657
0.0374419
0.103182
0.0600676
0.0723346
0.081196
0.0353505
0.0953896
0.00465773
0.10136
0.203355
0.0372225
0.104979
0.102816
0.205929
0.0687556
0.0813107
0.222306
0.0273618
0.102367
0.127473
0.0957194
0.0651233
0.101535
0.033842
0.0339543
0.0856869
0.0333924
0.125472
0.0941728
0.0941844
0.193941
0.101332
0.0731142
0.0788629
0.0948228
0.0751815
0.0514347
0.0658189
0.108013
0.0829381
0.104011
0.0739078
0.137154
0.192478
0.0948217
0.075422
0.265301
0.0998512
0.0507013
0.0945411
0.177886
0.134648
0.103779
0.13499
0.0905626
0.140645
0.0872307
0.250966
0.103016
0.115063
0.137468
0.102873
0.0979949
0.0721275
0.0798362
0.10329
0.093278
0.0826829
0.157269
0.208224
0.0972803
0.0526636
0.226514
0.0697978
0.0556943
0.121971
0.045599
0.226571
0.0488631
0.256827
0.28377
0.207713
0.0379172
0.0648652
0.036725
0.228008
0.0861351
0.243931
0.0792349
0.229269
0.228042
0.102542
0.0551432
0.286653
0.0922221
0.103116
0.222593
0.114693
0.0772397
0.123213
0.0746902
0.106723
0.0178587
0.0733413
0.054173
0.0557479
0.0765085
0.0521185
0.0715482
0.281683
0.0717962
0.0907907
0.0709245
0.11244
0.113507
0.0746399
0.0931077
0.0529998
0.0787333
0.100728
0.0703758
0.0751409
0.0727142
0.0879324
0.0533713
0.101236
0.0865105
0.269336
0.0523586
0.107552
0.097289
0.203186
0.0400392
0.0761749
0.0907082
0.0400298
0.074088
0.2677
0.0552163
0.0957028
0.0400204
0.0711628
0.0734121
0.0905573
0.0400299
0.0716989
0.081784
0.0477588
0.135037
0.22048
0.0400073
0.119789
0.0399956
0.105732
0.111014
0.0498764
0.0203233
0.179694
0.0724979
0.0701091
0.0331087
0.0771108
0.0700403
0.0324188
0.0304854
0.214219
0.193618
0.0326217
0.10431
0.0490385
0.0227158
0.0700427
0.0844486
0.0481768
0.0693272
0.118749
0.063156
0.0476673
0.086788
0.0698022
0.115929
0.147191
0.0503603
0.02124
0.0702403
0.20319
0.0471083
0.0541611
0.0517314
0.0515664
0.051491
0.0487748
0.0493976
0.125952
0.0698399
0.0579634
0.0723947
0.209165
0.206516
0.0442812
0.0939257
0.107744
0.0165984
0.0945937
0.38328
0.0104027
0.119497
0.179693
0.0729258
0.0517569
0.0182796
0.10524
0.0947536
0.0750024
0.0749312
0.0538354
0.0704028
0.0753952
0.0865051
0.119019
0.0863399
0.11936
0.0453307
0.0857369
0.203991
0.075176
0.0742773
0.0398997
0.183538
0.235097
0.0437429
0.0665081
0.0152193
0.0716834
0.0921562
0.191682
0.0721219
0.0827826
0.0953048
0.108711
0.0288428
0.0726303
0.215666
0.0428979
0.0434558
0.0387857
0.0424108
0.0997684
0.0945488
0.0613551
0.0908588
0.0774418
0.0680487
0.0631707
0.0388599
0.177963
0.030059
0.0390969
0.0825109
0.0390077
0.0391259
0.0414223
0.182707
0.112509
0.217813
0.0706244
0.0544843
0.0117658
0.0472768
0.111596
0.0945411
0.357333
0.0485962
0.0389144
0.0689378
0.196544
0.205955
0.112389
0.0390885
0.368622
0.388903
0.106992
0.374161
0.259459
0.0707714
0.162366
0.145992
0.0315851
0.06825
0.0319738
0.0726539
0.0463985
0.0741511
0.305222
0.185256
0.252165
0.129959
0.25817
0.0785109
0.101777
0.101373
0.225751
0.116888
0.219176
0.117879
0.205944
0.191854
0.0295387
0.109942
0.239397
0.0799873
0.0617467
0.212022
0.0768485
0.0282653
0.244161
0.203814
0.0338472
0.0727494
0.0168961
0.0338561
0.076585
0.0280982
0.044973
0.103546
0.216184
0.0461881
0.0879257
0.0854359
0.240359
0.107584
0.0702029
0.0292944
0.0403701
0.289937
0.0512579
0.0564593
0.106213
0.0290825
0.0636587
0.0369471
0.0525069
0.16475
0.112163
0.050057
0.0302363
0.0491207
0.0711449
0.066122
0.1109
0.0362571
0.0823536
0.0697455
0.0485979
0.0817808
0.0356806
0.0536558
0.0366561
0.0764708
0.0717538
0.0544808
0.0774082
0.0477928
0.053067
0.146866
0.0559651
0.323738
0.0775953
0.0294447
0.0440974
0.0578072
0.0585726
0.0783714
0.103628
0.33084
0.144592
0.354392
0.0720805
0.108006
0.110306
0.348475
0.334991
0.114753
0.0553122
0.0587698
0.0790079
0.0366441
0.0601546
0.0230632
0.0508366
0.0821203
0.351763
0.0328519
0.201736
0.0308219
0.0685611
0.078042
0.0336742
0.0743772
0.0417001
0.0743762
0.214286
0.0897172
0.039728
0.0348465
0.0696502
0.101289
0.0613365
0.0909061
0.211299
0.0789279
0.207523
0.0343719
0.0374438
0.082351
0.208092
0.21619
0.214601
0.200206
0.193479
0.0978271
0.206909
0.116093
0.207414
0.0717668
0.0458651
0.0435163
0.0436921
0.103192
0.172702
0.109238
0.0902351
0.173187
0.17149
0.0795843
0.170616
0.170858
0.047399
0.0317637
0.0357406
0.214961
0.219102
0.159066
0.0375842
0.216664
0.172995
0.0972031
0.214303
0.215169
0.174491
0.204598
0.0418417
0.149804
0.204505
0.103716
0.0446689
0.0642374
0.0930706
0.0401515
0.0341093
0.204535
0.0317868
0.0288148
0.248339
0.0452229
0.204427
0.221464
0.0403365
0.0856377
0.195409
0.196649
0.106382
0.200958
0.15443
0.207344
0.0769743
0.034547
0.204695
0.114177
0.188679
0.188155
0.0939631
0.0923251
0.135093
0.0995408
0.22125
0.0332653
0.0710314
0.14099
0.0463534
0.221966
0.0469052
0.0522477
0.0369478
0.144663
0.0605211
0.103097
0.0162259
0.0537433
0.0878799
0.138311
0.142687
0.111662
0.0344517
0.151969
0.221917
0.196168
0.0211797
0.145218
0.243681
0.244846
0.220973
0.0746229
0.136034
0.0617948
0.0585371
0.0493312
0.0367558
0.0378654
0.0314934
0.0371063
0.221226
0.0285971
0.0765887
0.0376122
0.0370661
0.0408812
0.0375743
0.0532257
0.110291
0.096506
0.0320698
0.0309669
0.160815
0.0483895
0.221855
0.105953
0.0292818
0.148679
0.0756601
0.0307557
0.0605567
0.22152
0.0864643
0.0337422
0.100085
0.0709249
0.0630857
0.0351378
0.0776959
0.0495352
0.0260322
0.0413792
0.0282172
0.0379351
0.0628173
0.0772763
0.0645573
0.028811
0.0709631
0.0395677
0.109535
0.0403306
0.0910594
0.0677527
0.156349
0.064611
0.0643624
0.0634277
0.00551077
0.0989135
0.0720058
0.0367545
0.047915
0.0239852
0.0476953
0.193959
0.0361179
0.031483
0.053211
0.0639756
0.0709053
0.0966231
0.0484932
0.0486598
0.0415294
0.0919076
0.0533414
0.0769799
0.0449496
0.0787884
0.0430676
0.0291888
0.0693377
0.0935825
0.0639822
0.0720013
0.0282305
0.07203
0.0578887
0.0719342
0.187615
0.110598
0.0751013
0.0737567
0.0645928
0.0912379
0.055412
0.0920982
0.0939792
0.103457
0.0974883
0.0634411
0.0613624
0.0340481
0.0444051
0.166877
0.0759269
0.0282943
0.168177
0.0734195
0.00488505
0.0407583
0.0291884
0.0515473
0.0645657
0.437078
0.0744013
0.0304517
0.0561895
0.170459
0.170643
0.172541
0.087295
0.185229
0.191893
0.0821246
0.0595663
0.0570088
0.172351
0.0527312
0.0356444
0.0546034
0.0604912
0.392448
0.0413706
0.0518497
0.0473307
0.089531
0.0827362
0.097053
0.144897
0.0196283
0.191062
0.159178
0.0182144
0.105036
0.00431532
0.0515897
0.0196578
0.0474381
0.0682897
0.0737751
0.0182156
0.203006
0.108147
0.147463
0.272345
0.195464
0.0825333
0.0175046
0.0338612
0.0135833
0.0760651
0.0175472
0.0124331
0.0125484
0.0377522
0.254987
0.0875444
0.11088
0.10317
0.0418246
0.180876
0.136525
0.100883
0.0778618
0.0127475
0.107107
0.0220084
0.0125562
0.0387682
0.147306
0.184057
0.190029
0.0657222
0.18023
0.0479226
0.0967044
0.0377936
0.140085
0.0398436
0.175903
0.149509
0.047208
0.0461554
0.185942
0.0930481
0.0451768
0.264125
0.0129751
0.0451667
0.201092
0.0330417
0.0743751
0.0130865
0.144223
0.00329219
0.0636599
0.00145872
0.0340686
0.0827272
0.00390739
0.218586
0.0452864
0.103493
0.000719588
0.0681756
0.142241
0.0566989
0.00291996
0.0402949
0.221679