/*--------------------------------*- C++ -*----------------------------------*\
| =========                 |                                                 |
| \\      /  F ield         | OpenFOAM: The Open Source CFD Toolbox           |
|  \\    /   O peration     | Version:  v2012                                 |
|   \\  /    A nd           | Website:  www.openfoam.com                      |
|    \\/     M anipulation  |                                                 |
\*---------------------------------------------------------------------------*/
FoamFile
{
    version     2.0;
    format      ascii;
    class       surfaceScalarField;
    location    "1";
    object      phi;
}
// * * * * * * * * * * * * * * * * * * * * * * * * * * * * * * * * * * * * * //

dimensions      [1 0 -1 0 0 0 0];
oriented        oriented;


internalField   nonuniform List<scalar> 
210647
(
7.982e-05
-8.73975e-05
-7.48863e-05
8.2465e-05
5.308e-05
-2.85499e-05
7.64843e-05
-0.000101014
6.11492e-05
-8.6223e-05
1.97185e-05
5.35581e-06
-0.000170472
7.72169e-05
7.18882e-05
2.13674e-05
-2.85383e-05
8.29521e-05
-2.50307e-05
-2.93817e-05
2.91842e-08
3.14962e-06
-9.86736e-08
-3.08e-06
-0.000101947
1.67569e-06
4.38956e-05
5.6376e-05
-3.92925e-09
-6.47748e-06
6.48218e-06
5.04104e-05
9.22241e-05
7.15709e-05
-0.000214204
-1.02805e-05
5.7766e-05
-2.94453e-05
-1.80391e-05
4.14117e-05
1.04255e-05
4.60968e-05
-9.7932e-05
2.55381e-05
7.44115e-05
-4.23706e-05
-5.75771e-05
-6.31113e-05
6.99905e-05
-4.96699e-05
4.27913e-05
-1.3143e-05
2.97999e-06
-4.04312e-06
1.42072e-05
-5.01495e-05
1.72814e-05
-2.39083e-05
5.67778e-05
-0.000189926
0.000224195
-1.78475e-05
-1.64226e-05
-3.64506e-05
4.21775e-05
9.8461e-06
-1.55725e-05
2.01381e-05
-2.78779e-05
3.05076e-05
-2.27664e-05
0.000158848
1.40677e-05
-8.85944e-05
-8.43211e-05
-4.93608e-05
-7.43857e-05
-1.07586e-05
0.000134505
-1.43785e-06
3.46537e-05
-3.32152e-05
6.73845e-05
0.000133846
-9.05447e-05
-0.000110685
-3.53519e-05
3.24776e-06
5.51711e-05
-2.30669e-05
7.14657e-05
-7.17606e-05
-6.75651e-05
6.78619e-05
-7.373e-05
9.65984e-05
-4.39398e-05
2.10723e-05
1.16493e-06
-2.52818e-05
2.97404e-05
-5.62302e-06
9.03197e-05
0.000128395
-6.12272e-05
-0.000157487
0.000154648
-2.23213e-06
-2.3818e-05
-0.000128597
-0.000146607
5.85036e-05
-2.30564e-05
0.00011116
3.33446e-05
-2.74744e-07
-3.24137e-05
-6.55554e-07
-0.000164662
0.000126059
-6.37897e-05
0.000102394
-2.32356e-05
-7.71673e-06
1.31317e-05
1.78225e-05
-4.75215e-05
0.000137842
-7.49908e-06
-0.000102745
0.000123818
-1.35727e-05
-0.000170629
-6.50079e-05
0.000273374
-3.77368e-05
-1.65847e-05
8.68941e-06
7.59193e-05
-6.80224e-05
0.000114324
-2.69228e-05
-1.16288e-05
-7.57716e-05
-1.1956e-05
9.69386e-05
-8.4981e-05
-0.000258236
-9.54304e-05
0.00020917
0.000144491
4.55837e-05
-7.16734e-05
-0.000128311
0.000154394
2.99762e-05
0.000102213
-0.000139851
7.66225e-06
-3.68473e-05
-4.11513e-05
-4.0439e-05
0.00011844
-5.82889e-07
-7.08173e-06
7.66594e-06
-1.05733e-06
-0.000176314
0.000177372
4.26064e-05
-0.0001083
3.52722e-05
3.04185e-05
1.2604e-05
6.46796e-06
-7.0857e-05
5.17812e-05
6.68028e-05
9.21492e-06
-7.22156e-05
6.30007e-05
7.64375e-05
-7.92091e-05
-5.35315e-05
5.63039e-05
-7.50292e-05
2.14781e-06
-0.000160166
0.000233047
-9.31399e-05
0.000152632
-8.54328e-05
2.59411e-05
0.000265428
-0.000125413
-0.000173016
3.30014e-05
-4.67765e-05
-4.87507e-05
-1.59742e-06
9.71247e-05
-5.56908e-05
8.1251e-05
-3.13185e-05
5.75926e-06
7.92409e-06
2.21553e-05
1.17773e-05
-4.18549e-05
5.88429e-05
2.29106e-05
6.05637e-06
-8.78078e-05
-1.78255e-05
0.000146036
-6.49816e-05
-6.32285e-05
-3.25722e-05
1.86168e-05
-2.04714e-05
3.44279e-05
5.73384e-05
1.17315e-05
-7.67986e-05
7.72934e-06
5.31235e-05
-8.47189e-05
-1.87847e-06
3.34757e-05
6.36091e-05
-8.79613e-05
-1.17422e-05
3.60956e-05
7.38825e-07
7.89576e-06
-0.000119282
0.000110648
-7.9517e-06
4.47986e-05
-8.39437e-05
4.70982e-05
-2.18975e-05
-2.68368e-06
-5.42687e-06
3.00084e-05
6.58112e-06
0.000130517
-3.32236e-05
-0.000103874
-7.92925e-05
9.91836e-05
9.89509e-06
-2.97854e-05
-7.07804e-05
1.41669e-05
5.6614e-05
-0.000114319
7.44567e-05
2.30111e-05
1.6853e-05
4.85532e-05
-4.86834e-05
-2.10643e-05
2.11967e-05
-2.64362e-05
2.0096e-05
4.70481e-05
-4.0709e-05
-3.86749e-06
-7.80599e-05
6.43655e-06
7.54925e-05
-6.75328e-05
1.84897e-05
8.08599e-05
-3.18159e-05
6.80871e-05
-2.70445e-05
2.19601e-05
-6.30014e-05
1.50941e-05
-5.46243e-05
-2.80014e-05
-3.18347e-05
8.87358e-05
5.11527e-05
-0.000108053
0.000120428
-8.352e-05
-4.70805e-05
1.01741e-05
-2.21921e-05
2.94964e-07
-0.000101262
0.000118668
-2.70501e-05
9.64476e-06
8.12519e-05
-0.000181399
0.000106302
-6.15405e-06
-5.17808e-06
-0.000132593
1.54321e-06
0.000136228
-1.63013e-05
-6.40581e-05
9.61196e-06
7.07485e-05
3.73747e-05
-3.82117e-05
-3.47448e-06
4.31253e-06
4.10248e-05
0.000102928
-8.37226e-05
-6.02296e-05
4.46371e-07
-5.34041e-05
5.29588e-05
-3.0205e-05
2.29565e-05
-1.90129e-05
2.62636e-05
2.10613e-06
5.35358e-06
-1.63346e-05
8.87616e-06
-6.37715e-05
-3.69011e-05
0.000117974
-1.72994e-05
-3.56265e-06
-4.96125e-05
3.83755e-06
4.93387e-05
-7.54504e-06
-2.02011e-06
4.38156e-05
-3.42495e-05
8.50555e-05
7.55041e-05
-7.2345e-05
-8.82132e-05
-7.16284e-05
2.67342e-05
5.29673e-05
-8.07226e-06
3.25559e-05
4.90329e-05
2.06627e-05
-0.000102251
3.11689e-05
-9.73214e-06
-9.30637e-05
-2.22077e-05
3.03897e-05
-8.18145e-06
8.30912e-05
-8.33358e-05
-4.22359e-05
4.24815e-05
-6.29011e-06
-8.49995e-06
4.35345e-05
-2.87429e-05
4.85716e-05
3.2163e-05
-4.81782e-05
3.66147e-05
3.05268e-07
1.24682e-05
-4.93875e-05
-5.03777e-05
4.88018e-05
-3.94146e-06
5.51789e-06
1.04618e-05
3.98712e-05
-5.32698e-05
2.9375e-06
4.23736e-05
-8.36555e-05
-1.24407e-05
5.37239e-05
1.06028e-05
-9.3288e-05
0.000213151
-0.000130464
8.40406e-05
-5.15832e-05
-4.104e-05
8.58509e-06
-2.1658e-05
4.53168e-05
2.2451e-05
-4.61078e-05
3.62515e-05
-5.73998e-05
2.43513e-05
-3.20206e-06
0.000114261
6.71987e-05
1.79116e-05
1.59978e-05
-0.000101106
-4.22142e-05
-0.000391273
0.000191331
0.000242159
4.99802e-05
6.57637e-05
-9.12263e-05
-2.45163e-05
-9.2343e-06
2.25518e-06
-0.000199021
0.000205992
0.000127944
-0.000100078
0.000120079
-0.000147947
5.52358e-05
8.57604e-05
9.25502e-05
-7.70893e-05
-1.54607e-05
-0.000278838
0.000214727
0.000167208
-0.000103097
6.28704e-05
-1.45267e-05
3.8609e-05
-8.69513e-05
-7.99241e-05
0.000333853
9.50821e-05
-0.000349014
5.13497e-05
-2.50873e-05
5.68736e-06
-3.19489e-05
3.89702e-05
3.35063e-05
-6.72991e-05
-5.17664e-06
0.00028135
-0.000188912
-0.00010664
1.42002e-05
3.7435e-05
0.000107736
-9.61378e-05
-8.31541e-06
-7.95282e-06
-8.53002e-06
2.47997e-05
4.88632e-05
-0.000150617
5.61278e-05
4.56265e-05
0.000490084
-0.000299087
-0.000275852
8.48496e-05
1.63796e-05
2.16043e-05
2.69048e-06
-4.06738e-05
-1.07982e-05
-5.82864e-05
6.90858e-05
9.39903e-05
-5.81194e-05
-0.000178414
0.000142541
0.000108748
5.54931e-05
-0.00011064
-5.36004e-05
8.94653e-05
1.05017e-05
-7.96412e-05
-2.03246e-05
-0.000110796
6.92241e-05
9.04351e-05
-0.000232002
-0.000128479
0.000177258
0.000183223
-4.93125e-06
-5.31003e-06
-3.7234e-05
4.74763e-05
5.80462e-06
-9.31414e-05
-0.000144664
-0.000114628
-3.17788e-05
0.000126396
2.00134e-05
-0.000204553
0.000781668
-0.000414195
-0.000162918
0.00012674
-3.60011e-05
6.17994e-06
-9.69174e-05
1.25259e-05
-7.59646e-05
-6.40233e-06
6.98419e-05
-1.02564e-05
-0.000147005
4.64664e-05
-3.00589e-05
-5.82234e-05
-1.65784e-05
0.000104862
-6.16085e-05
7.15648e-06
6.14181e-05
-6.96498e-06
8.84797e-06
-5.29586e-06
8.08589e-06
-1.16367e-05
-6.79254e-05
-3.50275e-05
1.35617e-05
8.93921e-05
4.72107e-05
2.52293e-06
-6.40775e-05
1.43447e-05
-9.49388e-05
8.26959e-05
5.04767e-05
-3.82355e-05
0.000253226
-5.24283e-05
-0.000118308
-8.24881e-05
0.000101109
2.36389e-05
8.39837e-05
-1.771e-05
1.30738e-05
-7.9346e-05
4.72497e-05
-1.67115e-05
-4.19785e-05
1.14413e-05
-0.00014509
1.89581e-05
0.000126128
-7.84186e-05
2.6874e-05
-0.000722631
0.000214105
0.000158129
0.000350397
-0.000200375
-0.000312854
-0.000209402
1.63368e-05
7.21544e-06
-2.20273e-05
-1.52467e-06
-1.4775e-05
-1.43705e-05
-6.93379e-07
2.98385e-05
0.000622896
0.000360727
-0.00030961
-0.00067401
-9.66911e-05
2.4256e-05
-3.71432e-05
0.00010958
-0.00017035
0.000116705
-7.15849e-06
6.08027e-05
1.05674e-05
-1.67675e-05
0.000122209
-0.000116006
0.000195319
-0.000280343
-8.93467e-05
0.000174372
-0.000292365
-0.000249279
0.000365665
0.00017598
6.21862e-05
1.27014e-05
-9.44918e-05
1.96034e-05
0.00104781
-0.000625282
-1.53148e-05
1.45773e-06
-0.000504528
-8.67001e-06
-1.5628e-05
-5.84747e-05
8.2774e-05
-3.09985e-06
7.45026e-05
-6.85292e-05
-2.87225e-06
5.73544e-06
2.85389e-06
2.03778e-05
-2.89658e-05
5.01757e-05
0.000178129
7.26081e-07
-0.000229029
-1.85604e-05
2.30647e-05
-2.18884e-06
-2.31448e-06
1.65452e-05
-1.85206e-05
1.97574e-06
-5.64659e-06
9.15018e-05
1.34783e-05
-0.000105693
7.15286e-07
-4.87627e-05
4.06794e-05
-9.87881e-05
0.000106873
-8.74765e-05
6.93244e-05
2.42979e-05
-6.14371e-06
-8.93468e-05
0.000198163
6.26496e-05
-0.000171467
-5.91244e-05
-6.44405e-05
7.02548e-05
5.33111e-05
-2.5547e-05
7.64178e-05
0.00010028
-0.00015115
8.27118e-05
1.21395e-05
-5.86301e-05
-3.62207e-05
-7.62816e-05
0.000316537
-0.000482023
0.000241766
-2.06401e-05
-2.21044e-06
4.33029e-06
2.37001e-05
0.000105303
-6.55072e-05
-6.34937e-05
8.30176e-05
-1.64515e-05
-6.15329e-05
-5.03243e-06
-3.07498e-05
-9.35389e-06
-1.99385e-05
6.0043e-05
1.50868e-05
-0.000101748
2.3024e-05
6.36374e-05
0.00025903
-7.47834e-05
-5.65815e-05
-0.000127665
-1.06128e-05
1.41137e-05
-6.76996e-06
3.26915e-06
-3.78092e-05
5.49141e-05
9.40281e-06
-2.65055e-05
-1.37102e-05
-4.7812e-05
-3.37986e-05
9.53226e-05
2.52901e-05
-0.000130379
0.000195669
-9.05788e-05
-2.22772e-05
5.35723e-05
7.77744e-06
-3.90707e-05
-2.95179e-05
-1.03353e-05
-1.7754e-05
5.76089e-05
-4.15799e-06
-1.09272e-05
4.47262e-06
-4.06828e-05
6.40077e-05
2.28751e-05
-4.61982e-05
0.000144018
0.00013546
-0.000285574
6.09713e-06
6.87365e-05
-5.65124e-05
-1.67868e-05
4.56393e-06
-0.000157716
0.000248143
-0.000198047
0.00010762
-7.09993e-05
7.51451e-05
4.90719e-05
-5.32159e-05
8.52251e-05
5.25922e-05
-0.000109345
-2.84713e-05
2.83745e-05
0.000110349
5.05965e-05
-8.57462e-05
5.64735e-06
2.95042e-05
-7.36514e-06
-0.000105067
7.49894e-06
0.000104935
2.72103e-06
-8.95362e-06
2.03465e-05
-1.93045e-05
-1.40954e-05
3.4477e-05
-1.07555e-06
-0.000196645
1.32878e-05
-9.00533e-05
0.000273409
-1.46166e-06
-3.78066e-05
3.9269e-05
-6.46988e-05
-0.000142762
-1.12522e-05
6.9089e-05
2.31557e-05
3.60141e-05
-0.000128259
6.09849e-05
0.000394135
-0.000455124
-6.92314e-06
7.41066e-06
-9.47955e-05
9.4309e-05
1.75057e-05
0.000160042
-0.000494288
0.000316737
4.55899e-05
5.11944e-05
-0.000110063
1.32797e-05
-2.01969e-05
-0.000492564
-0.000491047
0.00127512
7.13806e-05
-9.95986e-05
5.29216e-05
-2.47037e-05
-7.16265e-05
-4.65231e-06
7.62802e-05
-0.000556456
0.000240606
0.000239567
-0.000180829
-0.00113461
0.000579039
0.000736405
-6.65663e-06
0.000298492
-0.000291841
2.78938e-05
-3.34584e-05
-1.28199e-05
1.83851e-05
-1.26582e-05
-5.75755e-06
4.75516e-05
-2.91347e-05
9.78396e-05
-4.25998e-06
-9.98167e-05
6.23826e-06
0.00024794
-0.000117511
-1.67339e-05
-0.000113694
5.06997e-05
5.36925e-05
-0.000165634
6.12438e-05
-9.09938e-05
0.000166578
-8.99953e-05
1.44114e-05
0.000228152
-4.0001e-05
0.000409988
-0.00059814
0.0002163
-3.41442e-05
-5.23719e-05
-0.000129783
0.000120873
0.00012882
-0.000426498
0.000176804
4.41065e-05
6.94876e-06
-5.14873e-06
-4.59063e-05
1.19804e-05
-9.96112e-06
3.19326e-06
-5.21229e-06
0.000112513
7.66222e-05
5.88055e-05
-3.61037e-05
3.25677e-05
-0.000108289
0.000111827
-0.000151567
0.000166301
0.000382176
-0.00039691
-3.16436e-05
1.28984e-05
1.2569e-05
6.1765e-06
-9.97014e-06
-2.27004e-05
3.26691e-05
-8.8894e-05
3.68144e-05
3.40443e-06
4.86769e-05
-8.65933e-06
-1.73665e-06
7.12714e-06
-4.97652e-05
4.43751e-05
7.37346e-05
-1.1494e-05
-8.58069e-05
2.35672e-05
1.7498e-05
-3.34182e-05
1.59206e-05
5.09747e-06
-1.5316e-05
-0.000170186
0.000180405
-2.47793e-05
0.00010412
-8.05012e-05
1.16134e-06
6.59392e-05
2.10628e-05
-3.58434e-05
-5.11586e-05
0.00010307
7.72607e-05
-0.00026073
8.04002e-05
-2.56254e-05
1.85993e-05
7.0264e-06
2.89814e-05
-2.95556e-05
-0.000113728
0.000114304
-1.46738e-07
1.09256e-06
-9.4543e-07
0.000133581
0.000164808
0.000345863
-2.70977e-05
-9.96984e-05
-0.000219066
-1.80362e-05
-5.29656e-05
-0.00019927
0.000270269
0.000721751
0.00108717
-0.00132555
-0.000483367
-0.000382611
0.000127287
-0.000162491
0.000417808
0.000242121
-3.49257e-05
0.00014814
-0.000355335
7.5334e-05
-0.000121059
0.000142795
-9.70688e-05
4.62178e-05
2.22066e-06
-4.84377e-05
-2.74899e-05
-2.07136e-05
-0.000128542
0.000176747
-0.000105026
-7.50169e-05
0.000112949
6.7095e-05
-9.21024e-05
0.000128494
1.06016e-05
-4.69917e-05
-4.64054e-05
3.51947e-05
-0.000263564
0.000274775
0.000183256
0.000136126
0.000245551
6.25063e-06
-0.000298206
-5.07285e-05
8.02927e-06
-2.62867e-05
6.89872e-05
-6.81897e-05
6.43678e-05
0.000162264
-0.000158441
6.27265e-07
1.20988e-06
-1.75147e-06
-8.54943e-08
-0.000107221
9.86431e-05
3.55338e-05
-2.69547e-05
3.4244e-05
-6.60784e-05
-0.000175818
-4.75574e-05
0.000105086
0.000118289
-7.2416e-05
-9.30521e-05
-8.63936e-06
0.000174106
0.0002352
-6.89661e-05
-7.85879e-05
-8.7646e-05
6.28325e-05
-3.12491e-05
-3.86876e-05
7.10456e-06
-9.67422e-05
7.09088e-05
-6.31406e-05
8.89756e-05
7.80058e-05
-4.36726e-05
7.94652e-05
-0.000113798
1.43165e-06
-3.09347e-06
2.28929e-06
-6.96865e-05
1.57882e-05
9.8765e-05
-4.48654e-05
-2.22429e-06
-8.79873e-06
3.76635e-06
7.25713e-06
-7.38095e-05
-0.000113832
9.24878e-05
9.51538e-05
0.000186475
-0.000275763
-0.000117731
0.000207014
-0.00202158
0.00276763
0.000794855
-0.00153989
2.27466e-05
-1.96304e-05
0.000180181
-0.000183302
-9.91955e-05
2.39575e-06
3.18424e-05
6.49587e-05
5.36243e-05
4.81089e-05
2.89861e-06
-0.000104631
0.00166306
-0.000508165
0.000171906
-0.00132681
-9.63201e-05
-4.87297e-05
5.64204e-05
8.86312e-05
-2.07411e-05
-0.000120804
9.89783e-05
4.25674e-05
-6.19638e-05
0.000131502
5.78515e-05
-0.000127389
1.47989e-05
2.10539e-05
-8.30295e-07
-3.50282e-05
2.86387e-05
-1.04572e-05
-3.38648e-06
-1.30097e-05
1.32288e-05
-7.99357e-06
7.77492e-06
-5.80479e-05
9.50719e-06
-0.000120876
0.000169418
-5.15635e-05
0.000114851
4.79533e-05
-0.000111241
-2.02815e-05
5.91764e-05
2.03203e-05
-5.92148e-05
-6.81953e-05
4.41596e-05
-7.50997e-05
9.91357e-05
-4.59674e-06
0.000107757
-0.000116637
1.34782e-05
6.89245e-07
7.55811e-05
-7.17003e-05
-4.5714e-06
6.83791e-06
2.75483e-06
-2.60957e-05
1.65043e-05
-5.68632e-05
3.74776e-05
-2.82742e-05
4.76606e-05
7.12816e-05
7.85724e-05
-0.000218049
-8.6228e-05
-1.4057e-05
-3.26463e-06
0.000103551
7.87767e-06
-2.06283e-05
6.1381e-05
-4.86298e-05
-7.22518e-05
5.36623e-05
1.97952e-05
-1.20495e-06
6.16091e-05
-3.17984e-05
0.000131462
-0.000161272
2.50424e-05
1.43247e-05
-0.000120789
8.14232e-05
-3.87858e-05
5.2395e-05
-1.36092e-05
4.55081e-06
-2.96978e-07
1.04289e-06
-5.29643e-06
0.000482616
-0.000413093
0.000348502
-0.00041803
-0.000591815
-5.4156e-05
-4.19814e-05
0.000687945
0.000123369
-9.78755e-05
-4.44168e-05
1.89258e-05
1.16926e-06
3.38225e-06
2.01164e-05
-8.2493e-05
0.000106652
-4.42738e-05
-2.38747e-06
1.95079e-05
-1.73698e-05
2.4952e-07
8.11332e-06
3.51458e-06
-1.16278e-05
-3.39683e-05
-3.07826e-05
6.96262e-06
5.77885e-05
1.44584e-05
-1.35772e-06
-1.5488e-05
0.000443944
-0.000571578
-0.000310252
0.000437881
-1.0654e-05
2.23893e-05
2.08245e-05
-3.25582e-05
-0.000132493
-9.93379e-07
3.87424e-05
9.47451e-05
-1.5155e-05
-2.42272e-05
8.93871e-05
-5.00047e-05
6.68982e-05
-5.15327e-05
-1.04658e-05
-4.89842e-06
-4.00232e-05
-6.68388e-06
4.65396e-05
1.67696e-07
-0.000282416
-0.000512885
0.000243949
0.000551345
1.58918e-05
-1.55967e-05
-4.25995e-05
-9.84236e-05
5.97483e-05
8.12752e-05
0.000243631
9.79688e-05
-0.000118961
-0.000222645
2.24465e-05
-6.14549e-05
-8.55295e-05
0.00012454
1.96969e-06
0.00010071
-2.55017e-05
-7.71777e-05
1.71092e-05
-3.90083e-06
-3.71537e-06
5.22874e-06
4.92777e-05
-5.07909e-05
-4.35859e-05
3.89333e-06
3.59774e-05
3.95797e-05
1.22189e-05
3.83249e-06
-5.56302e-05
-0.000204896
0.000248228
0.000401266
-0.000444606
0.00116581
-0.00133499
0.000853297
-0.000684092
-0.000226603
-3.16442e-06
0.00104934
-0.000819587
-0.000102525
8.25048e-05
-1.51963e-05
3.5217e-05
6.58778e-05
-0.000192595
-9.86412e-06
0.000136583
0.00016304
-5.24597e-05
-7.92699e-05
-3.13097e-05
0.000376417
-0.00096964
-5.73463e-05
0.000650556
8.02092e-05
0.0011102
0.000127693
-0.00131809
2.12484e-05
-2.01229e-05
8.72716e-05
-8.83962e-05
-0.000392239
1.59527e-05
0.000376284
-2.32364e-06
6.48587e-05
-6.25336e-05
3.73745e-06
-5.55431e-06
-8.46044e-05
8.64227e-05
-5.69689e-07
-8.58995e-05
3.29089e-05
5.35617e-05
1.37836e-06
0.000126726
-2.45567e-05
-0.000103546
-1.26219e-05
-0.000101936
7.2212e-05
4.23471e-05
-7.36549e-08
9.94975e-05
8.79146e-06
-0.000108214
-0.000111527
-0.000238463
0.000349983
0.000121422
2.87533e-05
-0.000110909
-3.92662e-05
-4.02646e-05
0.000114955
-3.73336e-05
-3.73544e-05
6.12896e-06
-3.70674e-05
-1.18704e-05
4.28103e-05
-3.51521e-05
2.89983e-05
4.66409e-05
-4.04857e-05
-8.50194e-05
5.01478e-05
-1.06913e-05
4.55641e-05
-5.12104e-06
5.61853e-05
2.81517e-05
-7.9215e-05
3.26017e-06
1.23459e-05
-1.56054e-05
-9.08035e-05
2.16086e-06
3.62405e-06
9.37324e-05
-5.10673e-05
3.14517e-05
-7.41152e-05
2.15998e-06
-1.22008e-06
-9.39674e-07
-7.29395e-06
6.58081e-06
7.08985e-07
-4.04512e-06
2.35997e-05
-5.57909e-05
3.62318e-05
5.89925e-05
-5.62954e-07
-4.36674e-05
-1.4762e-05
2.03152e-05
9.05548e-05
-1.65169e-05
-9.43515e-05
-7.6466e-05
-2.23698e-05
3.8062e-05
6.07748e-05
3.20902e-06
-8.12213e-05
1.93145e-06
7.60787e-05
6.6516e-05
-1.42428e-05
-5.22719e-05
2.27575e-06
5.59974e-07
-2.83565e-06
-0.000101997
-0.0001833
0.000176557
0.00010874
0.000183143
-1.129e-05
-5.04305e-05
8.78115e-05
-7.86396e-05
4.09768e-05
5.69885e-05
-1.86742e-05
-0.000133556
9.52421e-05
5.66036e-06
7.27349e-05
-0.000107349
2.8954e-05
0.000155512
-0.000139438
-8.14003e-05
6.53265e-05
-8.67988e-05
-4.08257e-05
0.000117669
9.95665e-06
-2.93393e-05
-2.53236e-05
0.00013492
-8.02562e-05
-2.07807e-06
4.61309e-05
-4.40513e-05
0.00221595
-0.000766997
-0.00122028
-0.000228643
4.13501e-05
3.71484e-05
4.7765e-05
-0.000126264
-5.77614e-05
5.47021e-05
-0.000118416
0.000121476
3.43057e-07
9.74161e-05
-2.4587e-06
-9.52995e-05
-0.000469519
0.0013738
-0.0013624
0.000458129
5.5108e-05
-0.000154882
-0.000191758
0.000291532
-0.00125674
0.000547129
0.000449628
0.000259981
-2.88649e-05
7.78545e-05
1.80856e-05
-6.70736e-05
2.38127e-05
-0.000113172
0.000185534
-9.61716e-05
0.000123729
-0.000699806
-0.000103775
0.000679847
-0.000125181
6.95941e-05
5.49111e-05
6.77826e-07
-0.000347454
-0.000217775
6.9892e-05
0.000495333
0.000729678
-0.000651284
4.53303e-05
-4.16817e-06
-4.07019e-06
-0.000217691
0.000225929
0.000183256
1.38315e-05
-0.000274011
7.69208e-05
-2.91297e-05
-4.24241e-05
3.97786e-05
3.17766e-05
-3.0518e-06
-8.34637e-06
7.74685e-06
3.65148e-06
4.99825e-05
-4.66509e-05
-1.20004e-05
8.66946e-06
-8.78446e-06
4.17744e-05
0.000100599
-0.000133593
-4.76849e-05
8.5894e-06
-3.12245e-05
7.03205e-05
9.18069e-05
-1.35446e-05
0.000233749
-0.000312018
0.000207223
-0.000715935
0.000508708
-2.08091e-06
-4.58537e-06
3.61458e-06
0.000631123
0.000211455
-0.000635359
1.93891e-05
-3.77873e-05
2.37445e-05
-5.34535e-06
-9.73641e-05
-2.27256e-05
0.000120087
-0.000304332
0.000159545
0.000103283
4.15045e-05
-0.00110421
-0.00422468
0.00366351
0.00191051
8.67744e-06
-1.03572e-05
-9.80907e-05
9.97714e-05
4.22202e-06
7.254e-05
-0.00017742
0.000100657
9.7907e-05
-0.000160572
0.000113076
-0.000227878
-4.60517e-05
-3.04016e-05
0.000391051
0.000767316
-0.000490935
-0.000667434
-0.000196946
0.000120282
-0.000121684
0.000198345
7.88273e-06
-2.5118e-05
-5.71041e-05
7.43407e-05
-0.000121469
0.000137718
9.11031e-05
-0.000107352
2.31548e-07
-2.31236e-06
-9.86544e-07
-1.055e-05
8.79966e-06
2.73704e-06
-2.09948e-05
-2.20833e-05
-1.04329e-05
5.35114e-05
-0.000164769
4.65616e-05
4.82174e-05
6.99905e-05
0.000670308
0.000901376
-0.00156752
-2.13742e-06
-3.30261e-06
5.44133e-06
-7.32191e-05
-4.67917e-05
5.6833e-06
0.000114327
-0.000472949
0.000741548
-0.000934374
0.00066577
-5.5657e-06
5.51033e-05
3.92763e-06
-5.34641e-05
4.67601e-05
-4.23937e-06
-1.23089e-05
-3.02102e-05
-0.000130327
9.38348e-05
9.45686e-05
-5.80749e-05
-0.00130418
0.00126994
-0.00052356
0.000557815
2.89928e-06
5.52838e-05
-6.07046e-05
2.52086e-06
-2.98323e-05
5.10332e-06
-7.47476e-05
9.94756e-05
-1.62282e-05
-1.34831e-05
2.97123e-05
0.00331707
0.00217347
-0.00458817
2.80418e-05
7.6877e-05
-2.42378e-05
-8.06809e-05
0.000957674
-0.00165566
0.000245275
0.000452671
8.38672e-06
-1.4904e-06
-6.89607e-06
-1.62988e-05
2.68138e-05
-2.86604e-05
1.81468e-05
-0.000170161
0.000317091
0.000382266
-0.000529176
-4.24405e-06
-7.77855e-05
6.61248e-05
1.59066e-05
-0.000168151
0.000505729
1.51579e-06
-0.000339096
-0.00124401
-0.000246607
0.00124876
0.000241875
-3.267e-06
2.08676e-06
-1.04364e-06
0.00308796
-0.0051142
0.00135082
0.000110288
-4.28995e-06
-0.000193268
8.7261e-05
-0.00162802
0.00360629
0.00114767
-9.86354e-05
-3.90628e-06
0.000122294
-1.97513e-05
2.01218e-05
2.31585e-05
4.78901e-05
-9.11693e-05
-3.70608e-05
-2.14174e-05
5.71263e-05
1.35306e-06
-9.473e-05
-1.67502e-05
7.00445e-05
4.1436e-05
1.31171e-05
1.49043e-05
-9.14199e-05
6.33991e-05
-4.76624e-05
-2.98488e-06
5.0648e-05
4.35916e-05
-1.36087e-05
-7.46244e-05
4.46423e-05
-2.8535e-05
8.50047e-06
-2.13034e-05
4.13394e-05
-9.16748e-05
1.20919e-05
0.000119617
-4.0033e-05
-0.000128035
-1.91528e-05
0.000143941
3.24861e-06
-4.59829e-06
1.69849e-05
-6.38378e-06
-6.00263e-06
3.61698e-06
-3.90466e-05
5.68419e-05
-2.14129e-05
0.000169397
-2.0443e-05
-1.26487e-05
-0.000136306
1.3098e-05
-0.000100005
-6.02215e-05
0.000147128
0.000106767
-3.25831e-05
-0.000163532
-7.87793e-05
-6.75729e-05
5.46787e-05
1.30166e-05
-3.03687e-06
-1.45778e-05
-5.50803e-05
3.06965e-06
3.13367e-05
2.06753e-05
-3.2421e-05
4.7276e-05
-1.35298e-06
-1.35009e-05
3.88541e-05
-5.69402e-06
-0.000111938
-0.000180107
4.90698e-05
6.58256e-05
6.52136e-05
-4.98201e-05
4.21006e-05
-3.9942e-05
5.89726e-05
-2.41024e-06
2.0413e-07
-5.6765e-05
1.8565e-05
-3.99352e-05
4.21602e-06
1.71557e-05
-2.09264e-05
9.09216e-06
2.60554e-05
-1.42206e-05
-1.83673e-05
-3.14305e-05
0.000109168
-5.93674e-05
-5.63682e-05
-1.89885e-06
4.90644e-05
9.20346e-06
6.08254e-05
-7.16761e-05
-0.000122302
0.000133151
-0.000148166
4.2609e-05
-7.22401e-05
0.000177798
-2.5895e-05
0.000245988
-0.000159269
-0.000405541
-0.000343341
0.000367108
0.00038177
2.47348e-05
2.95346e-05
5.17942e-05
-0.000106064
-6.23899e-05
0.000104845
3.17201e-06
-4.56266e-05
-2.74003e-05
-1.70623e-05
4.44631e-05
-0.000367686
-0.00014069
0.000482479
-1.24826e-05
6.05126e-06
-5.59582e-05
1.51865e-05
-3.58725e-05
9.81968e-05
-7.751e-05
-2.15319e-05
-2.03603e-07
2.17355e-05
-7.05038e-05
-3.42522e-06
1.23634e-05
6.15672e-05
5.52841e-05
-6.16227e-05
-0.000118375
0.000124714
6.55454e-05
2.59691e-05
-7.05317e-05
-2.09836e-05
1.72155e-05
3.73455e-05
-5.45606e-05
0.000110166
-0.000104556
-5.6109e-06
6.83742e-05
-1.70133e-05
-1.75183e-06
-4.96082e-05
-0.000112899
7.94973e-05
-8.03041e-05
0.000113706
-2.3265e-05
-2.81439e-05
5.14056e-05
0.00019184
-9.15157e-05
-0.000134609
3.42821e-05
7.16184e-05
4.95799e-05
-8.78354e-05
-3.33618e-05
8.81334e-05
-0.000146946
2.68345e-05
3.19791e-05
-8.31097e-06
0.00010236
-0.00014408
5.00318e-05
-2.36379e-05
-0.000149261
0.000100987
7.1914e-05
-0.000114152
-1.61716e-05
0.000130324
1.49114e-05
9.73728e-05
-9.32983e-05
-1.89852e-05
-1.427e-05
-0.00012213
0.000129713
6.68757e-06
-7.22388e-05
7.60646e-05
-3.83778e-06
1.26873e-08
1.5346e-05
-0.000108071
0.000113884
-2.11609e-05
9.66992e-05
-0.000122846
-4.4768e-05
7.09165e-05
3.40905e-05
-3.9218e-05
-1.71481e-05
9.97008e-06
7.93025e-05
2.3487e-05
-0.000112758
0.000128977
-4.49943e-05
-8.39839e-05
2.75538e-05
-7.17835e-05
-2.73063e-05
7.15367e-05
4.81404e-05
0.000196698
-0.000248422
3.58075e-06
-6.72814e-07
2.97636e-05
4.25438e-06
-9.38181e-05
0.000129736
-0.00015007
-1.94127e-05
9.86838e-06
-9.00188e-05
9.9565e-05
-5.24352e-05
-5.48486e-05
0.000111485
-4.20059e-06
8.08702e-05
-6.10086e-05
7.13731e-05
-9.12345e-05
2.81229e-05
-4.40144e-05
1.58919e-05
-0.000111995
1.47031e-05
8.88787e-05
8.41477e-06
5.17547e-05
2.23412e-05
-6.04613e-06
-6.80492e-05
-9.75819e-05
-1.97026e-05
9.76637e-05
1.96219e-05
-8.21083e-05
2.34223e-05
7.02746e-05
-1.15921e-05
-0.000123998
-0.000506531
0.000530817
9.97014e-05
-4.27201e-06
0.000116404
1.30908e-05
-0.000125221
-1.35826e-05
-1.49076e-05
8.34947e-05
-5.50037e-05
-3.6486e-05
-0.000142597
0.000138953
4.01249e-05
-0.000121588
5.03943e-05
6.05039e-05
-0.000193955
0.000271409
-1.90762e-05
-5.83802e-05
-0.000167473
4.42319e-05
3.98881e-05
8.33528e-05
-8.85297e-07
2.99934e-06
-9.24537e-05
9.03411e-05
-3.53282e-05
1.01226e-05
0.000102765
-7.75581e-05
0.000116614
8.00118e-06
-6.48197e-05
-5.97937e-05
-2.32222e-06
6.98607e-05
-0.000244962
0.000177425
1.31035e-05
-9.99222e-06
-1.2629e-05
9.51806e-06
1.76484e-06
0.000117721
-7.50703e-05
-4.44147e-05
-5.96309e-05
-7.29723e-05
1.64952e-06
0.000130954
-4.88088e-05
-5.70709e-05
2.31688e-06
0.000103563
0.0001377
3.19852e-05
-0.000135838
-3.38472e-05
0.000241907
6.03447e-05
-0.000164552
-6.12083e-05
-4.03739e-05
-8.33473e-06
0.000109917
2.56828e-05
5.49651e-05
3.87213e-06
-8.45199e-05
5.46695e-05
-0.000133452
-4.35465e-05
0.000122329
1.4798e-05
6.50776e-05
0.000109496
-0.000189374
-1.04941e-05
1.86391e-05
-8.14477e-06
0.000122378
-5.85725e-05
-4.01642e-05
-2.36399e-05
6.92483e-05
0.000111758
-0.000166211
-6.45152e-05
3.13137e-05
5.88843e-05
4.07666e-05
-6.98509e-05
-1.50299e-05
4.41142e-05
-1.72355e-05
3.90556e-05
4.50792e-05
6.70686e-06
0.000136546
-7.81771e-05
3.03087e-05
-2.76596e-05
6.51494e-06
-9.1628e-06
7.47859e-05
-8.29933e-06
-6.64852e-05
3.7887e-05
5.72626e-05
-0.000125467
3.03191e-05
-6.57598e-05
4.44507e-06
5.66265e-05
4.68886e-06
5.57954e-06
-8.42998e-08
3.25318e-05
-3.80252e-05
5.13084e-06
5.49447e-05
4.7591e-05
-0.000107666
5.8763e-05
2.46826e-05
-8.34498e-05
4.94313e-05
-5.26903e-05
3.25968e-06
-0.000105721
-8.56272e-06
0.000114279
8.74992e-06
1.00832e-05
-1.8832e-05
-1.99562e-05
-6.17081e-05
-6.33565e-06
8.80022e-05
7.21916e-05
3.96317e-05
-2.69707e-05
-8.48503e-05
-7.42588e-05
6.68751e-05
1.56137e-05
-8.22885e-06
8.28962e-07
-4.48368e-05
2.15156e-05
2.24929e-05
0.000137566
-6.16127e-05
-8.94424e-05
6.08955e-05
4.00639e-05
-1.15149e-05
2.2964e-05
-4.6702e-05
4.32016e-06
1.94183e-05
-0.000134905
-0.000405144
0.000168826
0.000371218
3.65751e-05
1.89603e-05
-1.69741e-05
-3.85611e-05
2.2572e-05
0.000112216
-0.000134795
-7.60048e-05
0.000111376
-5.99623e-05
2.45933e-05
3.94226e-05
-1.93049e-05
-4.86506e-05
-2.11956e-06
5.15517e-05
2.56501e-05
-2.30726e-05
-2.57639e-06
-8.00219e-05
-0.000144912
0.000208917
1.60161e-05
-0.00101508
-0.00349258
0.00281823
0.00258962
4.33516e-05
8.35427e-05
-4.70701e-05
-7.98239e-05
-6.90665e-06
0.000110522
-8.17656e-05
-2.18488e-05
7.86531e-05
-1.61738e-05
-4.79901e-05
-1.44883e-05
-7.01604e-05
8.50725e-05
7.68486e-06
-0.000127868
1.79822e-05
0.0001022
-2.76477e-06
1.51028e-05
-1.64508e-06
-1.06931e-05
-2.04175e-05
7.75731e-05
0.00055921
-0.000616369
2.6194e-05
-7.38305e-05
5.67361e-05
-9.09773e-06
5.8295e-05
1.8124e-05
3.26829e-06
-7.96865e-05
0.000140416
-0.000197317
-9.52001e-05
0.000152101
0.000128297
-7.79615e-06
-1.82889e-05
-0.000108613
-3.06544e-05
0.00013624
3.02866e-06
-7.1439e-05
-1.40463e-05
8.55933e-05
-1.07962e-07
0.00170754
-0.00276357
0.00226529
-0.00100853
1.62761e-05
-1.65362e-05
-2.5049e-06
0.000662203
6.18171e-05
-0.000561653
-0.000162374
-6.97604e-05
6.12573e-05
9.49536e-05
-8.6451e-05
-8.6635e-05
-1.50617e-05
8.93076e-05
1.23916e-05
1.64902e-05
-1.38763e-06
-0.000469194
0.00105117
0.00084416
-0.0014261
7.08623e-05
-0.000156819
0.000182629
-9.6673e-05
0.000148312
-2.36793e-05
-1.18895e-05
-0.000112742
1.40348e-05
-6.91653e-05
6.03525e-05
-5.22088e-06
3.87943e-05
-1.15599e-05
-0.000103312
7.60802e-05
0.000164211
2.10305e-05
-4.24559e-05
-0.000142784
6.0925e-05
4.25553e-05
-1.19827e-05
-9.14953e-05
8.98648e-05
-8.62207e-05
-7.40155e-05
7.03695e-05
3.05969e-05
5.83645e-05
-8.89688e-05
2.33235e-05
-9.85058e-06
2.80295e-06
-1.45081e-05
-2.14731e-05
3.12648e-05
4.71833e-06
7.0683e-06
2.15994e-06
-9.22806e-06
-0.000159561
-2.689e-05
0.000159802
2.66482e-05
7.13212e-06
-4.16731e-05
4.84214e-06
2.96997e-05
-3.36309e-05
-5.68195e-05
3.08198e-05
4.84184e-05
2.4024e-05
6.55007e-05
-0.000137942
-0.001385
-0.000636532
7.88029e-05
2.82953e-05
-0.000154576
4.74789e-05
-6.2646e-05
2.84745e-05
-0.000160752
0.000194925
-3.45973e-05
2.48517e-06
3.92451e-05
0.000126957
-5.21447e-05
-4.92224e-05
-2.55903e-05
1.42233e-05
-4.72913e-05
9.74158e-05
-6.43485e-05
3.23757e-05
-0.000128661
2.10852e-05
7.52016e-05
-6.79361e-05
-7.6172e-05
9.0313e-05
5.37971e-05
-0.00265622
0.00490051
-0.003988
-1.23333e-05
4.49747e-05
-0.000102915
7.02738e-05
-3.72399e-06
2.1103e-06
1.38393e-05
-1.22246e-05
3.5003e-05
-8.18093e-07
-3.19402e-05
-2.24389e-06
0.00012077
6.24925e-05
3.50372e-05
-3.34207e-08
-8.1378e-05
5.35212e-05
0.000151072
-0.000123215
-8.98615e-05
9.99539e-05
-5.62437e-06
-4.4666e-06
0.000177471
0.000673365
-0.00117797
0.000327144
8.40621e-06
-0.000128508
2.13553e-06
0.000117968
-5.96739e-05
0.000148699
-3.14448e-06
-8.5884e-05
-8.48451e-05
8.95938e-06
-5.27181e-06
8.11588e-05
0.000104927
1.95113e-05
4.19905e-05
-0.000166429
-8.79065e-05
-3.04788e-05
3.59356e-05
8.24506e-05
4.06637e-05
0.000266535
-4.30101e-05
-0.00026419
4.40649e-07
0.000346975
-0.000390976
-0.000122637
0.000166635
1.06041e-05
5.79912e-05
-2.66472e-05
-4.19475e-05
6.46665e-05
0.000216603
0.000115123
-0.000396389
-4.51164e-05
-3.00102e-05
8.57317e-05
2.01996e-05
-8.61734e-05
-3.50441e-05
0.000101019
-0.000174459
0.000136812
-8.97089e-05
0.00012735
3.36213e-05
5.34888e-05
-0.00015265
6.55401e-05
9.32809e-05
-9.88766e-05
2.84685e-05
-2.28712e-05
4.94905e-05
-3.19988e-05
-0.000142998
0.000125508
0.000104078
-4.2824e-05
0.000141493
-0.000202755
-4.87415e-05
4.96397e-05
-2.20234e-05
2.11177e-05
6.01714e-05
-0.000250952
5.92368e-05
0.000131543
0.0011617
-0.000526632
-0.000431193
-0.000203889
-6.28023e-05
-3.8279e-05