/*--------------------------------*- C++ -*----------------------------------*\
| =========                 |                                                 |
| \\      /  F ield         | OpenFOAM: The Open Source CFD Toolbox           |
|  \\    /   O peration     | Version:  v2012                                 |
|   \\  /    A nd           | Website:  www.openfoam.com                      |
|    \\/     M anipulation  |                                                 |
\*---------------------------------------------------------------------------*/
FoamFile
{
    version     2.0;
    format      ascii;
    class       volScalarField;
    location    "1";
    object      Qdot;
}
// * * * * * * * * * * * * * * * * * * * * * * * * * * * * * * * * * * * * * //

dimensions      [1 -1 -3 0 0 0 0];


internalField   nonuniform List<scalar> 
108993
(
2.79962e-185
1.89141e-160
3.33892e-114
0
8.38584e-297
0
0
0
6.59921e-216
0
0
0
7.27538e-291
9.87323e-179
3.09922e-233
0
0
0
0
0
0
0
3.49747e-158
2.70833e-235
9.59895e-295
0
0
0
0
0
0
7.65098e-173
0
1.25663e-161
1.48922e-272
0
0
9.02583e-246
5.35682e-61
0
5.06492e-156
2.48174e-206
0
0
0
0
0
2.26519e-189
0
2.81879e-162
0
0
0
0
7.4005e-224
0
0
1.76773e-275
0
1.19361e-267
0
0
0
4.0832e-276
0
2.6112e-215
0
3.69029e-267
1.06864e-169
0
2.58241e-242
5.86312e-271
1.27228e-264
3.65549e-272
5.28061e-216
0
0
6.94476e-170
0
0
0
1.07025e-180
4.57814e-245
3.08243e-189
5.15005e-229
0
7.87682e-175
0
3.19213e-280
9.92091e-288
3.91576e-284
0
0
0
0
2.14231e-152
8.5608e-236
0
0
0
1.48859e-274
5.0017e-242
0
0
3.76252e-232
0
5.86304e-221
0
5.57866e-275
0
0
0
7.50015e-123
0
8.70534e-211
1.06372e-63
1.02936e-286
4.04264e-155
0
0
0
0
2.17419e-64
0
0
1.78009e-67
0
5.73086e-174
0
0
2.2487e-139
2.55194e-246
0
0
5.69518e-221
0
0
3.11422e-220
0
0
0
1.78684e-226
0
7.22192e-234
0
1.52813e-266
0
0
0
0
0
0
4.21347e-113
2.32293e-19
0
0
0
2.90709e-262
0
0
7.65456e-21
5.44183e-264
0
0
0
2.80542e-87
5.55478e-291
0
0
0
0
0
0
0
1.0277e-229
5.62602e-218
1.52743e-80
0
4.10954e-184
0
3.36621e-164
0
1.79595e-259
9.98625e-141
0
2.71237e-228
1.053e-257
0
0
1.41157e-138
0
0
0
3.49385e-93
3.17672e-217
3.39163e-120
0
0
1.3478e-233
0
5.69619e-288
0
4.83229e-281
1.26481e-263
0
4.30429e-34
0
1.47227e-91
1.27242e-194
87093.3
0
2.14942e-233
1.48746e-84
3.89532e-90
1.35255e-51
3.22186e-238
1.25726e-211
0
9.49366e-259
5.65259e-228
0
2.2129e-19
2.00556e-104
3.22707e-81
5.34961e-236
8.6939e-275
0
1.52656e-152
6.47297e-46
3.58106e-204
0
4.52299e-224
0
3.34026e-203
3.10204e-233
0
1.17547e-237
1.86006e-244
0
3.83678e-260
0
0
0
1.95237e-265
4.22872e-241
0
2.20904e-99
3.98121e-59
1.5201e-255
0
0
0
4.66989e-200
5.70944e-213
1.75495e-249
1.13882e-262
0
5.79161e-138
0
1.18151e-291
9.86553e-163
0
5.62974e-91
1.4067e-64
3.72394e-281
8.29843e-180
9.27842e-162
2.15963e-222
1.50012e-288
0
0
6.85292e-125
1.48276e-111
0
0
9.27451e-192
0
1.41414e-71
0
0
0
0
2.46131e-106
9.5006e-240
3.1252e-216
0
3.45588e-279
8.44986e-172
1.50651e-132
9.88304e-126
0
9.14685e-175
5.26735e-169
2.4984e-173
0
1.4418e-159
0
1.6502e-165
2.82065e-164
0
0
1.79726e-16
8.17515e-232
0
1.21638e-200
5.55952e-232
4.67177e-266
3.5285e-217
6.33704e-229
0
0
1.39025e-256
0
2.96369e-265
0
1.69145e-26
2.21942e-284
7.06364e-120
0
0
0
0
1.78827e-230
0
3.94368e-201
5.34345e-31
2.58443e-09
2.2289e-24
0
8.33836e-121
0
2.24762e-34
0.000332923
0
0
0
0
0
1.18995e-197
0
7.83572e-227
4.23413e-57
1.29813e-179
0
0
0
0
0
0
0
0
0
0
0
0
0
0
0
7.76868e-178
0
0
3.14107e-179
0
7.67478e-146
8.8511e-217
0
1.30829e-146
9.73951e-220
0
1.69143e-05
1.18352e-97
5.26374e-110
3.62085e-140
2.93874e-06
0
1.00812e-18
0
0
9.85975e-27
0
0
1.39263e-24
0
1.75453e-41
0
1.28669e-184
2.67765e-144
8.99537e-85
0
1.92454e-108
1.97062e-26
9.78189e-188
5.22664e-24
0
0
2.12491e-167
2866.43
8.5322e-259
7.9567e-64
0
1.62044e-163
4.03964e-81
4.34733e-84
0
2.47007e-219
4.67652e-190
6.94537e-178
0
3.72764e-114
222.492
0
1.3836e-153
1.19609e-29
9.41494e-242
0
0
6.62686e-14
1.00008e-147
0
0
2592.38
0
61.3641
0
0
0.0438037
1.4248e-266
0
0
0
13286.3
8.39204e-91
37.6258
0
0
2.26627e-189
5.35694e-244
8.6237e-219
5.81854e-260
1.71937e-202
0
0
1.34724e-150
0
9.76071e-131
2.26465e-104
9.46804e-117
0
0
1.72206e-298
0
1.8349e-292
5.90686e-155
1.50108e-151
2.09947e-257
0
0
0
8.9428e-170
1.40503e-265
0
3.16124e-110
0
0
5.54738e-128
1.07499e-126
0
0
3.32254e-124
0
3.08947e-178
4.802e-275
6.89143e-222
4.16426e-99
0
1.32104e-91
0
4.77828e-137
5.0448e-147
6.3284e-67
0
0
0
5.68554e-151
4.28905e-87
0
0
4.58606e-130
0
0
0
0
0
0
0
0
4.85796e-85
0
0
9.63507e-169
2.04863e-256
0
0
2.66662e-133
5.91686e-63
1.06184e-32
0
0
0
3.92365e-141
0
0
2.40245e-216
0
0
0
0
0
0
7.50899e-204
0
1.34693e-211
0
0
7.35156e-207
0
0
9.92995e-153
0
1.69375e-165
0
0
1.87647e-66
0
0
1.27005e-206
0
0
0
1.05189e-134
3.50816e-234
3.65774e-134
0
0
0
0
0
0
0
0
2.01194e-56
0
0
0
0
1.83873e-234
0
2.79097e-132
358561
0
0
0
8.80071e-132
0
0
4.93276e-60
1.27193e-185
0
2.14848e-146
0
0
0
1.45874e+06
0
3.96412e-40
9.83781e-114
0
4.28022e-161
0.00059013
1.33486e-126
0
1.35939e-182
1.94187e-153
0
0
2.50635e-56
1.01457e-103
0
3.04247e-164
4.93554e-275
0
9.26335e-264
3.95458e-208
2.71584e-145
0.716282
0
0
4.40454e-267
0
0
0
0
0
0
0
1.08958e-265
2513.76
4.66852e-267
1.92632e-111
2.31474e-133
4.89529e-13
0
0
2.03487e-126
0
1.24093e-149
0
4.08198e-270
8.84738e-89
0
0
0
0
0
0
1.25923e-249
0
0
1.61159e-105
0
6.20464e-24
0
1.61663e-54
0
9.35815e-70
5.47865e-265
1.98515e-261
0
1.9102e-50
2.14216e-83
0
4.615e-83
0
0
2.14871e-199
1.85745e-67
0
0
0
0
0
4.16532e-48
0
0
1.53783e-155
5.99334e-207
2.49244e-63
5.15585e-142
3.31317e-132
2.13519e-139
0
3.36635e-252
0
4.16069e-178
5.04792e-232
0
1.21214e-229
9.56645e-82
0
1.95126e-132
0
0
2.24939e-84
0
0
7.74108e-268
1.63103e-72
0
0
0
6.45258e-169
1.34474e-138
3.07662e-119
0
6.77542e-120
8.38261e-74
4.33302e-110
0
0
1.10718e-14
1.81083e-246
0
0
0
2.29398e-225
1.24502e-40
1.07525e-179
1.44261e-76
0
5.16133e-57
5.61129e-74
6.46181e-193
0
0
1.26163e-86
2.03389e-290
0
2.14211e-170
1.6086e-203
0
2.21135e-88
0
0
4.1297e-193
1.14243e-56
1.75001e-171
0
1.57989e-92
0
2.51744e-91
5.89422e-204
3.2831e-62
7.71004e-99
0
1.14555e-203
1.20408e-57
3.7156e-94
0
3.48889e-57
0
9.18523e-81
1.2831e-62
0
9.43121e-55
0
0
1.18163e-152
0
0
0
0
0
0
0
1.93321e-93
0
0
4.93747e-85
0
0
6.74385e-179
0
0
1.06387e-96
5.01642e-284
0
0
6.5349e-59
0
0
6.59578e-77
0
0
3.25101e-112
0
0
0
3.34954e-129
0
3.42122e-149
9.44126e-107
0
0
3.13567e-50
2.71785e-37
0
2.64616e-104
11.2185
2.07586e-63
0
0
6.41638e-20
3.10725e-105
2.28933e-107
3.46896e-112
5.06001e-167
0
0
0
0
0
9.80576e-102
0
7.95021e-161
1.0346e-107
1.00055e-71
2.54978e-40
3.72372e-144
9.26471e-13
0
7.06118e-102
0
7.8238e-275
0
1.14944e-76
0
4.21003e-178
1.5259e-194
0
0
0
0
1.37739e-255
0
0
6.46812e-24
0
5.30876e-168
0.218176
0
12.9503
1.98832e-169
3.38757e-169
7.43582e-106
2.40869e-12
0
6.29054e-233
8.06051e-135
0
1.39808e-186
5.13258e-198
2.90801e-91
0
0
3.09058e-61
8.95861e-236
0
8.48176e-134
0
2.20836e-91
2.65631e-207
1.29007e-102
0
4.28804e-99
1.95385e-226
1.01421e-114
0
0
2206.49
2.65648e-108
35907.3
2.69554e-113
0
9.91838e-106
0
6.24099e-192
0
0
0
0
4.80934e-199
0
2.72774e-115
1.14985e-129
0
1.05964e-228
0
1.91972e-58
6.18068e-92
0
2.26981e-271
2.34002e-154
0
0
2.31569e-193
1.09645e-62
0
2.14844e-129
0
0
2.49748e-135
0
2.80401e-85
9.1918e-51
3.30629e-126
0.00627581
2.8803e-279
0.00392706
0
1.17596e-29
1.83918e-255
2.67318e-229
0
1.99498e-98
8.50314e-92
0
0
0
1.52053e-38
0
0
9.21389e-108
0
8.74199e-05
0
0
1.33741
5.28161e-27
0
0
0
2.984e-199
0
0
1.81982
0
0.152137
6.14573e-101
0
0
0
1.93081e-83
3.89459e-188
0
0
0
0
5.14006e-75
0
0
8.78221e-69
0
0
3.37084e-64
2.45075e-88
2.35871e-102
0
5.85433e-25
2.70326e-229
0
1.91275e-213
0
2.09329e-246
0
0
0
0
0.0141964
0
1.03001e-65
0
0
9.2077e-52
1.01797e-21
3.71569e-185
1.49055e-111
1.19792e-62
3.33044e-102
0
0
1.88957e-114
1.39346e-111
4.94854e-111
7.63114e-90
1.08851e-64
0
0
1.0898e-75
0
0
0
3.97802e-28
0
0
0
1.51983e-65
0
1.61779e-231
0
2.11658e-63
0
7.95323e-120
5.64288e-136
0
0
0
9.94037e-218
0
7.16437e-144
2.63594e-126
0
1.95386e-247
0
0
6.49512e-221
1.13604e-291
0
0
0
1.48541e-126
6.53925e-172
4.30856e-133
6.13763e-269
1.38963e-93
0
1.97993e-104
0
6.53765e-130
8.48353e-92
0
2.74853e-118
4.54687e-43
6.60667e-126
4.10824e-289
0
2.51963e-127
0
0
0
0
4.71758e-295
1.14455e-126
0
0
0
0
0
0
0
1.14233e-75
0
0
0
0
0
0
0
1.95978e-281
9.11954e-208
1.01923e-31
3.03791e-130
0
0
0
2.6416e-52
0
0
0
0
2.6801e-127
0
1.22971e-99
0
1.67044e-95
0
0
1.55644e-239
0
3.08629e-92
0
0
0
1.1132e-174
9.1813e-99
1.32768e-156
1.89546e-92
0
0
5.29028e-112
0
0
1.85076e-16
0
6.36743e-77
2.58968e-172
3.72944e-277
0
0
0
1.81541e-274
0
1.42739e-58
0
4.14642e-100
0
5.61357e-144
5.4983e-156
2.69104e-76
1.74542e-29
0
0
0
0
0
0
0
0
1.01467e-198
0
5.29931e-294
0
1.98273e-148
9.53725e-244
1.1932e-261
0
388509
2.03365e-67
1.35548e-277
0
0
0
1.383e-159
2.13333e-268
0
0
3.26665e-163
0
0
0
0
0
0
3.86532e-156
1.52491e-221
0
0
0
0
0
0
0
0
1.37375e-70
1.30788e-216
5.95961e-233
0
0
0
1.18852e-146
2.37946e-58
4.22643e-136
1.10076e-116
4.83783e-233
0
0
0
0.00959803
2.69327e-08
0
0
9.63904e-176
0
9.8043e-104
0
1.14634e-160
1.01793e-220
7.99543e-223
0
4.97405e-205
0
1.1493e-244
0
6.29943e-208
2.95795e-157
2.42105e-113
5.5391e-117
1.75334e-100
2.40915e-23
0
0
0
0
2.68559e-21
0
0
2.77748e-183
0
5.57477e-187
2.66733e-19
0
6.9813e-265
0
7.46279e-223
6.6111e-83
1.52824e-95
0
7.6809e-195
0
0
9.53039e-136
6.60789e-121
5.25262e-271
0
1.87839e-82
1.72157e-102
3.45309e-174
0
0
2.0221e-286
3.89686e-240
3.03144e-283
0
0
1.17012e-22
7.33219e-98
7.41181e-93
6.39163e-176
7.81168e-74
1.83428e-213
0
1.737e-74
0
0
0
4.98873e-73
0
4.48161e-85
0
0
4.45633e-145
0
0
3.73107e-244
0
954521
7.80245e-182
0
0
0
0
0
4.04736e-106
0
3.23757e-61
2.34382e-71
1.54417e-184
0
3.38031e-154
0
1.07315e-228
0
1.90478e-243
1.4164e-90
3.09834e-270
2.11182e-39
0
0
3.61174e-98
9.20678e-219
1.19798e-238
5.07686e-213
0
0.0882766
0
6.36533e-78
1.08518e-87
34.0465
1.0354e-126
2.32633e-177
0
0
0
0
0
2.35309e-120
0
0
1.33307e-244
0
2.68974e-113
0
0
1.58004e-268
0
0
0
0
0
1.03499e-244
1.65777e-143
2.02658e-146
0
7.46707e-244
0
7.16794e-200
4.61928e-140
0
3.10464e-216
0
3.33859e-100
0
2.53214e-211
0
0
0
8.58118e-212
1.23687e-226
3.39198e-60
6.08822e-175
3.43523e-140
0
2.97134e-209
0
2.39131e-142
0
1.56009e-138
1.06194e-11
2.96317e-144
0
0
0
0
7.53402e-133
4.37072e-174
0
4.25862e-150
0
0
0
3.11307e-84
0
0
0
5.38117e-27
0
0
2.51564e-91
8.31158e-234
5.75269e-68
0
0
0
2.42667e-138
1.33952e-176
1.30045e-123
0
6.95187e-65
0
0
1.09725e-52
0
1.04896e-185
0
1.11641e-135
0
0
2.07441e-15
0
1.22683e-230
3.41097e-107
0
2.5986e-274
5.13355e-85
1.29607e-82
4.03507e-101
0
0
0
7.57399e-49
0
0
0
2.67338e-90
0
0
0
0
0
0
7.37738e-86
0
3.38444e-44
0
0
0
0
0
0
2.64752e-167
0
0
6.49313e-247
3.47058e-175
1.39568e-73
2.30118e-74
4.95187e-99
4.27991e-171
0
0
0
0
2.70966e-96
0
0
0
0
0
0
3.62597e-215
0
0
0
1.05188e-216
0
0
1.10083e-120
5.14692e-132
0
0
1.35994e-102
0
0
1.68203e-49
5.26305e-286
0
0
9.65681e-97
5.73864e-75
0
0
0
4.37392e-100
2.07133e-87
6.84528e-15
0
6.04823e-101
0
2.21099e-39
4.40326e-149
3.06488e-203
7.78715e-228
0
0
0
0
0
5.37648e-76
0
0
1.63748e-137
0
0
0
0
0
0
0
5.00935e-111
0
7.85536e-165
1.29882e-171
1.07732e-66
1.19865e-163
3.35722e-194
1.09946e-108
1.58248e-151
0
0
2.23047e-164
0
1.02554e-154
1.33537e-85
4.04081e-22
0
0
0
7.85088e-216
0
0
1.04354e-153
0
0
0
0
1.56312e-283
6.8257e-28
5.39223e-225
5.31621e-169
4.09835e-130
0
1.7425e-108
1.3724e-220
1.13175e-170
0
4.14255e-172
3.76734e-50
0
2.51192e-171
0
0
0
0
0
0
6.64414e-216
7.26497e-164
3.23425e-239
7.6795e-170
0
3.11323e-240
0
2.59299e-52
1.26586e-27
2.7599e-46
0
0
2.37135e-84
0
1.42367e-197
0
1.88964e-188
0
0
1.04959e-121
8.5452e-80
0
3.55639e-186
0
0
1.84744e-27
0
0
7.77921e-170
0
0
0
4.45748e-78
7.98235e-172
0
1.03156e-174
2.34884e-81
2.03824e-172
4.44965e-204
7.77689e-129
1.1542e-201
2.10856e-194
3.0304e-87
1.43559e-88
1.2364e-81
0
3.702e-225
0
0
0
3.92028e-51
1.9285e-237
7.15036e-26
1.08912e-206
0
0
4.40496e-181
0
0
8.01609e-49
0
8.79336e-68
6.53384e-43
0
0
0
4.891e-147
3.9592e-158
0
0
0
0
1.46122e-174
0
0
4.54401e-198
4.07697e-72
4.69071e-17
0
0
2.41492e-86
0
0
4.14893e-121
0
5.89789e-187
0
0
1.68173e-210
1.41827e-185
0
2.16794e-41
5.04498e-68
1.36439e-62
0
1.03779e-107
0
0
1.23437e-28
7.55467e-95
0
0
0
8.05981e-243
1.07641e-18
2.33272e-140
0
5.28044e-158
0
0
0
5.34013e-10
3.17113e-269
0
5.92528e-230
0
2.78834e-25
2.72159e-250
0
6.09602e-101
8.25477e-19
4.17323e-96
5.0665e-29
0
6.09917e-50
0
5.44474e-223
2.18162e-155
3.74995e-83
0
0
4.11244e-147
0
1.80104e-29
5.48743e-140
0
0
0
0
3.26222e-169
0
0
0
3.95029e-67
0
0
0
7.86565e-121
1.17207e-65
0
0
0
1.67334e-160
1.36031e-116
1.27494e-153
0
1.50313e-157
0
0
2.00852e-155
4.98632e-132
0
0
7.45159e-51
8.17598e-136
0
1.2741e-157
1.22112e-293
0
7.77924e-17
0
5.79082e-32
2.6658e-37
0
4.94879e-27
0
0
0
0
5.67292e-188
0
0
333320
0
0
3.06197e-23
1.29731e-41
4.11367e-09
8.82066e-111
0
3.23296e-154
0
1.6455e-285
0
0
5.00636e-219
0
7.95628e-92
3.57969e-20
7.04419e-37
7.08286e-67
8.4006e-89
1.87061e-56
0
0
3.89889e-82
0
1.64387e-14
3.6964e-15
1.52029e-142
0
9.63314e-180
0
1.63635e-281
0
0
0
1.45285e-131
0
0
4.06168e-71
0
0
5.29643e-86
1.3115e-70
0
3.0796e-09
1.36561e-85
1.01787e-221
2.8421e-152
1.04847e-39
1.81017e-84
2.28709e-266
0
1.41744e-186
4.85602e-142
0
1.10782e-22
5.88037e-17
2.41706e-17
8.42655e-49
0
5.3055e-28
0
2.25267e-272
7.24647e-76
7.54826e-151
2.18662e-189
4.13109e-51
6.93689e-177
0
20815.7
1.82243e-141
0
0
9.29689e-107
0
1.05773e-212
0
0
5.5388e-122
2.22348e-25
0
0
0
0
2.60219e-208
0
0
3.43978e-159
3.28391e-61
0
0
5.92184e-241
6.33701e-108
0
0
0
0
0
0
0
0
4.3264e-57
4.55321e-280
0
0
4.78073e-93
0
0
1.68067e-88
0
2.60897e-170
0
0
1.68929e-152
3.26249e-132
6.62737e-97
0
0
1.54614e-164
8.66372e-50
0
0
0
0
0
0
0
4.00807e-70
7.76877e-182
2.30572e-196
1.53345e-64
2.11728e-24
3.6985e-122
4.13242e-21
2.20529e-53
2.88839e-132
0
8.43805e-269
7.04842e-11
0
0
0
3.36988e-65
4.35351e-08
0
1.06893e-286
0
2.7751e-275
0
0
0
8.65705e-62
0
0
0
1.24213e-139
2.96163e-129
0
0
0
0
3.43171e-150
6.66191e-233
8.96717e-286
0
0
5.62488e-127
5.95067e-97
6.81402e-230
2.43101e-253
1.22455e-93
0
1.46914e-192
3.0484e-82
5.23231e-190
0
6.70269e-261
0
0
0
5.02723e-101
0
1.84838e-242
4.91796e-131
4.37621e-189
1.82492e-104
4.12776e-33
0
1.16342e-272
0
0
0
0
9.49938e-222
0
4.40704e-251
0
4.51328e-39
5.69751e-21
7.7747e-78
6.97322e-164
0
0
5.01932e-71
0
0
0
4.34649e-38
0
1.84801e-177
0
1.69284e-201
0
0
0
1.65296e-70
0
0
2.11273e-96
0
3.84653e-170
1.19404e-111
3.19192e-159
4.19834e-98
1.80438e-160
0
0
0
0
0
0
0
0
2.06864e-95
6.72962e-275
0
2.33409e-160
8.40049e-272
0
2.14808e-113
2.75779e-148
0
0
0
2.56364e-115
0
0
0
0
3.43076e-148
0
1.12352e-50
0
0
0
0
9.66515e-103
0
1.94129e-243
0
7.8889e-125
1.27936e-90
0
3.85633e-154
1.5467e-103
3.38327e-144
1.90914e-61
0
2.82676e-121
0
8.51082e-50
4.27756e-152
1.27795e-271
0
0
1.4394e-247
0
0
0
0
0
1.6094e-235
2.68881e-144
0
2.00105e-143
0
9.60318e-279
0
0
2.39925e-38
1.82988e-298
1.21583e-125
0
0
0
0
6.25289e-117
2.36541e-50
2.37469e-42
0
1.02755e-111
0
2.53596e-123
1.71582e-39
2.5277e-134
0
0
0
0
0
7.42477e-36
3.81078e-22
1.93602e-24
1.90638e-24
0
9.48602e-09
0
0
0
3.4937e-06
4.33118e-26
0
0
5.78928e-34
0
4.72335e-60
0
0
0
0
0
0
2.08888e-228
0
0
4.06082e-174
3.09431e-40
0
0
0
0
0
0
9.36084e-137
3.42694e-195
0
7.11402e-68
0
8.95257e-120
0
2.84466e-74
0
0
1.95481e-198
0
0
0
0
2.8794e-145
8.04548e-93
0
5.83977e-59
0
0
0
1.05724e-91
1.87843e-91
0
1.42117e-187
0
0
0
0
4.94035e-59
0
2.79945e-94
4.44136e-96
0
0
0
1.06367e-244
7.43192e-184
1.25475e-142
0
0
6.62567e-216
1.64382e-30
1.15562e-191
0
7.73809e-18
6.29174e-30
0
2.71456e-113
0
0
3.91247e-135
0
1.10713e-167
0
0
7.42628e-144
3.09395e-179
1.22116e-125
3.58811e-14
4.22046e-180
0
0
0
5.32408e-183
0
0
2.55067e-88
0
0
1.32902e-273
1.12721e-217
0
2.26374
0
9.59416e-107
36.5712
0
0
3.00539e-116
0
101.88
3.42903e-156
0
0
0
695.984
0
1.80274e-236
4.73486e-146
0
7.75624e-174
7.86282e-234
2.25276e-163
2.23487e-180
1.93867e-227
4.58493e-134
0
1.03813e-230
0
2.30618e-230
0
1.95002e-44
2.72368e-177
1.33624e-236
3.73102e-59
3.9484e-54
1.29118e-161
0
8.78433e-266
0
0
0
0
2.58546e-26
0
2.26839e-167
4.65058e-159
2.73573e-156
1.66678e-113
1.00366e-175
7.31067e-71
1.71118e-45
0
0
0
0
8.09146e-72
0
8.73091e-144
0
0
0
0
1.09159e-194
0
0
0
8.73954e-76
0
0
0
0
0
0
3.7182e-50
0
0
8.68333e-175
0
0
9.04466e-68
9.22602e-54
0
1.85382e-61
0
3.79297e-56
0
0
0
1.35536e-26
0
5.99819e-66
8.92261e-110
1.16422e-176
0
9.88486e-111
0
0
5.35261e-203
1.03828e-206
6.12142e-116
3.87555e-71
4.38768e-138
9.85272e-174
1.40188e-125
0
2.67621e-157
1.6044e-195
0
0
0
0
0
2.10412e-173
4.32709e-204
0
4.20892e-169
0
0
0
0
4.25318e-42
0
4.53664e-74
0
0
0
0
0
5.11194e-239
0
0
1.12462e-194
3.18067e-48
1.42768e-51
0
0
0
4.08092e-276
0
3.40994e-59
0
0
1.16682e-83
0
1.15433e-202
4.75628e-42
3.28403e-197
2.33109e-144
1.00163e-131
0
1.74947e-279
0
0
0
0
3.52763e-215
0
0
1.2332e-155
1.34217e-154
1.05012e-219
1.21118e-194
0
1.28757e-126
7.55736e-203
4.82099e-192
4.78723e-189
0
0
0
0
9.89029e-115
0
0
0
0
2.26017e-155
0.656585
1.92854e-143
1.79829e-149
5.30573e-166
0
0
2.08908e-141
0
3.3055e-133
0
0
3.94201e-138
0
0
4.6785e-136
7.2117e-136
2.16529e-134
0
0
3.11752e-133
0
0
0
1.49307e-130
1.2069e-130
0
0
0
2.35123e-40
5.67244e-132
0
3.45873e-66
0
0
6.52261e-13
0
0
0
4.22827e-200
7.16315e-98
2.45643e-113
0
0
0
1.5438e-196
0
0
0
6.02849e-108
2.03208e-101
0
0
2.8777e-225
3.45365e-147
2.31992e-87
3.85538e-232
0
0
2.00975e-85
6.67881e-232
0
0
0
0
2.33886e-80
0
0
2.5186e-144
0
0
0
0
0
1.66841e-167
1.70908e-172
0
0
8.90383e-189
0
0
0
0
0
0
3.86747e-133
3.56016e-130
2.27779e-118
0
0
0
2.82983e-170
1.23599e-34
0
4.16345e-199
0
1.40821e-41
5.78345e-66
0
1.29006e-70
0
1.29531e-39
0
0
5.87316e-158
0
0
5.42321e-161
3.5023e-132
1.71928e-174
9.6513e-145
1.34097e-155
7.07593e-130
0
0
0
0
0
1.4938e-97
1.07115e-110
0
0
0
0
0
3.16426e-28
1.38229e-33
0
0
6.25516e-200
1.38328e-279
5.85307e-95
0
5.60574e-34
0
4.82308e-92
0
0
0
2.19299e-28
0
0
2.009e-74
3.78151e-100
1.26913e-110
1.51179e-68
0
1.43938e-79
4.58073e-249
0
0
1.00662e-188
0
0
0
2.91575e-47
0
2.65856e-122
0
0
5.86511e-94
1.54413e-171
9.76997e-156
0
0
2.50306e-103
0
6.84433e-108
0
1.20981e-103
0
0
0
0
1.21898e-151
9.82513e-64
3.59799e-135
0
0
0
0
4.75231e-255
0
1.25945e-49
8.54992e-152
1.94755e-88
5.52318e-249
0
0
1.33441e-116
7.69987e-257
2.45991e-157
0
0
0
2.86513e-47
1.69413e-254
3.08147e-92
0
2.39922e-87
0
0
0
0
0
1.58443e-242
2.23767e-274
0
1.64119e-233
0
0
2.20566e-107
0
3.67083e-273
0
0
9.26682e-272
0
1.04024e-163
0
9.73142e-134
0
0
2.86263e-217
3.07159e-158
0
1.45254e-88
0
3.96877e-211
6.53636e-205
4.90088e-240
0
0
3.56823e-204
4.15873e-197
0
0
0
0
0
0
0
2.08986e-199
1.62265e-49
0
2.61583e-196
0
1.23785e-108
0
4.18444e-165
2.10381e-24
2.95543e-258
0
0
4.27539e-123
0
0
1.39721e-103
2.53751e-162
0
0
3.42365e-157
0
0
4.75271e-134
6.58887e-98
0
8.49237e-57
0
0
1.63447e-52
0
8.43401e-115
0
1.08081e-67
0
1.80339e-203
2.48015e-213
2.15517e-266
0
2.69791e-159
1.14231e-102
1.72977e-181
6.82779e-164
0
0
1.09557e-290
0
1.92504e-110
2.88293e-207
1.10016e-230
2.92549e-235
5.14006e-213
0
1.5888e-112
1.12259e-186
0
0
0
0
3.11209e-238
0
0
4.79762e-280
0
3.1424e-241
0
0
0
2.15091e-96
0
7.75929e-150
3.50765e-237
0
3.6948e-243
5.59343e-118
0
8.70287e-23
1.93559e-215
1.00169e-232
2.14096e-237
0
0
1.34642e-124
4.17918e-237
3.8168e-21
2.2584e-18
1.90292e-121
9.03595e-16
5.3274e-29
0
7.77518e-111
5.11823e-53
1.70326e-298
0
1.27033e-298
1.37545e-192
2.23256e-240
3.74632e-169
3.12436e-31
0
4.16927e-28
2.80188e-65
1.58959e-26
0
0
2.97108e-161
3.1905e-39
1.10089e-101
6.63092e-37
1.73037e-96
5.72423e-66
2.23148e-47
0
0
2.70032e-32
8.2764e-160
2.20643e-203
0
0
0
1.10391e-35
1.19673e-114
0
0
0
0
0
0
2.74075e-242
0
0
0
0
0
1.02995e-31
0
0
0
4.4439e-240
7.69554e-22
0
9.5051e-203
1.40197e-70
0
0
9.77103e-232
0
0
6.00377e-117
0
0
0
0
1.82162e-209
1.07256e-129
1.16692e-237
1.25327e-125
2.98652e-164
0
2.08257e-148
3.98804e-240
1.63397e-239
0
0
0
9.56088e-149
1.35204e-201
2.68996e-165
0
0
7.40385e-175
2.20676e-19
1.4447e-198
0
2.3646e-185
0
0
9.49902e-196
7.77801e-137
7.23555e-17
1.2387e-119
2.11224e-15
8.59112e-220
0
3.00481e-122
3.40795e-15
2.21245e-17
0
2.61275e-86
2.43824e-134
7.93983e-196
0
1.07538e-131
8.86535e-244
9.61767e-212
0
95.7093
6.07725e-217
0
0
3.9147e-131
1.66055e-201
0
0
9.33493e-242
0
0
0
4.89407e-225
0
0
0
6.86556e-187
0
0
7.20599e-199
2.46364e-66
0
1.63329e-284
0
5.19931e-60
9.48546e-64
1.85132e-58
5.97695e-68
0
0
5.13461e-132
1.21489e-111
0
0
1.85983e-202
6.59094e-242
0
9.68201e-122
9.37916e-91
1.63178e-102
0
0
9.36024e-93
1.16801e-158
3.37805e-94
9.82029e-46
0
0
0
3.8409e-49
3.57898e-34
0
7.2465e-237
3.56827e-47
0
8.36735e-116
0
1.33426e-32
1.62744e-30
9.81339e-140
0
1.74415e-46
9.05665e-137
0
0
0
8.59526e-127
1.5945e-246
3.09356e-228
0
2.11001e-286
4.42156e-186
0
0
9.42388e-142
0
0
0
0
9.85156e-39
9.67338e-141
0
4.3397e-44
1.00446e-37
0
0
1.42043e-36
0
2.05362e-42
0
0
0
0
4.89129e-149
0
0
1.2319e-150
1.24377e-65
3.18561e-262
7.79693e-119
0
0
1.39516e-260
8.49744e-66
0
0
1.29136e-227
0
4.38563e-128
3.38185e-63
3.77306e-61
0
0
4.09064e-52
4.29177e-112
0
9.79007e-274
0
0
7.2929e-26
0
0
1.18505e-126
0
6.06072e-195
0
0
5.30499e-245
0
0
9.577e-116
0
0
4.47125e-213
1.03489e-200
1.59384e-255
3.27163e-285
2.66022e-203
1.04227e-99
9.4621e-129
6.82367e-257
0
0
0
1.18045e-115
2.59497e-91
0
0
0
0
1.94837e-130
1.84542e-118
0
0
0
0
0
0
0
0
0
0
2.31528e-271
3.17436e-203
0
2.72046e-184
0
0
2.51702e-176
1.50007e-206
0
8.42477e-204
9.42306e-137
3.16764e-119
8.10059e-43
0
0
0
0
5.03866e-96
0
0
0
0
6.11888e-237
6.15075e-121
1.40699e-209
0
2.28817e-212
0
0
1.54817e-127
0
0
0
0
7.79298e-166
0
0
7.2109e-149
0
0
7.01831e-110
0
2.18876e-245
0
0
0
3.94642e-155
1.0736e-136
3.20469e-118
0
4.92525e-200
0
0
0
5.01961e-226
0
0
1.95173e-126
9.57277e-98
3.58453e-248
1.71194e-140
1.11138e-267
1.17942e-231
0
0
3.69617e-253
0
7.39205e-140
0
0
0
0
7.1741e-214
3.12298e-18
1.11532e-171
0
6.21269e-157
0
2.14198e-127
3.97178e-125
1.84733e-118
0
0
5.68773e-94
1.20355e-167
0
3.58684e-122
0
0
0
0
0
1.56787e-219
0
1.2564e-201
0
1.43692e-121
5.78322e-121
3.8654e-62
1.82767e-275
1.58406e-51
0
6.62304e-272
1.12555e-125
0
1.12597e-183
5.72461e-281
0
0
0
2.74478e-276
0
2.57714e-103
2.76266e-70
1.7046e-15
0
0
2.93104e-271
0
0
3.80903e-186
2.78198e-273
2.4331e-251
9.25776e-260
7.03474e-245
5.04332e-39
8.17894e-116
0
0
2.06668e-217
1.43656e-53
1.6589e-88
1.01476e-75
0
3.99057e-257
0
0
3.62999e-248
6.57091e-287
0
0
0
1.11091e-222
0
0
0
1.72727e-213
2.29986e-40
8.109e-265
0
0
3.92337e-161
0
1.74413e-32
2.38771e-112
1.18582e-166
0
7.83841e-254
0
0
0
7.34806e-145
5.58769e-257
7.0909e-77
0
7.27346e-219
0
0
1.62999e-125
0
0
1.45109e-219
0
0
1.31547e-200
4.41841e-122
5.87892e-138
6.8476e-228
2.94905e-207
0
0
5.61899e-56
4.47633e-39
0
5.33993e-263
0
0
3.52438e-230
0
0
3.24946e-44
0
0
7.28963e-11
5.24326e-90
2.24163e-199
8.83515e-112
9.69542e-158
0
0
1.84243e-187
0
1.43448e-22
1.48593e-288
6.98304e-29
0
0
0
0
0
0
7.21207e-178
0
5.37691e-224
0
8.27894e-44
2.91024e-154
7.70453e-100
1.73303e-146
1.32251e-86
7.27909e-152
0
4.03209e-155
4.86004e-189
2.62426e-130
1.32517e-73
0
0
8.88023e-92
2.48278e-79
9.00939e-149
3.77613e-111
0
1.7674e-197
5.17295e-88
1.00115e-113
0
7.96388e-213
3.34195e-33
7.1184e-96
0
0
0
4.63795e-69
0
2.54354e-95
2.27794e-55
0
0
0
0
0
1.82833e-136
8.06247e-100
1.39258e-37
0
6.34401e-134
4.06616e-76
1.09943e-254
6.21287e-238
0
0
2.27794e-186
0
8.31269e-249
5.89116e-182
0
6.6135e-29
0
0
7.60453e-189
0
0
0
0
1.23729e-47
0
1.9791e-176
0
4.50811e-124
0
2.46021e-186
0
7.11761e-71
0
0
7.62714e-171
4.12059e-161
0
3.04393e-130
0
2.7096e-163
0
0
0
3.28967e-136
1.66312e-249
3.16793e-250
0
4.83758e-83
0
9.5801e-93
0
0
0
0
0
0
0
0
0
0
0
0
5.53255e-25
1.13551e-122
0
5.50532e-135
0
0
8.16352e-98
0
0
3.59983e-107
0
270887
0
4.64982e-226
2.611e-67
1.24657e-17
1.85597e-185
2.93654e-146
0
0
3.09266e-104
0
0
0
9.71756e-224
0
0
0
0
0
1.38829e-28
6.26638e-177
2.61537e-101
2264.42
4.88693e-51
9.58915e-27
0
3.90856e-155
7.02411e-205
1.11415e-212
3.83262e-25
9.28552e-87
1.21767e-137
8.17466e-23
618.308
1.17892e-47
2.40724e-187
0
0
2.90351e-32
1.23616e-09
2.8389e-72
0
5.59528e-07
0
1.92303e-215
9.56834e-255
0
2.20904e-38
3.22264e-188
9.58238e-135
0
0
2.4402e-189
0
0
0
1.09215e-08
3.18337e-07
3.71536e-138
0.0364259
2.04857e-07
0
3.38807e-215
1.14868e-09
2.69701e-123
1.7315e-190
1.06575e-182
0
1.19792e-257
2.76544e-202
3.871e-278
7.00302e-10
2.346e-135
0.00300383
0
1.25135e-158
0
0
3.04832e-263
9.82608e-255
0
0
4.53921e-235
0
3.08229e-12
0
0
1.25945e-07
5.97785e-48
6.12202e-45
0
0
2.43582e-05
0
0
0
1.08067e-64
1.53839e-44
2.86052e-110
0
0
0
0
1.47125e-12
0
1.6586e-27
7.17003e-05
3.70444e-221
1.14905e-174
6.89608e-08
0
0
3.16684e-06
0
1.06403e-62
1.40512e-262
0.000258855
0
9.12363e-13
1.99172e-63
2.38068e-285
4.31231e-140
2.43644e-176
0
0
1.04093e-65
0
8.68363e-32
0
3.92916e-64
1.1904e-48
2.62497e-22
6.20339e-65
0
0
4.58904e-116
0.000127198
2.23521e-50
0
1.76817e-63
3.2708e-141
3.63132e-143
4.62933e-191
2.33143e-61
0
0
1.72173e-175
8.76141e-135
0
1.76741e-169
0
0
5.59112e-148
0
0
1.29275e-187
1.23583e-253
0
0
0
1.49213e-145
0
0
1.09577e-195
0
3.83373e-185
2.73936e-142
1.0562e-15
0
0
1.02784e-74
0
5.73727e-210
0
0
0
2.75987e-31
3.36152e-155
0
3.611e-213
3.85583e-238
1.33054e-251
2.74639e-32
2.86285e-182
8.74646e-243
0
3.43933e-268
3.13157e-200
8.16817e-196
0
0
0
0
1.22495e-169
0
1.08081e-248
0
0
0
6.07367e-240
1.88288e-115
5.34746e-183
2.20178e-34
3.981e-84
0
3.73585e-147
7.96008e-142
0
0
0
1.36562e-292
0
3.28921e-262
2.54215e-192
0
0
0
1.50637e-112
0
7.37301e-71
9.22541e-30
0
7.07436e-205
0
0
0
4.32498e-102
2.89453e-71
0
0
0
1.36144e-266
1.05082e-260
0
0
0
0
0
1.89744e-231
0
1.55297e-136
0
2.27109e-247
1.05685e-206
2.20356e-197
0
2.89457e-178
9.36066e-52
0
0
9.68134e-163
2.00971e-165
6.78409e-56
1.83746e-203
0
0
0
0
3.16499e-180
0
0
0
0
0
4.0758e-176
6.17741e-10
0
2.67614e-106
3.18973e-51
0
0.000131804
1.07944e-245
0.00297343
2.06937e-60
4.64447e-05
0
6.74906e-152
0
5.73568e-173
0
0
0
6.75285e-08
3.19425e-193
2.15715e-134
1.34825e-223
0
2.98637e-258
5.89336e-131
2.22508e-14
0
0
3.54323e-147
0
0
0
5.25934e-16
0.678614
1.12544e-55
2.79445e-171
0
5.12416e-34
2.02088e-207
0
0
7.25289e-137
0
3.51309e-248
0
0
0
0
0
0
3.04969e-21
0
0
2.04417e-11
0
0
0
3.00288e-280
0
8.60456e-241
3.13356e-196
0
0
9.82078e-189
0
0
0
0
0
0
0
0
1.11711e-208
0
1.4579e-285
0
0
0
3.90435e-28
8.2324e-43
1.32249e-282
0
3.74241e-292
4.89549e-290
5.33877e-78
4.91894e-199
0
0
4.30047e-289
3.22931e-237
4.98698e-286
0
0
0
0
3.95566e-283
3.15486e-240
1.89673e-53
0
1.30663e-55
1.63199e-48
0
9.40166e-249
0
2.4786e-50
5.05737e-241
0
0
2.94991e-213
1.05363e-247
0
3.56844e-293
0
1.6213e-205
0
0
3.05111e-84
0
0
3.82522e-228
0
6.93087e-293
6.49875e-267
2.00373e-260
0
2.65211e-142
1.91644e-43
2.58641e-248
1.51688e-41
7.70633e-189
8.10831e-209
1.37776e-37
1.52618e-35
6.45958e-187
2.61535e-154
0
6.19589e-184
0
0
1.27005e-159
7.20446e-259
1.85607e-39
3.94934e-226
2.27677e-37
0
0
1.97621e-237
4.97454e-49
7.67409e-48
2.12489e-53
0
0
0
0
0
0
2.2479e-275
0
0
9.47299e-220
2.06723e-44
2.49092e-240
0
0
1.46274e-257
0
9.28301e-259
1.89158e-265
4.92049e-128
5.37243e-61
3.05974e-158
2.02933e-187
1.38322e-162
0
0
0
1.04451e-184
0
1.60062e-181
0
0
0
6.31794e-171
2.34081e-93
1.35377e-233
5.90652e-68
0
0
9.89505e-46
0
2.4345e-43
0
1.81839e-137
5.42164e-97
0
0
8.85738e-141
0
0
5.14864e-236
0
2.21724e-43
0
8.9784e-124
0
0
6.61642e-34
4.89037e-09
4.31839e-241
0
0
0
9.56438e-171
0
3.18224e-151
1.49084e-233
0
7.35845e-29
4.68667e-114
0
3.6963e-142
9.92578e-145
1.37655e-240
3.89586e-161
5.56388e-150
0
1.62825e-59
0
4.09963e-112
0
2.05614e-50
0
4.95411e-176
1.4547e-153
0
0
0
0
0
7.54445e-157
6.08318e-138
1.59067e-224
4.05224e-60
9.27965e-56
1.39733e-255
0
3.66359e-49
0
0
1.16925e-171
4.31251e-179
2.24628e-175
1.43682e-241
1.20667e-156
4.54199e-148
1.59386e-284
0
0
1.08757e-130
3.91402e-253
1.18417e-148
6.53675e-222
1.75891e-175
0
3.11916e-137
0
5.10637e-131
7.04319e-72
0
0
0
0
0
0
7.41733e-164
2.42862e-24
0
1.7874e-96
0
0
0
0
7.73283e-270
0
5.26024e-230
0
0
0
7.47648e-101
0
1.09953e-113
2.15935e-183
4.1642e-132
0
0
0
0
0
1.28585e-117
2.68121e-175
0
9.91393e-164
0
0
0
0
0
4.71366e-114
1.45942e-285
0
6.96447e-270
0
4.92309e-236
0
0
0
0
0
0
9.64901e-56
0
0
1.91395e-115
0
2.29153e-173
0
0
1.6176e-218
1.56478e-219
1.03901e-233
1.37766e-57
0
0
1.28146e-44
1.21826e-48
0
4.81403e-58
2.54873e-222
0
0
0
8.01914e-181
4.43491e-113
0
5.3462e-56
0
8.1633e-172
0
8.2832e-47
1.21641e-62
9.80573e-245
0
1.75831e-54
7.94935e-122
1.89986e-116
0
0
2.08903e-159
0
0
1.97785e-119
0
8.43563e-182
0
0
3.935e-199
0
0
8.25173e-185
0
6.60805e-77
3.65982e-146
1.64e-108
0
1.56071e-145
7.70875e-72
5.63658e-79
0
1.57092e-154
0
1.71484e-68
0
4.42809e-146
1.52522e-66
5.46821e-59
0
8.28664e-68
1.07309e-72
1.24529e-270
0
0
0
0
1.03027e-170
6.49125e-172
0
7.67704e-190
3.51864e-209
0
0
0
0
3.69556e-208
0
2.94295e-189
0
0
1.51402e-252
0
0
6.04344e-191
0
6.97603e-237
1.68718e-239
0
0
4.04775e-127
4.9043e-111
0
6.30984e-180
0
6.05535e-194
8.57345e-137
3.82793e-212
0
0
0
0
0
1.11122e-127
1.15025e-124
0
0
0
6.51365e-165
7.62344e-86
0
2.79064e-158
9.16544e-80
0
1.83835e-30
1.66403e-83
0
0
0
0
0
1.95826e-82
2.84768e-187
1.05658e-64
0
0
1.86223e-57
1.8682e-266
1.7318e-246
1.15383e-39
9.31733e-22
0
0
0
0
0
0
0
4.3943e-147
0
8.54971e-129
3.78373e-234
6.61647e-87
0
0
0
0
2.3064e-170
8.48443e-166
8.53053e-95
8.61873e-230
4.13193e-145
1.97693e-132
0
6.57333e-180
1.98165e-94
0
2.97326e-61
0
0
1.37647e-162
1.5955e-122
2.87393e-82
0
1.84308e-151
0
0
0
0
3.60933e-126
0
2.29484e-152
0
5.7192e-170
0
0
3.36254e-190
0
0
0
9.90722e-118
2.72987e-149
0
1.03603e-228
0
5.16341e-230
2.26355e-101
3.05809e-171
0
0
0
5.58905e-287
0
3.80683e-268
0
3.51166e-227
0
0
3.33841e-231
0
0
0
3.22769e-194
4.31281e-228
0
0
3.70373e-131
0
1.53467e-250
0
8.77308e-108
0
0
0
0
0
0
8.21355e-278
0
0
1.75577e-64
0
0
0
0
0
2.65434e-124
6.33968e-122
0
0
0
0
1.95139e-115
8.27563e-120
4.14274e-267
1.00944e-173
0
0
8.58779e-270
0
1.87872e-158
2.24427e-181
0
0
3.52081e-117
3.56266e-81
2.43346e-146
0
2.82484e-176
0
0
0
3.45017e-79
0
0
0
1.02687e-273
0
2.72951e-167
0
7.54559e-271
0
0
0
0
4.58801e-275
0