/*--------------------------------*- C++ -*----------------------------------*\
| =========                 |                                                 |
| \\      /  F ield         | OpenFOAM: The Open Source CFD Toolbox           |
|  \\    /   O peration     | Version:  v2012                                 |
|   \\  /    A nd           | Website:  www.openfoam.com                      |
|    \\/     M anipulation  |                                                 |
\*---------------------------------------------------------------------------*/
FoamFile
{
    version     2.0;
    format      ascii;
    class       volScalarField;
    location    "1";
    object      qr;
}
// * * * * * * * * * * * * * * * * * * * * * * * * * * * * * * * * * * * * * //

dimensions      [1 0 -3 0 0 0 0];


internalField   uniform 0;

boundaryField
{
    fire_inlet
    {
        type            calculated;
        value           nonuniform List<scalar> 
41
(
0.0569983
0.0653664
0.0614181
0.0705313
0.0602538
0.0689962
0.0656601
0.0601017
0.13192
0.0558157
0.0791672
0.0741334
0.0940835
0.0652891
0.0665503
0.0879375
0.0665184
0.078474
0.0861709
0.0773764
0.105365
0.0792499
0.0800319
0.0718261
0.0764597
0.0737094
0.140624
0.0915085
0.0923682
0.0929238
0.0566925
0.101983
0.0566296
0.0621868
0.0830159
0.116965
0.0702413
0.1456
0.0955686
0.147991
0.0920774
)
;
    }
    outlet
    {
        type            calculated;
        value           nonuniform List<scalar> 
400
(
2.22862e-05
6.01839e-05
0.000106025
0.000247699
0.000280861
0.000287037
0.000335343
0.0003786
0.000122789
0.000209499
0.00023718
0.000194227
0.000253102
0.000232754
0.000300996
0.000269735
0.000127178
2.23933e-05
2.51444e-05
2.45767e-05
3.42925e-05
2.95018e-05
5.16483e-05
3.94926e-05
6.29725e-05
5.95913e-05
8.05705e-05
9.09793e-05
6.29756e-05
0.000270395
0.000374996
6.99676e-05
0.000168265
0.000283502
0.000300657
9.69085e-05
0.000386741
6.46773e-05
0.000276818
0.000283856
2.61754e-05
0.000155535
0.000287658
0.000346402
0.000254147
0.000285828
0.000203897
0.000240758
0.000250127
0.000222589
0.000216104
3.77699e-05
0.000234851
0.000204383
9.69698e-05
8.04902e-05
7.88603e-05
0.000186552
0.000155754
0.000227466
0.000160448
0.000157268
6.14149e-05
5.68708e-05
7.57272e-05
6.71576e-05
9.11404e-05
6.11368e-05
0.00012492
0.000338262
0.000288971
0.000352927
0.000301325
0.000320402
7.80892e-05
4.55268e-05
6.64163e-05
0.000188393
0.00021575
0.000148788
0.000204332
0.000151472
0.000149407
7.26706e-05
8.79741e-05
0.000101504
9.41076e-05
8.49421e-05
0.000134554
0.00020273
0.00029308
0.000201792
0.000102268
0.000145888
0.000222286
0.000206328
0.000153711
0.000127042
0.00016175
0.000162049
-7.44207e-06
-8.24189e-06
-5.4878e-06
-1.11751e-05
-8.65576e-06
-7.7888e-06
-6.35696e-06
-1.21907e-05
-8.64272e-06
-7.75588e-06
-6.04103e-06
-6.16286e-06
-6.27703e-06
-5.17176e-06
-6.29439e-06
-4.73975e-06
-6.26489e-06
-5.85818e-06
-7.72835e-06
-6.65377e-06
-6.54788e-06
-5.16425e-06
-7.73134e-06
-5.2341e-06
-5.5934e-06
-4.408e-06
-5.94779e-06
-4.28745e-06
-4.57513e-06
-7.06093e-06
-4.77771e-06
-6.54688e-06
-7.55953e-06
-6.39383e-06
-8.32567e-06
-6.20708e-06
-7.49732e-06
-4.38172e-06
-7.7138e-06
-5.53416e-06
-7.24743e-06
-5.4625e-06
-5.2133e-06
-5.04356e-06
-6.18719e-06
-4.31058e-06
-4.67441e-06
-6.26457e-06
-4.92465e-06
-4.97418e-06
-4.4336e-06
-4.62019e-06
-3.3731e-06
-4.56778e-06
-4.00073e-06
-4.38431e-06
-3.17858e-06
-4.16387e-06
-4.13853e-06
-4.62741e-06
-3.3789e-06
-3.40636e-06
-3.08143e-06
-3.60545e-06
-3.2492e-06
-4.89381e-06
-4.32231e-06
-4.52721e-06
-3.18289e-06
-8.2788e-06
-3.99631e-06
-4.19451e-06
-4.01141e-06
-4.61194e-06
-4.4917e-06
-3.59082e-06
-3.86057e-06
-2.88519e-06
-2.89535e-06
-3.45718e-06
-3.70635e-06
-3.53381e-06
-5.59492e-06
-3.29798e-06
-3.12332e-06
-3.04233e-06
-2.83247e-06
-3.85709e-06
-3.541e-06
-3.10763e-06
-3.20245e-06
-4.14946e-06
-2.53949e-06
-3.81652e-06
-3.53284e-06
-2.89442e-06
-3.45491e-06
-3.83591e-06
-2.57703e-06
-3.68477e-06
-3.09056e-06
-4.35328e-06
-3.02735e-06
-3.49615e-06
-3.47461e-06
-2.4147e-06
-2.52274e-06
-3.13693e-06
-3.65196e-06
-3.22414e-06
-4.45528e-06
-3.467e-06
-3.41605e-06
-3.6767e-06
-3.43538e-06
-3.64992e-06
-3.59584e-06
-3.80561e-06
-3.84715e-06
-3.93029e-06
-4.27574e-06
-4.22689e-06
-6.24582e-06
-1.11235e-05
-9.6703e-06
-7.98863e-06
-9.53078e-06
-8.19211e-06
-8.81178e-06
-7.68779e-06
-9.90543e-06
-7.53646e-06
-8.58311e-06
-8.06417e-06
-9.06691e-06
-7.14494e-06
-9.40444e-06
-7.63179e-06
-9.43825e-06
-7.06268e-06
-1.07774e-05
-1.21956e-05
-8.05842e-06
-1.26091e-05
-9.55961e-06
-9.98732e-06
-8.75292e-06
-9.95218e-06
-7.43013e-06
-8.87935e-06
-6.03649e-06
-7.27813e-06
-7.07966e-06
-7.71818e-06
-9.10662e-06
-8.96116e-06
-5.7157e-06
-7.04481e-06
-8.67637e-06
-1.00156e-05
-8.23318e-06
-8.38823e-06
-7.24445e-06
-5.30785e-06
-6.50554e-06
-8.11031e-06
-7.37497e-06
-7.5063e-06
-4.11742e-06
-6.44033e-06
-6.76318e-06
-6.90063e-06
-6.81077e-06
-7.49783e-06
-6.88564e-06
-7.5689e-06
-6.04329e-06
-5.4426e-06
-4.89197e-06
-5.32872e-06
-5.2111e-06
-5.24263e-06
-5.56883e-06
-6.16738e-06
-6.01915e-06
-8.04889e-06
-4.48232e-06
-7.26989e-06
-6.69456e-06
-6.21136e-06
-6.30702e-06
-6.23458e-06
-6.97765e-06
-6.4096e-06
-6.73618e-06
-6.56515e-06
-5.63362e-06
-5.31447e-06
-5.93531e-06
-5.65245e-06
-8.46878e-06
-5.65114e-06
-6.34572e-06
-6.80856e-06
-8.0106e-06
-5.82769e-06
-6.59008e-06
-6.29302e-06
-6.19341e-06
-6.536e-06
-5.46062e-06
-6.18108e-06
-5.95565e-06
-5.55055e-06
-7.99689e-06
-5.86654e-06
-4.82178e-06
-6.94461e-06
-7.17726e-06
-5.15906e-06
-6.56461e-06
-7.27426e-06
-5.41944e-06
-6.199e-06
-5.37371e-06
-5.6566e-06
-4.99552e-06
-6.04402e-06
-5.51355e-06
-5.48772e-06
-5.79716e-06
-5.87992e-06
-6.09837e-06
-5.64393e-06
-5.73173e-06
-6.24348e-06
-5.02128e-06
-5.85686e-06
-6.11512e-06
-5.23571e-06
-5.8603e-06
-5.75019e-06
-6.05314e-06
-6.04284e-06
-6.30751e-06
-5.75708e-06
-5.18751e-06
-5.47787e-06
-5.37391e-06
-5.21141e-06
-5.04653e-06
-5.55453e-06
-5.49952e-06
-5.1895e-06
-5.81931e-06
-5.82093e-06
-6.12031e-06
-5.34448e-06
-6.2426e-06
-5.10194e-06
-5.49001e-06
-5.16214e-06
-5.39232e-06
-5.36568e-06
-5.73904e-06
-5.13627e-06
-5.07887e-06
-5.86091e-06
-5.7867e-06
-5.66798e-06
-5.84296e-06
-5.94579e-06
-5.45314e-06
-5.38955e-06
-5.87423e-06
-5.26958e-06
-5.7105e-06
-5.76515e-06
-4.95589e-06
-5.05736e-06
-5.31013e-06
-4.97519e-06
-5.28093e-06
-5.07863e-06
-5.92559e-06
-6.01993e-06
-4.78008e-06
-5.01919e-06
-5.4972e-06
-5.98273e-06
-5.72942e-06
-4.75661e-06
-5.68903e-06
-5.04767e-06
-5.65719e-06
-4.91535e-06
-5.67601e-06
-5.5452e-06
-5.65712e-06
-5.96336e-06
)
;
    }
    base
    {
        type            calculated;
        value           nonuniform List<scalar> 
14237
(
0.00374492
0.00375523
0.00333877
0.00226065
0.00329045
0.0035521
0.00350343
0.00313705
0.00074757
0.000569778
0.000346864
0.00219305
0.00244587
0.00302861
0.00278491
0.00305579
0.00291588
0.00165747
0.00155659
0.00112219
0.00091207
0.000682355
0.000566294
0.00048467
0.00041713
0.000422128
0.000370326
0.00245987
0.00221037
0.0027188
0.00283642
0.00320522
0.000974498
0.00076983
0.000602927
0.000469277
0.000386862
0.00299901
0.000369194
0.00153838
0.00115777
0.000974961
0.000426377
0.00295445
0.000338384
0.000341315
0.000369258
0.000894922
0.00107112
0.00154616
0.000334048
0.00249314
0.00157733
0.00169672
0.00233417
0.00117347
0.00168438
0.00225434
0.000658178
0.00084859
0.00100465
0.00107455
0.00116706
0.00078012
0.000835759
0.000849958
0.00094189
0.00108528
0.00105325
0.00077468
0.000756728
-2.86149e-07
-3.15668e-07
-3.34401e-07
-3.48612e-07
-3.54397e-07
-3.61304e-07
-3.74538e-07
-3.85682e-07
-3.93306e-07
-4.09434e-07
-3.85875e-07
-4.11644e-07
-3.86124e-07
-4.10946e-07
-3.83893e-07
-4.02114e-07
-3.71442e-07
-3.9294e-07
-3.736e-07
-3.89068e-07
-3.38606e-07
-3.79576e-07
-3.00649e-07
-3.23698e-07
-3.20765e-07
-3.40885e-07
-2.67034e-07
-2.84422e-07
-2.17614e-07
-2.57195e-07
-1.9003e-07
-2.09529e-07
-1.80147e-07
-2.07583e-07
-1.22269e-07
-1.60194e-07
-9.50553e-08
-1.30077e-07
-5.06267e-08
-9.95623e-08
9.86691e-09
-2.58341e-08
5.29724e-08
8.73514e-09
8.84369e-08
8.15328e-08
1.48598e-07
1.394e-07
2.28435e-07
2.00545e-07
3.12442e-07
2.73347e-07
3.73173e-07
3.63632e-07
4.75569e-07
4.44959e-07
5.65051e-07
5.41224e-07
6.45658e-07
6.21272e-07
6.89397e-07
7.03888e-07
9.24098e-07
8.66695e-07
2.58171e-06
2.44388e-06
1.84247e-06
1.27205e-06
1.1498e-06
9.26861e-07
7.22426e-07
6.02458e-07
5.41059e-07
2.11242e-07
2.02224e-07
2.13875e-07
2.69049e-07
4.16123e-07
5.73538e-07
7.53926e-07
9.33156e-07
1.08154e-06
1.42253e-06
1.5818e-06
2.40992e-06
2.86521e-07
3.34593e-07
2.93657e-07
4.48512e-07
3.46255e-07
5.03365e-07
4.63472e-07
5.74382e-07
5.3812e-07
6.07762e-07
6.05941e-07
6.57714e-07
6.50088e-07
6.89189e-07
7.09956e-07
7.2512e-07
7.34102e-07
7.27879e-07
7.26458e-07
6.94759e-07
7.50165e-07
5.71259e-07
6.91093e-07
4.83192e-07
5.27588e-07
6.3275e-07
5.3817e-07
6.03966e-07
6.26634e-07
6.83112e-07
7.62412e-07
7.40461e-07
9.07315e-07
9.13562e-07
9.99565e-07
1.10065e-06
1.15361e-06
1.11053e-06
1.20349e-06
1.28078e-06
1.33903e-06
1.3545e-06
1.37372e-06
1.36701e-06
1.40859e-06
1.45745e-06
1.44795e-06
1.60515e-06
1.50244e-06
1.57844e-06
1.59756e-06
1.68631e-06
1.59776e-06
1.73808e-06
1.64014e-06
1.80092e-06
1.65516e-06
1.77726e-06
1.71072e-06
1.73337e-06
2.00152e-06
2.08994e-06
2.72094e-06
2.67696e-06
3.68809e-06
3.62381e-06
5.19326e-06
4.30175e-06
7.38592e-06
6.03836e-06
9.60721e-06
9.62811e-06
1.27207e-05
4.50406e-07
5.46735e-07
8.40173e-07
1.41614e-06
2.39721e-06
4.47571e-06
8.07895e-06
1.36548e-05
2.31916e-05
2.96771e-05
3.73765e-05
0.000138203
0.000246657
0.000301251
0.000262456
0.00015367
8.00897e-05
4.11373e-05
2.48203e-05
1.80921e-05
4.93407e-07
-2.76206e-07
-2.59901e-07
-1.53543e-07
-1.38477e-07
-4.18752e-08
-8.19837e-09
7.25591e-08
1.93315e-07
2.78237e-07
3.34972e-07
3.94376e-07
4.61725e-07
4.62992e-07
-3.20761e-07
9.27358e-07
5.03431e-06
5.22298e-06
2.65949e-06
1.62094e-06
1.13572e-06
1.06437e-06
9.31888e-07
6.52776e-07
5.18619e-07
2.15732e-07
2.13715e-07
1.98872e-07
2.25413e-07
2.1014e-07
3.49829e-07
4.75976e-07
6.56315e-07
8.46629e-07
1.02256e-06
1.12939e-06
1.43302e-06
1.7286e-06
1.31547e-05
1.46913e-06
1.78047e-06
5.77469e-07
5.58555e-07
6.68656e-07
6.91524e-07
1.12189e-06
1.90276e-06
3.16505e-06
5.69112e-06
1.04647e-05
1.87396e-05
2.66078e-05
3.07965e-05
7.0852e-05
0.000202643
0.000286357
0.000285048
0.000214912
0.00010976
5.40885e-05
3.14712e-05
1.99021e-05
1.57352e-05
-2.42964e-07
-2.15237e-07
-1.40059e-07
-1.15003e-07
-8.92862e-09
-3.2057e-09
1.37321e-07
2.36389e-07
2.54618e-07
3.69751e-07
4.08368e-07
-3.01854e-07
4.17934e-06
2.94789e-06
1.61648e-06
1.37247e-06
9.97071e-07
7.54809e-07
6.49856e-07
9.4478e-07
2.33989e-07
3.41127e-07
4.78038e-07
6.42302e-07
9.03291e-07
1.1295e-06
1.28742e-06
1.56431e-06
1.79899e-06
3.23817e-06
2.44719e-07
4.70096e-06
8.83249e-06
1.49817e-05
2.41188e-05
3.16397e-05
5.47924e-05
0.000175025
0.000281101
0.000324494
0.000231958
0.000125321
6.29321e-05
3.38208e-05
2.12032e-05
1.53108e-05
-1.59941e-07
-1.14676e-07
-1.0064e-07
-3.30805e-08
1.83691e-08
1.31501e-07
2.31372e-07
2.78151e-07
3.70594e-07
4.13173e-07
6.03059e-06
6.01033e-06
3.51989e-06
2.0014e-06
1.80462e-06
1.12937e-06
8.56654e-07
6.67242e-07
6.84776e-07
5.36297e-07
7.8816e-07
1.00823e-06
1.22719e-06
1.38726e-06
1.68307e-06
2.49249e-06
2.0058e-05
2.86073e-05
3.28093e-05
0.000104201
0.000255943
0.000333709
0.000282653
0.000177184
8.70097e-05
4.35476e-05
2.60432e-05
1.75097e-05
1.40435e-05
-2.63734e-07
-1.66358e-07
-1.06257e-07
-4.96315e-08
1.58215e-08
3.62609e-08
1.84073e-07
2.59677e-07
3.15868e-07
3.99898e-07
4.64059e-06
4.13799e-07
2.59665e-07
2.56017e-06
9.21826e-07
1.10594e-05
1.22778e-06
3.48016e-06
-2.83112e-07
1.34575e-05
9.0126e-07
-3.59085e-07
-4.0588e-07
-3.78345e-07
-4.2884e-07
-4.23929e-07
-4.31416e-07
-4.38298e-07
-4.20117e-07
-4.36285e-07
-4.14165e-07
-4.36399e-07
-3.89458e-07
-4.28909e-07
-3.90442e-07
-3.95581e-07
-3.64051e-07
-3.73566e-07
2.79665e-07
2.85321e-07
2.76677e-07
-2.73656e-07
-2.10608e-07
-2.59723e-07
-1.6881e-07
-2.1242e-07
-8.67472e-08
-1.23864e-07
-5.66303e-08
-5.82152e-08
-6.02773e-08
-7.81395e-08
-1.55123e-08
-1.39642e-08
2.05829e-08
1.00572e-08
1.84036e-08
3.01938e-09
9.18261e-08
4.87339e-08
1.71315e-07
1.19278e-07
2.5944e-07
1.86653e-07
3.56876e-07
3.0403e-07
4.66588e-07
4.05145e-07
5.70253e-07
5.18058e-07
6.40713e-07
6.20933e-07
7.66335e-07
7.0188e-07
8.50721e-07
8.67113e-07
7.73013e-07
5.2159e-07
6.84439e-06
1.37013e-05
5.39108e-06
6.8358e-06
2.63768e-06
3.8924e-06
3.06469e-06
1.9322e-06
2.26275e-06
1.14979e-06
8.57061e-07
9.67069e-07
1.00644e-06
6.45463e-07
4.02511e-06
3.94761e-07
5.41063e-07
2.8481e-07
2.75563e-07
2.92185e-07
2.03546e-06
5.63903e-07
5.91264e-07
7.01935e-07
3.21614e-07
3.68999e-07
4.22242e-07
9.01001e-07
1.16728e-06
1.39213e-06
1.75863e-06
1.92173e-06
2.29437e-06
3.11725e-06
1.83727e-05
-2.69799e-07
1.36713e-06
3.48062e-07
5.26804e-07
3.92525e-07
5.58716e-07
5.39927e-07
6.07152e-07
5.90213e-07
6.98209e-07
7.26191e-07
7.33914e-07
7.58637e-07
7.67679e-07
8.09555e-07
7.72298e-07
7.51808e-07
7.75523e-07
8.20474e-07
6.34762e-07
8.2685e-07
5.99306e-07
7.02547e-07
7.23951e-07
8.60611e-07
6.73138e-07
7.24543e-07
8.30754e-07
7.90976e-07
9.39964e-07
9.10143e-07
1.09011e-06
1.03091e-06
1.16424e-06
1.12216e-06
1.30665e-06
1.2465e-06
1.3794e-06
1.5071e-06
1.37163e-06
1.4188e-06
1.64839e-06
1.66258e-06
1.64917e-06
1.76326e-06
1.70981e-06
1.8532e-06
1.66697e-06
1.7007e-06
1.70169e-06
1.76527e-06
1.81756e-06
1.82472e-06
1.68154e-06
1.76996e-06
1.80483e-06
2.01253e-06
1.93627e-06
2.05057e-06
2.89329e-06
2.68434e-06
3.76148e-06
3.50243e-06
4.25123e-06
4.36352e-06
6.58198e-06
5.10696e-06
1.02035e-05
1.33511e-05
9.1619e-06
1.08731e-05
6.93102e-07
7.50932e-07
2.95515e-06
2.21213e-06
3.07936e-06
1.66296e-06
1.81076e-06
5.9017e-07
7.24993e-06
7.97267e-06
1.76808e-05
1.45955e-05
1.54275e-05
1.1285e-06
9.47727e-07
1.19241e-06
2.82312e-05
3.30643e-05
0.000114447
0.000264273
0.000317119
0.000293335
0.000171714
7.8262e-05
3.87648e-05
2.31075e-05
1.40582e-05
1.41394e-05
1.39284e-05
1.33646e-05
-3.33225e-07
-1.86524e-07
-1.71591e-07
-5.38924e-08
-2.99086e-08
5.08021e-08
2.08687e-07
2.47593e-07
3.39514e-07
4.26495e-07
2.32881e-05
2.78671e-05
5.60445e-06
5.34369e-06
4.37966e-07
-3.11917e-07
1.06759e-05
2.50897e-05
-3.45226e-07
-3.49332e-07
-3.14109e-07
2.98808e-07
-3.49759e-07
4.80244e-07
9.79967e-07
4.63185e-07
5.61229e-07
-3.56384e-07
-2.81556e-07
1.31139e-05
1.08297e-05
4.18999e-06
3.04814e-06
1.65227e-06
1.23461e-06
1.52757e-06
1.45637e-06
1.10404e-06
9.08949e-07
1.16317e-06
1.38402e-06
9.89837e-07
1.32605e-06
7.89068e-07
1.05632e-06
7.79719e-07
1.53005e-06
2.03631e-06
2.11037e-06
2.57498e-06
3.55184e-06
-3.38422e-07
4.07974e-06
-3.12979e-07
2.72414e-05
1.20821e-05
2.30362e-05
2.91262e-05
4.5398e-05
0.000181529
0.000307907
0.000329945
0.000235275
0.000128393
5.88734e-05
2.988e-05
1.82605e-05
1.99818e-05
-2.28823e-07
2.64161e-06
-1.54936e-07
-1.75306e-07
-1.66537e-07
-2.1658e-08
-4.1029e-08
1.37583e-07
2.3375e-07
2.99977e-07
3.99614e-07
4.36806e-05
8.04122e-05
9.58414e-06
0.000195466
4.45204e-07
3.24734e-07
2.74075e-07
1.82695e-07
1.1448e-09
-3.18066e-08
1.52364e-05
2.43805e-05
4.82535e-07
3.83346e-07
2.63264e-07
2.33103e-07
9.50043e-08
-2.3771e-08
-1.49136e-07
1.76542e-05
2.94506e-05
6.42757e-05
0.000133253
0.000234223
0.000316608
0.000272166
3.35123e-07
-2.19758e-07
3.42495e-06
2.7927e-06
2.21299e-06
-3.17796e-07
1.89704e-06
-2.68764e-07
1.59942e-06
2.29335e-06
1.73302e-06
0.000301879
7.20578e-06
3.00497e-06
1.18525e-06
9.69459e-07
9.76704e-07
1.78297e-06
2.31674e-06
0.000322265
0.000206181
6.66187e-05
2.79213e-05
2.49824e-05
2.65365e-05
3.67643e-05
0.000161643
-1.91802e-07
-8.82753e-08
-1.41993e-07
-3.78465e-08
4.13016e-07
-3.68117e-07
-4.05442e-07
-3.47699e-07
-4.15636e-07
-3.96682e-07
-4.21074e-07
-3.96776e-07
-4.35858e-07
-4.03154e-07
-3.94469e-07
-4.07619e-07
-3.7751e-07
-3.60975e-07
-3.91539e-07
2.23253e-06
3.42225e-06
2.00884e-06
2.20523e-06
-2.0216e-07
-1.74376e-07
-2.26544e-07
-8.13013e-08
-1.29651e-07
-2.05781e-08
-6.97802e-08
-1.23233e-08
-2.77925e-08
-1.8299e-08
1.64169e-08
3.46663e-08
3.0728e-08
8.17822e-08
7.4039e-08
1.43917e-07
1.19025e-07
2.35844e-07
2.15969e-07
3.34278e-07
3.12253e-07
4.05708e-07
3.68343e-07
4.88091e-07
4.37603e-07
5.89033e-07
5.59814e-07
6.81689e-07
6.20069e-07
4.11451e-05
3.45227e-05
7.29345e-06
6.46017e-06
0.000288156
-1.6307e-07
2.53987e-06
-3.10448e-07
1.28625e-06
1.33568e-06
1.25478e-06
1.40139e-06
1.75393e-06
4.48107e-06
4.30014e-06
1.09976e-06
1.25655e-06
9.90011e-07
1.15321e-06
3.0587e-06
0.000302828
2.70787e-06
3.12741e-06
2.54149e-06
3.75798e-06
2.11749e-06
2.53734e-05
-2.82739e-07
-2.64917e-07
-3.11333e-07
5.2265e-07
5.63704e-07
5.80194e-07
7.40866e-07
6.15636e-07
7.77266e-07
8.01389e-07
7.84771e-07
8.52331e-07
7.93079e-07
8.70307e-07
8.67003e-07
8.72138e-07
9.0867e-07
9.61832e-07
8.4685e-07
9.1589e-07
9.86399e-07
3.86338e-05
9.75952e-07
9.59702e-07
1.0307e-06
9.74775e-07
1.15802e-06
1.18356e-06
1.24973e-06
1.33293e-06
1.43766e-06
1.42915e-06
1.60848e-06
1.55225e-06
1.50978e-06
1.58698e-06
1.741e-06
1.80112e-06
1.81613e-06
1.84051e-06
1.84597e-06
2.01396e-06
1.84033e-06
1.8651e-06
1.87754e-06
2.06154e-06
1.96152e-06
2.09684e-06
1.98924e-06
2.15686e-06
1.98363e-06
2.10829e-06
2.07945e-06
2.17698e-06
2.85266e-06
2.81383e-06
3.78939e-06
3.44265e-06
4.4803e-06
4.4107e-06
9.5486e-06
6.93813e-07
1.63787e-06
2.01101e-06
1.34361e-05
7.09725e-06
0.000139687
2.06691e-05
2.26928e-05
2.61002e-05
2.4801e-05
7.41627e-05
0.000100597
0.000266642
0.000278216
6.19598e-06
0.000312259
0.000296108
0.000286042
3.3495e-06
0.00012164
5.27374e-05
5.24553e-07
2.59998e-05
1.66862e-05
1.79828e-05
6.05363e-06
6.76147e-06
-5.9308e-08
8.88216e-06
9.5369e-06
1.46578e-05
-1.17311e-07
-1.16554e-07
-1.01744e-07
-9.1542e-08
-3.2061e-08
2.04027e-08
1.94892e-07
2.69995e-07
3.42708e-07
4.11293e-07
3.66098e-05
3.94766e-05
2.54966e-05
-3.22855e-07
6.08647e-07
4.71683e-06
5.12747e-06
2.75386e-05
6.51523e-05
5.83445e-05
0.00016351
0.000118276
9.05541e-07
6.2764e-05
7.25264e-05
5.81731e-05
1.09269e-06
3.57487e-06
3.71308e-06
5.24251e-06
5.68509e-07
-2.88356e-07
-2.54694e-07
-3.07313e-07
-3.75813e-07
-3.00214e-07
3.23864e-05
2.56121e-05
3.4328e-06
2.23993e-07
2.18936e-07
3.98319e-07
4.05394e-07
7.45781e-05
7.58009e-07
6.8227e-07
8.28118e-06
8.71148e-06
-3.85458e-07
1.00967e-05
1.10708e-05
5.62901e-06
1.38638e-06
1.60684e-06
2.60886e-05
1.96066e-05
1.95496e-05
3.75698e-07
6.02657e-07
3.33834e-07
3.65369e-07
8.92257e-07
9.8873e-07
7.23402e-07
6.41079e-07
8.78725e-07
2.30229e-06
7.32529e-06
2.60635e-06
1.44247e-06
3.29332e-06
2.33898e-06
4.52399e-05
1.41693e-06
5.62814e-06
7.6527e-07
8.76602e-07
1.72604e-06
1.36927e-05
2.48672e-06
2.74844e-06
2.74141e-06
2.73174e-06
-1.76105e-07
3.20357e-05
4.87445e-07
4.66057e-07
5.65154e-07
1.16646e-06
1.06461e-06
1.1394e-06
-1.6888e-07
3.3039e-07
0.000187266
1.31804e-05
4.75373e-07
0.000223661
9.84311e-07
7.41396e-05
5.11276e-07
1.25589e-05
1.42491e-05
1.11946e-05
-4.4403e-08
-1.33565e-07
4.83321e-07
-2.28948e-08
1.22094e-07
2.54751e-07
3.09344e-07
1.02636e-06
6.83626e-05
0.000156629
8.65184e-07
8.19603e-07
3.19996e-07
3.65373e-07
1.55348e-05
3.41887e-06
3.30735e-06
6.2852e-05
-6.73086e-08
0.000223402
0.000186367
0.000225357
8.29453e-05
-6.59092e-08
-3.73726e-08
1.91052e-07
-9.22078e-09
8.78931e-08
3.23852e-07
-1.56453e-07
3.8696e-07
3.99817e-07
-2.84546e-07
-3.15848e-07
-2.68898e-07
-3.45199e-07
-3.02696e-07
-3.90668e-07
-3.50669e-07
-3.83778e-07
3.50941e-06
1.40332e-05
2.35798e-06
3.44989e-07
-1.27807e-07
-3.96647e-08
-5.97798e-08
3.04157e-08
2.49773e-08
3.21336e-09
2.412e-08
5.46604e-08
1.68059e-08
1.00399e-07
1.01057e-07
1.42956e-07
1.03065e-07
2.35442e-07
1.81558e-07
3.41924e-07
2.66073e-07
3.99273e-07
3.94029e-07
4.15493e-07
3.99484e-07
5.57341e-07
4.35977e-07
6.21185e-07
5.61494e-07
4.62023e-05
4.12259e-05
1.27071e-05
1.32486e-05
0.000219422
3.36512e-06
3.52804e-06
6.14417e-05
8.38509e-06
2.05945e-07
1.23396e-05
6.02498e-07
6.88391e-06
1.54791e-06
1.88261e-05
1.35475e-06
1.47167e-06
0.000214914
1.79043e-06
6.13218e-06
6.51032e-06
1.08641e-05
1.19019e-05
2.79793e-06
2.0653e-06
6.12916e-07
3.44493e-06
3.5587e-06
2.06258e-06
6.74331e-07
7.44859e-07
8.68353e-07
8.12772e-07
9.13925e-07
8.91368e-07
8.90716e-07
9.26332e-07
1.01283e-06
9.6179e-07
9.88435e-07
1.03207e-06
1.00166e-06
1.00576e-06
9.90594e-07
1.81506e-06
2.05996e-06
1.06501e-06
1.11585e-06
1.19315e-06
1.19925e-06
1.34309e-06
1.32717e-06
1.51108e-06
1.58668e-06
1.51809e-06
1.59671e-06
1.67406e-06
1.66457e-06
1.83415e-06
1.79611e-06
1.88984e-06
1.96475e-06
2.07098e-06
2.08573e-06
1.91901e-06
2.02407e-06
2.00526e-06
1.99672e-06
2.09695e-06
2.25581e-06
2.0759e-06
2.22698e-06
2.00405e-06
2.24986e-06
2.28137e-06
2.36195e-06
2.59461e-06
2.73458e-06
3.70716e-06
3.56711e-06
1.20289e-06
5.98794e-05
5.13583e-07
1.02866e-06
0.000182186
0.000179894
2.14689e-06
6.27315e-06
7.02555e-06
4.4283e-06
-3.28411e-07
1.64631e-05
1.40518e-05
2.06828e-05
8.77288e-05
0.000104994
1.41878e-05
1.19814e-05
1.04035e-05
7.36712e-06
-7.52337e-08
9.88762e-05
-2.91522e-08
5.65778e-07
4.48392e-05
6.7018e-05
1.7214e-06
2.60044e-06
2.91711e-06
-5.07035e-08
-6.49145e-08
-3.10905e-08
3.3162e-06
3.19691e-06
3.40435e-06
-3.12796e-07
-2.3786e-07
-2.76776e-07
8.64206e-08
1.95596e-07
3.62176e-08
4.66984e-08
2.73034e-07
3.22828e-07
4.54978e-07
1.21369e-06
9.29069e-05
6.31903e-05
3.94518e-06
3.89904e-06
0.000137295
0.000110859
2.09367e-07
2.67444e-07
9.93374e-05
4.64356e-07
5.04707e-07
-3.00801e-07
1.90974e-06
1.58855e-06
1.13913e-08
3.34669e-06
-3.58227e-07
3.60907e-06
3.88344e-06
-7.1414e-08
-7.64508e-08
5.39855e-07
6.93212e-07
6.03648e-07
7.34447e-05
1.03288e-05
0.000230652
0.000225455
4.34549e-05
4.18687e-05
8.35567e-06
6.8782e-07
2.81729e-05
8.0165e-07
1.19351e-06
1.35764e-06
7.61609e-07
9.19638e-07
8.73672e-07
0.000155848
1.9757e-06
1.76948e-06
4.61059e-06
4.20695e-06
6.522e-06
4.15322e-06
5.72388e-07
3.2299e-06
-3.10249e-07
2.92849e-07
9.58879e-05
8.97496e-07
1.24068e-06
1.65123e-06
2.41145e-06
4.68747e-05
6.10451e-07
7.96878e-07
-2.51811e-07
1.85989e-05
3.28633e-05
2.34539e-06
1.98411e-06
1.06799e-06
5.38071e-07
5.33035e-07
6.68442e-07
1.16768e-05
1.04081e-06
1.09416e-06
2.46956e-07
-1.55884e-07
2.23357e-06
2.81152e-05
-1.81827e-07
0.000159673
0.000247198
-1.51487e-07
7.13526e-06
9.43872e-06
8.71674e-06
-1.2376e-07
-2.56617e-07
-1.16214e-07
-8.58179e-08
1.74374e-06
1.53696e-06
1.73641e-06
3.74205e-07
-1.31865e-07
1.2488e-06
1.97859e-05
1.43009e-05
0.000122366
7.79459e-06
4.50014e-07
8.05343e-05
0.000159437
9.29484e-05
3.83031e-07
-1.0003e-07
2.62174e-06
1.80353e-05
2.02674e-07
-2.60586e-07
-2.73259e-07
-2.40748e-07
-2.28363e-07
4.43014e-08
1.66352e-06
8.88177e-05
0.000227278
1.52269e-08
2.62586e-08
1.55953e-08
-2.30165e-09
1.97749e-08
7.3229e-08
2.07509e-08
9.79418e-08
8.79213e-08
1.83656e-07
1.59205e-07
2.60214e-07
2.44988e-07
3.69964e-07
2.93195e-07
3.95977e-07
3.73998e-07
4.32706e-07
4.01118e-07
5.14278e-07
4.64879e-07
7.86983e-05
3.44338e-05
1.5479e-05
6.15691e-07
4.60122e-06
4.54524e-06
1.54389e-05
0.0001296
1.27808e-06
0.000226912
9.68926e-07
9.61026e-07
1.15221e-06
1.27964e-05
0.000261028
7.91273e-07
7.33622e-07
5.65413e-06
3.42619e-06
7.96965e-06
8.55732e-07
9.18666e-07
9.39779e-07
1.03233e-06
1.05672e-06
1.00037e-06
1.0598e-06
9.94509e-07
1.13621e-06
1.02846e-06
1.03925e-06
1.06849e-06
1.17524e-06
1.19007e-06
8.58653e-05
2.37947e-06
2.99339e-05
1.157e-06
1.19529e-06
1.35417e-06
1.32722e-06
1.59424e-06
1.59804e-06
1.78928e-06
1.67827e-06
1.86501e-06
1.89166e-06
1.77507e-06
1.82369e-06
2.03896e-06
1.94898e-06
2.21538e-06
2.23165e-06
2.18244e-06
2.27105e-06
2.17116e-06
2.39487e-06
2.37452e-06
2.3157e-06
2.21061e-06
2.39456e-06
2.24356e-06
2.3503e-06
2.32936e-06
2.35624e-06
3.01922e-06
3.09591e-06
3.82887e-06
3.69243e-06
4.59184e-07
1.02116e-06
1.83552e-06
2.28348e-06
6.08955e-07
8.26676e-07
6.37549e-07
9.69756e-06
4.53229e-06
0.000129512
2.97932e-06
3.76028e-05
7.28007e-07
6.83111e-07
8.19536e-07
-1.43462e-07
-1.97551e-07
3.77285e-06
-7.53865e-08
-8.8375e-09
-1.07555e-07
2.51517e-06
2.6647e-05
3.37848e-05
5.56673e-07
5.87162e-07
3.70265e-06
3.71074e-06
-5.92658e-09
-1.74406e-07
-1.31938e-07
6.13368e-08
1.2521e-07
1.14346e-05
3.67516e-07
4.46069e-07
5.00112e-05
3.95197e-05
2.66065e-06
2.61529e-06
2.90836e-06
-1.31498e-07
-7.91893e-08
-1.71446e-07
6.33907e-06
7.4452e-05
3.01012e-07
3.29465e-07
1.11316e-06
0.000182565
1.32996e-05
1.53761e-05
6.95635e-05
3.56185e-05
5.32478e-05
2.20808e-05
1.57196e-06
6.52952e-08
1.823e-06
3.54435e-06
3.73852e-06
-1.05389e-07
0.000181524
7.93976e-06
1.55414e-06
5.67933e-07
5.02395e-07
0.000179008
0.000234196
1.49859e-05
1.47748e-06
1.61181e-06
4.95734e-06
4.7366e-06
5.15156e-06
1.14104e-05
8.20332e-07
3.90896e-06
3.96109e-06
3.79589e-06
1.06428e-06
9.31193e-07
8.98426e-07
8.21794e-06
4.49445e-05
2.39972e-05
3.25567e-05
5.86694e-06
3.89306e-06
-1.1775e-07
-7.37775e-08
2.2428e-07
2.90807e-07
1.77664e-05
0.000175752
-9.63733e-08
-5.38313e-08
6.24653e-06
5.00594e-07
5.01631e-07
1.05819e-06
1.16697e-06
2.05966e-07
0.000260574
9.98884e-07
1.01887e-06
8.70189e-07
1.33863e-05
2.6591e-05
2.36301e-05
3.27027e-06
3.21424e-06
0.000163085
7.93624e-06
8.14632e-06
5.95846e-06
3.36136e-06
3.33098e-06
3.59842e-06
-8.46805e-09
-4.97293e-09
-5.40055e-09
-3.88904e-08
-6.35782e-08
-2.41482e-07
1.30536e-05
8.92762e-06
1.14931e-06
1.28061e-06
8.9313e-07
9.86828e-07
5.3035e-07
1.83048e-05
-1.86841e-07
-2.38551e-07
5.80154e-06
1.61614e-06
5.50105e-07
1.93188e-09
1.60207e-08
1.63471e-08
7.0388e-08
2.58935e-08
1.68562e-07
1.06703e-07
1.7707e-07
1.90755e-07
2.23205e-07
2.08002e-07
3.56182e-07
2.6383e-07
4.08451e-07
3.65667e-07
4.48006e-07
3.97278e-07
1.25774e-05
-4.16616e-08
-1.43052e-07
1.0646e-06
4.25686e-06
4.37212e-08
7.12004e-07
6.33279e-07
1.90138e-05
3.30937e-07
1.16598e-05
1.12608e-06
1.09227e-06
1.22964e-06
1.23938e-06
1.27793e-06
1.26032e-06
1.12458e-06
1.29154e-06
1.11605e-06
1.1523e-06
1.14894e-06
1.44907e-06
1.26887e-06
1.60616e-06
1.62543e-06
1.81258e-06
1.75118e-06
1.86299e-06
1.95451e-06
1.8989e-06
1.99112e-06
2.0411e-06
2.16477e-06
2.26841e-06
2.36185e-06
2.32218e-06
2.45856e-06
2.42794e-06
2.44145e-06
2.31363e-06
2.54446e-06
2.36482e-06
2.43518e-06
2.45911e-06
2.44795e-06
2.42791e-06
2.61378e-06
2.96894e-06
2.93274e-06
7.43697e-07
1.03182e-06
1.01808e-06
1.2363e-05
7.44706e-07
7.9113e-07
4.87028e-07
5.3162e-07
-8.8947e-08
8.30706e-07
7.30296e-07
6.5621e-07
6.97663e-07
3.67391e-06
2.04353e-06
1.57137e-06
1.74627e-05
1.31271e-06
1.26857e-06
1.4816e-06
3.8735e-07
4.6519e-07
1.36321e-06
3.68656e-06
3.71575e-06
3.46191e-06
2.43805e-07
3.23688e-07
3.28181e-06
3.61548e-06
3.74979e-06
1.07753e-06
1.36692e-05
4.64458e-07
4.52285e-07
-1.75912e-07
9.39897e-06
8.28738e-06
-1.05859e-07
1.68246e-06
2.01395e-06
-1.0253e-07
-1.37679e-07
4.23497e-06
8.39345e-07
1.29993e-05
9.17533e-07
8.60941e-07
6.22203e-07
1.26074e-06
4.2701e-06
5.0112e-06
3.82194e-06
-1.3904e-07
-1.86021e-07
-6.71039e-08
-7.95679e-08
-1.0934e-07
3.27745e-06
2.26652e-06
2.43657e-06
8.22396e-06
4.47994e-06
3.85186e-07
9.04273e-07
8.92897e-07
9.77239e-07
8.73244e-07
-3.78893e-08
-2.70839e-08
6.62295e-09
2.95481e-08
-1.11752e-07
-1.11716e-07
1.19495e-06
-5.7522e-08
-3.33877e-08
-4.80539e-08
7.90824e-08
1.40261e-07
6.29131e-07
3.05772e-06
3.2332e-06
5.86179e-06
3.41032e-06
3.45899e-06
-8.54289e-08
-1.38927e-07
5.86571e-06
6.95187e-06
2.20844e-07
-3.03558e-08
2.24366e-08
8.71298e-08
5.71165e-08
1.22589e-07
1.35248e-07
1.44648e-07
1.14186e-07
2.41778e-07
1.49103e-07
3.57383e-07
2.85766e-07
4.06343e-07
3.57143e-07
3.4679e-06
-2.73095e-08
-7.11902e-08
9.61989e-08
2.61254e-06
5.14569e-07
9.3429e-07
3.51902e-06
3.43535e-06
3.57117e-06
5.92543e-06
-5.86913e-08
1.28757e-06
1.32808e-06
1.30357e-06
1.34571e-06
1.41049e-06
1.41664e-06
1.38079e-06
1.36888e-06
1.31566e-06
1.56268e-06
1.66608e-06
1.55644e-06
1.9671e-06
1.94642e-06
2.06145e-06
2.18777e-06
2.11751e-06
2.24161e-06
2.46993e-06
2.38128e-06
2.55428e-06
2.53802e-06
2.38162e-06
2.57119e-06
2.54577e-06
2.59355e-06
2.49106e-06
2.56138e-06
2.48157e-06
2.62291e-06
2.66571e-06
2.52845e-06
3.16323e-06
3.44533e-06
2.96678e-06
-1.12125e-07
1.30637e-06
1.37805e-06
1.30498e-06
1.21992e-08
2.64649e-10
-4.88816e-08
7.01858e-07
8.28806e-07
-5.20804e-08
2.81867e-06
6.25018e-07
6.44383e-07
5.00029e-07
1.09883e-06
9.89598e-07
7.74786e-07
3.63186e-07
2.36309e-07
4.12044e-06
2.38976e-06
1.47638e-06
1.38738e-06
1.7276e-06
7.4303e-06
4.54852e-06
7.97571e-06
-6.19817e-08
-6.3432e-08
4.06249e-07
5.2051e-07
2.86336e-06
7.7664e-07
-3.10457e-08
4.2645e-07
7.91139e-07
7.27326e-08
1.89877e-07
2.57915e-06
6.21505e-06
5.97614e-06
-2.8187e-08
1.82067e-08
-3.70685e-08
4.67565e-06
-3.41906e-09
1.47702e-06
1.4405e-06
3.51573e-06
4.59887e-08
-3.85281e-08
-1.19199e-07
-9.32719e-08
-1.1403e-07
7.35853e-07
9.374e-07
5.88544e-07
5.76491e-07
4.08171e-07
3.17432e-06
2.48606e-06
-3.39538e-08
-8.26433e-08
3.27842e-06
3.31927e-06
2.86294e-06
2.94524e-06
3.54885e-06
3.51204e-06
6.6676e-07
6.57746e-07
6.95771e-07
2.09282e-06
2.26146e-06
4.60207e-06
3.52309e-06
3.3791e-06
5.23955e-06
4.27357e-06
4.6546e-06
4.10822e-07
-8.78746e-08
7.53208e-07
8.19873e-08
4.2547e-08
4.05416e-06
4.51153e-06
4.45477e-07
5.09885e-07
1.55344e-06
3.11801e-07
1.6546e-06
1.56757e-06
1.5101e-06
1.66317e-06
1.77947e-06
2.02138e-06
1.89573e-06
2.18047e-06
2.07557e-06
2.1477e-06
2.22379e-06
2.452e-06
2.44026e-06
2.47161e-06
2.49135e-06
2.63508e-06
2.59982e-06
2.59364e-06
2.58194e-06
2.63486e-06
2.67829e-06
2.61948e-06
2.69861e-06
2.61307e-06
2.75097e-06
3.1541e-06
3.40028e-07
1.51221e-06
1.65217e-06
1.54369e-06
5.93913e-07
1.73232e-06
1.6655e-06
2.01396e-06
2.38728e-06
4.32902e-06
3.01476e-06
3.38169e-06
6.82295e-07
7.58769e-07
4.0846e-06
-4.23469e-08
5.35764e-07
5.8705e-07
-1.23849e-08
3.28866e-06
7.07934e-07
5.91301e-08
3.605e-06
3.26191e-06
2.90174e-06
9.01084e-08
1.69574e-06
1.54763e-06
2.55885e-06
2.82459e-06
2.82318e-06
3.12388e-06
2.8389e-06
3.51351e-06
3.5143e-06
3.41457e-06
3.40872e-06
-7.06027e-08
2.21131e-06
2.39947e-06
3.23185e-06
3.15113e-06
3.86808e-06
3.38241e-06
3.03825e-06
3.08702e-06
1.80011e-06
1.80399e-06
1.96215e-06
3.06932e-06
1.54632e-06
2.98827e-06
3.28124e-06
2.68481e-06