/*--------------------------------*- C++ -*----------------------------------*\
| =========                 |                                                 |
| \\      /  F ield         | OpenFOAM: The Open Source CFD Toolbox           |
|  \\    /   O peration     | Version:  v2012                                 |
|   \\  /    A nd           | Website:  www.openfoam.com                      |
|    \\/     M anipulation  |                                                 |
\*---------------------------------------------------------------------------*/
FoamFile
{
    version     2.0;
    format      ascii;
    class       volVectorField;
    location    "1";
    object      U;
}
// * * * * * * * * * * * * * * * * * * * * * * * * * * * * * * * * * * * * * //

dimensions      [0 1 -1 0 0 0 0];


internalField   nonuniform List<vector> 
108993
(
(-0.00201261 8.38414e-05 -0.0031723)
(0.00195469 0.00038177 -0.00473091)
(-0.000203444 7.25943e-05 -0.00599351)
(0.00251482 -0.0046472 -0.00363074)
(0.000251283 -0.00178008 -0.00208383)
(0.000127153 -6.89495e-05 -0.000367368)
(0.00269235 -0.000146848 -0.00400109)
(0.000157312 -0.000417748 -4.75218e-06)
(-0.000140686 0.000735821 -0.00591389)
(-0.00244854 0.000159031 -0.000417953)
(-0.000694321 -6.90065e-05 -0.00264087)
(-0.000485979 -1.39417e-05 -0.00274831)
(0.00159557 -0.00413992 -0.00294414)
(-0.000784561 0.000190403 -0.000110067)
(-0.000184237 6.1394e-05 -0.00245469)
(-0.014534 0.000418143 0.00117314)
(-0.00326764 8.44067e-05 -0.000111929)
(-0.000484503 4.48011e-06 -0.00108951)
(0.00117881 -0.00497509 -0.00431847)
(0.00272146 -0.00162849 -0.00546195)
(1.63309e-05 -0.000148965 -0.0032269)
(0.0014028 -0.000832599 -0.00900633)
(0.00173937 4.91116e-05 -0.00250899)
(-0.000261345 7.93656e-06 -0.00331601)
(0.00158709 -0.00451899 -0.00293317)
(0.00108505 -0.00045565 -0.00114437)
(-0.00112285 0.0069044 -0.000590214)
(0.00165836 -0.0010451 -0.0057875)
(0.00219741 -0.00138712 -0.00402761)
(-3.60351e-05 -0.000125113 -0.00353891)
(-0.000907595 0.00336992 -0.00292677)
(-0.000532325 0.00016063 -0.000864714)
(-0.00128277 0.00730144 -1.12268e-05)
(-0.00344823 0.000271495 -0.00376307)
(0.00449047 -0.00335301 -0.00946964)
(-5.3093e-05 -0.00038604 -0.00274442)
(-0.000765613 0.00503994 -0.00155402)
(1.44815e-07 -0.000497784 -0.00367459)
(0.00221706 0.0110499 -0.0106012)
(0.00144101 0.00114428 -0.00651179)
(0.00171105 -8.90391e-05 -0.00431163)
(-5.19758e-05 0.000143287 -0.00425692)
(-6.94632e-07 0.000198476 -0.000330913)
(0.00440735 -0.0064375 -2.26537e-05)
(-0.00255341 0.00117546 0.00474851)
(0.000306213 0.00138898 -0.00535556)
(-0.000632091 0.00608974 1.09217e-06)
(0.00257275 1.50249e-06 -0.00283868)
(0.00175875 -0.000224043 -0.00305217)
(0.00396359 -0.000170111 -0.00761079)
(0.000508813 0.00402368 -0.00352534)
(0.00757552 0.00283229 0.00149901)
(0.00191574 0.000383216 -0.00488291)
(0.000582666 0.00277499 -0.00112085)
(-0.000989167 5.98324e-05 -0.00100016)
(-0.000701289 0.000104771 -0.00308162)
(0.00096293 0.00742366 -0.00298803)
(-0.00041949 -0.00155917 -0.00162549)
(0.000276975 -0.000931191 -0.00462685)
(-0.000516766 -0.00211937 -0.00194209)
(-0.000417033 -0.00200387 -0.00243582)
(-0.000751433 -0.00375074 -0.0030658)
(-0.00011565 -0.000127531 -0.00330901)
(0.00174444 -0.000120411 2.69284e-05)
(0.000376145 -0.00697583 -0.00171602)
(0.00153366 -0.000624982 -0.00209449)
(0.000938128 -0.00477279 -8.10667e-06)
(0.000303836 -0.00238581 -0.00366554)
(-0.00142791 0.000299117 -0.000941122)
(-0.00123443 0.00147249 0.00044368)
(1.18253e-05 -5.31407e-05 -0.00334017)
(0.000917237 -0.00273814 -0.00387975)
(0.000184664 -0.00110179 -0.00372437)
(0.000429842 -0.00238547 -0.00360207)
(0.00160285 5.8509e-06 -0.00317033)
(-0.000449676 0.00178712 -0.00415883)
(0.00163034 -2.15751e-05 5.9932e-06)
(-0.0034081 0.000156113 -0.00128975)
(0.00204472 0.00638809 -0.00522292)
(0.00141961 -0.00507153 0.00010878)
(-0.000195717 -0.000334442 -0.00388009)
(-0.00147559 0.000218908 -0.00121373)
(0.000723944 -0.000165915 -0.00515987)
(-3.32811e-07 -4.50597e-05 -0.00369892)
(-0.000428543 0.000182475 -0.00129382)
(-0.000417108 6.92434e-05 -0.00053236)
(-0.000189846 0.000205877 -0.00409605)
(-0.00071113 1.19551e-05 -0.00262017)
(0.000191195 -0.00214414 -0.001498)
(0.000260302 -0.00422536 -0.00060119)
(-0.000238191 -0.00375815 -0.00145459)
(-0.000161395 0.0021368 -0.00363503)
(-0.000183382 -0.00318639 -0.00040096)
(1.2869e-05 -0.00250245 -0.000648712)
(-0.000670127 -0.00313828 -0.000653213)
(-0.00172493 0.000155499 -0.000824883)
(7.84399e-05 0.00240451 -0.00406133)
(-6.30231e-05 -0.00028146 -0.00394554)
(-0.000643301 0.00266355 -0.00374913)
(5.19091e-05 0.00034325 -0.00324445)
(-0.000631759 -0.00288122 -0.00136856)
(0.000702072 -0.00247309 -0.00707477)
(-0.000113311 -6.31231e-07 -0.00300475)
(-0.00125906 0.000307826 -0.00175926)
(-7.84834e-05 -0.000533381 -0.00389427)
(-0.000398683 -0.00371635 -1.21279e-05)
(-0.000261686 -0.000302793 -0.00365324)
(0.00130821 -0.00413037 -0.0118361)
(0.00199086 0.000786403 -0.00388659)
(0.00160413 0.000758349 -0.00934193)
(0.00688833 6.45612e-05 0.000255436)
(-0.000342196 -0.00410236 -0.000884586)
(0.00509373 0.00144728 -1.3148e-06)
(0.0109374 0.00136474 0.000773899)
(4.88659e-06 4.40661e-05 -0.00421584)
(0.000460371 0.00451113 -0.01865)
(0.00013613 -0.00156246 -0.00238342)
(-0.000696943 0.000155998 -0.00404767)
(-0.00827966 0.00328192 0.00100125)
(-0.000277885 0.00202156 -0.00442892)
(-0.00102098 0.000132754 -0.000409715)
(-0.00121346 -0.0031998 -0.00671672)
(0.00830481 0.0131589 -0.0206091)
(-0.00167034 -0.000167129 -0.0043579)
(1.35868e-05 -0.000631373 -0.003566)
(-0.00885606 0.000242342 0.000650582)
(0.0022588 -3.28046e-05 -0.00411946)
(-0.000722796 -1.1575e-05 -0.004074)
(-0.00130449 -0.00312316 -0.00771709)
(-0.000159383 -0.00421205 -0.00809517)
(-0.0021436 0.0002038 -0.00162236)
(-0.000918182 -0.00408384 -0.00750911)
(-0.000141454 -0.000635657 -0.00483979)
(0.0253614 0.00547114 0.0425952)
(0.000156315 0.00030222 -0.00438008)
(-0.000700786 -9.98633e-05 -0.00517679)
(-0.000598126 -0.00235258 -0.00711467)
(-9.57782e-05 -0.000428761 -0.00454083)
(9.61605e-05 -0.000469281 -0.00343419)
(-0.000877438 0.000263221 -0.000385016)
(-0.00156841 0.00036391 -0.00457013)
(-7.02092e-05 0.000287873 -0.00386302)
(-0.00432037 0.00312799 0.000655047)
(-0.000951262 -0.00300794 -0.0076057)
(-0.000439082 -0.00312748 -0.00780525)
(0.000175866 -0.000982085 -0.00380046)
(-0.000167841 -0.000415916 -0.00395453)
(0.000810181 -4.0389e-05 -0.00917703)
(-0.00154133 1.40543e-05 -0.00441418)
(0.0128157 0.00787814 -0.0291689)
(0.0145388 0.00908645 -0.0279391)
(0.00100971 -0.000459622 -0.000311845)
(0.0012393 0.00103693 -0.000721767)
(0.0180257 0.00975139 -0.0299529)
(5.65405e-06 -0.00010649 -0.00480549)
(0.00636685 0.000623939 -0.00251444)
(-0.000923791 0.000245241 -0.00307628)
(0.000163209 5.96085e-05 -0.0119723)
(-0.000662079 0.0127661 -0.0084602)
(0.00423215 0.0039531 0.00141645)
(0.0175836 0.00893324 -0.0290843)
(0.000178224 0.0074285 -0.0268853)
(-0.000509886 0.00139989 -0.00244606)
(-0.000117426 0.000131682 -0.00347551)
(-0.000212952 0.000125901 -0.00130754)
(0.0077167 0.00227133 -0.00106935)
(-0.00020129 -0.00114708 -0.000382048)
(0.0013092 -0.000129161 -4.56597e-06)
(0.00145368 -0.000368551 -2.1967e-06)
(-2.37493e-05 -6.70597e-06 -0.00412797)
(0.000781016 -0.00169904 -0.00457603)
(-0.000391094 3.40532e-06 -0.00329248)
(0.00635487 0.00272365 0.00135672)
(-6.34377e-05 5.33181e-05 -0.00366764)
(0.00255374 -0.00659224 -0.00445698)
(0.00227668 -0.000879836 -0.00155544)
(0.0122317 0.00252796 -0.0145868)
(0.00107529 -0.000302239 0.000127681)
(-0.000395438 2.16387e-08 -0.00422638)
(0.000147115 0.000686248 -0.00402714)
(-0.003054 0.000562646 -0.000930209)
(0.000471135 5.85027e-05 -0.00513839)
(0.00247744 0.00199941 -0.0131501)
(-0.00153184 -0.000249461 -0.00376109)
(-0.00118128 0.000324412 -0.0009101)
(-7.2964e-05 -0.000175677 -0.00362809)
(0.00375422 0.000380559 -0.0117343)
(-0.000529631 0.000155325 -0.0016921)
(-0.000713579 0.000123998 -0.00195866)
(-0.00177718 8.36058e-05 -0.0039142)
(-0.000261757 1.29335e-05 -0.00343524)
(0.00269401 0.0026903 -0.0105718)
(-0.000154001 -5.32434e-05 -0.00345884)
(0.00665392 0.00255574 -0.0108568)
(-3.20955e-05 -5.02999e-06 -0.00431289)
(-0.00133313 0.000251191 -0.00556627)
(0.00195401 -0.000144871 -0.00457559)
(-0.00017498 -0.000223097 -0.00375636)
(-1.79522e-06 -0.000520025 -0.00398207)
(-0.00114917 0.000386754 -0.00387825)
(-0.000266695 -0.00111978 -0.000702462)
(0.00959386 0.0025676 -0.00695941)
(-8.87647e-07 -0.000134811 -0.00374127)
(-0.000153909 -0.00102625 -0.0128814)
(0.00334252 0.00036592 -0.00199714)
(-0.000170937 0.00547723 -0.0350413)
(-4.98945e-05 -0.000113712 -0.00472374)
(0.00171381 -0.00536729 -0.0143963)
(-0.000192763 -0.000453044 -0.0044445)
(0.0292917 0.0701772 -0.0534206)
(0.00444571 0.00207991 -0.000295492)
(7.61042e-06 -0.000187705 -0.00394227)
(0.0133805 0.00242741 -0.0228032)
(-0.00355177 -0.00865025 -0.0667985)
(0.000109869 0.0238904 -0.000541801)
(-7.67771e-05 -0.000478093 -0.00381813)
(-0.000558882 2.47775e-05 -0.00250271)
(-0.000185377 3.90454e-05 -0.00470681)
(0.000750241 0.00174525 -0.0123839)
(-0.00214543 0.00202865 -0.00403466)
(0.00556067 -0.00162295 -0.00134857)
(0.0158767 0.00353202 -0.0328725)
(-0.00546968 0.000690195 -0.00662851)
(0.00530222 0.0041187 -0.0145898)
(0.00279771 -0.000313991 2.62778e-05)
(0.000899364 -0.0003163 0.000136754)
(0.000530161 0.00101522 -0.0125032)
(-0.000409182 4.34866e-05 -0.00471985)
(0.011797 0.00483918 0.0153874)
(0.000408685 -0.000426462 -0.00188227)
(-1.29574e-05 -0.00423096 0.00137698)
(-0.000331213 -7.71357e-05 -0.00329893)
(0.000981251 -0.000365021 3.57828e-06)
(0.000227198 -0.000290734 -0.00355578)
(0.000254605 0.0007593 -0.00420735)
(-1.09541e-05 0.0019393 -0.00115178)
(-0.000224335 0.00138256 -0.00777361)
(-0.00171499 -0.00316947 -0.00348955)
(0.00343118 0.000808677 -0.00057127)
(4.16065e-05 0.000567267 -0.0124845)
(-1.27772e-05 0.000502385 -0.00222294)
(-0.000308976 -0.000143007 -0.00460235)
(-7.50067e-08 -0.000100009 -0.000114518)
(-0.000113217 0.000303031 -0.0125374)
(-8.26248e-05 -0.000667386 -0.0114395)
(-0.014178 0.00138363 0.000248737)
(-0.003065 -0.0396091 -0.0812347)
(0.0055036 0.0129593 -0.0204896)
(-0.000130802 3.34365e-05 -0.0130369)
(0.00110285 -0.000384321 -0.00643626)
(-0.000258717 -1.05934e-05 -0.00300747)
(0.000810195 -0.00700629 -0.00505517)
(-0.000284756 -7.08812e-05 -0.00526154)
(-6.70826e-05 -2.64611e-05 -0.00420543)
(0.000371275 -0.000587409 -0.0114096)
(7.95197e-05 -0.000235329 -0.0133162)
(0.000601993 -0.000793668 -0.0115253)
(-0.00164974 0.000116429 -0.00339058)
(-0.000837572 0.00255339 -0.00615556)
(0.000186116 -9.66605e-05 -7.90606e-05)
(-0.000261265 9.58556e-05 -0.00475357)
(0.0015919 -5.49349e-06 -0.0029805)
(-0.00657443 0.00161827 -0.000245158)
(-0.00896713 0.000579653 0.00169324)
(0.00968832 0.0100069 -0.00666872)
(0.000644015 -0.000228421 -0.00253441)
(-0.000226679 5.88634e-05 -0.00464087)
(0.00199957 -0.000993811 -0.00299783)
(0.000289707 -0.000136996 -0.000158479)
(-0.000499987 -0.000274177 -0.00471274)
(0.00012008 -0.000536466 -0.00032888)
(-6.18942e-05 0.000395408 -0.00565617)
(0.00334876 -0.0152022 -0.00252526)
(0.0262053 -0.129905 -0.0179199)
(0.00133051 -0.000249211 -0.00908368)
(-0.000206841 -0.00012067 -0.00424521)
(-6.98393e-06 0.00172173 -0.00275728)
(0.023337 0.0125408 -0.049876)
(-0.00144182 0.00025188 -0.00367205)
(0.00288103 -0.000772609 -0.00350446)
(0.00322644 -0.000726787 -0.00369634)
(0.000617536 0.00207615 -0.000777965)
(0.000574539 0.0021363 -0.000864051)
(0.000750157 -0.000721397 -0.000263834)
(-0.00128065 -0.000513252 -0.00543403)
(-0.00591224 0.000379996 -0.00133145)
(0.000790603 -0.00369896 -0.00389971)
(0.00461907 -0.00117217 -0.00443573)
(-0.00217183 0.000194474 -0.00322502)
(5.14182e-05 0.000210733 -0.00902932)
(-0.00127722 0.000140269 -0.00038219)
(-1.62859e-05 8.10909e-05 -0.00457364)
(0.00442207 -0.00110558 -0.00435387)
(-0.000111539 -4.01044e-05 -0.00448684)
(0.00117882 -0.00220679 -0.000920288)
(-0.000144417 0.000109439 -0.00480881)
(-0.000483171 0.00239417 -0.00459094)
(-0.000113231 0.000121227 -0.00447201)
(-0.00369602 0.000610887 6.76439e-06)
(-5.75976e-05 -0.000189536 -0.000584352)
(-0.000117006 0.00857899 -0.0248995)
(0.00925865 0.00325511 -0.041299)
(-9.01925e-05 -0.000568609 -0.00367074)
(-0.000108422 -4.27901e-06 -0.00038814)
(-0.000142852 1.51285e-05 -0.00512925)
(0.000187732 7.55379e-05 -0.00174413)
(0.00106212 -0.000306549 1.31274e-05)
(0.000806082 5.22272e-05 -0.00336011)
(0.000324381 -1.86111e-06 -0.00160176)
(0.00734512 -0.0279608 -0.0089549)
(-8.8048e-05 -0.000587894 -0.00132525)
(-0.000594206 -0.00279447 -0.00255136)
(-0.00470774 0.00111762 -0.00042351)
(-7.33117e-05 -0.000410742 -0.00306851)
(0.000327566 3.90086e-05 -0.00175432)
(0.00869774 0.0059257 -0.032697)
(0.0017957 -7.27983e-06 -1.97042e-05)
(-0.00482948 0.000981923 -0.000311814)
(0.000744411 0.00550496 -0.0103414)
(-0.000165148 0.00012455 -0.00479269)
(0.00278482 9.99786e-05 -0.00474767)
(0.00189992 -8.289e-05 -6.91566e-05)
(0.000134791 -0.000237563 -0.00423141)
(0.000155572 -0.000270994 -0.00382837)
(-0.000143987 -0.000154783 -0.00383554)
(0.0159726 0.014007 0.00999019)
(-0.00252109 0.0542277 -0.0704316)
(0.00250022 0.0115829 -0.0370601)
(0.00025269 0.00177125 -0.00595493)
(-0.00105434 0.000365824 -0.00578968)
(0.00381849 -0.000260499 -0.00201781)
(0.00423971 0.0104868 -0.0309826)
(0.117276 0.00318287 0.0791121)
(-9.41718e-05 0.000139836 -0.00498777)
(-5.64526e-05 0.00289742 -0.0164547)
(-0.00015428 4.79629e-07 -0.00346738)
(-2.70803e-05 0.00018395 -0.0038412)
(-0.000337944 -0.00252073 -0.00272087)
(-3.91087e-05 -0.000132704 -0.00426749)
(-0.00106132 -0.000151412 -0.00496364)
(0.000280899 0.000558044 -0.00434526)
(0.00367766 -4.4257e-05 -0.016004)
(0.00572117 -0.000820094 -0.00611844)
(-0.000266373 -0.000423012 -0.00378183)
(-0.000597375 1.89332e-05 -0.0026743)
(-0.000425635 -8.91428e-06 -0.0018302)
(9.83157e-05 7.54264e-05 -0.00488434)
(-0.000181459 -0.000695713 -0.00268639)
(0.000416999 1.08056e-06 -0.000863485)
(0.00031613 0.000195532 -0.00508666)
(-6.25639e-05 0.000108353 -0.00426609)
(0.000133515 -8.27259e-05 -7.77868e-07)
(-5.20029e-05 0.00064094 -2.9669e-06)
(0.000650214 -0.00246612 -0.00110539)
(0.00273693 -0.00136921 0.000830074)
(-0.000269153 -0.000673212 -0.00392011)
(-0.000289421 -0.000259522 -0.0042577)
(-0.00041455 9.87871e-06 -0.00824195)
(-0.000411821 1.88871e-06 -0.00308709)
(8.86904e-07 -0.000341147 7.76998e-05)
(-0.00569367 8.31826e-06 -0.00318488)
(0.00664789 -0.000937146 -0.00618537)
(-0.000148945 0.000205424 -0.00523415)
(-0.000416907 6.52708e-07 -0.00492794)
(0.00156652 -0.000405155 -0.00305025)
(0.00370535 -0.00093929 -0.00697452)
(-0.000137464 -7.73989e-05 -0.00468199)
(-0.000161367 -0.00050109 -0.0066804)
(4.76822e-06 9.30857e-05 -0.00232334)
(-0.0260715 0.0888259 -0.0280002)
(0.00106761 0.00234967 -0.00711982)
(-0.00459524 0.000270054 -0.00177363)
(-0.00012106 -2.64427e-06 -0.00517883)
(0.0407672 0.0176083 -0.0709662)
(0.00421002 -0.000462254 -0.0063577)
(0.000400943 0.0200348 -0.0509251)
(-0.00236981 0.000244814 -0.00236688)
(-0.000312134 -7.15973e-05 -0.00444165)
(0.00163534 0.00894732 -0.0422143)
(-0.000159308 2.53261e-05 -0.00338819)
(0.000941877 0.0119189 -0.0410889)
(0.00268985 0.00853827 -0.0448672)
(0.00431661 -0.00111666 -0.00639525)
(-0.0166508 0.00283629 0.00247857)
(-0.000623008 4.63863e-05 -0.00198421)
(0.00033312 0.000279292 -0.000415193)
(-0.00355851 0.000751269 -0.00058431)
(0.00866055 -0.00154568 -3.86329e-05)
(0.00199686 -0.000599014 -0.00324811)
(0.00115206 -0.00173321 -0.00884965)
(-0.000251435 0.0151329 -0.043846)
(8.88401e-05 0.000249894 -0.000292113)
(5.38138e-05 0.0152436 -0.0442769)
(-0.00167106 0.00029041 -0.000208155)
(0.000875309 -0.00674014 -1.96931e-05)
(0.00479422 -0.00103244 -0.00535109)
(-0.129127 0.152361 -0.233333)
(0.000603794 0.00210258 -0.00369163)
(-0.00856364 0.00041999 0.00177263)
(-0.000139028 0.000557115 -0.00578992)
(0.00429678 -0.000697027 -0.00573328)
(0.0440013 0.00624885 -0.0356298)
(0.00949187 0.00233404 -0.0187944)
(0.000193177 0.000187146 -0.00409645)
(0.00519833 -0.00129986 -0.00070388)
(2.66202e-06 0.000180537 -0.000188585)
(0.000377305 0.000246245 -0.000559899)
(-6.60977e-05 -0.00033193 -0.00372608)
(-0.000773927 0.00027805 -0.00641331)
(0.0442454 -0.00263388 -0.0825577)
(-1.09355e-06 0.000215096 -0.00016194)
(0.00228457 0.000188209 -0.00593135)
(0.00486932 0.0451985 -0.0167883)
(-0.00023232 -1.61407e-05 -0.00339881)
(-0.000786696 -2.42099e-05 -0.00208036)
(-1.44678e-05 0.000599837 -0.00527619)
(0.0248805 0.0253341 -0.0401065)
(-0.00241079 0.00127202 0.000143776)
(-0.00174228 -0.0116719 -0.00249157)
(-0.000161742 8.14295e-07 -0.00140654)
(0.0670079 -0.155396 -0.143248)
(0.00247769 0.000184207 -0.00471445)
(-0.00868931 -0.0444397 -0.114062)
(0.000701917 -3.13859e-06 9.96782e-05)
(-0.000144217 -0.00155985 -0.000704056)
(0.00737176 0.00115367 -0.0692135)
(-4.61935e-05 -0.000251556 -0.00330967)
(0.00175532 0.00888449 -0.0259953)
(-0.00744393 0.00227423 -0.0919431)
(3.72111e-05 -0.000317838 -8.12392e-05)
(-0.117595 0.218901 -0.309772)
(0.00120827 0.00481512 -0.00808052)
(-0.0930121 -0.0520221 -0.190794)
(-0.00317039 -0.00176922 -0.00448908)
(8.35178e-05 0.000205704 -0.00407287)
(-0.00255736 0.000242005 -0.000300293)
(0.00198424 0.000241283 0.00422852)
(0.00333617 -0.00156574 -0.00147898)
(0.00107111 -0.00105864 -1.50609e-07)
(-0.00011007 0.000407008 -0.00411715)
(-0.000524469 8.8145e-05 -0.00200094)
(-0.000449992 0.000337322 -0.00454292)
(-0.000447335 9.27488e-05 -0.00461332)
(0.000246277 -0.000665269 -0.00104365)
(0.00117707 0.00178905 0.000386795)
(0.00463438 0.00133962 -0.00609072)
(0.00379169 0.000842364 -0.00520897)
(0.00609606 0.00260251 0.000929583)
(-0.000378403 3.93818e-05 -0.00476216)
(5.55001e-05 -0.000565107 -0.000990146)
(-0.00168144 4.17257e-05 -0.0013043)
(-8.08432e-05 -0.00222081 -0.000660074)
(-0.000445181 1.63653e-06 -0.00485341)
(-0.00307201 0.000318757 -0.00299404)
(0.00096107 -0.00113945 8.01911e-05)
(-0.000102534 -8.53378e-05 -0.00271924)
(-0.000528237 0.000161999 -0.00185405)
(0.0001547 -0.000907947 -0.000859442)
(-0.000529913 7.86132e-06 -0.00403254)
(5.29672e-05 0.000528309 -0.0031656)
(0.00775816 0.0141469 -0.000951131)
(-0.00142719 0.000312091 -0.00607547)
(0.0102837 0.0167452 -0.00465938)
(0.00614786 0.00306968 -0.0228995)
(-0.0038134 0.00212955 0.000254685)
(-0.000450638 0.000401171 -0.00538941)
(0.00102555 5.6744e-06 -0.00224588)
(0.0124947 0.018487 -0.0074184)
(-5.74989e-05 0.000503555 -0.00554066)
(-0.000843551 3.63808e-05 -0.0058829)
(-0.00318643 -3.52855e-05 -1.61616e-05)
(0.000115587 -0.00124479 -0.00250919)
(-0.000182335 0.00076851 -0.004286)
(0.00192948 0.000693671 -0.00396863)
(0.00168082 6.89243e-06 2.53629e-06)
(-0.00689378 0.000281583 2.70736e-05)
(-0.000147679 8.626e-05 -0.00403902)
(0.00410001 0.00160499 -0.000278186)
(-0.000249352 -0.00275225 -1.41469e-05)
(-0.0089737 0.00353264 0.0025836)
(-0.000173206 -0.000674489 -0.00393963)
(-0.000588264 0.000632499 -0.00480112)
(-0.000198133 0.000614289 -0.00493278)
(-0.000127351 0.00013233 -0.00484922)
(-0.00162719 7.67845e-06 -0.0115941)
(-0.0011785 0.000130873 -0.005427)
(-0.000337657 0.000109398 -0.00566104)
(-0.000536002 7.48616e-05 -0.00550505)
(0.00563016 0.00296782 0.00107309)
(-0.00230875 6.52887e-05 -0.00488327)
(-0.000583525 0.000101989 -0.00176879)
(-0.000582179 0.0001166 -0.00426973)
(-0.00882075 -2.04647e-05 0.00259867)
(-0.00109767 4.93327e-05 -0.00591079)
(-0.00837819 0.00205948 0.00575464)
(-0.000202006 -0.000324394 -0.00333724)
(-0.00355169 -0.00101873 -0.0114328)
(-0.000486964 0.0001787 -0.00460663)
(-7.86196e-05 0.000128631 -0.00492785)
(0.00215828 -0.000146509 -0.00426134)
(-1.58696e-05 -0.00224984 -0.00174055)
(-0.000140525 0.000586202 -0.00431921)
(-0.000228173 0.000283854 -0.00445092)
(-0.000402362 -9.31083e-05 -0.0052599)
(-0.003304 -0.000235784 0.00212577)
(0.00702728 0.00325438 -0.0257677)
(-0.000284196 2.69442e-05 -0.00510285)
(-0.000235163 0.000268211 -0.00410903)
(0.00526738 -0.00545209 0.000825399)
(7.43996e-05 0.000180293 -0.00504992)
(-0.0103496 0.00224238 0.000149994)
(0.00430911 0.000826267 -0.00531622)
(-0.00048487 0.000897251 -0.00423997)
(-0.00364065 0.000358838 -0.00108919)
(-0.000144409 0.000185201 -0.0049209)
(-2.95186e-05 -0.00165065 -0.0122886)
(0.000186242 -0.000317255 -0.000891556)
(-0.000203469 1.16148e-05 -0.00485307)
(0.00168924 -3.161e-05 -0.00369737)
(0.000827269 -2.34873e-05 -0.00320149)
(0.0169919 -0.000192261 -0.00572958)
(0.0181852 0.000765061 -0.000881434)
(0.00381614 0.00105521 -0.00512933)
(0.00189964 0.000344106 -0.00256501)
(0.00255147 -0.00123861 -0.00325654)
(-0.00696059 0.00554057 0.0066772)
(3.50041e-06 0.000238561 -0.000723183)
(-0.000668878 7.02356e-05 -0.004406)
(-0.00632713 0.00501974 0.00628055)
(0.0016857 0.000396291 -0.002121)
(-0.000180467 -0.00089747 -0.00362478)
(-0.000145875 -0.000565377 -0.00307028)
(-0.00596807 0.00411535 0.005815)
(-0.00143497 0.000311782 -6.39091e-05)
(-9.64828e-06 -0.000371947 -0.00382079)
(-7.04476e-05 -5.25759e-05 -0.00427442)
(0.00436134 0.000776293 -0.000354906)
(-0.000328115 0.000155429 -0.0016107)
(-0.00425193 0.000834334 -0.0015197)
(0.00115173 -0.00409062 -1.49642e-05)
(-0.000191696 1.46166e-06 -0.00346801)
(0.000753706 -1.78123e-05 -0.00558613)
(8.0675e-05 -5.42032e-06 -0.00083913)
(-0.000144409 -0.000386262 -0.00336797)
(-0.000335145 0.000129915 -0.00320155)
(-0.000323212 -7.11639e-05 -0.00472778)
(-0.000154792 -0.000675419 -0.00315605)
(-0.00540798 0.00357899 0.00549073)
(-0.000245547 -1.17162e-05 -0.00399194)
(0.000350101 0.00106157 -0.00316883)
(0.00153154 0.0104131 -0.023047)
(5.83095e-06 -0.00102736 -0.00361368)
(2.4643e-05 0.00940591 -0.00127664)
(-0.000129084 -0.000238113 -0.00348158)
(-0.000372641 7.58988e-05 -0.00186665)
(-4.52775e-05 9.96441e-06 -0.00337543)
(-0.000386501 8.50194e-06 -0.00127702)
(0.00419967 0.000315739 -0.005748)
(0.0489172 0.227659 -0.116961)
(0.00216579 -0.000439057 -0.00409816)
(-0.00353656 0.000297935 -0.00326081)
(-0.000278843 0.000359419 -0.00422275)
(-0.00107944 2.05527e-05 -0.00481254)
(0.0033715 0.000742006 -0.0039713)
(0.0015175 0.000195084 0.000131865)
(0.00122367 0.00634438 -0.0281873)
(-0.000741764 1.91111e-05 -0.0028238)
(-0.000268176 0.000232193 -0.00423097)
(0.00264288 0.000215539 -0.00502147)
(0.00154464 -2.19374e-05 -0.00460867)
(-0.00162623 0.000159536 -0.00449144)
(0.000943907 0.000808351 -0.00554397)
(0.100974 0.416802 -0.170324)
(0.00168978 0.00032133 1.99923e-05)
(0.00557367 0.0102631 -0.0279065)
(0.00485466 0.000487444 -0.00436928)
(-0.000266767 -7.77052e-06 -0.00268547)
(0.00184763 -6.11101e-06 -0.00014734)
(-0.00341064 0.0279551 -0.0960391)
(0.00464833 0.00144154 -0.00470555)
(-0.00398176 0.000272023 -0.00261751)
(-0.000899801 -3.15885e-05 -0.00344023)
(5.38405e-05 -6.95053e-05 -0.00490253)
(0.00053672 -0.00329388 -0.00618114)
(-0.00062757 9.92837e-05 -0.00353657)
(-0.00753599 0.00074212 0.00437027)
(-1.62751e-05 0.00183014 -0.00399037)
(0.00184235 0.000784408 4.96376e-05)
(-0.00116029 0.000149178 -0.000683741)
(0.000726459 -0.000374646 -4.88135e-07)
(0.00292497 0.00021005 -0.00453523)
(-0.000160931 -1.63356e-05 -0.00352418)
(0.00181112 0.000110134 -0.00388266)
(-0.000414631 0.000123992 -0.00493176)
(-0.00129203 -0.0613651 -0.0790328)
(-0.000739356 -0.0012526 -0.0054985)
(-0.000136068 0.000345856 -0.00558449)
(-9.19171e-05 5.71669e-05 -0.0036005)
(0.00125746 0.000313339 -0.00492306)
(-0.00450669 0.00225705 0.0002022)
(-0.000610157 0.000138215 -0.00522977)
(-0.00115631 -8.45049e-06 -0.00264403)
(0.305687 -0.0140365 -0.0342558)
(-0.00650703 0.0011254 -7.06846e-05)
(-0.000755662 0.00022551 -8.47055e-05)
(2.83885e-05 2.02449e-05 -0.00348378)
(-0.0110472 -0.106708 0.0415433)
(-1.54819e-05 -1.80114e-05 -0.00346865)
(-0.0056434 0.00137126 -0.000772262)
(-0.0018245 2.82682e-06 -0.00403557)
(0.0347142 0.00753228 0.05315)
(-0.00255122 4.47957e-05 -0.0044692)
(-0.00201229 0.00404836 0.00292151)
(-0.00194151 -0.000112552 -0.00461602)
(0.00319742 0.000476908 -0.00410111)
(-0.000693365 2.35395e-05 -0.00481551)
(-0.0109418 0.00104338 -0.00110943)
(-4.91615e-05 1.56716e-05 -0.00344566)
(-0.00192789 0.000100492 -0.0212288)
(0.000332617 0.000622381 -0.0027521)
(0.0137787 0.00330297 0.00349261)
(0.000159469 0.000786476 -0.00301447)
(-0.000777606 2.2214e-05 -0.00395163)
(-8.00676e-05 -0.00165967 -0.00854905)
(0.00206203 -0.000145348 -0.00401232)
(-0.000325194 -0.00205658 -0.00353366)
(-0.000585269 0.000441444 -0.00472796)
(0.00186718 0.00528707 -0.00865743)
(0.0022433 0.00177311 -0.000249823)
(-0.00901884 0.000417294 -0.000670635)
(0.0123542 0.0117122 -0.0333602)
(0.00218483 -0.000371617 -0.00388857)
(0.00195602 0.00683774 -0.0171013)
(0.00999074 0.00708202 0.00876)
(-0.00957946 8.18961e-05 -0.00160402)
(0.000261098 -0.00021437 -0.000627133)
(-0.000119479 0.000102712 -0.00356214)
(0.00518561 0.0152311 -0.0173874)
(-0.0078763 0.00291956 0.00751006)
(0.00695665 0.00196419 0.000518599)
(-0.000971845 0.000189278 -0.00029584)
(0.00718709 0.00179043 0.000366519)
(-0.000464629 -0.00010745 -0.0043934)
(0.00310941 0.00130346 -0.00880354)
(-8.43758e-05 0.000349974 -0.00420012)
(-0.0111982 0.000510789 0.000161616)
(-0.00392325 0.000131558 -0.00178415)
(0.00625354 0.00259934 -0.00025661)
(-0.00345564 0.00195837 0.00137909)
(-0.00936454 0.000518189 -0.000356163)
(-0.00924099 0.000704608 -0.0012581)
(-0.00948129 0.00195958 0.00621392)
(-4.63374e-05 -0.00893598 -0.00768503)
(0.000239126 8.32341e-05 -0.00081125)
(-0.00177732 0.000182215 0.000103026)
(0.00176355 1.11806e-05 -0.00381564)
(-0.0187062 0.00776129 0.00450872)
(9.90413e-05 6.43885e-05 -0.000390807)
(0.000589293 0.000508816 0.000281265)
(0.000476777 0.000165806 -0.000765509)
(7.46874e-06 9.72199e-05 -0.000581223)
(0.00135798 -0.00056078 -0.000706173)
(-0.00528066 0.00117357 -0.00117272)
(2.56821e-05 0.000178146 -0.00443485)
(3.68332e-06 -0.000817509 -0.000519435)
(0.00432307 -1.34622e-05 -0.00622621)
(0.000803047 -6.67802e-05 -5.04922e-06)
(-0.00718238 -4.41811e-05 -7.47826e-05)
(-0.00278087 -0.0135893 -0.00986141)
(-0.000596366 -0.00914176 -0.000504774)
(-0.00668911 0.000866253 0.000181465)
(0.0027711 0.000461318 -0.00243363)
(0.00793376 0.00169849 -0.000629443)
(0.000347851 0.000195834 -0.000659134)
(0.000353696 2.05438e-06 -0.000948618)
(-0.00101639 -0.00411337 -0.00197324)
(0.0013903 0.00178259 -0.0136472)
(-0.00343155 0.00011376 -0.000161899)
(0.00179956 -0.000814422 -0.000336566)
(0.000914709 0.000801217 -0.00983112)
(0.00213046 0.000178512 -0.00475743)
(0.00323687 0.00114851 -0.000221624)
(-0.00395439 0.00225411 0.000258444)
(-0.00847497 0.000394641 -0.00051113)
(0.000274741 -0.00023525 -0.00919709)
(-0.00790723 0.000749005 -0.000179964)
(0.000439881 0.00475452 0.000817899)
(-0.0031943 0.000137004 -0.000166131)
(-0.00338871 0.000185891 -0.000198982)
(0.0280841 0.0407388 -0.0338681)
(-0.00753369 0.000327638 -0.00267501)
(-0.000739468 4.63985e-05 -0.00472653)
(0.00673223 0.00190467 0.000313181)
(-0.00196624 8.15937e-05 -0.000104888)
(-7.02133e-06 -0.000150571 -0.00411601)
(0.0205061 0.024683 -0.00164577)
(-0.00363208 1.63532e-05 -0.000187769)
(0.000809642 0.000670035 -0.0176797)
(-0.00347142 0.000321698 -0.000292541)
(0.0116111 0.0115565 0.000314692)
(0.0114726 5.33651e-05 -0.00271298)
(0.000312293 1.18927e-05 -0.00435884)
(0.00223045 -0.000374406 6.49375e-05)
(0.00231163 -0.000186641 -1.63491e-05)
(-0.00587993 0.00216559 0.000628308)
(-8.76266e-06 -7.7808e-05 -0.00173349)
(-0.00224975 0.00126502 0.00231716)
(0.000849787 0.000233115 -0.00318398)
(-0.000148871 0.000392302 -0.00410246)
(0.00228707 -0.000377128 4.08084e-05)
(0.00760933 0.00101697 -0.00523311)
(-0.000310062 -0.00329576 -0.00528694)
(0.00386192 0.00869045 -0.0042183)
(-0.000268789 -0.000261963 -0.00402807)
(0.00692257 0.0122126 -0.00866141)
(-2.4247e-05 2.58655e-05 -0.00478127)
(0.00666053 0.00204827 2.29663e-05)
(-0.00584773 0.00306363 0.00127271)
(-6.28431e-05 -9.12308e-05 -0.000320075)
(0.0071595 0.00169294 0.00039756)
(0.00167103 -4.74744e-05 -0.00375576)
(-0.0121685 0.000390025 -0.000687472)
(0.00613989 0.00177347 -0.00243579)
(-0.0140638 0.00119132 0.00168441)
(-0.00156444 0.000202123 -0.00134838)
(-0.0107009 0.000535274 0.00085762)
(0.00683628 0.00218088 -0.00443788)
(0.00772804 0.000463978 0.00057629)
(0.00384442 0.00203466 -0.0157185)
(-2.56859e-05 -0.00149949 -0.00264944)
(0.00669375 0.00231407 0.000433112)
(-0.01228 0.000869322 -0.00024784)
(-0.0153635 0.000721381 0.00216505)
(-0.0119483 0.00137218 0.00114623)
(-0.00275525 0.000232262 -0.00180608)
(-4.04807e-05 -0.000341217 -0.000596406)
(0.00383149 0.000565648 -0.000944023)
(0.00146784 -0.000335207 -0.000139385)
(-0.000606849 0.000257729 -0.00533413)
(0.00215563 8.43155e-05 -0.00345569)
(-0.00123299 -8.5153e-05 -0.00277486)
(-0.0130437 0.00273757 0.00214148)
(0.00251621 0.00380567 -0.00563699)
(0.001233 0.00176925 -0.0165453)
(-0.00629948 0.00111895 -0.0032223)
(0.00530253 0.000800813 -0.00384171)
(-0.00854163 0.00140659 -0.00231473)
(-0.00810914 0.00112306 -0.00164109)
(-0.00692176 0.00134722 -0.00259248)
(-0.00606072 0.00226526 0.000333693)
(-0.000761234 0.00018644 -0.00267593)
(0.00123821 -0.000378565 2.68402e-05)
(0.00158237 -0.000240615 -0.000106028)
(-0.00680706 0.0010916 -0.00365839)
(0.00132603 -0.000183352 5.71869e-05)
(0.00594355 0.00177003 -0.005548)
(0.00160992 -0.000226786 -0.000141417)
(-0.0128667 0.000134491 -1.55639e-06)
(-0.00643941 0.00267666 0.0025379)
(0.00105445 -5.86754e-05 -0.00256459)
(-0.0139631 0.000444534 0.000181106)
(0.00136237 -0.000468222 0.000120912)
(-0.00804445 0.00179538 -0.00464702)
(-0.00350451 0.000497801 -0.00434734)
(-0.00218306 0.000383831 0.000105946)
(0.00073864 -0.000409261 -0.00575443)
(0.00199209 -0.000146058 -0.0033866)
(0.00124923 -0.00676972 -0.00101744)
(0.000539777 -0.00329275 -0.00178844)
(-0.000230022 5.16e-05 -0.00490425)
(-0.00395236 0.000479606 -0.00418799)
(0.00689004 0.00303111 -0.00378628)
(8.89787e-05 0.000335978 -0.00426957)
(0.00272986 0.0126747 -0.0243915)
(0.00496556 0.00451644 -0.030082)
(-0.00223747 0.000409113 -0.000728243)