/*--------------------------------*- C++ -*----------------------------------*\
| =========                 |                                                 |
| \\      /  F ield         | OpenFOAM: The Open Source CFD Toolbox           |
|  \\    /   O peration     | Version:  v2012                                 |
|   \\  /    A nd           | Website:  www.openfoam.com                      |
|    \\/     M anipulation  |                                                 |
\*---------------------------------------------------------------------------*/
FoamFile
{
    version     2.0;
    format      ascii;
    class       volScalarField;
    location    "0.5";
    object      alphat;
}
// * * * * * * * * * * * * * * * * * * * * * * * * * * * * * * * * * * * * * //

dimensions      [1 -1 -1 0 0 0 0];


internalField   nonuniform List<scalar> 
108993
(
0.000117192
0.000111455
8.78858e-05
0.000121477
0.000121729
6.95564e-05
0.000106696
9.82085e-05
0.000120323
0.000112569
0.00012751
0.000126526
0.000101354
0.00010247
0.000108474
9.18286e-05
9.61872e-05
0.000109494
0.000103171
0.000109742
8.97187e-05
0.000115088
9.85892e-05
0.00012066
0.000117763
0.000109752
0.000104443
0.000116816
0.000129436
8.0267e-05
0.000129706
0.000125209
0.000105697
0.000123242
0.000103304
0.000121747
0.000105738
0.000120495
9.94305e-05
0.000108311
0.000135945
0.000129168
0.000111628
0.000119816
0.000109266
8.1894e-05
0.000105691
0.000107077
0.000139365
0.000119166
0.00012153
0.000134055
0.000113795
0.00011713
0.000124489
0.000128261
0.000109943
0.00011402
9.71806e-05
0.000130286
0.000116293
0.000118302
0.000115417
0.000103609
0.000111693
0.000129981
9.56916e-05
0.000125442
0.000134992
0.000119746
0.00011334
0.000109134
0.000120399
0.000116766
0.000105706
0.000127911
9.8466e-05
0.000138096
0.000115275
0.000114921
0.000111021
0.000105427
0.000102421
0.000100488
0.000129625
0.000109485
0.00012996
0.000106305
0.000111746
0.000125961
0.000113272
9.85696e-05
0.000125671
9.03965e-05
0.00012153
0.000119769
9.80603e-05
8.6889e-05
9.59942e-05
0.000100985
0.000123725
0.000138037
0.00013489
0.00012957
9.29843e-05
0.000124039
0.000129558
0.000131688
0.000126956
0.000130299
0.000102198
0.000112304
0.000110858
0.000117982
0.000120066
0.000102925
0.000104678
9.82141e-05
0.000134721
0.000116514
0.000114551
0.00010865
0.000109633
8.09694e-05
0.00010742
0.000116191
0.00012024
0.00010597
9.88774e-05
0.000124058
0.00010701
0.000125814
0.00013192
9.80717e-05
0.000115742
9.93265e-05
0.000110423
0.00010475
0.00010323
0.000111044
0.000102833
9.42606e-05
0.00011104
0.000112376
0.000123194
0.000118923
9.81509e-05
9.67356e-05
0.000111592
0.000113334
0.000114078
9.67894e-05
9.62922e-05
0.000123722
0.000118515
0.000113229
0.000137344
0.000121479
0.000118542
0.000116158
0.000125574
0.000107834
0.00013139
0.000109411
0.000111806
0.000123405
0.000112388
9.80808e-05
9.68024e-05
0.000133348
0.000123446
0.000123119
0.000123304
0.000104038
0.000112875
0.000110153
0.000104729
0.000104709
0.000125424
0.000102045
0.00010546
9.89028e-05
0.000108388
4.10089e-05
0.000135326
0.000119278
0.000109952
0.000118792
0.000119031
4.54796e-05
0.000118877
0.000117654
0.000104579
0.000117301
0.000126028
0.000112745
0.000131689
0.000120505
0.00012855
5.0083e-05
0.000125227
0.000124683
8.93636e-05
0.000101007
0.000122227
8.84272e-05
0.000106849
0.00011978
0.000112982
0.000124204
0.000101218
0.000109334
9.86529e-05
0.000108035
9.47534e-05
8.47311e-05
0.000105249
0.000117431
0.00011119
0.000140544
0.000116298
0.000102735
0.000123908
0.000111772
0.000105372
9.26219e-05
0.000105092
0.000129909
0.000123476
9.78152e-05
6.22238e-05
0.000118885
9.91674e-05
9.82348e-05
0.000109526
9.18135e-05
0.000122988
0.000108092
0.000110217
0.000108167
8.11398e-05
0.000124847
7.96321e-05
0.000116001
0.000128416
0.000110322
0.000113734
0.000113142
0.000117972
0.000128743
0.000101546
0.000116281
0.000112804
0.000124206
0.000119214
0.0001151
0.000117096
0.000113945
0.000132322
7.91144e-05
0.000116642
0.000100284
0.000129768
9.77622e-05
8.81566e-05
0.000116102
0.000128919
0.000134585
7.87519e-05
0.000114902
8.58287e-05
9.29062e-05
0.000119116
0.000105668
0.000109647
0.00011001
0.000124373
0.0001337
0.000128057
0.000115632
0.000124726
9.31509e-05
8.13074e-05
0.000106589
0.000122746
0.000117778
9.24457e-05
0.000123886
0.000132401
7.08887e-05
0.00011365
9.93339e-05
0.000127685
0.000122688
0.000117104
9.85389e-05
0.000132135
0.000114688
9.86255e-05
7.12218e-05
0.000101188
9.62637e-05
0.000125241
9.37141e-05
0.000120207
9.6803e-05
8.72811e-05
0.000102282
9.09904e-05
0.000127781
0.000126009
0.000125547
0.000101859
0.000110893
0.000127642
0.000103287
8.47536e-05
0.000105282
0.000109843
0.000135673
0.000111042
8.66537e-05
8.65376e-05
8.25946e-05
9.58091e-05
0.000109274
0.000109007
0.00013115
0.000108615
0.000131243
0.000138763
0.000135702
7.72536e-05
0.000111074
0.000111385
0.000108908
0.000117906
0.00012141
0.000120255
0.000106724
0.000112859
0.000110598
0.000106791
0.000123912
0.000107408
0.000111132
0.00010571
0.000105004
0.000103316
9.93616e-05
0.000121276
8.37808e-05
8.36501e-05
0.000110101
0.00010864
0.000115486
0.000105698
7.8069e-05
0.000108537
7.06542e-05
0.000139226
0.000105931
9.18169e-05
0.000111055
0.000118229
0.000125716
0.000124207
0.000105924
0.000112155
0.000122258
9.73754e-05
0.000123998
0.000101594
0.000115098
0.000141553
0.00012076
0.000128202
0.000153703
9.53549e-05
0.000123459
8.91203e-05
9.30344e-05
0.000129145
9.87857e-05
0.000111537
8.05481e-05
0.000107244
9.64367e-05
0.000111095
0.000128783
9.26691e-05
8.46548e-05
9.13877e-05
0.000101824
9.78396e-05
0.000157531
0.00010581
0.000117228
0.000110271
0.000114231
0.000154847
0.000107695
9.6483e-05
0.000117985
0.00012104
8.57091e-05
0.000106077
7.62703e-05
0.000108432
9.8054e-05
0.00010829
0.000104593
9.55813e-05
0.000103645
0.000118978
0.000130088
0.000118198
0.000106774
7.10333e-05
0.000108905
0.000128891
0.000113324
8.88033e-05
9.11513e-05
0.000124976
7.70202e-05
0.000122776
8.53791e-05
9.74309e-05
7.99561e-05
9.67364e-05
0.000113685
0.000108052
0.000108121
0.000108774
0.000117803
0.000105564
0.000121547
0.000127698
0.000105513
0.000110932
0.000109023
0.000133009
8.08773e-05
0.000121756
0.000128067
0.000103739
0.00012731
0.000110868
8.71182e-05
0.000113857
0.00011648
0.000126608
0.00014734
0.000138535
0.000114881
0.000114991
0.000110745
0.000137187
0.000103293
7.25666e-05
0.000113668
7.64179e-05
0.000118064
0.00011435
9.03121e-05
9.71531e-05
9.23477e-05
8.51704e-05
0.000102969
7.71229e-05
0.00012273
0.000120456
0.000110605
0.000130217
0.000102858
9.97443e-05
0.000126314
0.000103426
0.000123664
0.000105102
0.000134937
0.000129692
0.000123629
8.10048e-05
0.000102603
0.000102465
9.31691e-05
0.000107801
0.00012851
0.000115867
0.00012676
9.61714e-05
9.77738e-05
0.000111854
8.2466e-05
9.73025e-05
0.000124251
9.11157e-05
0.00011225
9.43167e-05
0.000116445
9.29228e-05
0.000116983
0.000123347
0.000122921
0.000112084
0.000102775
0.000102886
0.000114412
0.000122299
0.000107263
0.000124846
0.00013116
0.000115759
0.000108586
9.99092e-05
0.000114799
0.000132726
0.000137823
8.56628e-05
8.4022e-05
0.000117929
0.000122022
0.00013219
0.000108953
0.000110191
0.00012182
0.000111182
0.000130526
9.36555e-05
0.00010811
0.000101422
0.000106645
0.000109032
0.000130948
0.000107399
0.000121885
0.000126854
0.000106745
9.35738e-05
0.000116007
0.000113035
0.000131168
0.0001306
0.00011152
9.42532e-05
0.00010318
0.00012857
9.36819e-05
0.000102114
9.79612e-05
9.71618e-05
0.000138167
0.00012805
9.39313e-05
0.000124229
0.000132799
0.000127389
9.89473e-05
0.000119182
0.000117231
9.62153e-05
0.000123806
8.22397e-05
0.000105173
0.000122237
9.87209e-05
0.000151226
0.000127358
0.000122218
9.03271e-05
0.000174934
8.6503e-05
0.000115666
0.000116297
0.000134918
8.37557e-05
9.32828e-05
0.000116786
0.000130954
0.000107575
0.000132482
0.000141229
0.000122657
0.000100195
0.000102317
8.67681e-05
0.000129383
8.61827e-05
0.000137042
8.95033e-05
0.000109698
0.000114699
9.97325e-05
0.000105353
0.000141442
9.15e-05
0.000131519
0.000110221
0.000121103
0.000130743
0.00014924
0.000103766
0.000100867
8.35125e-05
0.000125221
8.86708e-05
0.000114144
0.000121458
0.000107202
0.000120921
0.000134368
0.000112354
0.000141248
0.000108683
0.000122639
8.86706e-05
0.000100338
0.000103455
0.000135477
0.000115268
0.000122562
0.000123959
0.000129487
0.00012893
0.000137617
0.000120043
0.00010273
0.000119778
0.000123612
0.000114621
0.000121682
9.88296e-05
0.000111075
0.000100039
9.04815e-05
0.000131833
0.000108529
0.000124632
0.00011023
0.000122306
0.000107984
0.00010351
9.92171e-05
0.000104939
0.000115851
9.76462e-05
0.000105679
0.000111388
0.000118652
9.92402e-05
0.000109611
7.47896e-05
0.000129054
0.000105433
8.7715e-05
6.59349e-05
0.000111542
7.08968e-05
5.74611e-05
0.000117264
9.04001e-05
0.000113101
0.000101722
0.000117297
9.38919e-05
0.000125591
9.52567e-05
0.000104812
0.000135904
0.00013829
0.000131413
8.43593e-05
7.77626e-05
0.000135655
0.000103457
7.78431e-05
0.000117711
0.000128676
0.000108272
0.000125931
0.000112683
0.000119878
7.57765e-05
0.000155588
0.000135569
7.51932e-05
7.7971e-05
0.000112353
0.000104058
0.000114624
0.000122612
9.56572e-05
0.000116784
9.57692e-05
9.24172e-05
9.94378e-05
9.37737e-05
0.000113054
0.000118089
0.000104721
7.11461e-05
7.57548e-05
0.000143174
7.89105e-05
0.000120982
0.000102297
0.000121613
0.000103814
0.00011914
0.000122325
0.000117471
0.00012768
0.000109647
9.25308e-05
0.000100851
0.000116405
8.92712e-05
0.000125939
0.000127375
0.000121323
0.000145469
0.000101564
0.00010345
0.000121381
0.000126036
9.41329e-05
0.000100102
0.000122833
0.000112097
0.000116828
9.43698e-05
0.00010474
0.000123742
9.55263e-05
0.000134926
9.73382e-05
0.000121512
0.000138726
0.000103353
8.91651e-05
0.00012068
0.000108136
0.000126215
0.00012938
0.000133919
0.000147847
0.000122874
0.000158331
0.000125483
8.75452e-05
9.98025e-05
0.000140797
9.01962e-05
0.000102936
9.4006e-05
6.55237e-05
0.000139591
0.000105392
0.000111929
0.000112031
0.000142673
0.000113127
7.98265e-05
0.000125738
0.000124348
9.82472e-05
0.000121158
0.000121429
0.000107098
0.00011547
0.000120767
0.000125839
0.000109235
0.000139277
0.000113717
0.000106353
8.49692e-05
0.000107269
7.52929e-05
9.04688e-05
0.00012172
0.000112192
0.000113784
0.000102119
0.000116069
9.37337e-05
0.000120884
7.95569e-05
0.000116539
0.000100021
0.000112821
0.000113212
0.000130031
0.000143746
0.000104374
0.000128097
8.55929e-05
0.000126896
0.000103496
0.000107319
0.000126911
0.000109775
0.000121857
0.000126501
0.000121679
0.000111691
0.000100358
0.000104253
0.000100915
0.000118026
0.000118639
8.96971e-05
9.66389e-05
0.000108092
9.21312e-05
0.000115659
0.000110186
9.41176e-05
0.000101694
9.26773e-05
0.000114528
0.000122124
0.000112933
0.000102815
9.03299e-05
9.83995e-05
9.64222e-05
0.000139599
0.000113958
0.000122107
0.000117335
0.000144014
0.000103612
9.06197e-05
0.000109435
8.83821e-05
0.000137498
0.000101141
9.53359e-05
0.000131559
0.00010797
0.000137936
0.000117085
0.000117359
0.000114356
0.000126331
6.50855e-05
0.000117991
7.28971e-05
0.000117623
6.67347e-05
0.000123164
0.000118112
7.27332e-05
0.000109284
0.000117052
0.000145571
7.41219e-05
8.25087e-05
0.000108067
0.000114546
7.86258e-05
0.000109063
0.000125562
0.000114582
8.56752e-05
0.000127481
0.000102635
9.9498e-05
0.00010822
0.000100454
7.6653e-05
0.000110656
0.000103323
0.000125575
8.47707e-05
0.000108256
8.92919e-05
6.58639e-05
8.02278e-05
9.92808e-05
0.000116856
0.00010501
7.66841e-05
0.000110945
7.95313e-05
0.000107112
0.000108861
0.000113747
0.000107215
9.01598e-05
0.000105885
0.000108796
9.75421e-05
0.000109475
0.000119571
9.93758e-05
0.000143704
0.000113384
0.000108703
0.000107093
7.81985e-05
0.000128212
0.000117054
9.02067e-05
0.000101335
9.13568e-05
0.000128398
0.000115344
0.000119081
0.000150509
0.000131911
9.81105e-05
9.72082e-05
9.5862e-05
0.000120004
0.000134985
0.000104775
9.39994e-05
0.000127125
0.000108296
0.000130602
0.000121654
0.000130149
9.36813e-05
0.000142377
0.000114491
7.71275e-05
9.85778e-05
9.36576e-05
9.80501e-05
0.000125138
0.000148118
0.000101981
0.000108254
0.000100072
0.000123698
7.50499e-05
9.51095e-05
0.000106415
9.71609e-05
0.00010743
0.000116862
9.60275e-05
8.65801e-05
9.79213e-05
0.00013063
0.00011186
0.000118548
0.000122694
9.77588e-05
0.000119345
0.000108215
0.000112938
0.000105903
0.000109965
8.34064e-05
0.000121515
0.000102979
0.000103896
0.000101265
0.00013092
8.26583e-05
0.000103644
0.000125895
0.00011887
0.000111586
0.000109616
8.61741e-05
0.000114717
8.82696e-05
0.000113603
8.6919e-05
9.25861e-05
0.00010883
0.000122673
0.000119222
9.15438e-05
0.000104411
0.00010283
0.000106326
9.17651e-05
0.000108862
0.000119788
0.000119213
0.000106988
0.00012939
0.000111498
9.59389e-05
0.00012674
0.000116729
9.51892e-05
0.00010375
9.03961e-05
0.000106464
8.85195e-05
0.000121089
9.16701e-05
0.000107563
9.73373e-05
0.00010974
0.000101274
0.000116885
0.000151525
0.000111588
0.000102594
9.34247e-05
0.000104179
0.000114203
0.000114189
0.000126852
6.68387e-05
0.000118214
0.00011868
0.000104757
0.000102716
0.000116964
8.56132e-05
8.99728e-05
0.000107867
0.000113628
0.000113212
0.00012717
0.00012975
0.000114216
0.00011184
0.000136764
0.000107849
0.000131668
0.000126907
0.000124323
0.000125804
0.000135255
0.000163134
0.000123099
0.000115242
0.000129615
0.000108972
9.7735e-05
0.000117509
0.000118644
0.000129638
0.000116083
9.86585e-05
9.60007e-05
0.000105024
0.000107775
0.000106245
0.000113362
0.000108529
0.000123184
0.000114593
8.10346e-05
0.000117413
0.000113089
0.000104384
8.47426e-05
0.000130447
9.40888e-05
0.000108331
0.00011374
0.000135514
0.000142713
0.000107287
0.000106479
9.63861e-05
9.99285e-05
0.000100472
0.000136845
9.7155e-05
0.000154932
0.000130877
0.00013867
9.06276e-05
7.73402e-05
0.000110175
9.44327e-05
0.000107375
0.000114936
9.94732e-05
9.68028e-05
0.000119998
0.000122522
0.000125906
9.33723e-05
0.000122839
0.000110885
9.79026e-05
0.000112427
0.000127717
0.000124349
8.00711e-05
0.000143807
0.00012295
9.42939e-05
0.000107248
0.000114177
0.000117114
0.000163304
0.000147729
0.000107239
0.000106449
0.000134829
0.000108896
9.10002e-05
9.97308e-05
0.000126764
9.59541e-05
0.000130625
0.000110407
7.66147e-05
9.05895e-05
0.000133423
0.000153966
8.89014e-05
0.000119536
0.000132766
0.00010934
0.000107512
0.000113654
8.04695e-05
0.000105882
7.34874e-05
0.000124709
0.00012195
0.000104161
0.000122961
9.05101e-05
0.000114263
0.000106659
0.000110659
0.000122397
0.000104904
0.000124463
8.1908e-05
0.000117817
0.000134252
0.000126419
0.000123838
0.000125167
9.22995e-05
7.60449e-05
0.000121101
0.00013904
0.000100182
0.000109414
0.000123577
0.00011891
0.000125267
0.000137152
8.96712e-05
0.000114952
8.03129e-05
0.00011162
0.000100363
7.36421e-05
0.000126186
8.82502e-05
0.000102422
0.000136077
0.000103635
8.70805e-05
0.000103901
0.000108639
0.00010916
9.92282e-05
0.000132317
0.00010887
8.28782e-05
9.64509e-05
0.000117834
0.000126282
0.000116046
8.75424e-05
8.44877e-05
8.54825e-05
0.000110179
0.000112268
0.000111048
0.000102168
0.000138693
9.50969e-05
0.00010601
0.000102825
0.000121447
6.94092e-05
0.000103567
8.76929e-05
0.00013625
0.000108815
0.00013087
0.000107823
0.000122862
0.000115073
0.00010831
0.00011193
8.83718e-05
0.000123078
8.1539e-05
0.000100645
0.000110855
0.000103305
0.000120101
0.00010269
0.000123385
9.91898e-05
0.000118658
9.95314e-05
0.000110363
0.000113511
0.000107364
0.000103764
0.000123014
0.000114146
9.97752e-05
0.000107631
8.42346e-05
0.000121621
0.000112533
0.000113824
0.000132726
0.000101675
0.000178094
0.000124688
9.7211e-05
0.000122786
9.30922e-05
0.000146244
9.90641e-05
0.000107966
7.4345e-05
0.000108756
0.000155964
0.000143587
0.000134648
0.00011705
9.55553e-05
0.000115436
0.000144955
0.000135646
0.000135032
0.000122919
0.000113029
0.000120892
0.000109936
0.000103579
0.00010064
0.000120547
0.000128001
0.000125763
9.30045e-05
0.000123441
0.000107823
8.39069e-05
0.000108245
0.000118417
0.00010898
0.000113099
0.000101813
0.000126943
7.31351e-05
6.46663e-05
6.81802e-05
0.000100905
7.2819e-05
0.000129039
6.68594e-05
8.07653e-05
8.14324e-05
8.93241e-05
0.000110375
0.000104926
0.000134375
0.000123467
0.000102228
9.74367e-05
0.000101076
0.000113326
0.000107813
0.000132469
0.000133325
0.000138165
0.000100408
0.000130785
9.5923e-05
9.00262e-05
0.000117835
0.000120297
5.24258e-05
9.80911e-05
0.000104747
0.000110201
0.000120702
0.00010356
0.000116987
0.00011578
0.000116609
9.58868e-05
0.000113567
0.000103121
0.000115904
0.000120646
9.38314e-05
0.00014024
0.00011883
0.00012865
0.000113676
0.000139875
0.00010887
0.000101203
0.00012794
0.00011625
8.72892e-05
0.000117069
0.000126815
0.000108897
0.000112364
0.000135294
9.13838e-05
0.000112086
0.000115811
0.000118192
0.000147755
0.000101884
0.000125356
0.000121682
0.000113469
0.000111163
0.000124635
9.09028e-05
9.84801e-05
0.000125726
0.000114696
0.000113613
0.000142724
9.78988e-05
0.000106113
0.000104118
0.000114744
0.000126408
0.00011907
0.00013144
0.00013103
0.000144518
0.00010333
0.000130059
0.000114395
0.000103184
0.000125037
9.06012e-05
8.15104e-05
0.000100422
0.000112131
0.000121108
0.000135678
0.000121809
0.000116415
0.000108889
9.12544e-05
9.85405e-05
0.000124527
0.000115409
0.000110562
0.000101195
0.00013927
0.000124288
0.000102876
0.000110224
0.000108152
0.000104698
0.000118743
0.000102248
0.000128749
0.000100685
0.000103049
0.000114628
0.000123398
0.0001075
9.66544e-05
0.000103579
0.000125488
0.000107711
9.42656e-05
0.000140645
0.000130307
0.000123761
0.000104378
8.6172e-05
0.000118806
0.000116932
9.27132e-05
0.000112632
8.46895e-05
0.000148819
0.000118073
0.000129827
0.000120148
5.79971e-05
0.000105175
9.35559e-05
8.44093e-05
0.000131247
8.98451e-05
7.54133e-05
0.00011587
0.000101126
7.36123e-05
9.45063e-05
0.000119956
0.000121929
0.000112105
8.01753e-05
0.000110607
0.00013314
0.00010258
0.000114205
0.000106198
0.000118226
0.000104325
8.89119e-05
0.000101999
0.000129865
0.000122633
8.43404e-05
0.000103145
0.000101709
0.000135492
0.000104636
0.000100796
9.18404e-05
0.000102012
0.000122008
0.000118002
9.69864e-05
0.000105091
0.000107803
0.000103789
0.000100443
8.80426e-05
0.000107179
0.000114358
8.81641e-05
0.000101492
0.000131104
4.81211e-05
0.00010859
0.000133311
9.7428e-05
0.000141146
0.000121028
0.000108
0.000106374
0.000102814
0.000111265
0.000111283
0.000103898
8.48633e-05
0.000119724
0.000108243
0.000136395
0.000125204
0.00012487
0.000119732
0.000109458
0.000105252
0.000108716
0.000103484
8.9256e-05
0.00011208
0.000108076
0.000108809
0.000110647
0.000125879
0.000127562
0.000112314
7.67761e-05
0.0001189
0.000100124
0.000114302
0.000112275
7.41745e-05
0.000116837
7.65921e-05
0.000106027
0.000104949
7.4355e-05
0.000108757
0.000108377
0.000102565
0.000113974
0.000128739
0.000124078
0.000134737
0.000101846
0.000110759
0.00011729
0.000144901
0.000135827
0.000119549
9.99252e-05
0.000104117
0.000122789
0.000129237
0.000132504
0.000124753
9.84544e-05
0.000127279
0.000110111
0.000108648
0.000133853
9.17823e-05
0.000114826
8.88462e-05
0.000112238
0.000100215
8.79512e-05
0.000117494
0.000104141
0.000114929
0.000120015
9.79331e-05
8.97397e-05
0.000109281
9.7037e-05
9.46342e-05
8.78695e-05
0.000126361
8.99319e-05
0.000105935
8.99889e-05
8.14e-05
0.000100103
7.41118e-05
0.000108532
0.000114886
0.000107167
9.87061e-05
0.00014386
0.000118575
0.000126095
9.23531e-05
0.000113954
9.58553e-05
0.000126552
0.000142564
8.36513e-05
9.92189e-05
0.000116147
7.65506e-05
7.65937e-05
8.37531e-05
0.000119082
0.000112407
0.000115978
0.000102256
0.000114917
0.000104279
8.32197e-05
0.000119018
8.47735e-05
0.000113579
0.000104369
0.000101369
0.000135305
0.000110586
0.000106461
9.43375e-05
7.76054e-05
0.000132373
0.000111107
8.53634e-05
0.00012683
0.000110839
8.59523e-05
8.61332e-05
8.26968e-05
7.69674e-05
0.0001089
9.9041e-05
0.00010099
0.000137283
0.000117631
0.000129691
6.18462e-05
0.000105191
9.65068e-05
0.000128885
0.000103766
0.000113972
8.2246e-05
0.000115848
0.000110828
0.00010124
0.000143765
0.000115706
0.00010979
0.000109907
0.000123212
9.46544e-05
8.58414e-05
0.000133514
0.000115984
0.000110602
0.000117189
0.000121181
8.44589e-05
0.000105652
0.000102604
0.000118082
7.72191e-05
0.000107713
0.000115459
0.000122489
0.000124829
0.000113771
7.07879e-05
9.24027e-05
0.000122835
0.000124185
0.000137053
8.09954e-05
0.000124188
8.26734e-05
9.78708e-05
9.15779e-05
0.000111957
0.000105476
8.27194e-05
0.000119913
0.000103701
8.49102e-05
0.000100239
0.000108607
0.000103132
0.000132305
9.73566e-05
9.31849e-05
9.85748e-05
0.000115069
0.000112904
0.000103547
0.000107368
0.000110052
0.000114657
0.0001043
9.05452e-05
0.000104378
0.000124971
0.000117152
7.85978e-05
8.3036e-05
9.32271e-05
0.000110408
0.000105681
9.50197e-05
0.000123797
9.68899e-05
0.000125092
7.53281e-05
0.00012098
9.21163e-05
0.000117489
0.00012005
9.41005e-05
0.000101799
0.000140508
0.000100068
0.000144084
0.000110497
7.62937e-05
0.000120955
0.000128831
0.000114219
9.76606e-05
0.000142266
8.25398e-05
0.000124308
8.45233e-05
8.39314e-05
0.000109524
9.63631e-05
7.82881e-05
0.000105029
0.00010764
8.52081e-05
9.51766e-05
6.89639e-05
7.6027e-05
7.64444e-05
9.11355e-05
0.000106841
0.000114121
0.000114015
8.96754e-05
0.000111488
0.000103223
0.000110313
0.000141425
0.000132364
0.000119
0.000114231
0.000100267
8.99098e-05
0.000116607
0.00010823
0.000135702
0.000130007
0.000107663
0.000101263
0.000112149
8.26248e-05
0.000108948
0.000109698
0.000115865
7.46384e-05
0.000105269
9.83969e-05
0.000114054
0.000118051
0.000105001
0.000102022
9.2569e-05
0.000100731
0.000109636
9.35032e-05
0.000110361
9.46275e-05
0.000133507
9.63619e-05
0.000107346
0.000121752
0.000122899
0.000112103
0.000108638
9.68717e-05
0.00011218
0.000101787
0.000100752
8.24882e-05
8.33545e-05
0.000111241
7.64682e-05
8.12435e-05
0.000115548
0.000127904
0.000127686
8.53431e-05
0.000139307
0.000111792
0.000125291
0.000106695
9.94174e-05
0.000118396
9.78955e-05
0.000100704
0.000126057
0.000109365
0.000139523
0.000111711
0.000115039
0.000104858
0.000125332
0.000108356
0.000104113
0.000122856
0.000110796
0.000108643
0.000110218
0.000108165
0.000110514
0.000109768
0.000101036
7.21354e-05
8.97612e-05
0.000129598
9.82483e-05
0.000116758
0.00012791
0.000104682
0.000107432
9.77073e-05
0.000120714
0.000101362
0.000114217
0.000120381
0.000113652
0.000111293
0.000108779
7.90808e-05
9.6715e-05
0.000112555
7.9528e-05
0.000114614
0.000109818
8.89465e-05
9.73905e-05
0.000124985
0.00012287
0.00015007
0.000107591
0.000141059
5.90653e-05
7.99569e-05
0.000117479
0.00011084
0.000102016
0.000112557
0.000124987
0.000105614
7.76824e-05
0.000121579
0.000141295
0.000122186
0.000137553
0.000108541
0.000116639
0.000112677
0.000123313
0.000119293
0.000116818
0.000122637
0.000118078
0.000119563
0.000107352
0.00011713
0.00010297
0.000114504
0.000119953
0.000109344
7.3144e-05
8.58455e-05
0.000103812
0.000117896
0.00010453
0.000113875
0.000108928
0.000120824
6.87425e-05
0.000100215
0.000118044
8.79258e-05
0.000103126
0.000140146
9.57923e-05
0.000109684
0.00014078
7.85355e-05
9.40506e-05
7.67293e-05
9.87213e-05
0.000130098
0.000125998
9.80717e-05
8.88733e-05
0.000107869
0.000144182
0.000124426
0.000115798
0.000129875
9.19805e-05
0.000115313
0.000147534
7.7906e-05
0.000115979
0.000105112
0.000143153
9.17502e-05
0.000107669
8.54243e-05
0.000119763
0.00012329
0.000115589
0.000142519
0.000104716
0.000106038
0.000115057
0.00012493
0.000110578
8.74669e-05
0.000118142
0.000104548
0.000105446
9.90615e-05
0.000113911
0.000110117
9.82257e-05
8.95059e-05
0.000116968
9.03972e-05
0.000123425
0.00013736
0.000134923
0.000112023
0.000113979
0.000109692
0.000134649
0.000111466
0.000112653
0.000111266
8.78207e-05
0.000105774
0.000115416
0.000102475
0.000101731
0.000113615
9.85096e-05
0.00010293
9.76012e-05
8.75756e-05
0.00010471
0.000147181
8.54584e-05
0.000103949
9.80179e-05
0.000108753
0.000125843
0.000126209
0.000118902
0.000100451
0.000109733
0.000102814
9.94619e-05
0.000105438
0.000101437
9.72265e-05
0.000111834
0.000119347
0.000102217
9.6602e-05
9.77798e-05
0.000106642
0.000121693
9.52359e-05
0.00010056
9.65521e-05
0.000102865
0.000106466
9.32358e-05
0.000105131
0.000113333
8.8571e-05
0.00010206
0.000125101
0.000124569
0.000102776
0.000113693
9.40826e-05
6.81088e-05
0.000135133
9.6805e-05
0.000108985
9.87457e-05
0.00010941
0.000139396
0.00011443
0.000130737
0.000140181
0.00011114
0.000105232
0.00011389
9.3335e-05
0.000105632
9.51131e-05
8.70938e-05
8.50882e-05
0.000121568
0.000106158
0.000109622
0.000125385
0.000122929
8.90946e-05
0.000100872
9.64632e-05
8.76653e-05
0.00010519
0.000119157
0.000100374
0.000102486
0.000106314
0.00011103
0.000113479
9.02087e-05
0.000104556
0.00012229
0.000102678
0.000110362
0.000112784
0.000113621
8.54906e-05
0.000106785
0.000138693
9.90275e-05
8.74847e-05
9.90508e-05
0.000108278
9.2425e-05
0.000113164
0.000104137
0.000116631
0.000102995
8.87836e-05
0.000104631
0.000112542
6.48909e-05
9.9334e-05
0.000102928
0.000102932
9.24436e-05
0.00012823
0.000107918
0.000113121
0.000110503
0.000100879
0.000135289
0.000100382
0.000100899
9.4125e-05
0.000113891
8.1529e-05
0.000136354
9.96045e-05
0.000116291
8.77231e-05
0.00011466
8.55077e-05
9.56935e-05
0.000125156
0.000109614
0.00011101
0.000114909
8.89319e-05
9.55257e-05
0.000139429
9.48748e-05
8.63065e-05
0.000102255
0.000116422
0.000112922
0.000110697
0.000114727
0.000113581
0.000111206
0.000103794
0.000117651
0.00011153
0.000132731
0.000107067
0.000112261
0.000114441
0.000101559
0.000117258
0.000113339
0.000118701
0.000105365
0.000120252
0.000110214
0.000112589
0.000124465
0.000103409
0.000105407
0.0001128
0.000156955
9.12058e-05
0.000118511
0.000130407
0.000141693
0.000113941
0.000129328
0.000125281
0.000121438
0.00010707
0.000120734
7.55392e-05
0.000141387
0.000129953
0.000120779
0.000105087
0.000113943
0.000132092
9.05089e-05
0.000123049
7.14459e-05
0.000119529
0.000125383
8.64572e-05
0.000107266
9.828e-05
0.000143233
0.000102284
0.000103629
5.99433e-05
5.82545e-05
0.000121243
8.39575e-05
6.5719e-05
9.87896e-05
9.30223e-05
8.7884e-05
0.000110187
5.91156e-05
0.000108862
0.000133923
0.000133021
0.000122639
6.96026e-05
0.000107416
9.11264e-05
0.000123911
9.69871e-05
0.000153077
9.06399e-05
0.000105954
0.000124412
8.35532e-05
9.9362e-05
9.27095e-05
8.97895e-05
0.000102214
8.80925e-05
0.00011376
0.000137062
0.000138964
8.40052e-05
9.5408e-05
9.22913e-05
0.000118983
7.75831e-05
8.6904e-05
0.000108112
0.000112292
0.000121398
0.000129967
0.000106264
0.000149007
0.000110201
0.000119555
0.000122622
0.000107042
0.000108962
0.000123687
0.000100196
0.00010662
9.76177e-05
0.000106679
0.00011253
0.000136825
8.39259e-05
0.00012221
9.9985e-05
8.35694e-05
0.000105694
8.47247e-05
8.14409e-05
0.000109715
0.000102419
8.45028e-05
0.000105539
0.000102321
0.000112741
8.29523e-05
0.000119768
0.000114813
8.71151e-05
0.000125525
0.000117568
9.82087e-05
0.000127213
0.000116623
8.80962e-05
0.000125275
0.000103366
8.44069e-05
0.000106853
0.000122654
0.000103607
8.44278e-05
0.000125963
0.000116759
0.0001147
0.000121213
0.000114166
0.00011438
0.000128592
9.48129e-05
0.00013591
0.000117962
9.68293e-05
0.000131571
0.000139282
0.000118655
0.000121857
0.000107455
0.000123605
0.000102243
0.000122313
9.11929e-05
0.000108323
0.000115879
0.000116325
0.000115831
0.000116953
0.000125919
0.000118338
8.34212e-05
0.000124391
0.000120322
0.000155475
0.000111719
0.000103796
0.000125182
6.37145e-05
0.00010311
0.000101269
0.000116437
8.33276e-05
0.000116769
0.000135034
0.000104579
0.000114129
0.000126489
7.19924e-05
0.000107938
0.000114007
0.000115837
0.00010853
0.00014441
0.000134855
7.05339e-05
0.000150677
0.000130584
6.89514e-05
0.00010592
0.000125025
6.5841e-05
0.000114657
0.000103591
0.000129648
0.00011662
9.5556e-05
0.000106228
6.83937e-05
0.000121073
0.000116124
6.87447e-05
0.000137014
0.000118905
7.43453e-05
0.000122802
0.000116912
0.000142389
0.000112253
0.000113871
0.000115686
0.000107444
8.16761e-05
0.000122299
0.000114534
8.2269e-05
0.000119981
0.000118509
7.79188e-05
0.00010176
0.000106547
0.000102396
0.000112732
0.000110908
0.000109276
0.000137911
0.000105155
0.000121302
0.000114745
7.26004e-05
0.000137052
0.000115075
7.31164e-05
9.76304e-05
7.76057e-05
0.000137308
0.000104998
0.000136543
0.00011343
6.80715e-05
0.000129094
7.25806e-05
0.000124074
0.000108278
7.4107e-05
0.000120956
0.000114838
0.000120038
7.90403e-05
0.000125679
0.000113906
7.1095e-05
9.94829e-05
0.00010815
7.8212e-05
7.35122e-05
0.000107592
0.000137938
8.76848e-05
0.000108741
7.05413e-05
0.000103272
0.000142277
0.000128571
8.34397e-05
0.0001207
9.19364e-05
7.47159e-05
0.000130025
0.000111583
0.000125775
7.30432e-05
0.000121284
0.000120781
0.000118078
0.000129518
0.000114205
0.000125439
7.01429e-05
0.000107075
0.000138589
7.85767e-05
7.62487e-05
0.00011223
0.000107139
0.000104754
0.000125266
0.000169504
6.59896e-05
0.000102362
9.39682e-05
0.000113672
7.60578e-05
6.72954e-05
6.85809e-05
0.000111838
7.13571e-05
0.000110804
7.4574e-05
7.69564e-05
0.000109986
0.000118965
0.000119016
0.000115795
8.05276e-05
0.000128377
0.000118947
0.000125398
0.000107263
0.000108395
0.00014305
0.000140794
0.000123953
0.000118471
8.2235e-05
0.000135243
0.000124828
0.000129167
0.00012478
7.0705e-05
6.96542e-05
0.000101238
0.000110718
0.00010271
0.000113254
9.54697e-05
0.000109551
0.000100826
8.40662e-05
8.55926e-05
0.000100107
7.95549e-05
0.000112423
0.000105553
0.000113319
8.47278e-05
0.000107912
0.000116371
0.000103844
0.000116684
0.000119017
0.00010957
7.78483e-05
0.000124448
0.00011462
0.000102106
0.000138094
7.41043e-05
0.000110766
0.000119202
0.000115504
9.81196e-05
0.000116016
0.000106864
0.0001052
8.38798e-05
0.000106059
0.000128499
0.00012206
9.0921e-05
8.04153e-05
0.000107745
7.4801e-05
9.26862e-05
0.00012602
0.000134867
9.8348e-05
0.000139999
0.000114614
0.000114915
0.000118396
0.000143703
0.000135001
9.56799e-05
7.52074e-05
0.000123124
9.70904e-05
7.53776e-05
0.000125447
0.000127405
0.000141582
0.000101473
0.000116655
0.000129125
0.000106702
0.000109568
0.000112873
7.75665e-05
0.000122129
9.82677e-05
8.8917e-05
0.000133597
0.000123893
0.000137686
7.90884e-05
0.000113173
0.000151296
0.000109572
8.22307e-05
9.32553e-05
9.4941e-05
0.000109255
7.93499e-05
9.25928e-05
0.000101773
7.49931e-05
0.000116662