/*--------------------------------*- C++ -*----------------------------------*\
| =========                 |                                                 |
| \\      /  F ield         | OpenFOAM: The Open Source CFD Toolbox           |
|  \\    /   O peration     | Version:  v2012                                 |
|   \\  /    A nd           | Website:  www.openfoam.com                      |
|    \\/     M anipulation  |                                                 |
\*---------------------------------------------------------------------------*/
FoamFile
{
    version     2.0;
    format      ascii;
    class       volScalarField;
    location    "0.5";
    object      CH4;
}
// * * * * * * * * * * * * * * * * * * * * * * * * * * * * * * * * * * * * * //

dimensions      [0 0 0 0 0 0 0];


internalField   nonuniform List<scalar> 
108993
(
1.63705e-230
7.96503e-222
2.66907e-148
0
0
0
0
0
0
0
0
0
0
0
0
0
0
0
0
1.02382e-265
0
0
2.51836e-201
0
0
0
0
0
3.82144e-285
0
0
9.18e-289
0
0
0
0
0
0
8.31699e-88
0
0
0
0
0
0
1.26871e-137
0
1.41386e-241
0
0
0
0
1.00036e-208
0
0
0
0
0
0
0
0
0
0
0
0
5.19045e-293
0
0
0
0
0
0
0
0
0
0
0
1.26023e-225
0
0
0
2.60463e-296
0
1.49656e-241
0
3.63333e-292
3.15855e-224
3.10647e-202
0
0
0
0
0
0
0
0
0
0
0
0
0
0
0
0
0
0
0
0
0
0
0
0
0
1.15493e-94
0
1.85155e-85
0
1.66267e-221
0
0
0
0
1.31905e-97
0
0
1.6257e-90
0
0
0
0
4.30539e-182
0
0
3.88419e-61
0
0
0
0
0
0
0
0
1.93331e-112
0
0
0
0
0
0
0
0
0
6.0251e-146
5.01784e-36
0
1.98274e-128
2.11749e-232
0
0
0
0
0
0
0
0
6.96351e-117
0
0
0
0
0
0
2.58729e-109
0
0
0
1.86274e-114
0
0
0
0
0
0
0
0
0
0
0
0
0
0
0
0
0
0
0
0
0
0
0
0
0
0
0
4.78633e-216
1.45522e-53
0
2.07692e-123
0
0.000939063
1.17056e-161
0
8.78425e-114
2.24696e-119
0
0
0
0
0
0
7.78806e-285
0
1.37566e-147
7.16233e-116
0
0
0
0
3.63266e-68
0
2.2402e-136
0
0
8.22488e-277
0
0
0
0
0
0
0
0
0
0
0
0
0
0
0
0
0
0
0
0
0
0
0
3.38252e-177
0
0
0
0
0
3.02849e-87
0
1.9027e-237
0
5.90343e-298
0
0
0
3.27115e-164
0
8.22675e-08
0
0
0
0
0
0
3.05949e-220
0
2.62524e-139
0
0
0
0
3.29074e-224
9.72292e-178
1.76061e-166
0
0
1.29792e-221
0
0
0
0
0
0
0
1.1316e-79
0
0
0
0
0
0
0
0
1.3269e-121
0
0
0
0
0
0
0
7.17762e-156
4.07146e-116
0
0
0
0
0
0
0
0
0
0
0
3.44299e-288
3.47822e-61
1.00783e-15
0
0
0
0
0
0
0
0
3.80103e-83
9.29408e-233
0
0
0
4.5057e-190
0
0
0
0
0
0
2.45794e-164
0
0
0
3.91573e-171
0
0
4.27669e-120
6.41405e-241
0
0
0
0
0
0
0
0
3.20509e-134
9.10287e-136
0
3.36164e-19
9.92951e-204
0
2.51234e-183
0
0
0
0
3.91127e-45
0
6.36322e-66
0
4.22098e-223
9.50839e-189
0
6.71089e-238
1.13637e-142
9.97747e-48
9.73615e-235
2.36823e-44
2.75531e-230
8.69596e-167
0
8.41731e-09
0
1.11337e-84
0
0
7.36727e-108
1.94662e-115
0
0
1.29985e-250
9.06611e-218
0
1.44733e-158
7.19545e-06
0
3.84165e-203
3.48702e-52
0
2.24549e-229
0
0
8.267e-198
0
0
0.000817591
4.618e-216
1.1961e-06
0
0
3.81415e-10
0
0
0
0
1.11002e-07
9.57191e-112
6.62021e-07
0
0
3.31909e-231
0
2.01027e-299
0
0
0
0
1.28627e-219
0
0
0
3.92448e-159
0
0
0
0
0
0
0
0
0
0
0
0
0
0
2.35733e-139
0
2.15269e-55
0
0
0
0
2.38571e-165
1.80377e-154
0
0
0
5.08316e-128
0
0
0
4.37387e-192
0
1.47424e-89
0
0
0
0
7.76391e-111
1.685e-162
6.51358e-154
0
0
1.45246e-213
0
0
7.47094e-84
1.76069e-154
0
0
1.25571e-108
0
0
0
0
0
0
3.80756e-174
0
1.16407e-54
2.59904e-192
0
3.50093e-113
2.50463e-187
0
0
0
1.02889e-151
0
0
0
0
0
5.06574e-287
0
0
0
2.0659e-194
0
0
0
4.79616e-211
0
1.12936e-202
0
0
1.86402e-92
8.90744e-235
0
0
0
0
1.40935e-204
0
0
0
0
0
0
0
0
0
0
0
0
0
1.0495e-112
0
0
0
0
0
0.00547941
0
1.23044e-194
0
0
0
0
0
0
0
0
0
3.06945e-160
0
0.0131819
0
0
3.74893e-150
0
2.84785e-214
6.38799e-17
0
4.1384e-150
0
2.13249e-212
0
0
0
9.04074e-133
0
1.31319e-208
0
0
0
0
2.68788e-198
1.07187e-09
0
0
0
2.47922e-245
0
0
0
0.000409344
0
0
0
6.18064e-06
0
1.61239e-135
0
3.69064e-30
2.40041e-154
2.15011e-114
2.51892e-161
0
0
0
0
3.48924e-117
0
0
0
0
0
8.32381e-256
0
0
1.98861e-94
3.06056e-136
0
2.70155e-40
0
2.71912e-80
0
0
0
0
0
0
0
0
1.47935e-119
0
0
0
0
2.5126e-146
0
4.68629e-94
0
0
3.6118e-68
0
0
0
0
0
5.33198e-188
5.06378e-166
8.28075e-186
1.94061e-194
0
1.12837e-142
0
0
2.50597e-183
0
0
0
0
0
0
4.99276e-114
0
2.01098e-189
0
0
0
0
0
0
5.66784e-185
0
0
0
1.53583e-98
5.04463e-142
1.1037e-263
0
0
0
4.82768e-175
0
0
0
0
0
0
2.59368e-253
7.16394e-85
0
0
0
0
0
0
1.46253e-84
1.31948e-227
0
0
0
0
0
0
0
0
0
0
0
0
0
0
0
0
0
4.19555e-80
0
0
1.85103e-84
0
0
0
0
0
5.64793e-166
0
0
0
0
0
6.77728e-197
0
0
9.84064e-104
2.21068e-113
0
0
0
1.26185e-125
0
0
0
0
0
0
0
0
0
4.36639e-91
0
0
0
0
1.37499e-150
0
2.0127e-239
0
2.36117e-164
0
0
3.62468e-147
3.26055e-150
0
8.64942e-76
1.61468e-62
0
1.30565e-144
2.10233e-12
0
4.82583e-197
0
4.5488e-36
1.81358e-138
4.53527e-145
0
1.83383e-226
0
0
0
0
0
4.18771e-127
0
0
0
8.65522e-96
0
0
3.54613e-26
0
0
0
0
7.21629e-138
0
0
0
0
0
0
4.80757e-127
0
0
0
0
7.74085e-47
0
0
0
0
5.43517e-10
7.62334e-226
1.05546e-229
3.76827e-135
0
8.66679e-122
0
0
1.62522e-214
0
2.09359e-267
1.21256e-123
0
0
0
0
0
0
0
0
0
4.30514e-136
0
0
0
2.74433e-154
3.27776e-156
2.43189e-237
4.70625e-08
0
7.46616e-06
2.4529e-153
8.02534e-10
1.36431e-145
6.17112e-145
8.89373e-239
0
0
0
0
0
2.60063e-140
2.78879e-151
5.12152e-159
0
0
0
0
3.32074e-117
9.04218e-80
0
0
0
0
0
0
3.71159e-81
0
0
0
1.33354e-180
1.45033e-156
2.65589e-115
0
2.19384e-163
0
0
0
0
0
0
0
2.22935e-88
0
0
0
0
0
3.55778e-61
0
0
0
3.19211e-275
8.30643e-23
0
0
0
3.18271e-49
0
0
0
0
2.09605e-106
0
0
0
0
1.40254e-135
0
0
0
1.74822e-103
3.24399e-240
0
0
1.14141e-120
0
0
0
0
2.13245e-96
0
0
0
0
0
0
9.55991e-47
0
2.21794e-118
7.04381e-281
0
0
0
0
0
0
0
5.96268e-136
0
0
0
0
0
0
2.66476e-156
5.13684e-92
0
0
0
0
3.34182e-141
0
0
1.12311e-90
0
1.53549e-209
1.2423e-101
1.3009e-150
1.81148e-136
0
0
0
0
0
0
0
0
0
0
0
2.64466e-153
0
0
6.40747e-179
0
4.36273e-300
0
0
6.71127e-160
1.26768e-233
0
0
0
0
0
0
0
0
0
0
0
0
4.03907e-119
0
2.90621e-141
2.33107e-229
0
0
0
5.43856e-166
8.25263e-66
1.11534e-157
0
0
0
0
0
0
0
0
3.84824e-170
0
0
0
0
0
1.9679e-190
0
1.16434e-102
2.39699e-251
0
0
0
0
3.02312e-140
0
0
0
1.18899e-51
5.50533e-159
0
0
0
0
0
0
4.15263e-121
0
0
0
2.44526e-126
0
0
0
0
0
0
1.48989e-127
1.01789e-132
4.11176e-08
0
1.00748e-219
2.13287e-130
3.47398e-220
2.10157e-124
0
1.03936e-124
4.58418e-143
1.35398e-127
4.93944e-184
0
0
1.60347e-106
0
0
0
0
0
0
5.1319e-191
9.54011e-88
0
1.55709e-131
0
0
0
0
0
0
6.30608e-178
0
0
0
0
0
0
0
0
0
3.53226e-228
0
0
0
0
3.94398e-05
0
0
0
0
0
0
0
2.46041e-215
0
0
0
0
0
0
5.7172e-202
0
0
0
0
0
0
6.5178e-98
0
3.98073e-128
0
0
0
0
0
0
0
0
0
2.01351e-81
0
0
0
0
0
0
2.71367e-16
0
0
0
0
0
5.66018e-133
0
6.02677e-201
0
0
0
0
0
0
7.49476e-169
0
2.7082e-198
4.6582e-151
2.41605e-157
4.06739e-138
1.54885e-40
0
1.61896e-165
0
0
0
0
0
0
0
5.40028e-248
7.95371e-44
0
0
4.88162e-115
0
1.1178e-112
0
0
3.68606e-235
0
2.57616e-117
0
0
0
9.82052e-56
5.03889e-114
0
0
0
0
0
0
0
0
0
0
8.451e-137
5.5184e-122
1.59107e-223
0
0
0
0
0
0
0
0
0
1.04819e-115
5.20604e-275
0
0
0
4.92314e-199
0
3.16544e-283
0.0347734
0
1.68465e-280
0
0
8.25928e-220
0
2.53092e-145
0
4.19146e-88
0
0
0
4.60306e-192
4.41931e-254
0
0
0
4.50425e-120
0
0
0
0
0
0
0
0
4.46198e-152
1.4755e-10
5.03491e-187
2.19114e-104
0
1.18025e-10
4.5493e-169
0
0
0
3.1965e-227
0
5.34575e-157
2.44151e-157
3.9965e-106
1.83034e-159
0
1.35552e-154
1.22144e-152
1.11175e-229
2.14942e-232
0
0
1.59066e-224
0
0
0
0
0
7.41921e-185
3.19601e-65
0
0
0
0
6.73817e-264
8.68002e-292
0
2.09748e-123
0
0
0
0
0
1.28976e-279
0
0
0
1.97882e-182
2.4915e-174
0
0
0
0
5.28091e-186
0
7.73295e-190
0
0
0
0
0
0
0
0
0
0
0
1.74925e-103
0
0
0
3.71341e-46
0
0
0
0
0
0
0
0
0
1.12566e-284
4.67178e-156
3.85246e-104
4.67591e-92
1.79417e-164
0
6.33758e-79
0
2.20658e-230
0
1.9901e-175
0
4.77196e-184
2.07594e-30
0
0
3.95543e-138
0
0
6.98072e-109
1.64463e-106
3.49058e-129
0
0
0
1.81341e-73
0
0
0
1.65756e-116
4.03321e-156
0
6.11892e-179
0
0
7.86213e-112
2.67033e-114
2.53242e-214
0
0
0
0
0
0
0
3.80326e-210
3.46912e-125
0
0
1.94913e-228
0
3.7584e-100
0
0
4.20133e-281
0
0
0
3.11028e-127
0
0
0
0
2.11992e-131
0
0
6.45243e-77
0
0
0
8.87867e-149
0
4.37444e-153
7.8088e-168
1.01294e-199
3.78114e-153
1.45413e-133
5.2039e-220
2.95517e-149
0
0
0
0
1.39554e-117
8.67721e-94
1.12512e-265
0
0
0
5.63039e-110
0
8.87236e-164
2.73294e-129
0
0
1.68453e-219
0
0
0
0
0
0
0
6.8148e-104
0
1.22632e-98
1.63538e-173
0
6.30884e-296
0
0
0
0
5.93366e-115
1.48521e-156
0
0
1.06962e-229
0
2.57857e-231
1.70388e-237
7.13364e-150
0
0
0
0
2.37705e-135
1.97268e-206
1.18392e-112
8.17304e-39
0
0
3.4136e-64
0
0
0
0
0
3.48193e-172
0
0
0
3.08307e-48
0
0
0
0
6.97667e-148
0
3.23579e-250
0
8.17517e-251
3.64937e-75
0
0
4.53591e-88
0
0
0
0
0
0
0
0
0
0
0
0
8.19085e-77
1.07997e-48
0
0
0
0
0
0
0
0
0
0
6.94707e-155
0
0
0
0
0
1.89259e-44
0
0
4.23481e-228
0
0
2.05469e-216
0
1.58574e-230
0
6.59536e-233
1.00169e-109
1.23052e-230
2.8704e-277
0
1.33265e-274
0
0
1.18074e-111
0
0
0
0
0
0
2.02565e-69
0
0
0
0
0
0
0
0
0
0
0
0
0
0
0
6.62946e-183
0
0
0
0
0
9.44295e-291
0
0
0
2.32888e-98
0
0
0
5.54421e-122
0
0
0
0
0
0
0
0
2.87553e-300
4.13578e-103
1.04855e-64
4.11897e-90
3.42913e-92
0
1.12559e-137
0
0
0
0
0
0
0
0
0
1.45783e-181
1.14973e-159
5.02724e-220
0
0
0
0
0
0
0
0
7.45534e-47
0
0
2.58141e-129
0
0
0
0
0
0
0
1.38005e-194
1.15731e-113
0
0
0
0
1.51816e-50
0
0
0
9.94479e-121
0
1.43438e-213
7.54353e-96
0
0
1.46556e-95
0
0
0
3.68412e-157
1.8841e-93
0
0
0
4.12801e-216
0
0
0
3.24448e-192
0
0
0
0
0
0
0
0
0
0
0
0
8.62713e-36
0
6.58024e-55
0
0
0
0
0
0
0
8.00239e-239
6.17189e-136
0
0.009125
0
0
2.42032e-41
1.83481e-65
3.20903e-22
0
0
7.28027e-208
0
0
0
0
0
0
0
0
0
2.19036e-97
0
6.97465e-88
8.14517e-170
0
0
0
1.54782e-27
1.08781e-32
3.39693e-180
4.02287e-151
0
0
0
0
0
0
0
1.67786e-102
0
4.06332e-99
0
0
4.12977e-115
1.73536e-101
0
1.02736e-23
1.19114e-116
0
7.91373e-228
0
0
0
2.18105e-294
0
7.20928e-176
0
1.83243e-48
0
2.21386e-42
3.24604e-69
0
0
3.45541e-80
0
1.84508e-99
0
8.13765e-288
0
7.26064e-272
5.739e-290
5.35665e-06
1.50358e-174
0
0
6.7104e-140
0
3.23789e-288
0
0
2.22356e-162
1.62012e-45
0
0
0
0
6.44225e-281
2.38149e-131
0
8.04491e-203
0
0
8.34051e-204
0
0
1.1544e-189
0
0
0
4.57227e-120
3.11769e-169
0
1.68275e-63
0
0
0
0
0
3.82861e-147
0
0
0
0
0
0
0
1.78796e-166
0
0
1.972e-171
1.00856e-210
1.00616e-72
0
0
0
4.32606e-106
3.14894e-160
0
3.54798e-133
1.45328e-101
8.52305e-256
0
5.56525e-90
0
8.57285e-153
0
3.23854e-79
9.45647e-184
0
0
3.50061e-28
0
2.94416e-76
0
2.89135e-92
6.9005e-21
0
0
0
0
0
0
0
0
0
0
0
1.28188e-172
5.00654e-164
0
4.25386e-227
5.56304e-134
1.03703e-229
0
0
0
1.16052e-157
0
6.51439e-162
0
0
0
0
9.57806e-192
0
4.09322e-112
0
0
0
1.50942e-189
0
0
0
1.13071e-177
0
1.25841e-162
0
1.09105e-135
1.08045e-57
0
0
0
8.8712e-165
0
0
2.31733e-296
0
0
0
4.98265e-69
2.55041e-46
0
0
4.26166e-42
1.08554e-154
1.61809e-91
0
0
0
0
0
3.32423e-287
0
3.1124e-278
7.60635e-83
1.01436e-170
0
0
0
0
0
0
0
0
0
0
0
0
0
0
0
0
1.722e-137
0
0
2.47266e-120
0
1.49183e-170
0
0
0
5.15795e-141
0
8.48725e-271
0
0
0
0
0
0
5.67308e-115
3.5361e-190
0
0
1.89365e-154
0
0
3.66507e-127
2.67529e-142
1.61747e-195
0
3.42681e-131
1.25117e-167
0
0
3.69592e-213
2.3907e-136
1.21098e-189
0
0
0
5.12729e-193
0
0
0
0
0
0
0
0
0
0
3.07495e-285
0
0
0
0
4.9012e-128
0
0
3.67272e-159
0
0
0
0
1.89648e-153
0
0
0
1.34944e-70
5.68952e-66
0
0
1.71215e-114
0
1.54432e-57
0
5.2699e-43
0
1.32672e-187
0
0
7.02693e-61
0
0
0
0
0
0
4.73526e-65
0
8.68676e-21
3.83564e-53
0
0
0
0
7.30869e-88
0
0
3.3271e-102
0
0
7.04683e-114
0
0
0
4.33953e-231
3.49105e-61
0
0
0
0
0
0
0
9.48369e-268
0
6.60767e-101
0
0
6.12229e-200
0
0
3.79114e-91
0
0
2.47408e-157
0
0
0
0
1.50621e-272
2.3608e-85
6.46965e-86
7.20518e-85
0
2.79286e-127
1.76987e-128
0
0
1.0772e-110
1.28883e-136
0
4.13916e-88
0
1.46304e-88
2.17538e-130
0
0
1.4016e-123
9.42599e-115
0
2.82933e-236
0
4.02005e-73
1.31742e-85
1.28134e-293
0
1.97425e-277
2.55933e-275
0
0
0
0
1.69417e-178
2.07987e-202
0
3.42329e-193
0
1.97096e-103
1.54082e-268
2.05893e-193
2.0316e-251
1.37752e-163
0
0
0
0
0
0
0
0
1.07198e-117
0
0
0
0
0
0
0
1.79708e-138
7.02216e-08
0
0
4.96234e-150
0
0
0
1.57231e-209
2.4766e-249
0
6.87663e-08
0
0
0
3.19057e-137
0
0
5.4743e-239
0
0
0
0
0
0
0
1.91345e-115
0
0
0
1.74353e-86
3.03238e-81
3.74809e-205
0
0
0
7.45339e-207
1.19237e-202
0
1.10428e-45
0
2.55432e-208
1.19496e-202
6.26888e-200
2.00781e-136
1.61992e-294
8.35656e-93
0
0
7.63628e-58
0
2.04903e-91
2.39448e-98
0
0
2.54506e-106
0
0
0
3.74869e-250
2.32201e-101
0
0
4.8013e-104
0
0
7.35203e-250
0
0
1.0304e-255
4.73571e-73
0
0
0
0
1.43544e-247
0
0
2.69402e-254
1.26411e-91
0
3.78061e-86
5.52874e-274
0
0
0
0
2.5061e-84
7.24206e-144
0
1.07054e-251
3.47919e-144
6.95606e-126
3.74969e-107
0
0
6.53001e-160
0
0
0
2.02988e-159
5.38759e-194
0
7.52288e-253
0
0
0
0
0
0
0
0
0
0
3.00449e-130
0
0
2.36632e-67
0
0
0
0
0
0
0
0
3.50311e-253
0
0
3.7773e-72
0
9.21698e-115
0
0
0
0
1.93048e-84
0
0
0
0
0
0
0
7.9054e-201
2.90413e-173
7.70138e-277
0
0
0
0
7.28879e-192
0
0
0
4.07666e-187
0
0
0
0
2.02987e-156
0
0
0
0
5.3831e-194
0
2.04174e-166
0
0
2.29333e-119
2.75152e-138
0
3.04637e-199
0
0
0
0
5.75288e-164
0
0
2.12264e-161
1.40887e-162
7.11402e-159
0
1.73677e-182
0
0
0
0
0
3.36078e-163
1.06992e-299
0
0
0
1.11393e-163
0
0
0
0
3.3127e-205
1.22608e-63
0
0
6.88767e-98
0
0
1.31573e-30
1.00337e-114
0
0
0
9.70674e-125
0
0
4.12191e-192
0
0
0
1.22759e-189
0
9.3677e-152
1.08001e-140
0
0
0
1.54304e-195
0
0
3.99996e-193
3.86435e-187
0
0
6.75563e-194
0
0
8.07933e-204
7.20055e-99
0
0
4.63769e-193
0
0
0
0
0
7.20178e-249
5.84432e-263
0
0
0
0
1.95828e-246
1.57256e-180
0
9.92736e-183
0
1.38099e-171
0
2.21249e-158
4.69629e-73
0
6.54633e-261
0
0
2.8233e-195
0
0
0
0
0
1.95865e-91
0
0
0
0
7.84035e-209
9.63309e-133
0
0
0
0
2.14702e-187
1.27767e-206
3.95163e-165
0
0
0
0
0
2.23341e-127
1.02349e-153
0
0
1.16425e-257
1.4596e-127
0
0
0
0
0
0
0
9.61975e-125
0
0
0
3.41689e-122
0
0
0
3.13235e-51
2.45961e-170
2.6067e-197
2.54342e-102
4.8193e-130
6.53235e-142
0
5.02606e-233
1.36759e-99
0
0
0
8.59155e-259
1.44927e-218
0
1.36919e-197
7.75689e-73
0
6.24059e-159
0
0
9.91928e-117
4.95506e-217
1.13665e-207
0
0
0
0
9.72097e-143
0
0
0
0
1.96855e-192
0
0
8.94883e-98
0
2.6387e-136
0
0
2.72624e-100
0
0
1.5641e-78
1.75886e-202
0
0
1.91457e-295
0
0
0
0
0
0
0
0
0
2.34806e-120
0
2.64319e-120
2.94622e-118
0
0
0
0
0
0
6.45415e-244
0
0
0
1.40181e-136
0
0
0
0
0
0
7.19377e-224
0
0
9.11845e-137
0
0
0
0
4.4719e-120
2.51123e-191
0
3.1088e-289
0
3.30297e-168
0
0
1.09274e-237
0
2.65981e-240
0
0
0
0
0
2.59325e-266
4.38829e-75
0
0
5.61144e-219
1.97447e-141
0
1.24509e-220
3.09563e-45
0
0
0
9.31326e-159
0
4.30311e-259
0
0
0
0
0
0
0
0
5.32568e-128
8.7881e-210
0
1.737e-263
0
9.64487e-77
0
0
0
0
0
0
0
0
0
0
0
6.2344e-228
9.8116e-224
0
0
0
0
0
0
0
0
0
1.09198e-228
2.67458e-151
5.81909e-259
0
1.4839e-233
0
0
0
7.969e-119
0
0
7.39981e-207
0
0
0
0
0
2.51579e-140
0
0
0
0
0
2.11105e-176
1.98041e-48
0
0
0
1.26646e-159
0
0
0
1.86195e-46
5.83033e-40
0
1.58412e-38
0
0
6.16137e-140
0
0
0
0
0
0
1.56359e-213
4.72674e-56
0
3.10256e-47
0
6.21495e-48
0
0
0
8.93297e-63
0
0
0
3.32787e-86
1.68387e-72
0
0
2.76329e-52
0
0
2.87169e-128
0
0
4.26544e-58
0
0
0
0
0
0
0
0
1.3674e-162
1.06195e-132
0
0
2.33566e-277
0
0
1.09452e-139
0
0
3.19885e-41
0
7.66585e-297
0
0
0
0
3.18361e-216
7.32558e-162
0
0
0
0
0
2.57192e-278
0
0
0
0
0
0
0
0
0
0
0
0
0
0
0
7.81638e-165
2.32952e-223
8.08301e-38
0
0
0
0
0
0
1.68663e-186
1.48992e-33
0
3.14723e-31
0
0
0
3.23877e-31
1.16752e-34
0
0
0
0
0
0
0
0
0
7.27128e-07
0
0
9.35684e-214
0
0
0
3.64781e-222
0
3.4066e-266
1.71823e-126
3.01714e-178
0
0
0
0
0
0
0
0
1.18538e-95
0
0
0
6.90757e-87
0
5.59429e-84
4.76795e-95
0
3.57021e-150
5.16566e-163
4.50392e-135
5.13639e-95
0
0
0
0
1.96023e-166
0
0
4.60601e-214
0
0
0
0
0
0
0
0
0
1.26879e-60
0
0
0
2.05222e-127
0
0
5.44643e-59
2.16796e-51
8.43314e-187
0
1.3798e-71
2.17146e-184
7.92971e-151
0
0
3.72817e-152
0
0
0
0
1.18921e-232
0
0
0
0
0
1.02135e-174
1.21852e-66
0
5.47846e-188
3.15301e-64
1.55103e-66
3.981e-63
2.15862e-162
0
0
0
0
3.57639e-70
8.58891e-186
0
0
8.72123e-201
2.34292e-136
0
0
0
0
1.56131e-153
0
1.3903e-238
0
1.74243e-102
0
0
0
0
1.60126e-170
0
0
0
0
6.57199e-79
2.78047e-144
0
0
0
6.49523e-86
2.1167e-42
1.23362e-144
0
0
0
1.03091e-260
0
0
0
0
0
0
0
9.96703e-196
0
0
0
0
0
8.03376e-136
2.52129e-164
0
0
0
0
1.29155e-151
0
0
0
0
0
1.13583e-175
3.94449e-154
0
0
0
0
0
0
4.45732e-237
0
0
0
0
0
0
0
0
0
3.35587e-231
0
0
0
0
5.02866e-165
1.77803e-64
0
0
0
0
0
8.88201e-176
0
0
0
0
1.4136e-148
0
0
0
0
1.82011e-195
1.07618e-161
0
0
0
1.05087e-144
1.38445e-233
0
0
0
0
0
7.17661e-140
4.92293e-155
0
3.41458e-234
0
0
7.35785e-223
0
2.23829e-146
0
0
0
0
1.60361e-161
0
5.2909e-159
1.28418e-216
2.64371e-167
7.67272e-121
0
0
0
0
0
0
0
0
0
0
0
0
0
5.4474e-287
3.22873e-38
0
0
0
0
0
0
0
2.82193e-90
0
0
0
0
0
0
0
0
0
0
0
0
0
0
4.93487e-169
0
0
0
6.46333e-69
0
0
2.11894e-168
0
0
0
0
6.43214e-183
0
0
0
0
4.65335e-99
3.47984e-33
0
7.27217e-174
0
0
0
0
0
0
0
0
1.33902e-55
1.16447e-163
1.30183e-166
3.08647e-174
0
0
4.90742e-124
9.77919e-103
0
0
3.8498e-101
0
0
0
0
0
0
0
0
0
8.55594e-100
0
0
0
0
0
0
0
0
0
0
0
0
0
0
0
0
0
0
0
0
0
0
0
0
0
0
0
0
0
0
0
0
0
1.06689e-77
0
1.6066e-76
0
2.88833e-124
0
0
0
0
0
0
0
0
1.8742e-203
9.60935e-27
1.90674e-120
1.06019e-251
3.89588e-156
1.7617e-198
0
0
0
0
1.04495e-43
0
1.08539e-56
7.42132e-232
0
0
0
0
0
3.37124e-224
0
0
0
6.20908e-69
2.68761e-190
8.88454e-132
2.88867e-185
0
8.68172e-188
0
0
0
0
0
0
0
2.19787e-126
5.39267e-110
3.53329e-185
1.28292e-138
1.46209e-120
0
4.10275e-115
7.66449e-149
2.89288e-190
0
0
4.60833e-123
1.30531e-120
0
0
1.54978e-99
6.79842e-63
0
0
0
0
0
0
0
0
2.26166e-140
5.05702e-62
3.92244e-118
1.73467e-178
5.20536e-106
0
0
0
2.32073e-161
3.55513e-256
2.34722e-191
0
0
0
5.92463e-55
0
0
5.86598e-258
0
0
0
3.51124e-114
3.43695e-70
5.07094e-172
0
0
3.72361e-156
0
0
0
4.19667e-94
0
2.09996e-81
2.33842e-240
1.51547e-197
0
0
0
0
3.04011e-70
8.70428e-173
0
2.56445e-174
0
0
4.6387e-164
7.63842e-111
1.77028e-83
3.92978e-128
2.93765e-278
0
0
0
3.49732e-83
0
2.17484e-96
0
0
0
0
0
4.10989e-44
3.81332e-154
0
3.5291e-168
0
0
0
6.99572e-281
2.01523e-166
0
0
5.26622e-05
0
0
0
0
3.42068e-247
1.27166e-188
0
0
0
0
0
0
0
0
0
0
0
9.83641e-238
0
0
0
4.48001e-08
6.14663e-74
0
0
2.47706e-195
4.62724e-282
0
0
1.86872e-119
6.21364e-171
0
1.59428e-05
1.81234e-67
0
3.33682e-120
9.53398e-46
0
2.48258e-24
0
7.11539e-262
9.29897e-22
0
0
0
0
2.75974e-60
0
1.63233e-172
0
3.58318e-180
0
2.28094e-104
8.83316e-165
0
8.83162e-24
1.77127e-20
0
2.67015e-12
6.71104e-23
0
0
2.4113e-21
1.59693e-158
0
6.54567e-258
0
0
2.0777e-272
0
0
1.86584e-159
4.86259e-15
9.63649e-74
3.03846e-209
0
0
0
0
6.88384e-34
0
0
0
0
0
0
0
0
1.83715e-69
0
0
0
0
0
0
0
0
0
0
2.03212e-225
5.93692e-88
0
3.42444e-29
0
1.61737e-49
1.75452e-20
0
5.46375e-241
2.37991e-20
0
0
3.27336e-24
0
6.34476e-86
0
0
0
5.19904e-27
3.04374e-87
0
0
0
0
0
0
3.36889e-187
0
6.32299e-134
2.44546e-84
0
1.87902e-42
0
0
4.43332e-220
0
5.51583e-17
0
1.59185e-46
0
3.89122e-181
8.32989e-185
0
2.36403e-86
0
0
9.23514e-229
0
6.16752e-105
3.22965e-219
0
0
2.96913e-186
0
0
0
0
5.88187e-184
0
0
7.64668e-184
2.39853e-192
0
1.00908e-261
0
3.6385e-253
3.24919e-181
9.38151e-34
0
0
4.73918e-97
1.20466e-268
1.47923e-300
0
2.08695e-285
7.12472e-148
3.77483e-52
3.9695e-206
0
1.39488e-288
0
0
7.62176e-54
9.7388e-251
0
1.71512e-124
0
0
0
0
2.18469e-138
8.88616e-234
1.05677e-169
2.68845e-229
0
0
2.33561e-233
0
0
0
2.59671e-150
0
2.09361e-56
0
0
3.07227e-187
3.28003e-178
0
0
0
0
0
0
5.3145e-256
0
0
8.68441e-79
0
0
2.60909e-103
0
0
0
0
0
1.63004e-75
1.20486e-133
8.6033e-97
0
0
0
0
0
0
2.70798e-219
0
0
0
0
4.06101e-226
0
0
0
0
0
2.14792e-60
0
0
0
0
4.09711e-218
0
1.62977e-75
3.04569e-278
9.70461e-191
9.37077e-250
0
0
4.90649e-241
1.37726e-182
3.09245e-170
0
0
1.95886e-62
0
1.00363e-25
1.20229e-73
3.35351e-140
6.27848e-82
0
5.53604e-20
0
8.68834e-14
3.36247e-83
5.09633e-16
5.74011e-95
4.9289e-193
0
1.85588e-219
0
0
0
3.29701e-20
1.09352e-244
3.43815e-168
0
0
0
0
0
0
4.98706e-201
7.10165e-187
3.1307e-235
0
2.87397e-256
1.66945e-36
1.11086e-14
2.77484e-78
0
0
0
0
0
1.47637e-220
1.53246e-170
0
0
0
0
3.5232e-218
0
0
0
4.80526e-41
4.37674e-156
0
1.05633e-27
0
0
0
0
0
0
0
0
0
0
0
0
0
0
0
0
0
0
0
0
0
0
2.48693e-294
2.62521e-99
0
0
0
0
0
0
4.09302e-106
0
0
0
0
0
0
1.22259e-227
0
0
0
0
0
6.52088e-73
0
0
2.53643e-72
0
0
0
6.9467e-74
0
0
0
0
0
6.89994e-259
0
0
2.02929e-278
1.34761e-191
0
0
0
7.20046e-194
0
0
0
0
0
0
0
0
0
0
0
1.98349e-293
0
0
4.23904e-262
6.40023e-210
0
1.52799e-259
0
0
2.46617e-216
0
0
0
0
0
0
0
1.03946e-69
1.14165e-67
4.66834e-76
0
0
0
0
0
2.88638e-285
0
0
0
0
1.73253e-74
0
9.65628e-195
0
0
0
0
0
4.5924e-170
2.73352e-86
5.55165e-212
2.616e-262
0
0
0
6.92588e-235
1.00817e-259
0
4.50162e-257
0
5.8848e-266
0
0
0
0
6.33938e-94
0
0
2.31227e-69
0
3.93616e-67
1.86554e-151
0
0
0
1.65328e-67
0
1.92422e-222
0
0
0
3.2583e-67
0
0
0
1.21169e-177
2.33937e-63
1.78423e-19
0
1.94578e-177
5.29856e-175
0
9.607e-242
0
0
0
5.20535e-209
3.25277e-50
0
2.59455e-55
2.76039e-194
0
0
0
4.85336e-203
3.86198e-178
1.30417e-83
0
5.39485e-141
0
2.00522e-75
0
0
0
0
0
0
1.66796e-206
0
0
0
0
0
0
0
0
0
0
0
0
0
3.76568e-223
0
0
4.87794e-186
0
0
7.26987e-155
7.16665e-176
0
1.52497e-206
0
1.15547e-224
2.09158e-287
0
0
2.76188e-175
1.91786e-99
0
0
9.7675e-71
7.05817e-111
6.29464e-262
0
5.21107e-219
0
0
0
0
0
0
1.45605e-141
0
0
0
0
0
0
0
1.79529e-139
2.33343e-139
0
0
1.70122e-177
1.08099e-141
9.14115e-175
0
0
1.18699e-145
1.38447e-224
0
0
0
3.79082e-172
0
7.03198e-214
0
5.8633e-141
0
0
0
0
0
0
0
9.28207e-266
0
0
0
2.51511e-85
0
0
1.49946e-143
0
2.991e-218
0
0
0
0
0
2.69697e-85
0
1.04667e-67
7.55016e-74
0
3.06273e-36
6.20845e-89
0
0
0
2.11528e-253
3.55066e-228
5.0788e-141
0
0
0
3.78832e-217
0
0
7.75178e-94
0
0
1.09738e-82
1.03481e-148
1.15217e-143
0
0
1.03913e-216
7.52619e-216
0
2.56773e-146
0
0
0
0
1.5474e-273
0
0
0
4.10432e-140
0
1.32993e-178
0
0
0
0
4.37665e-110
0
1.69487e-193
0
9.70731e-101
0
3.09149e-186
0
1.3196e-88
0
3.90074e-97
0
0
0
0
0
2.93698e-105
3.5737e-221
2.58085e-227
3.33244e-180
0
0
0
0
0
0
0
2.20281e-107
4.42945e-264
0
0
0
0
3.02635e-169
0
0
0
0
0
0
0
3.4782e-143
0
0
0
0
0
0
0
0
0
0
0
3.16222e-168
8.92095e-160
0
0
0
1.52198e-214
0
0
2.59531e-204
0
1.73438e-220
2.79916e-50
0
0
0
3.14838e-136
0
0
0
0
2.27166e-93
0
0
2.35058e-82
0
0
2.99388e-65
3.70118e-40
0
3.06629e-231
0
1.29851e-106
0
2.97557e-237
0
3.99168e-183
0
0
0
5.69877e-122
0
2.5586e-194
0
0
1.79363e-225
2.07927e-239
1.72686e-129
0
4.77542e-176
6.83765e-171
0
4.10897e-299
7.2597e-124
1.96714e-181
0
3.78273e-173
0
2.86376e-206
0
3.98336e-101
0
0
7.72716e-211
5.2812e-295
0
0
1.6445e-157
0
8.66693e-179
0
2.00341e-218
0
0
0
0
9.20666e-205
0
0
3.07803e-176
0
0
0
0
1.03174e-126
0
7.0705e-113
0
0
0
0
0
0
0
0
0
0
0
0
0
0
0
0
0
0
0
0
0
3.68369e-152
0
0
0
0
0
0
0
0
0
0
0
2.64562e-108
0
0
0
0
0
0
0
0
4.12709e-78
0
0
0
0
0
0
0
0
0
0
0
0
0
3.78114e-113
0
0
0
0
0
0
1.03007e-110
0
0
0
0
0
0
0
0
0
0
0
0
0
0
0
0
3.76344e-233
0
0
5.7785e-213
0
0
0
0
0
0
0
0
0
0
0
0
9.45648e-288
0
5.76626e-104
0
0
1.12118e-110
5.12367e-237
0
0
0
1.99057e-191
0
0
4.36397e-144
2.41814e-127
0
4.73355e-204
0
0
0
5.40579e-119
0
0
5.42565e-157
0
0
0
0
0
4.58835e-237
0
0
0
0
0
1.10526e-233
0
0
2.27036e-188
8.51048e-279
0
0
0
0
1.41862e-115
4.18205e-124
1.88041e-156
0
7.14351e-160
1.67958e-230
0
0
3.5069e-232
0
1.55542e-42
0
0
0
8.18473e-154
0
0
0
0
3.92205e-200
8.36701e-153
0
0
9.39958e-102
0
0
0
0
0
0
0
0
0
3.79688e-281
0
2.67857e-231
0
0
2.30128e-262
1.27235e-99
0
0
0
0
0
0
0
1.88381e-286
0
0
0
4.16018e-284
2.01142e-184
0
4.94249e-109
4.66979e-95
2.67727e-161
3.27435e-187
0
0
0
2.02419e-281
0
0
0
0
0
0
0
2.68093e-184
8.59367e-191
0
0
0
0
2.87239e-200
0
0
0
2.84376e-188
0
0
0
0
1.80836e-146
4.75253e-144
0
0
0
8.60199e-143
0
0
0
0
1.25065e-293
0
0
0
0
0
0
0
0
0
0
0
0
0
0
0
0
0
0
1.02204e-213
2.10362e-242
7.44512e-104
0
0
0
0
1.52907e-111
5.19276e-131
0
2.34036e-42
0
0
0
1.16139e-44
6.39955e-155
1.65853e-178
0
0
0
1.59091e-171
1.1689e-169
2.05575e-194
0
2.47099e-238
0
0
0
0
0
0
0
0
2.86914e-166
0
3.85162e-176
0
1.02902e-77
4.17596e-109
0
0
1.32535e-172
0
5.3862e-168
1.12903e-168
1.57244e-170
8.23709e-103
0
0
0
0
0
5.38476e-206
0
5.1019e-220
0
2.06264e-215
0
0
0
0
0
2.35797e-177
0
1.06746e-158
1.04858e-137
0
0
1.6879e-209
0
0
0
0
0
0
0
0
2.48394e-183
0
0
1.6025e-134
0
0
0
0
0
0
0
1.05487e-292
3.81117e-135
0
0
0
0
0
1.82096e-87
0
3.21289e-226
1.07273e-79
0
0
2.62023e-145
0
0
0
0
0
0
0
0
0
0
0
2.71479e-106
0
0
0
0
0
0
0
0
3.48105e-25
0
0
0
0
0
0
0
0
0
0
0
5.82597e-242
5.27576e-104
0
0
5.96779e-202
0
2.97417e-97
0
3.29595e-213
0
0
0
2.92325e-116
4.88363e-186
0
4.91782e-112
0
0
0
0
0
0
0
0
0
1.3465e-234
0
0
1.866e-205
0
0
0
0
5.51985e-37
5.64478e-97
0
0
0
0
0
0
1.68734e-132
0
0
2.455e-116
0
0
0
3.46466e-188
0
0
0
0
0
0
0
0
0
0
0
0
0
0
0
0
1.52105e-116
0
0
0
0
0
0
9.34063e-295
0
0
0
0
0
0
0
4.52916e-169
0
0
0
0
0
0
0
0
3.90549e-80
0
0
0
0
0
1.46739e-124
2.46242e-194
0
0
4.84078e-132
0
0
0
0
0
0
5.22615e-128
2.78832e-154
0
0
0
0
0
0
0
0
0
0
2.12092e-126
0
0
8.44367e-125
0
0
2.57815e-132
1.34278e-267
0
0
0
5.29233e-193
8.28138e-239
0
0
0
1.51518e-140
0
0
0
0
0
0
1.11866e-65
0
0
0
0
0
3.37004e-126
8.35003e-178
0
0
2.67915e-131
0
0
0
0
7.88254e-99
0
5.98649e-177
0
0
1.03058e-117
1.58706e-124
0
0
1.38768e-183
0
2.15175e-174
1.74963e-107
2.13863e-54
4.68339e-105
0
0
1.30215e-100
3.92116e-240
6.10265e-134
1.10169e-207
7.45813e-157
3.43157e-155
0
0
0
0
0
0
5.78277e-225
0
0
0
0
0
0
0
0
0
0
0
0
0
0
0
0
0
0
0
0
0
0
2.63224e-164
0
0
0
0
8.26264e-162
0
0
2.54364e-159
1.29485e-78
1.05406e-273
0
0
0
4.2071e-59
0
6.4892e-114
0
0
0
0
0
0
0
4.67028e-123
0
0
0
0
0
0
0
8.58808e-39
1.68606e-101
0
0
6.75573e-168
6.36813e-112
3.95478e-118
0
0
2.40181e-128
0
0
0
0
0
9.24252e-144
0
3.94157e-141
0
0
0
0
0
0
0
0
0
0
0
1.86158e-120
0
0
0
0
0
0
0
0
0
3.24111e-79
4.18851e-152
0
0
2.11264e-214
0
7.54448e-54
4.43765e-157
0
1.81736e-211
4.58761e-129
0
0
5.88841e-209
0
0
0
0
0
0
0
0
0
0
0
0
9.53567e-68
0
0
0
0
0
0
0
0
0
0
8.41021e-201
0
0
0
0
8.42113e-71
0
0
6.88607e-291
0
0
0
0
0
0
0
5.43911e-92
5.57049e-70
0
0
0
0
0
0
2.6788e-107
0
8.19906e-185
2.96343e-99
1.25208e-162
2.72877e-32
3.97099e-109
0
1.16485e-22
0
0
0
0
2.38965e-187
0
0
1.13786e-250
4.20521e-248
0
7.24169e-99
0
0
2.31651e-129
8.37658e-62
0.000108601
0
0
0
0
0
0
3.07707e-227
0
1.75082e-142
0
0
7.8449e-14
0
0
0
0
0
0
0
0
0
0
0
0
0
6.49446e-118
0
1.1493e-153
1.16282e-183
0
5.02602e-115
0
0
3.88895e-64
0
0
0
1.1331e-11
0
4.38033e-83
0
1.63114e-171
3.81754e-87
9.81772e-88
0
0
0
0
0
2.15247e-69
6.96785e-26
0
0
7.74938e-10
0
0
0
0
0
0
1.74778e-108
0.0215935
0
0
0
8.28779e-20
0
0
0
1.94636e-129
3.30597e-108
1.36658e-149
0
1.22313e-158
6.40502e-75
0
0
4.0609e-89
0
1.54773e-104
0
0
0
0
2.28235e-60
0
0
0
0
1.30443e-06
7.16778e-231
1.83901e-146
0
0
0
2.02633e-142
1.45795e-118
0
0
0
0
0
0
1.59274e-145
0
0
0
0
0
5.27332e-215
3.31382e-124
0
0
0
0
4.6134e-91
0
0
7.48503e-99
0
0
0
0
0
0
0
6.11987e-61
0
0
0
0
1.10751e-158
1.38562e-14
2.66049e-133
5.81488e-166
1.61402e-102
0
0
5.76502e-154
7.5593e-108
0
0
0
0
0
9.80315e-167
3.47045e-69
0
1.51712e-141
0
0
4.67306e-110
1.8828e-69
0
0
0
0
3.43868e-116
0
0
0
0
0
0
1.20331e-164
1.3993e-59
2.24516e-23
0
0
5.34107e-62
0
0
0
0
1.71963e-126
1.99527e-200
1.48587e-210
4.59745e-122
0
0
0
0
0
0
3.95172e-147
0
0
1.52556e-119
0
0
0
0
0
0
1.92087e-139
0
0
4.0475e-122
0
0
0
7.69427e-178
0
0
8.15557e-183
1.59629e-211
0
5.04639e-124
0
0
0
7.3583e-186
0
0
5.69051e-168
9.04134e-192
6.85676e-133
1.55173e-200
0
0
5.81499e-83
9.5318e-110
7.67849e-107
0
0
3.02082e-60
0
0
1.51777e-147
0
0
0
0
9.8676e-176
0
0
0
0
0
4.83235e-217
0
0
0
1.46045e-81
0
0
1.21862e-251
6.13849e-252
0
3.50318e-249
0
0
1.15319e-228
0
0
0
0
0
0
0
0
0
0
1.2708e-194
0
1.90016e-246
0
6.91728e-39
0
0
0
1.75083e-32
0
0
0
1.01187e-87
8.14258e-101
0
0
0
0
0
0
0
0
5.86377e-175
1.82698e-172
0
0
0
7.49677e-103
0
0
0
0
0
0
0
0
0
0
0
0
0
0
0
0
5.59564e-78
0
0
0
0
0
0
0
0
0
0
0
0
1.04274e-232
0
0
0
0
1.17416e-162
0
0
0
0
0
0
0
4.55329e-80
4.94778e-109
0
0
2.19278e-181
6.95849e-173
0
0
0
1.46351e-185
0
0
0
2.12743e-138
6.09926e-116
5.3226e-122
0
1.48873e-267
1.29461e-274
5.66709e-238
0
3.55091e-92
0
0
0
0
0
1.51664e-100
0
3.37146e-114
0
0
0
0
9.23555e-96
5.17184e-32
1.55686e-93
2.09651e-195
1.3998e-273
0
1.24148e-97
0
0
0
0
0
0
0
0
0
4.73847e-127
3.8716e-193
0
0
0
0
0
0
1.60136e-119
0
0
0
3.66466e-196
0
0
0
2.46404e-127
0
3.9773e-130
0
0
1.27732e-127
5.37184e-125
0
1.48611e-127
0
0
0
8.35626e-132
0
0
0
0
1.4111e-201
2.43761e-125
2.87738e-70
0
7.54266e-137
7.13887e-137
3.61834e-56
0
0
0
2.81446e-168
0
1.2098e-212
1.34654e-40
2.98248e-211
4.29353e-81
3.09054e-170
0
1.21744e-210
0
1.64866e-169
4.5353e-54
6.03729e-137
0
0
0
0
4.15787e-152
2.33538e-168
0
0
1.30316e-32
0
0
3.71914e-223
8.75617e-92
3.60576e-151
4.03604e-131
0
0
8.09294e-61
0
0
3.25804e-83
0
0
1.0558e-71
1.25224e-73
5.07479e-194
0
1.86002e-177
2.42414e-112
0
8.8603e-76
0
0
0
9.65812e-208
1.82017e-185
0
0
0
5.1542e-102
1.56276e-227
0
2.72903e-208
0
0
1.15829e-189
1.80935e-120
7.8747e-122
0
0
0
0
5.09229e-116
3.09963e-121
4.34057e-119
0
0
2.82915e-83
2.21116e-109
0
0
1.49265e-164
3.22737e-74
0
0
0
0
0
6.14022e-221
0
1.273e-135
4.73806e-26
4.51798e-60
1.14835e-123
1.22957e-24
0
3.56773e-84
0
0
0
0
0
0
0
0
0
1.01623e-46
2.15668e-16
1.56846e-170
7.38044e-173
4.11832e-220
8.64007e-176
1.12716e-182
1.32801e-183
0
0
0
0
0
0
0
0
0
9.5667e-137
1.03593e-66
8.18637e-94
0
1.57298e-113
0
1.76635e-196
0
0
0
0
0
0
1.41068e-170
8.58795e-197
5.20031e-22
0
0
0
4.77685e-93
0
0
0
0
4.73174e-194
9.07862e-124
0
0
0
0
0
0
4.26746e-157
0
3.21716e-52
1.36903e-159
0
8.05216e-37
0
7.92325e-74
8.52937e-134
0
0
0
0
0
0
0
0
0
0
0
2.42442e-178
2.4016e-217
0
0
0
0
1.18348e-86
0
0
0
0
0
0
0
0
0
3.18173e-113
0
0
0
0
0
0
3.16243e-100
0
0
0
0
0
0
0
0
0
2.3085e-113
0
0
0
0
0
0
1.65702e-112
0
0
2.58827e-133
1.93061e-47
0
0
3.69078e-44
0
0
0
4.63825e-184
0
0
4.147e-47
0
5.88212e-17
2.29566e-187
0
1.90581e-101
1.39428e-191
0
2.86967e-30
0
9.17475e-94
1.11821e-192
0
0
6.36804e-101
1.86592e-118
5.46826e-19
0
2.67142e-48
1.73432e-142
0
0
0.0038187
0
5.15196e-12
2.99132e-98
0
3.22612e-18
0
1.24423e-39
0
1.76182e-17
0
0
0
6.14319e-15
0
0
0
0
6.50801e-90
0
0
0
0
1.59803e-164
0
0
0
3.87271e-54
0
7.81223e-180
1.85621e-25
8.23502e-47
6.58747e-122
4.66342e-27
6.3923e-50
0
2.26241e-107
2.04374e-144
0
0
6.41242e-59
2.49217e-181
1.60096e-148
0
0
2.1684e-09
0
0
5.03344e-53
3.90818e-44
0
4.93977e-14
0
6.99298e-130
0
5.43073e-208
1.3952e-112
0