/*--------------------------------*- C++ -*----------------------------------*\
| =========                 |                                                 |
| \\      /  F ield         | OpenFOAM: The Open Source CFD Toolbox           |
|  \\    /   O peration     | Version:  v2012                                 |
|   \\  /    A nd           | Website:  www.openfoam.com                      |
|    \\/     M anipulation  |                                                 |
\*---------------------------------------------------------------------------*/
FoamFile
{
    version     2.0;
    format      ascii;
    class       volScalarField;
    location    "0.5";
    object      CO2;
}
// * * * * * * * * * * * * * * * * * * * * * * * * * * * * * * * * * * * * * //

dimensions      [0 0 0 0 0 0 0];


internalField   nonuniform List<scalar> 
108993
(
3.12718e-232
0
3.12053e-150
0
0
0
7.06441e-233
0
0
0
0
0
0
0
0
0
2.17324e-299
0
0
0
0
0
0
0
0
0
0
1.27157e-263
1.74124e-284
0
0
0
0
5.23901e-214
0
0
0
0
4.09638e-90
0
0
0
3.68186e-256
0
0
2.55209e-139
0
6.10237e-245
0
4.95381e-204
0
0
0
0
0
0
0
0
0
0
0
0
0
0
0
4.05659e-295
0
0
0
0
0
0
0
0
1.35026e-300
0
0
2.1464e-230
0
0
0
2.80963e-254
0
4.4128e-245
0
0
2.38881e-219
0
0
0
0
0
0
0
0
0
0
0
0
0
0
0
0
0
0
0
0
0
0
0
0
0
0
1.35306e-96
0
2.12125e-87
0
0
0
0
2.04764e-279
0
0
0
0
3.3808e-91
0
0
0
0
0
0
0
1.16179e-62
0
0
0
0
0
1.88182e-214
0
0
1.60273e-113
0
0
0
0
0
0
0
0
0
1.28468e-148
1.09168e-37
0
1.79187e-131
4.32392e-234
0
0
0
0
0
0
0
0
0
0
0
0
0
0
0
3.21505e-111
0
0
0
0
0
3.79204e-244
0
0
0
0
0
4.99115e-209
0
0
0
0
0
0
0
0
7.58826e-126
0
0
0
0
0
0
0
0
0
0
0
5.2228e-55
0
0
0
8.91543e-05
0
0
5.46476e-116
0
0
0
0
0
0
0
1.62091e-287
0
2.21137e-141
4.31833e-118
0
0
0
1.1056e-214
1.05506e-69
0
5.75154e-139
0
0
2.31055e-275
0
0
0
0
0
0
0
2.33442e-264
0
0
0
0
0
0
0
0
0
0
0
0
0
0
0
8.17459e-172
0
0
0
0
1.27903e-115
3.41722e-88
0
8.34876e-246
0
0
0
0
0
5.14988e-167
0
7.62717e-09
0
0
0
0
1.55417e-180
1.56502e-238
0
0
0
0
0
0
0
0
4.02163e-171
2.0399e-163
0
0
0
7.51793e-291
0
0
0
0
0
0
6.80302e-81
0
0
0
0
0
0
0
0
0
0
0
0
0
0
0
0
6.84518e-154
2.41177e-113
0
8.83813e-201
0
0
0
0
0
0
0
0
0
6.88828e-278
1.75458e-62
9.40976e-17
0
0
0
0
0
0
0
0
2.54576e-85
2.5493e-226
0
0
0
2.6073e-189
0
0
0
3.17606e-297
0
0
5.10092e-168
0
0
0
0
0
0
4.25768e-122
2.81562e-230
0
0
4.28014e-298
0
0
0
0
0
1.28712e-132
4.29573e-138
0
3.21945e-20
2.47149e-204
0
0
1.40817e-254
0
0
0
1.82976e-46
0
2.5552e-67
0
3.22126e-226
0
0
0
1.35221e-144
2.31417e-48
1.06627e-237
2.10123e-45
0
0
0
9.72567e-10
0
8.89601e-87
0
0
5.41325e-110
1.59799e-116
0
0
2.8971e-253
1.18995e-220
0
0
6.34366e-07
0
6.4776e-205
1.15451e-53
0
0
0
0
0
0
0
5.57274e-05
5.19948e-211
9.45557e-08
0
0
3.32986e-11
0
0
0
0
1.48992e-08
7.87377e-115
4.53959e-08
0
0
1.57855e-256
0
8.2449e-300
0
0
0
0
0
0
9.02659e-171
0
0
0
0
0
0
0
0
4.4281e-196
0
0
0
0
0
0
0
3.39732e-142
0
0
0
4.54823e-170
0
0
2.29292e-167
7.16603e-157
2.3801e-237
0
0
1.82802e-130
0
2.16825e-115
0
0
0
3.73876e-91
0
0
0
0
2.49622e-113
1.17433e-164
9.45912e-157
0
0
1.69434e-216
0
0
0
3.3071e-157
0
0
3.81039e-111
3.32439e-264
0
2.83563e-219
0
0
0
0
0
5.40253e-52
1.50466e-191
0
2.38767e-116
1.44916e-186
0
0
0
1.6764e-154
0
0
0
0
0
2.05087e-292
0
0
0
1.07762e-196
1.55821e-285
0
0
2.39545e-204
0
6.44974e-205
0
0
0
0
0
0
7.73426e-159
0
0
0
0
0
0
0
0
6.49282e-258
0
0
0
0
0
0
5.67517e-113
0
0
0
0
0
0.000397294
4.28383e-251
8.77805e-197
0
0
3.45943e-169
0
0
0
0
0
5.41428e-204
0
0
0.00154576
0
6.78547e-61
0
0
1.23274e-214
7.81199e-18
0
5.50589e-150
6.6874e-276
3.22932e-208
0
0
1.86692e-80
1.86624e-134
1.76652e-202
7.30299e-205
0
1.07777e-180
0
0
7.50578e-193
9.26247e-11
0
0
0
5.88274e-248
0
0
0
3.99925e-05
0
8.2883e-278
0
5.74451e-07
0
1.51242e-129
0
1.40167e-31
1.49141e-158
0
3.15013e-163
0
0
2.31634e-92
0
5.99475e-119
0
0
0
0
0
1.40471e-250
0
0
2.8939e-96
4.74338e-138
0
1.68833e-41
5.11514e-222
4.78153e-82
0
5.41003e-93
0
0
0
2.15755e-74
3.05582e-111
0
2.74034e-110
0
0
0
7.87908e-91
2.89906e-148
0
2.41495e-96
0
0
1.64541e-69
2.54817e-157
0
3.85876e-202
0
0
0
4.01622e-168
0
0
0
0
4.60033e-290
0
0
0
1.65985e-108
0
2.1216e-170
1.4417e-107
0
1.149e-112
3.88574e-191
0
0
2.17616e-103
0
0
0
0
3.24079e-187
0
0
4.18226e-153
2.0756e-98
4.10807e-144
1.0484e-234
0
2.16033e-37
0
4.20385e-186
0
0
0
0
0
0
0
4.01659e-87
0
0
0
0
3.09557e-118
0
2.58141e-86
0
0
0
3.53759e-132
0
0
0
4.97503e-82
0
0
0
0
1.31761e-114
0
5.45337e-80
0
0
0
0
2.79118e-132
0
3.67244e-86
0
1.2896e-114
1.31524e-77
1.77471e-68
7.63709e-75
0
0
0
0
0
7.33253e-236
0
0
0
1.80378e-106
0
0
2.73637e-114
0
4.30294e-116
0
0
0
0
8.68387e-120
0
0
0
0
9.21263e-93
0
1.17496e-100
0
4.70469e-117
5.39178e-146
0
0
0
0
0
0
6.34601e-141
0
0
4.33608e-77
6.74841e-64
0
2.26968e-138
2.38626e-13
1.53511e-93
0
0
1.14959e-37
1.75911e-138
6.47296e-141
1.59459e-146
0
0
0
0
0
0
2.55191e-130
0
0
0
1.16265e-95
0
0
2.23606e-27
0
0
0
0
1.64727e-140
0
0
0
0
0
0
2.96058e-127
0
0
0
0
3.33386e-48
0
2.53886e-225
0
0
4.25065e-11
0
0
0
0
0
0
1.29534e-180
1.1042e-205
7.17045e-241
0
8.92236e-125
4.67097e-156
0
0
0
0
0
0
0
0
3.84739e-136
0
1.0142e-124
0
1.11683e-156
1.09356e-155
2.40686e-223
5.96887e-09
1.92471e-142
8.27639e-07
1.33332e-150
7.00879e-11
9.60096e-140
3.4082e-146
8.15759e-241
0
0
0
3.53626e-257
0
9.38045e-143
0
5.01879e-162
0
0
0
0
1.4348e-118
1.81027e-81
0
0
5.14439e-67
0
0
0
0
0
0
2.62122e-217
9.70815e-182
1.43438e-159
7.94667e-115
0
0
0
0
0
0
0
0
0
4.67419e-90
0
0
0
0
0
1.13933e-62
0
0
0
1.04343e-280
6.51808e-24
0
0
0
2.90445e-48
0
7.29237e-235
0
0
6.02423e-109
0
0
0
0
0
0
2.48763e-299
0
1.2532e-104
1.46643e-241
0
0
9.03287e-111
6.71288e-238
9.33361e-105
0
0
1.04786e-96
0
0
0
0
0
0
9.81042e-48
0
1.08046e-123
1.7613e-284
0
0
0
0
0
0
0
0
0
0
0
0
0
0
1.35178e-159
3.84548e-94
1.07826e-124
0
5.77794e-120
0
0
2.81934e-145
0
1.7248e-92
0
3.38644e-201
1.37181e-102
2.03086e-153
1.27759e-140
0
0
1.3326e-299
0
0
0
0
0
0
0
1.35143e-162
5.975e-156
0
0
1.41993e-171
1.13694e-187
0
0
0
4.38614e-160
6.03175e-259
0
1.17897e-130
9.64939e-269
0
0
0
0
0
5.69924e-159
0
0
0
4.11843e-116
0
3.01107e-142
9.95293e-224
0
0
4.36083e-223
1.73141e-160
2.42948e-67
7.40508e-160
0
5.33557e-160
0
0
0
1.50316e-129
0
0
1.38307e-161
0
0
0
5.43902e-127
0
0
0
4.88531e-105
0
9.23922e-176
1.96372e-187
4.43124e-246
3.40685e-147
0
0
0
0
3.02122e-53
1.91462e-161
0
0
0
0
0
0
2.15151e-119
0
0
1.32673e-130
0
0
0
0
0
0
0
5.82638e-128
1.0465e-134
4.9518e-09
0
1.78211e-222
3.08334e-131
5.41272e-202
4.08784e-126
0
2.55223e-126
0
0
1.70221e-189
0
0
2.00783e-108
0
0
0
1.66662e-214
0
0
4.72757e-194
0
0
5.09625e-131
0
1.17316e-177
0
6.28888e-112
0
0
1.47606e-180
0
0
0
1.61783e-115
0
0
0
0
0
7.09099e-230
0
0
0
0
5.55249e-06
8.25035e-92
0
0
0
0
1.50036e-204
0
8.08643e-217
0
0
0
0
0
0
0
0
0
0
0
4.98139e-163
0
0
0
1.3348e-130
0
0
0
0
0
0
0
3.77158e-138
4.18141e-185
8.242e-83
4.97637e-174
0
0
0
0
0
4.48263e-17
0
0
0
0
0
1.66929e-134
0
2.05186e-203
0
0
0
0
0
0
2.08311e-169
0
7.82948e-201
2.9303e-150
9.32938e-156
0
1.09785e-41
0
1.76426e-167
0
0
0
0
0
0
0
1.10973e-250
0
0
0
7.08828e-117
0
2.03726e-114
0
0
8.44963e-237
0
1.47897e-121
0
0
0
3.07626e-57
1.2444e-113
0
6.55291e-287
0
0
0
0
0
0
0
0
3.1539e-139
2.75196e-123
1.8844e-226
0
0
0
0
0
0
0
1.09296e-94
0
3.21074e-117
2.71485e-277
0
3.11958e-199
0
1.85813e-191
0
1.33274e-258
0.00276285
1.18006e-250
7.09284e-256
0
0
1.99391e-230
0
9.15018e-146
0
1.41493e-90
0
0
0
1.18903e-197
0
0
0
0
2.31189e-124
0
0
0
0
1.9122e-134
0
0
0
2.26654e-151
1.14899e-11
3.34402e-190
2.12271e-105
0
8.56555e-12
4.89825e-166
0
0
5.70806e-74
7.3274e-229
0
8.78248e-159
1.43881e-160
0
1.09555e-161
0
1.77375e-156
3.44373e-154
1.21755e-232
2.35397e-235
0
0
3.64631e-226
0
0
0
0
0
0
9.57035e-67
0
0
0
1.57175e-173
0
2.26181e-287
1.60805e-214
1.96981e-126
6.1358e-85
0
0
0
3.22143e-211
2.55104e-282
0
0
2.30304e-219
8.68663e-187
1.58237e-176
0
0
4.8485e-177
0
1.01975e-187
0
2.86529e-191
0
0
0
0
0
2.5801e-290
0
0
0
0
0
1.24314e-105
0
0
0
0
2.56721e-171
0
0
0
0
0
0
0
0
0
1.83831e-158
0
6.22357e-94
2.40908e-165
0
4.30067e-80
0
4.21512e-232
0
1.54143e-178
0
6.06807e-186
5.59468e-31
0
0
0
0
0
1.69834e-111
4.80437e-109
3.93172e-129
0
0
0
1.3197e-75
0
0
0
1.01164e-114
0
0
7.64885e-180
7.68382e-143
0
0
5.47325e-115
0
9.51118e-72
0
4.4849e-184
0
0
0
0
3.20727e-214
3.57291e-126
0
0
3.31973e-233
1.03825e-95
1.12157e-102
0
3.92609e-218
8.09306e-277
0
0
0
4.05421e-130
0
0
0
0
0
0
0
6.42499e-78
0
0
0
6.43139e-149
0
0
0
0
0
3.88801e-136
1.58675e-208
2.16452e-151
0
0
0
0
4.06154e-120
3.82419e-96
0
0
0
0
4.04515e-113
0
9.48361e-167
3.36503e-130
0
1.42361e-69
0
0
0
0
0
0
0
0
1.1251e-105
0
8.70759e-101
1.24015e-175
0
2.27924e-292
0
0
0
0
0
1.56147e-153
0
0
4.69347e-238
0
4.01759e-229
3.90584e-239
1.33934e-144
7.11607e-211
0
0
0
0
2.69505e-201
4.95796e-114
2.30916e-40
0
1.01125e-191
6.44679e-65
0
0
0
0
1.93617e-141
2.37945e-174
9.41491e-100
0
0
2.29607e-49
0
0
0
0
0
0
1.4659e-232
0
1.68883e-232
3.89425e-77
0
0
8.44576e-90
0
0
0
1.03785e-208
0
0
2.17117e-269
0
1.94005e-250
0
0
0
1.54718e-78
3.99637e-50
0
0
2.74909e-244
7.97031e-112
0
0
6.08257e-101
0
0
0
1.36274e-152
0
1.53492e-98
0
8.04753e-102
0
0
0
0
9.41219e-232
0
0
0
0
1.99916e-233
6.58385e-257
6.96626e-236
1.49724e-110
2.72766e-234
4.21141e-280
0
1.83393e-277
0
3.60165e-118
0
5.19973e-111
0
0
0
0
1.72697e-244
4.87066e-71
0
2.64741e-51
8.07261e-291
0
0
0
0
5.07159e-288
0
0
0
0
0
0
0
2.54633e-183
0
0
0
0
0
3.98178e-266
0
0
0
2.95411e-98
0
1.62933e-285
0
1.04822e-117
0
0
0
0
0
0
0
0
1.33858e-258
0
1.21635e-66
1.14817e-92
8.82988e-93
0
0
0
0
0
2.50512e-136
0
0
0
0
0
1.24619e-178
7.61145e-162
0
0
0
0
0
0
0
0
0
3.96418e-48
0
0
0
0
0
0
0
0
0
0
6.55421e-192
7.36353e-117
0
0
0
0
0
5.79323e-178
0
0
0
0
3.16993e-215
8.21441e-98
0
0
0
0
1.37838e-167
0
0
8.65485e-96
0
0
0
2.61791e-222
0
0
0
3.10946e-195
0
0
0
0
0
0
0
0
3.14397e-60
0
0
0
1.98265e-37
3.10942e-149
3.86062e-56
0
0
0
0
0
0
4.82799e-107
4.86942e-243
0
0
0.000767698
2.92707e-102
0
4.50416e-43
6.78036e-68
1.44346e-23
0
0
2.46906e-210
9.91583e-257
0
0
0
0
4.80622e-104
8.84771e-113
0
0
1.85846e-99
2.97705e-110
3.81324e-88
0
0
0
0
7.67079e-29
0
3.6028e-184
1.43511e-152
0
0
0
0
0
0
0
6.71161e-105
0
2.0805e-99
2.98171e-88
1.46993e-140
8.26673e-118
8.73904e-104
0
5.87652e-25
0
0
0
0
0
0
7.5861e-241
4.58377e-244
2.39723e-176
0
2.47667e-45
0
1.9887e-39
5.7463e-71
0
0
3.83878e-82
0
3.77485e-101
0
1.9137e-287
0
7.46389e-275
2.20455e-295
4.69696e-07
4.65024e-175
0
0
1.88872e-142
0
6.22054e-292
0
4.00988e-163
4.5298e-163
0
0
6.71977e-151
0
0
0
4.11272e-134
0
1.55515e-204
0
0
1.80629e-205
0
1.20383e-143
2.06856e-191
0
0
0
0
2.04375e-166
0
5.7879e-65
0
0
0
0
0
4.15846e-152
0
1.53396e-117
0
1.22766e-253
0
0
0
1.80874e-169
0
4.36506e-155
1.71566e-168
0
1.95559e-74
9.6305e-100
0
3.91619e-186
2.04523e-109
8.7422e-164
3.51958e-157
6.39435e-136
1.47946e-103
1.24634e-262
0
2.33874e-90
0
0
0
3.73807e-81
3.92404e-171
0
0
1.88414e-29
0
3.2531e-78
0
3.60096e-94
4.17592e-22
3.1831e-145
0
0
0
0
0
0
0
0
2.50763e-148
0
2.95275e-176
4.67482e-167
0
9.75122e-229
2.74943e-132
2.3772e-231
0
0
0
0
0
4.57913e-165
1.25879e-128
0
0
9.15054e-124
4.22532e-194
0
1.59263e-114
0
0
0
0
0
0
2.32224e-126
0
0
1.83069e-165
0
3.47311e-137
1.78217e-59
0
0
0
1.76663e-166
0
0
0
0
0
0
4.10347e-69
3.15764e-46
0
4.63394e-210
8.10268e-43
6.10083e-158
1.49258e-93
0
0
0
0
0
7.94762e-238
0
0
0
1.05591e-171
0
0
1.51515e-169
0
0
0
0
0
3.5974e-271
4.56957e-126
0
0
0
0
0
0
3.04183e-139
0
0
5.48386e-123
0
9.85689e-173
1.78863e-206
0
0
0
0
1.24764e-273
0
8.99348e-181
0
7.50664e-169
1.38445e-133
0
0
1.70579e-187
0
1.40596e-78
1.60548e-160
0
2.69011e-138
1.63289e-129
0
8.43688e-195
0
1.23605e-133
1.31269e-164
0
0
0
4.58466e-139
7.0097e-189
0
0
0
2.67444e-192
0
0
0
0
3.07484e-154
0
0
0
0
0
0
0
0
0
0
0
0
0
0
0
0
0
5.71115e-141
4.18448e-156
0
0
0
3.20467e-72
1.04022e-67
0
9.18262e-144
2.40081e-117
0
2.71188e-57
5.20746e-171
4.0567e-45
0
3.53987e-183
0
0
2.70671e-62
0
0
0
0
0
0
6.85883e-65
0
5.98903e-22
0
0
0
0
0
1.46056e-89
0
4.54794e-144
7.71734e-104
0
0
0
0
0
7.36401e-213
2.15075e-235
1.03632e-62
0
3.54516e-91
0
0
0
0
0
3.8262e-268
0
5.84267e-100
9.28511e-272
0
0
0
0
6.46226e-94
0
0
7.35643e-154
0
0
2.57466e-198
0
0
1.27797e-87
3.18201e-88
1.51675e-86
0
5.2187e-130
8.33772e-128
0
2.18034e-245
1.2766e-113
4.95782e-138
0
0
8.2598e-82
3.96592e-89
2.19074e-132
0
0
0
2.24496e-116
0
0
0
1.11842e-74
6.60356e-88
6.77554e-297
0
0
3.22562e-282
1.72042e-39
0
0
2.50899e-146
5.64497e-179
1.05681e-199
0
1.0511e-194
8.70273e-240
1.6073e-105
2.92918e-263
0
3.83928e-253
3.22745e-160
0
0
1.5668e-169
0
0
0
0
0
1.68957e-119
0
1.22623e-256
0
0
0
0
0
0
9.99138e-09
0
0
0
0
0
0
4.05331e-213
0
0
7.14777e-09
5.53275e-224
0
0
6.87437e-140
0
0
0
0
0
0
0
0
4.40783e-103
0
5.93839e-118
0
0
0
3.51627e-87
6.1058e-82
7.47606e-207
1.84516e-253
0
1.43809e-236
1.17079e-196
0
0
3.20388e-47
0
5.87345e-210
2.3499e-204
1.24882e-201
4.33542e-139
2.75332e-224
2.26963e-95
0
0
3.4921e-59
0
1.05432e-93
3.06805e-101
7.66502e-251
0
1.1581e-107
0
0
0
4.85424e-253
0
1.97287e-293
0
7.78924e-104
0
0
0
0
9.02478e-164
0
8.96925e-75
0
0
0
0
0
0
0
0
0
0
1.34747e-87
2.5069e-259
1.49653e-206
0
0
0
4.01743e-85
2.14583e-143
0
0
2.56631e-146
0
2.6739e-108
0
0
9.7471e-159
0
0
0
1.88121e-160
4.95666e-197
0
2.63743e-256
0
0
0
0
0
0
0
0
0
0
1.82869e-133
0
4.09316e-292
7.13432e-69
0
0
0
0
0
0
0
0
0
0
0
1.06559e-73
0
5.56416e-117
5.40255e-206
5.99995e-141
0
0
4.27787e-86
0
0
0
0
0
0
0
6.82981e-187
4.15139e-174
0
0
0
0
0
1.28357e-198
0
0
0
1.80701e-192
0
0
0
0
1.79362e-159
0
0
0
0
0
0
1.80632e-169
0
0
0
2.29623e-140
0
0
0
3.32014e-182
1.45095e-210
0
5.12553e-167
1.7814e-167
0
1.89111e-164
0
6.3382e-162
7.14628e-170
0
0
0
0
1.05064e-169
3.30896e-170
8.38266e-165
1.15453e-257
1.56855e-170
0
0
3.43869e-162
2.99287e-168
0
0
0
2.07774e-206
4.84807e-65
2.17294e-170
0
1.22128e-95
3.02668e-296
0
1.3239e-31
0
0
0
0
0
2.6275e-153
1.27156e-125
0
0
5.83001e-250
0
0
2.6173e-249
4.92346e-151
1.70887e-142
0
0
0
0
1.46794e-118
0
0
0
2.47611e-116
0
0
0
0
0
2.95218e-100
0
0
0
0
0
0
0
0
0
0
0
7.17055e-146
0
6.18634e-300
6.06197e-234
0
0
1.06291e-183
0
8.20968e-170
0
1.68706e-155
0
1.57752e-128
3.00648e-237
7.02689e-207
0
0
0
9.60225e-240
0
0
0
3.40617e-93
0
0
0
0
0
1.44712e-134
0
1.4092e-217
0
0
4.03754e-188
0
0
0
0
0
0
0
7.63289e-130
2.25463e-155
0
0
4.46349e-261
9.33811e-130
0
0
0
0
0
0
0
3.28247e-127
0
6.15577e-55
0
1.16597e-124
1.17807e-127
5.42459e-118
0
6.14633e-52
1.62513e-172
0
0
9.50871e-132
1.51045e-144
0
0
2.29004e-102
0
2.74985e-279
0
6.31629e-257
2.87327e-220
0
0
1.92017e-74
0
1.00126e-156
6.63895e-261
0
1.15827e-114
7.20958e-220
1.44512e-208
0
0
0
0
7.53855e-144
0
9.78955e-138
0
1.48034e-168
6.81821e-198
0
0
1.3127e-99
0
8.66307e-139
0
0
4.89258e-102
0
2.56467e-190
1.82714e-80
4.53766e-205
1.35965e-108
0
2.06605e-253
0
0
0
0
0
0
3.44343e-89
0
0
4.65071e-122
0
4.44343e-115
1.16778e-120
0
0
9.96098e-133
0
0
0
5.83554e-247
0
0
0
3.67074e-140
5.78843e-142
0
0
0
0
0
1.33713e-218
0
0
3.21512e-139
6.44605e-243
0
0
0
1.18863e-121
1.08394e-187
7.7986e-286
5.62287e-292
0
0
0
0
2.50491e-239
0
6.09714e-242
0
0
0
0
0
3.17856e-269
2.7418e-77
0
0
1.62615e-217
1.31588e-143
0
3.3388e-219
6.52467e-47
0
0
0
0
0
0
0
0
0
0
4.10641e-204
0
0
2.88985e-176
1.80568e-130
2.66683e-200
3.19328e-77
3.66636e-266
0
5.96286e-79
0
0
0
0
6.73934e-73
0
4.11839e-282
0
0
4.38165e-215
0
5.14377e-231
0
0
0
0
0
5.40983e-138
0
0
0
0
0
0
2.89327e-260
0
7.8414e-259
0
0
0
4.40096e-122
1.75823e-109
0
1.043e-196
0
0
0
8.706e-133
2.9704e-127
5.15868e-142
0
0
0
0
2.97629e-153
5.52065e-181
2.91796e-50
0
0
0
0
0
0
0
3.3235e-48
1.05377e-40
1.67011e-154
9.11373e-41
0
1.61133e-230
1.58001e-142
0
0
0
0
0
0
2.06081e-216
1.80975e-55
0
3.66061e-49
0
2.02269e-49
5.5338e-211
2.25939e-221
4.50044e-207
2.16468e-64
0
0
0
3.24913e-88
6.5784e-74
0
0
2.83041e-54
0
0
0
0
0
3.30823e-60
8.21618e-158
0
2.96496e-286
0
0
2.38826e-174
0
0
9.50035e-165
6.53896e-136
0
0
6.2754e-281
0
0
3.85356e-143
0
0
1.09381e-42
0
5.01016e-298
0
0
2.53413e-235
0
0
3.1577e-164
9.90669e-151
0
0
0
0
7.83733e-282
2.02119e-156
0
0
0
0
0
0
0
0
0
0
0
0
0
0
6.29207e-171
2.52242e-226
2.46322e-38
0
0
0
0
0
0
0
4.10998e-34
0
4.62218e-32
0
0
0
8.92541e-32
3.86434e-35
0
0
0
0
0
0
0
0
0
6.50397e-08
0
0
1.40982e-216
3.35452e-169
0
0
0
0
0
2.9103e-129
1.9935e-180
0
0
0
3.86453e-186
0
0
0
0
3.56884e-97
0
0
3.48388e-179
0
0
2.0978e-87
1.19266e-96
0
6.4777e-152
4.87042e-166
3.20465e-138
6.02399e-97
0
0
0
0
0
0
5.27383e-138
1.86722e-215
0
0
0
0
0
0
0
0
0
1.14088e-61
0
0
0
7.65663e-130
1.00623e-148
0
1.20568e-60
9.70814e-53
7.40643e-188
0
5.51151e-73
4.77867e-186
0
0
3.83281e-233
9.8669e-155
0
0
0
0
0
0
0
4.7556e-190
0
0
6.22435e-177
2.51334e-67
8.79305e-68
2.57097e-188
6.72308e-65
3.86276e-68
4.09549e-64
0
0
1.89556e-65
0
0
2.82658e-71
0
1.2138e-150
0
1.41903e-203
5.24885e-139
0
0
0
0
4.7781e-156
0
0
0
1.43723e-96
0
0
0
0
1.50853e-173
0
0
0
0
1.41763e-80
0
0
0
0
2.64524e-88
0
1.83904e-147
0
0
0
4.70293e-250
0
0
0
0
0
1.38976e-151
0
2.10934e-198
0
0
0
0
0
3.22271e-135
1.6205e-166
0
0
1.13344e-177
2.23217e-290
6.8035e-154
9.62059e-120
0
0
0
0
3.81885e-167
2.05561e-156
0
0
0
5.03369e-251
0
0
0
0
0
0
0
0
0
0
0
0
2.57801e-222
0
0
0
7.94146e-176
0
7.71144e-66
0
0
0
0
0
0
0
0
0
0
0
0
0
0
0
1.59063e-194
6.89111e-164
0
0
3.92243e-287
0
2.77927e-235
0
0
1.8386e-193
0
0
2.02392e-142
2.50147e-156
0
8.01662e-227
0
0
1.5059e-224
5.60547e-178
1.49596e-141
2.78037e-111
0
0
0
0
0
9.4127e-149
3.46682e-215
1.70288e-174
7.20589e-124
0
0
0
0
0
8.77992e-147
0
0
9.65042e-188
0
0
0
5.46517e-266
2.20521e-292
5.0263e-39
0
0
0
0
0
0
0
0
0
1.3531e-132
0
1.96908e-247
0
0
0
0
0
0
0
0
0
3.9543e-151
3.6026e-172
4.31644e-150
0
0
1.81977e-70
0
0
2.22503e-165
0
0
0
0
8.13802e-184
2.45191e-221
0
2.69479e-81
2.73127e-136
1.18387e-101
3.12043e-34
0
1.53961e-176
0
0
0
6.15244e-238
0
0
0
0
2.68954e-59
5.28685e-158
0
0
0
0
7.33697e-124
0
0
0
8.33596e-105
0
0
0
0
0
1.17807e-77
0
0
0
1.95709e-101
0
0
0
4.35775e-153
0
1.53438e-244
1.72663e-300
0
0
1.21306e-248
0
0
7.9352e-249
1.10195e-120
0
7.21319e-204
0
1.59698e-111
0
0
0
0
0
0
0
0
7.37366e-165
0
4.84278e-274
0
0
0
0
7.16051e-80
0
2.07183e-78
0
2.85985e-125
0
0
0
0
0
0
4.81935e-71
0
5.43197e-206
7.39223e-28
5.37692e-123
3.76028e-255
0
5.99784e-201
0
0
0
0
6.29164e-47
0
0
7.20711e-246
1.55151e-110
0
0
0
0
1.37563e-226
0
0
0
9.85751e-71
0
1.75838e-133
0
0
1.90555e-192
0
0
0
0
2.09599e-100
1.36921e-163
0
1.42496e-128
7.67263e-112
7.75057e-190
0
3.17067e-121
0
0
1.84544e-150
0
0
3.72765e-57
4.32861e-127
6.41074e-125
7.97336e-155
0
8.34118e-101
1.85524e-65
0
0
1.21515e-110
9.15633e-125
0
0
0
0
8.06723e-133
4.91473e-63
1.92637e-122
1.20955e-184
6.44473e-108
0
0
0
0
1.89221e-253
0
0
0
0
4.34477e-52
0
0
1.02469e-260
0
0
0
6.71469e-117
4.23597e-72
6.41829e-175
0
0
1.46492e-158
0
0
0
1.27846e-95
0
2.63477e-83
0
0
0
0
0
0
5.20797e-72
0
4.76657e-243
3.21776e-172
0
0
0
0
2.13925e-85
0
3.46845e-282
3.82106e-135
0
0
0
0
2.50749e-97
0
0
0
0
0
2.72552e-47
0
0
8.07534e-174
0
0
0
2.46521e-283
5.27762e-165
5.98721e-144
0
5.45848e-06
0
0
7.96235e-88
5.00016e-40
1.56646e-248
5.90664e-185
0
0
1.37891e-143
0
0
0
0
0
0
9.20164e-268
0
6.69446e-240
0
0
1.02844e-132
4.4398e-09
1.39279e-75
0
0
0
8.36404e-285
0
0
4.2878e-114
1.43761e-176
0
1.63674e-06
2.30094e-69
0
2.03838e-121
0
0
1.11837e-25
2.43861e-95
0
3.36951e-23
0
0
0
0
2.3853e-61
0
9.24324e-175
0
0
2.49338e-249
1.43015e-101
6.80321e-166
0
3.36613e-25
6.75781e-22
9.33772e-184
1.25531e-13
4.99004e-24
0
3.05405e-296
1.95208e-22
2.20393e-161
2.00681e-247
6.57064e-261
0
0
1.89456e-276
0
0
0
4.25606e-16
4.92209e-77
2.57548e-212
1.58432e-148
2.01822e-247
0
0
9.57439e-36
0
0
0
0
0
6.64431e-134
0
0
2.79894e-71
0
0
0
0
0
0
5.45767e-98
0
0
0
0
3.25823e-90
1.9911e-240
2.22163e-30
6.03754e-108
7.22348e-51
1.36142e-21
0
2.39383e-228
1.48549e-21
0
0
2.42888e-25
0
1.63595e-87
0
0
0
6.38788e-28
1.31834e-88
0
0
0
0
0
0
0
0
5.07858e-139
5.96675e-86
2.61425e-76
7.12868e-44
0
0
3.46234e-227
0
4.4172e-19
8.85829e-79
6.05625e-48
0
3.07837e-180
1.42408e-183
0
4.83294e-88
0
0
4.32425e-233
1.2454e-185
6.93421e-105
6.43094e-227
0
0
1.30714e-188
0
0
4.74089e-266
0
0
0
0
3.32073e-186
2.8591e-194
0
0
0
1.63335e-248
1.39297e-183
3.76459e-35
0
0
1.37409e-98
8.90044e-264
5.20827e-299
0
8.44381e-286
0
1.50937e-53
0
0
1.7613e-291
0
0
3.23688e-55
5.79199e-246
0
8.90997e-127
0
2.43395e-280
0
8.47014e-205
0
4.82243e-236
7.29085e-172
3.70157e-216
0
0
6.05386e-236
0
4.80328e-286
0
6.00344e-153
0
8.64841e-58
0
6.29707e-292
1.3548e-192
1.99123e-182
0
0
0
0
0
0
0
0
0
3.19728e-80
0
0
3.81916e-105
0
0
0
6.31613e-116
0
1.567e-79
0
2.03497e-98
0
0
0
0
0
0
0
0
0
0
0
0
0
0
0
2.58601e-264
0
9.33509e-62
0
0
0
0
0
0
3.05746e-77
2.50463e-300
5.30127e-193
5.1576e-252
0
0
1.92772e-245
1.27424e-183
0
0
0
0
0
3.79919e-27
4.57397e-75
3.6531e-138
1.15126e-83
0
6.07782e-21
0
3.85698e-15
6.17607e-85
2.14235e-17
0
7.20705e-199
0
4.78245e-223
7.97687e-170
0
0
1.38648e-21
6.67031e-248
7.78941e-174
0
0
0
2.65198e-178
0
5.06723e-248
8.40895e-203
3.11747e-191
0
0
1.47102e-258
6.13436e-38
1.92414e-15
5.57378e-80
1.18231e-232
0
0
1.41643e-287
0
2.1344e-215
3.43466e-176
0
0
0
0
5.09251e-213
0
0
7.26736e-173
1.87019e-42
4.87446e-158
0
1.71201e-29
0
0
1.08716e-268
0
0
0
0
0
0
3.06339e-249
0
0
0
0
0
0
0
0
0
0
0
0
0
2.65009e-101
0
0
0
0
0
0
6.69183e-108
0
0
0
0
0
0
0
0
0
8.3287e-236
0
0
1.39803e-74
0
0
5.34284e-74
0
0
0
1.3459e-75
0
0
0
0
0
0
0
0
0
5.88069e-196
0
3.94732e-121
0
3.12226e-198
0
0
0
0
0
0
8.70257e-173
6.66766e-76
0
6.26645e-74
0
7.1411e-290
0
0
1.63818e-260
4.48623e-207
0
5.91174e-258
0
0
3.86761e-206
0
0
0
0
0
0
0
3.21893e-71
3.55665e-69
1.16322e-77
3.32379e-219
0
0
3.07796e-227
0
1.56154e-282
0
0
0
0
4.48009e-76
0
0
0
0
0
0
0
1.95853e-172
2.69493e-88
7.57374e-202
1.05419e-260
2.94864e-201
0
0
0
4.0627e-258
0
1.74392e-255
0
5.65012e-261
5.66095e-262
0
3.84657e-119
0
6.71539e-96
0
0
4.92487e-71
2.05057e-235
8.48903e-69
4.48861e-153
1.80212e-182
0
0
4.1785e-69
0
4.99845e-226
0
0
0
7.4058e-69
0
0
2.95698e-192
0
5.01163e-65
1.26929e-20
0
2.03782e-178
0
9.17597e-260
4.98048e-238
0
0
0
0
1.14238e-51
0
7.63212e-57
1.79389e-187
2.03297e-186
0
0
0
0
0
0
0
3.50131e-136
3.95925e-77
0
2.87602e-223
0
0
0
0
0
0
0
0
0
0
3.5501e-82
0
6.62614e-265
0
1.32088e-138
0
0
4.15242e-247
1.05565e-227
0
0
1.48747e-188
0
0
5.60579e-154
0
0
3.8365e-208
0
3.24516e-218
3.76418e-290
0
0
0
3.24517e-101
0
0
2.05857e-72
5.2091e-113
0
0
3.80164e-222
0
0
8.04178e-130
0
0
0
0
0
1.46767e-138
0
0
0
0
6.05252e-139
0
7.22096e-143
0
0
1.25818e-177
0
1.74484e-176
2.34588e-186
0
0
1.37913e-227
0
0
0
7.23568e-174
0
0
0
2.43572e-142
0
0
0
0
0
6.4237e-196
0
6.7825e-252
0
0
0
1.30573e-87
0
1.72011e-253
3.7822e-147
0
2.6884e-213
3.40404e-208
0
0
0
0
5.39708e-87
0
1.40622e-69
8.01626e-74
0
2.18905e-38
3.04887e-91
0
0
0
2.02468e-257
3.88857e-231
1.27746e-144
0
0
1.05347e-174
5.51275e-220
0
0
3.01493e-95
0
0
6.16015e-85
2.66567e-152
2.91523e-147
1.05928e-250
0
3.05552e-215
4.03673e-204
0
6.54231e-150
0
0
0
0
8.17312e-266
0
3.11659e-219
0
7.93371e-143
3.51165e-110
1.68073e-182
7.77265e-145
0
0
0
4.59566e-109
0
1.63784e-196
0
2.40038e-100
0
7.10601e-194
0
1.82233e-90
0
1.84561e-99
2.36274e-103
0
0
0
0
6.10532e-106
1.30977e-222
1.06278e-221
3.55817e-181
0
8.06644e-292
0
0
1.74798e-285
0
4.40835e-290
7.80473e-110
1.19698e-266
0
0
0
5.95533e-284
0
0
0
0
0
0
0
3.73985e-166
5.95543e-147
0
1.01221e-221
0
0
4.45502e-178
0
0
0
0
1.39506e-269
0
2.71039e-171
1.45996e-161
0
0
0
4.17601e-208
1.25149e-122
4.65478e-99
6.77239e-201
1.43179e-109
0
9.81369e-52
0
3.61363e-108
0
9.66826e-135
0
0
0
2.61711e-251
2.22859e-95
0
0
2.29183e-84
0
0
5.41203e-67
2.22019e-41
0
1.63024e-234
2.22899e-108
4.85004e-106
7.78315e-193
5.9724e-239
1.31026e-139
3.15975e-186
0
0
0
3.48382e-124
0
0
0
3.15664e-156
3.78941e-228
8.44897e-237
1.05599e-131
0
7.08732e-178
0
0
3.20315e-234
0
1.88829e-183
0
3.06952e-175
0
4.27531e-209
0
3.20871e-103
0
2.32887e-184
2.13746e-206
5.69854e-253
0
0
5.69117e-158
0
3.77133e-184
0
6.50139e-221
0
1.19111e-181
0
0
0
0
1.34547e-151
1.15159e-181
0
0
0
0
8.34525e-130
0
1.09456e-112
0
2.95973e-207
0
6.51858e-139
0
0
0
0
0
0
0
0
4.19388e-246
0
0
0
0
0
0
0
0
4.6191e-143
0
0
0
0
0
0
0
0
0
0
0
1.89492e-110
0
0
8.60529e-160
0
0
0
0
0
1.31636e-79
0
0
0
1.91502e-258
0
0
0
0
2.11273e-197
0
0
0
0
3.19388e-115
2.60397e-186
0
0
0
0
0
7.13164e-113
0
2.24798e-194
0
0
4.71794e-265
1.45861e-216
0
0
0
0
0
0
0
0
0
9.7002e-216
9.96046e-243
6.66166e-110
0
2.00094e-214
0
0
0
0
0
0
0
0
0
0
0
0
2.42604e-239
0
7.79184e-107
0
0
1.01506e-112
5.54724e-240
0
0
0
8.19084e-194
0
0
8.30057e-152
7.61417e-129
0
0
0
0
0
7.07033e-122
0
0
9.78506e-158
0
0
0
0
0
7.35681e-240
0
0
1.38292e-291
0
0
2.48936e-237
0
0
0
2.09357e-217
0
0
0
0
1.36679e-117
1.09824e-125
0
0
0
0
0
0
8.03894e-234
0
7.16153e-43
0
0
0
0
0
0
0
0
2.28308e-200
2.05449e-155
0
0
9.64308e-104
0
0
0
5.8173e-211
0
0
0
0
0
6.0375e-240
1.87559e-232
2.66529e-234
0
0
0
2.31626e-101
1.96055e-264
0
0
0
0
0
0
6.2497e-289
9.03714e-211
0
0
1.38017e-286
1.89855e-185
0
7.44568e-111
8.5784e-97
5.82091e-163
0
0
0
0
6.71542e-284
0
0
0
0
0
0
0
0
0
0
0
0
6.84455e-192
0
0
0
0
4.70941e-182
0
0
0
0
1.19449e-148
2.37047e-146
4.53865e-204
4.07005e-165
0
7.87258e-144
0
0
0
0
1.98329e-234
0
0
0
0
0
0
0
0
0
0
0
0
2.22098e-247
0
0
0
0
0
1.35079e-216
8.54795e-240
6.75311e-106
0
0
0
0
2.12622e-113
6.82002e-134
0
1.75978e-43
0
1.83471e-111
4.68876e-282
2.27966e-46
3.04663e-157
0
0
0
8.24432e-243
1.06435e-173
1.07914e-171
3.84198e-193
0
4.72021e-240
0
0
0
0
1.5708e-57
0
0
0
4.88034e-168
0
0
0
1.36962e-79
1.09383e-110
0
0
5.90062e-175
0
2.29469e-170
1.38642e-166
7.83487e-173
4.91848e-105
0
0
0
7.96917e-214
9.76061e-212
3.18877e-199
0
7.75886e-210
0
6.77234e-214
0
9.29297e-134
0
0
0
5.80292e-172
0
8.43082e-160
0
3.51414e-209
0
3.9746e-211
0
0
0
0
2.42517e-248
0
0
0
2.15446e-181
2.92949e-239
0
2.91032e-136
0
0
0
0
0
0
0
1.13833e-250
2.41117e-137
0
0
0
0
0
0
0
1.30508e-223
1.62083e-81
4.69182e-203
0
2.18103e-147
0
0
9.37692e-242
0
0
0
0
1.50706e-149
9.14606e-107
0
0
8.06996e-110
0
0
0
0
0
0
0
0
0
0
0
0
0
0
0
0
0
0
0
0
9.33981e-245
6.95115e-109
0
0
1.61773e-194
0
5.42097e-99
2.33898e-198
9.88968e-212
1.09899e-250
0
0
0
1.7846e-192
0
1.36912e-111
3.76397e-190
0
0
0
0
0
0
0
0
5.47142e-232
0
0
6.34227e-208
0
0
0
0
5.70159e-39
2.28523e-98
0
0
0
0
3.13849e-111
0
0
0
0
8.32247e-119
0
0
0
0
5.01538e-125
0
0
0
2.36825e-289
0
0
0
0
0
0
0
0
0
0
0
3.46337e-119
0
0
0
0
0
0
1.80825e-229
0
0
5.73143e-254
0
0
0
0
0
0
0
0
0
0
0
0
0
0
0
0
0
0
0
0
2.07671e-197
0
0
0
0
0
0
0
0
0
0
5.35175e-154
0
0
0
0
0
0
0
0
0
0
4.11202e-128
0
0
5.08872e-128
0
0
0
2.02782e-270
0
0
2.06915e-118
2.41186e-188
0
0
4.76538e-113
2.52212e-173
9.5621e-143
1.37137e-137
0
0
0
0
4.06059e-230
5.65391e-67
0
0
0
0
0
4.61491e-129
4.01566e-183
6.703e-295
0
0
0
0
0
2.36017e-240
0
0
7.2166e-175
0
0
0
7.50428e-127
0
0
2.55913e-186
0
2.62812e-172
4.12186e-112
0
5.10012e-110
0
0
2.85885e-102
1.23375e-242
0
2.85462e-210
0
0
0
0
0
0
0
0
0
2.90443e-67
0
0
0
0
0
0
0
0
0
0
0
0
0
0
0
0
0
0
0
0
0
3.42803e-167
0
0
0
0
1.07606e-164
0
0
3.31261e-162
2.5379e-80
1.54948e-276
0
0
0
1.4376e-60
0
8.09687e-114
0
0
0
0
0
0
3.86024e-230
0
0
0
0
0
0
0
0
3.17892e-40
7.06572e-103
0
0
2.39769e-172
2.65052e-107
1.07737e-110
0
0
1.90657e-133
0
0
0
0
0
2.85184e-138
0
1.21628e-135
0
0
0
0
0
0
0
0
0
0
0
0
1.74659e-227
1.70408e-52
0
0
0
0
0
0
0
8.30149e-81
1.14785e-148
0
0
3.99317e-209
1.31977e-206
9.13486e-53
3.13866e-154
0
7.86673e-212
2.03362e-124
0
0
2.5489e-209
0
0
0
0
0
0
0
0
0
0
0
0
2.0226e-69
0
0
0
0
0
0
0
0
0
0
9.53617e-203
0
0
0
0
1.09723e-72
0
0
2.90172e-266
0
0
0
0
0
0
0
5.05554e-94
1.72003e-71
0
0
0
0
2.47906e-124
0
3.51977e-109
0
1.46755e-187
1.52015e-94
5.02458e-165
1.54668e-34
0
0
1.04225e-23
0
0
0
0
8.97039e-189
0
0
2.42415e-255
8.95902e-253
0
1.25387e-100
0
0
9.56398e-122
3.4233e-63
8.85281e-06
0
0
0
1.10013e-234
0
0
0
0
3.37808e-146
0
6.01728e-195
4.79022e-15
0
0
0
0
0
0
0
0
0
0
0
0
0
1.43899e-120
0
2.62106e-156
0
0
0
0
0
7.46326e-66
1.19307e-265
5.08332e-248
0
9.08862e-13
0
8.96992e-85
4.26183e-280
8.59252e-173
5.02972e-89
2.04646e-89
3.86011e-114
0
0
0
0
0
7.82513e-27
0
0
5.8495e-11
0
3.7487e-232
0
0
0
0
0
0.00141429
0
0
0
8.39449e-21
0
0
0
6.7403e-132
0
1.25203e-148
1.89312e-109
9.64271e-160
1.32215e-76
0
0
1.13148e-90
0
4.34805e-106
0
0
0
0
1.1903e-61
4.20565e-66
0
0
0
1.20728e-07
0
0
6.94271e-77
0
0
0
6.20817e-121
0
0
0
5.84746e-134
0
0
0
0
0
0
0
0
1.55646e-217
3.51407e-124
8.00623e-168
0
0
0
5.03449e-93
0
0
5.05344e-100
0
0
0
0
0
0
0
3.60824e-61
0
0
1.10963e-119
0
0
3.9859e-15
0
1.99686e-157
1.36607e-103
0
0
0
1.20958e-108
0
2.11686e-152
0
0
1.03148e-222
0
5.60097e-71
0
0
0
9.78505e-164
5.8857e-111
1.5519e-70
0
0
0
0
9.78658e-118
0
0
2.8321e-194
0
0
0
2.33691e-163
4.86376e-61
3.20697e-24
3.82491e-122
0
2.909e-63
9.32326e-213
0
0
0
1.01291e-128
4.63544e-194
1.52449e-212
0
1.12389e-266
0
0
0
0
1.18402e-143
3.6447e-145
0
1.79413e-204
0
0
0
0
0
0
1.41202e-199
8.51073e-139
6.69548e-174
0
0
0
2.23086e-174
0
5.96473e-181
0
0
1.72599e-185
3.24912e-213
0
3.28854e-126
0
0
0
7.47949e-191
0
0
0
4.92424e-195
2.95455e-136
0
0
0
7.5116e-85
3.42457e-110
0
8.31391e-102
0
1.68622e-61
0
0
3.08146e-150
1.58731e-132
0
0
0
3.29809e-184
7.87749e-100
2.00989e-35
7.34392e-228
7.06806e-274
0
0
0
0
3.21239e-123
0
0
0
0
0
6.51141e-120
0
0
0
2.60701e-215
0
0
0
0
1.21811e-261
0
0
6.15541e-293
0
0
3.56623e-180
0
0
0
2.24094e-40
0
0
0
7.11466e-34
0
0
0
1.18898e-89
0
3.20402e-163
0
0
0
6.1182e-148
1.78631e-229
0
2.83153e-259
3.87436e-177
1.20714e-174
0
0
0
0
7.88926e-121
0
0
0
0
0
0
0
0
2.98724e-79
0
0
0
0
0
0
1.64293e-79
0
0
0
0
0
0
2.59656e-193
2.965e-211
1.4236e-268
0
2.73939e-218
0
6.43485e-234
3.70691e-254
0
0
0
2.46563e-154
2.04792e-115
0
0
0
6.11208e-113
0
5.55781e-125
6.38009e-81
7.46196e-111
0
0
5.95351e-175
3.09474e-168
0
0
0
4.92031e-177
1.65977e-256
0
1.53572e-144
1.79158e-139
1.63919e-117
0
0
0
0
1.13766e-239
0
0
0
0
0
0
2.67962e-267
6.53845e-103
0
0
0
9.90759e-72
0
1.11059e-69
7.55003e-98
8.8202e-33
1.23119e-95
6.40552e-198
0
0
0
1.46385e-140
0
1.25115e-201
0
0
0
0
5.58285e-199
0
8.29602e-135
1.18352e-195
2.27286e-196
0
0
0
0
0
3.96086e-119
0
0
0
1.1844e-198
0
4.66588e-242
0
0
0
4.14979e-129
0
0
1.3123e-126
5.585e-124
0
1.64555e-130
0
0
9.30378e-61
3.85643e-135
0
0
0
0
0
2.69549e-128
2.52412e-71
4.35544e-121
4.93135e-140
1.69179e-139
0
1.51337e-41
0
0
0
0
0