/*--------------------------------*- C++ -*----------------------------------*\
| =========                 |                                                 |
| \\      /  F ield         | OpenFOAM: The Open Source CFD Toolbox           |
|  \\    /   O peration     | Version:  v2012                                 |
|   \\  /    A nd           | Website:  www.openfoam.com                      |
|    \\/     M anipulation  |                                                 |
\*---------------------------------------------------------------------------*/
FoamFile
{
    version     2.0;
    format      ascii;
    class       volScalarField;
    location    "0.5";
    object      H2O;
}
// * * * * * * * * * * * * * * * * * * * * * * * * * * * * * * * * * * * * * //

dimensions      [0 0 0 0 0 0 0];


internalField   nonuniform List<scalar> 
108993
(
2.56019e-232
0
2.55475e-150
0
0
0
5.78357e-233
0
0
0
0
0
0
0
0
0
1.77922e-299
0
0
0
0
0
0
0
0
0
0
1.04103e-263
1.42554e-284
0
0
0
0
4.28913e-214
0
0
0
0
3.35367e-90
0
0
0
3.0143e-256
0
0
2.08938e-139
0
4.99596e-245
0
4.05564e-204
0
0
0
0
0
0
0
0
0
0
0
0
0
0
0
3.32109e-295
0
0
0
0
0
0
0
0
1.10544e-300
0
0
1.75724e-230
0
0
0
2.30022e-254
0
3.61272e-245
0
0
1.9557e-219
0
0
0
0
0
0
0
0
0
0
0
0
0
0
0
0
0
0
0
0
0
0
0
0
0
0
1.10774e-96
0
1.73665e-87
0
0
0
0
1.67639e-279
0
0
0
0
2.76783e-91
0
0
0
0
0
0
0
9.5115e-63
0
0
0
0
0
1.54063e-214
0
0
1.31214e-113
0
0
0
0
0
0
0
0
0
1.05176e-148
8.93751e-38
0
1.46699e-131
3.53996e-234
0
0
0
0
0
0
0
0
0
0
0
0
0
0
0
2.63213e-111
0
0
0
0
0
3.10451e-244
0
0
0
0
0
4.08621e-209
0
0
0
0
0
0
0
0
6.21244e-126
0
0
0
0
0
0
0
0
0
0
0
4.27586e-55
0
0
0
7.29898e-05
0
0
4.47395e-116
0
0
0
0
0
0
0
1.32702e-287
0
1.81043e-141
3.53538e-118
0
0
0
9.05141e-215
8.63772e-70
0
4.70874e-139
0
0
1.89162e-275
0
0
0
0
0
0
0
1.91117e-264
0
0
0
0
0
0
0
0
0
0
0
0
0
0
0
6.69246e-172
0
0
0
0
1.04713e-115
2.79765e-88
0
6.83506e-246
0
0
0
0
0
4.21616e-167
0
6.24429e-09
0
0
0
0
1.27239e-180
1.28127e-238
0
0
0
0
0
0
0
0
3.29247e-171
1.67005e-163
0
0
0
6.15486e-291
0
0
0
0
0
0
5.56957e-81
0
0
0
0
0
0
0
0
0
0
0
0
0
0
0
0
5.60409e-154
1.97449e-113
0
7.2357e-201
0
0
0
0
0
0
0
0
0
5.63938e-278
1.43646e-62
7.70369e-17
0
0
0
0
0
0
0
0
2.08419e-85
2.08709e-226
0
0
0
2.13457e-189
0
0
0
2.60021e-297
0
0
4.17608e-168
0
0
0
0
0
0
3.48573e-122
2.30512e-230
0
0
3.50412e-298
0
0
0
0
0
1.05376e-132
3.51687e-138
0
2.63574e-20
2.02339e-204
0
0
1.15286e-254
0
0
0
1.498e-46
0
2.09192e-67
0
2.63721e-226
0
0
0
1.10704e-144
1.89459e-48
8.72948e-238
1.72026e-45
0
0
0
7.96232e-10
0
7.28308e-87
0
0
4.43178e-110
1.30826e-116
0
0
2.37183e-253
9.74203e-221
0
0
5.1935e-07
0
5.30315e-205
9.45184e-54
0
0
0
0
0
0
0
4.56236e-05
4.25677e-211
7.74119e-08
0
0
2.72613e-11
0
0
0
0
1.21979e-08
6.44619e-115
3.71653e-08
0
0
1.29234e-256
0
6.75002e-300
0
0
0
0
0
0
7.38999e-171
0
0
0
0
0
0
0
0
3.62524e-196
0
0
0
0
0
0
0
2.78135e-142
0
0
0
3.7236e-170
0
0
1.8772e-167
5.86677e-157
1.94857e-237
0
0
1.49658e-130
0
1.77513e-115
0
0
0
3.06089e-91
0
0
0
0
2.04363e-113
9.61415e-165
7.7441e-157
0
0
1.38714e-216
0
0
0
2.70749e-157
0
0
3.11954e-111
2.72165e-264
0
2.32151e-219
0
0
0
0
0
4.423e-52
1.23185e-191
0
1.95476e-116
1.18641e-186
0
0
0
1.37245e-154
0
0
0
0
0
1.67903e-292
0
0
0
8.82237e-197
1.27569e-285
0
0
1.96114e-204
0
5.28035e-205
0
0
0
0
0
0
6.33197e-159
0
0
0
0
0
0
0
0
5.31562e-258
0
0
0
0
0
0
4.64621e-113
0
0
0
0
0
0.000325261
3.50714e-251
7.18651e-197
0
0
2.8322e-169
0
0
0
0
0
4.43262e-204
0
0
0.0012655
0
5.5552e-61
0
0
1.00923e-214
6.39561e-18
0
4.50763e-150
5.47491e-276
2.64382e-208
0
0
1.52843e-80
1.52787e-134
1.44623e-202
5.97889e-205
0
8.82363e-181
0
0
6.14492e-193
7.5831e-11
0
0
0
4.81614e-248
0
0
0
3.27415e-05
0
6.78556e-278
0
4.70298e-07
0
1.2382e-129
0
1.14753e-31
1.22101e-158
0
2.57899e-163
0
0
1.89637e-92
0
4.90785e-119
0
0
0
0
0
1.15002e-250
0
0
2.36921e-96
3.88337e-138
0
1.38222e-41
4.18772e-222
3.91459e-82
0
4.42914e-93
0
0
0
1.76636e-74
2.50178e-111
0
2.24349e-110
0
0
0
6.45054e-91
2.37344e-148
0
1.9771e-96
0
0
1.34708e-69
2.08616e-157
0
3.15913e-202
0
0
0
3.28804e-168
0
0
0
0
3.76625e-290
0
0
0
1.35891e-108
0
1.73694e-170
1.18031e-107
0
9.40673e-113
3.18122e-191
0
0
1.7816e-103
0
0
0
0
2.65321e-187
0
0
3.42398e-153
1.69927e-98
3.36324e-144
8.58314e-235
0
1.76865e-37
0
3.44166e-186
0
0
0
0
0
0
0
3.28835e-87
0
0
0
0
2.53431e-118
0
2.11338e-86
0
0
0
2.89619e-132
0
0
0
4.07301e-82
0
0
0
0
1.07871e-114
0
4.46463e-80
0
0
0
0
2.28511e-132
0
3.00659e-86
0
1.05578e-114
1.07677e-77
1.45294e-68
6.25242e-75
0
0
0
0
0
6.00308e-236
0
0
0
1.47674e-106
0
0
2.24024e-114
0
3.52278e-116
0
0
0
0
7.10941e-120
0
0
0
0
7.5423e-93
0
9.61928e-101
0
3.85169e-117
4.4142e-146
0
0
0
0
0
0
5.19542e-141
0
0
3.54991e-77
5.52487e-64
0
1.85817e-138
1.95361e-13
1.25678e-93
0
0
9.4116e-38
1.44016e-138
5.29935e-141
1.30548e-146
0
0
0
0
0
0
2.08923e-130
0
0
0
9.51855e-96
0
0
1.83064e-27
0
0
0
0
1.34861e-140
0
0
0
0
0
0
2.4238e-127
0
0
0
0
2.7294e-48
0
2.07854e-225
0
0
3.47997e-11
0
0
0
0
0
0
1.06048e-180
9.03997e-206
5.87038e-241
0
7.30466e-125
3.82408e-156
0
0
0
0
0
0
0
0
3.14982e-136
0
8.30316e-125
0
9.14343e-157
8.95287e-156
1.97048e-223
4.88666e-09
1.57574e-142
6.7758e-07
1.09158e-150
5.73804e-11
7.86022e-140
2.79026e-146
6.67855e-241
0
0
0
2.8951e-257
0
7.67969e-143
0
4.10884e-162
0
0
0
0
1.17466e-118
1.48205e-81
0
0
4.21166e-67
0
0
0
0
0
0
2.14597e-217
7.94798e-182
1.17431e-159
6.50587e-115
0
0
0
0
0
0
0
0
0
3.82672e-90
0
0
0
0
0
9.32758e-63
0
0
0
8.54246e-281
5.3363e-24
0
0
0
2.37785e-48
0
5.9702e-235
0
0
4.93199e-109
0
0
0
0
0
0
2.0366e-299
0
1.02598e-104
1.20055e-241
0
0
7.39513e-111
5.49578e-238
7.64134e-105
0
0
8.57872e-97
0
0
0
0
0
0
8.0317e-48
0
8.84564e-124
1.44196e-284
0
0
0
0
0
0
0
0
0
0
0
0
0
0
1.10669e-159
3.14826e-94
8.82758e-125
0
4.73035e-120
0
0
2.30817e-145
0
1.41208e-92
0
2.77245e-201
1.12309e-102
1.66265e-153
1.04595e-140
0
0
1.09099e-299
0
0
0
0
0
0
0
1.10641e-162
4.89168e-156
0
0
1.16249e-171
9.30807e-188
0
0
0
3.59089e-160
4.93814e-259
0
9.65211e-131
7.89987e-269
0
0
0
0
0
4.66591e-159
0
0
0
3.37172e-116
0
2.46514e-142
8.14837e-224
0
0
3.57017e-223
1.41749e-160
1.98899e-67
6.06247e-160
0
4.36819e-160
0
0
0
1.23062e-129
0
0
1.13231e-161
0
0
0
4.45288e-127
0
0
0
3.99956e-105
0
7.56407e-176
1.60768e-187
3.62782e-246
2.78916e-147
0
0
0
0
2.47345e-53
1.56748e-161
0
0
0
0
0
0
1.76142e-119
0
0
1.08618e-130
0
0
0
0
0
0
0
4.77001e-128
8.5676e-135
4.054e-09
0
1.459e-222
2.52431e-131
4.43135e-202
3.34668e-126
0
2.08949e-126
0
0
1.39358e-189
0
0
1.64379e-108
0
0
0
1.36445e-214
0
0
3.87042e-194
0
0
4.17226e-131
0
9.60453e-178
0
5.14865e-112
0
0
1.20844e-180
0
0
0
1.32451e-115
0
0
0
0
0
5.80533e-230
0
0
0
0
4.54577e-06
6.75449e-92
0
0
0
0
1.22833e-204
0
6.62029e-217
0
0
0
0
0
0
0
0
0
0
0
4.07822e-163
0
0
0
1.09279e-130
0
0
0
0
0
0
0
3.08776e-138
3.42328e-185
6.74765e-83
4.07411e-174
0
0
0
0
0
3.66989e-17
0
0
0
0
0
1.36663e-134
0
1.67984e-203
0
0
0
0
0
0
1.70543e-169
0
6.40993e-201
2.39901e-150
7.63788e-156
0
8.98798e-42
0
1.44438e-167
0
0
0
0
0
0
0
9.0853e-251
0
0
0
5.80311e-117
0
1.66789e-114
0
0
6.91763e-237
0
1.21082e-121
0
0
0
2.51851e-57
1.01878e-113
0
5.36481e-287
0
0
0
0
0
0
0
0
2.58207e-139
2.25301e-123
1.54274e-226
0
0
0
0
0
0
0
8.94795e-95
0
2.6286e-117
2.22263e-277
0
2.55397e-199
0
1.52123e-191
0
1.0911e-258
0.00226192
9.66108e-251
5.80684e-256
0
0
1.63239e-230
0
7.49117e-146
0
1.15839e-90
0
0
0
9.73452e-198
0
0
0
0
1.89273e-124
0
0
0
0
1.5655e-134
0
0
0
1.8556e-151
9.40671e-12
2.73772e-190
1.73784e-105
0
7.01254e-12
4.01016e-166
0
0
4.67314e-74
5.99888e-229
0
7.19014e-159
1.17794e-160
0
8.96917e-162
0
1.45215e-156
2.81935e-154
9.96798e-233
1.92718e-235
0
0
2.9852e-226
0
0
0
0
0
0
7.83516e-67
0
0
0
1.28678e-173
0
1.85172e-287
1.3165e-214
1.61267e-126
5.02333e-85
0
0
0
2.63735e-211
2.08852e-282
0
0
1.88548e-219
7.11167e-187
1.29547e-176
0
0
3.96943e-177
0
8.34857e-188
0
2.34579e-191
0
0
0
0
0
2.11231e-290
0
0
0
0
0
1.01775e-105
0
0
0
0
2.10175e-171
0
0
0
0
0
0
0
0
0
1.50501e-158
0
5.09518e-94
1.9723e-165
0
3.52092e-80
0
3.45088e-232
0
1.26195e-178
0
4.96787e-186
4.58032e-31
0
0
0
0
0
1.39042e-111
3.9333e-109
3.21886e-129
0
0
0
1.08043e-75
0
0
0
8.28218e-115
0
0
6.26205e-180
6.29067e-143
0
0
4.4809e-115
0
7.78672e-72
0
3.67175e-184
0
0
0
0
2.62576e-214
2.92511e-126
0
0
2.71783e-233
8.50003e-96
9.18217e-103
0
3.21426e-218
6.62572e-277
0
0
0
3.31914e-130
0
0
0
0
0
0
0
5.26009e-78
0
0
0
5.26533e-149
0
0
0
0
0
3.18308e-136
1.29906e-208
1.77208e-151
0
0
0
0
3.32515e-120
3.13083e-96
0
0
0
0
3.31173e-113
0
7.76415e-167
2.75492e-130
0
1.1655e-69
0
0
0
0
0
0
0
0
9.21113e-106
0
7.12883e-101
1.0153e-175
0
1.86599e-292
0
0
0
0
0
1.27836e-153
0
0
3.84251e-238
0
3.28916e-229
3.19768e-239
1.09651e-144
5.82586e-211
0
0
0
0
2.20641e-201
4.05904e-114
1.89049e-40
0
8.27902e-192
5.27793e-65
0
0
0
0
1.58513e-141
1.94803e-174
7.7079e-100
0
0
1.87977e-49
0
0
0
0
0
0
1.20012e-232
0
1.38263e-232
3.18818e-77
0
0
6.91447e-90
0
0
0
8.49677e-209
0
0
1.77752e-269
0
1.5883e-250
0
0
0
1.26666e-78
3.27179e-50
0
0
2.25066e-244
6.52522e-112
0
0
4.97974e-101
0
0
0
1.11567e-152
0
1.25662e-98
0
6.58844e-102
0
0
0
0
7.70568e-232
0
0
0
0
1.6367e-233
5.39014e-257
5.70321e-236
1.22577e-110
2.23311e-234
3.44784e-280
0
1.50143e-277
0
2.94864e-118
0
4.25697e-111
0
0
0
0
1.41385e-244
3.98757e-71
0
2.16741e-51
6.60897e-291
0
0
0
0
4.15206e-288
0
0
0
0
0
0
0
2.08466e-183
0
0
0
0
0
3.25985e-266
0
0
0
2.41851e-98
0
1.33392e-285
0
8.58165e-118
0
0
0
0
0
0
0
0
1.09588e-258
0
9.95813e-67
9.39998e-93
7.22894e-93
0
0
0
0
0
2.05092e-136
0
0
0
0
0
1.02025e-178
6.23143e-162
0
0
0
0
0
0
0
0
0
3.24544e-48
0
0
0
0
0
0
0
0
0
0
5.36588e-192
6.02846e-117
0
0
0
0
0
4.74287e-178
0
0
0
0
2.59519e-215
6.72506e-98
0
0
0
0
1.12847e-167
0
0
7.08565e-96
0
0
0
2.14326e-222
0
0
0
2.54569e-195
0
0
0
0
0
0
0
0
2.57394e-60
0
0
0
1.62318e-37
2.54566e-149
3.16066e-56
0
0
0
0
0
0
3.95263e-107
3.98655e-243
0
0
0.000628507
2.39636e-102
0
3.68752e-43
5.55102e-68
1.18175e-23
0
0
2.0214e-210
8.118e-257
0
0
0
0
3.93481e-104
7.24355e-113
0
0
1.5215e-99
2.43729e-110
3.12187e-88
0
0
0
0
6.28001e-29
0
2.94958e-184
1.17492e-152
0
0
0
0
0
0
0
5.49474e-105
0
1.70329e-99
2.4411e-88
1.20342e-140
6.7679e-118
7.15457e-104
0
4.81105e-25
0
0
0
0
0
0
6.21067e-241
3.75269e-244
1.96259e-176
0
2.02763e-45
0
1.62813e-39
4.70445e-71
0
0
3.14278e-82
0
3.09044e-101
0
1.56673e-287
0
6.11062e-275
1.80484e-295
3.84536e-07
3.80711e-175
0
0
1.54628e-142
0
5.0927e-292
0
3.28285e-163
3.7085e-163
0
0
5.50142e-151
0
0
0
3.36705e-134
0
1.27319e-204
0
0
1.47879e-205
0
9.85565e-144
1.69352e-191
0
0
0
0
1.6732e-166
0
4.7385e-65
0
0
0
0
0
3.40449e-152
0
1.25584e-117
0
1.00508e-253
0
0
0
1.4808e-169
0
3.57364e-155
1.40459e-168
0
1.60102e-74
7.8844e-100
0
3.20615e-186
1.67441e-109
7.15716e-164
2.88145e-157
5.23499e-136
1.21122e-103
1.02037e-262
0
1.91471e-90
0
0
0
3.06033e-81
3.21258e-171
0
0
1.54253e-29
0
2.66328e-78
0
2.94808e-94
3.41879e-22
2.60598e-145
0
0
0
0
0
0
0
0
2.05297e-148
0
2.41739e-176
3.82723e-167
0
7.98324e-229
2.25094e-132
1.94619e-231
0
0
0
0
0
3.74889e-165
1.03056e-128
0
0
7.49146e-124
3.45923e-194
0
1.30387e-114
0
0
0
0
0
0
1.9012e-126
0
0
1.49877e-165
0
2.84341e-137
1.45905e-59
0
0
0
1.44632e-166
0
0
0
0
0
0
3.35948e-69
2.58513e-46
0
3.79377e-210
6.63359e-43
4.9947e-158
1.22196e-93
0
0
0
0
0
6.50664e-238
0
0
0
8.64461e-172
0
0
1.24044e-169
0
0
0
0
0
2.94516e-271
3.74107e-126
0
0
0
0
0
0
2.49032e-139
0
0
4.48959e-123
0
8.06975e-173
1.46433e-206
0
0
0
0
1.02143e-273
0
7.36288e-181
0
6.14562e-169
1.13344e-133
0
0
1.39652e-187
0
1.15104e-78
1.3144e-160
0
2.20237e-138
1.33683e-129
0
6.9072e-195
0
1.01195e-133
1.07469e-164
0
0
0
3.75342e-139
5.73878e-189
0
0
0
2.18954e-192
0
0
0
0
2.51735e-154
0
0
0
0
0
0
0
0
0
0
0
0
0
0
0
0
0
4.67567e-141
3.4258e-156
0
0
0
2.62364e-72
8.51615e-68
0
7.51773e-144
1.96552e-117
0
2.22019e-57
4.2633e-171
3.32119e-45
0
2.89806e-183
0
0
2.21596e-62
0
0
0
0
0
0
5.61526e-65
0
4.90317e-22
0
0
0
0
0
1.19575e-89
0
3.72336e-144
6.31812e-104
0
0
0
0
0
6.02885e-213
1.7608e-235
8.48424e-63
0
2.90239e-91
0
0
0
0
0
3.13248e-268
0
4.78334e-100
7.60164e-272
0
0
0
0
5.2906e-94
0
0
6.02265e-154
0
0
2.10785e-198
0
0
1.04626e-87
2.60509e-88
1.24175e-86
0
4.2725e-130
6.82602e-128
0
1.78503e-245
1.04514e-113
4.05892e-138
0
0
6.76222e-82
3.24687e-89
1.79354e-132
0
0
0
1.83793e-116
0
0
0
9.1564e-75
5.40628e-88
5.54707e-297
0
0
2.64078e-282
1.40849e-39
0
0
2.05409e-146
4.62149e-179
8.652e-200
0
8.60525e-195
7.12485e-240
1.31588e-105
2.39809e-263
0
3.14319e-253
2.64229e-160
0
0
1.28273e-169
0
0
0
0
0
1.38324e-119
0
1.00391e-256
0
0
0
0
0
0
8.17986e-09
0
0
0
0
0
0
3.31841e-213
0
0
5.85182e-09
4.52962e-224
0
0
5.62799e-140
0
0
0
0
0
0
0
0
3.60865e-103
0
4.86171e-118
0
0
0
2.87874e-87
4.99877e-82
6.12058e-207
1.51062e-253
0
1.17735e-236
9.58515e-197
0
0
2.62299e-47
0
4.80854e-210
1.92384e-204
1.0224e-201
3.54937e-139
2.25412e-224
1.85813e-95
0
0
2.85895e-59
0
8.63162e-94
2.51178e-101
6.27529e-251
0
9.48127e-108
0
0
0
3.97413e-253
0
1.61517e-293
0
6.37698e-104
0
0
0
0
7.38851e-164
0
7.34305e-75
0
0
0
0
0
0
0
0
0
0
1.10316e-87
2.05238e-259
1.22519e-206
0
0
0
3.28904e-85
1.75677e-143
0
0
2.10102e-146
0
2.18909e-108
0
0
7.97987e-159
0
0
0
1.54013e-160
4.05797e-197
0
2.15924e-256
0
0
0
0
0
0
0
0
0
0
1.49713e-133
0
3.35103e-292
5.8408e-69
0
0
0
0
0
0
0
0
0
0
0
8.72391e-74
0
4.55533e-117
4.42302e-206
4.91211e-141
0
0
3.50226e-86
0
0
0
0
0
0
0
5.5915e-187
3.39871e-174
0
0
0
0
0
1.05085e-198
0
0
0
1.47938e-192
0
0
0
0
1.46842e-159
0
0
0
0
0
0
1.47882e-169
0
0
0
1.8799e-140
0
0
0
2.71817e-182
1.18788e-210
0
4.19623e-167
1.45842e-167
0
1.54823e-164
0
5.18903e-162
5.85059e-170
0
0
0
0
8.60152e-170
2.70902e-170
6.86281e-165
9.45204e-258
1.28416e-170
0
0
2.81522e-162
2.45024e-168
0
0
0
1.70102e-206
3.96908e-65
1.77897e-170
0
9.99854e-96
2.47791e-296
0
1.08387e-31
0
0
0
0
0
2.15111e-153
1.04102e-125
0
0
4.77298e-250
0
0
2.14276e-249
4.03079e-151
1.39904e-142
0
0
0
0
1.20179e-118
0
0
0
2.02717e-116
0
0
0
0
0
2.41692e-100
0
0
0
0
0
0
0
0
0
0
0
5.87047e-146
0
5.06471e-300
4.96288e-234
0
0
8.70196e-184
0
6.72119e-170
0
1.38118e-155
0
1.2915e-128
2.46138e-237
5.75285e-207
0
0
0
7.86128e-240
0
0
0
2.7886e-93
0
0
0
0
0
1.18475e-134
0
1.1537e-217
0
0
3.3055e-188
0
0
0
0
0
0
0
6.24898e-130
1.84584e-155
0
0
3.65422e-261
7.64503e-130
0
0
0
0
0
0
0
2.68733e-127
0
5.03968e-55
0
9.54571e-125
9.64472e-128
4.44106e-118
0
5.03195e-52
1.33048e-172
0
0
7.7847e-132
1.23659e-144
0
0
1.87483e-102
0
2.25128e-279
0
5.17109e-257
2.35232e-220
0
0
1.57203e-74
0
8.19721e-157
5.43525e-261
0
9.48266e-115
5.90242e-220
1.1831e-208
0
0
0
0
6.17174e-144
0
8.01462e-138
0
1.21194e-168
5.58201e-198
0
0
1.0747e-99
0
7.09238e-139
0
0
4.00551e-102
0
2.09967e-190
1.49586e-80
3.71494e-205
1.11313e-108
0
1.69146e-253
0
0
0
0
0
0
2.81911e-89
0
0
3.80749e-122
0
3.6378e-115
9.56055e-121
0
0
8.15497e-133
0
0
0
4.77751e-247
0
0
0
3.0052e-140
4.73894e-142
0
0
0
0
0
1.0947e-218
0
0
2.63219e-139
5.27732e-243
0
0
0
9.73117e-122
8.87414e-188
6.38464e-286
4.6034e-292
0
0
0
0
2.05074e-239
0
4.99167e-242
0
0
0
0
0
2.60226e-269
2.24469e-77
0
0
1.33131e-217
1.0773e-143
0
2.73345e-219
5.34169e-47
0
0
0
0
0
0
0
0
0
0
3.36188e-204
0
0
2.3659e-176
1.47829e-130
2.18331e-200
2.61431e-77
3.00162e-266
0
4.88174e-79
0
0
0
0
5.51744e-73
0
3.37169e-282
0
0
3.58722e-215
0
4.21116e-231
0
0
0
0
0
4.42898e-138
0
0
0
0
0
0
2.3687e-260
0
6.41969e-259
0
0
0
3.60303e-122
1.43945e-109
0
8.53892e-197
0
0
0
7.12752e-133
2.43184e-127
4.22337e-142
0
0
0
0
2.43666e-153
4.51971e-181
2.38891e-50
0
0
0
0
0
0
0
2.72092e-48
8.62712e-41
1.3673e-154
7.46133e-41
0
1.31919e-230
1.29354e-142
0
0
0
0
0
0
1.68717e-216
1.48163e-55
0
2.99691e-49
0
1.65596e-49
4.53047e-211
1.84974e-221
3.68447e-207
1.77221e-64
0
0
0
2.66003e-88
5.38568e-74
0
0
2.31723e-54
0
0
0
0
0
2.70842e-60
6.72651e-158
0
2.42739e-286
0
0
1.95525e-174
0
0
7.77786e-165
5.35339e-136
0
0
5.13761e-281
0
0
3.15488e-143
0
0
8.95492e-43
0
4.10177e-298
0
0
2.07467e-235
0
0
2.58518e-164
8.11052e-151
0
0
0
0
6.41635e-282
1.65473e-156
0
0
0
0
0
0
0
0
0
0
0
0
0
0
5.15126e-171
2.06508e-226
2.01662e-38
0
0
0
0
0
0
0
3.3648e-34
0
3.78413e-32
0
0
0
7.30715e-32
3.1637e-35
0
0
0
0
0
0
0
0
0
5.32474e-08
0
0
1.1542e-216
2.74631e-169
0
0
0
0
0
2.38264e-129
1.63206e-180
0
0
0
3.16385e-186
0
0
0
0
2.92178e-97
0
0
2.85222e-179
0
0
1.71745e-87
9.76422e-97
0
5.30324e-152
3.98737e-166
2.62362e-138
4.93178e-97
0
0
0
0
0
0
4.31763e-138
1.52868e-215
0
0
0
0
0
0
0
0
0
9.34031e-62
0
0
0
6.26841e-130
8.23793e-149
0
9.8708e-61
7.94797e-53
6.06358e-188
0
4.51222e-73
3.91225e-186
0
0
3.13789e-233
8.07794e-155
0
0
0
0
0
0
0
3.89337e-190
0
0
5.09582e-177
2.05765e-67
7.1988e-68
2.10483e-188
5.50413e-65
3.16241e-68
3.35294e-64
0
0
1.55188e-65
0
0
2.3141e-71
0
9.93725e-151
0
1.16175e-203
4.29719e-139
0
0
0
0
3.91179e-156
0
0
0
1.17665e-96
0
0
0
0
1.23502e-173
0
0
0
0
1.1606e-80
0
0
0
0
2.16564e-88
0
1.50561e-147
0
0
0
3.85024e-250
0
0
0
0
0
1.13779e-151
0
1.7269e-198
0
0
0
0
0
2.63841e-135
1.32669e-166
0
0
9.27935e-178
1.82746e-290
5.56997e-154
7.8763e-120
0
0
0
0
3.12646e-167
1.68291e-156
0
0
0
4.12104e-251
0
0
0
0
0
0
0
0
0
0
0
0
2.11059e-222
0
0
0
6.5016e-176
0
6.31329e-66
0
0
0
0
0
0
0
0
0
0
0
0
0
0
0
1.30224e-194
5.64169e-164
0
0
3.21126e-287
0
2.27536e-235
0
0
1.50525e-193
0
0
1.65696e-142
2.04793e-156
0
6.56313e-227
0
0
1.23287e-224
4.58915e-178
1.22473e-141
2.27626e-111
0
0
0
0
0
7.70609e-149
2.83826e-215
1.39414e-174
5.8994e-124
0
0
0
0
0
7.18805e-147
0
0
7.90071e-188
0
0
0
4.47429e-266
1.80538e-292
4.11499e-39
0
0
0
0
0
0
0
0
0
1.10777e-132
0
1.61207e-247
0
0
0
0
0
0
0
0
0
3.23735e-151
2.94941e-172
3.53383e-150
0
0
1.48983e-70
0
0
1.82162e-165
0
0
0
0
6.66252e-184
2.00736e-221
0
2.2062e-81
2.23607e-136
9.69226e-102
2.55467e-34
0
1.26046e-176
0
0
0
5.03695e-238
0
0
0
0
2.2019e-59
4.32829e-158
0
0
0
0
6.00671e-124
0
0
0
6.82458e-105
0
0
0
0
0
9.64473e-78
0
0
0
1.60225e-101
0
0
0
3.56765e-153
0
1.25618e-244
1.41357e-300
0
0
9.93119e-249
0
0
6.49647e-249
9.02156e-121
0
5.90538e-204
0
1.30743e-111
0
0
0
0
0
0
0
0
6.03675e-165
0
3.96474e-274
0
0
0
0
5.86225e-80
0
1.69619e-78
0
2.34134e-125
0
0
0
0
0
0
3.94556e-71
0
4.44711e-206
6.05196e-28
4.40203e-123
3.07851e-255
0
4.91038e-201
0
0
0
0
5.15091e-47
0
0
5.90039e-246
1.27021e-110
0
0
0
0
1.12622e-226
0
0
0
8.07026e-71
0
1.43957e-133
0
0
1.56006e-192
0
0
0
0
1.71597e-100
1.12096e-163
0
1.1666e-128
6.28151e-112
6.34533e-190
0
2.5958e-121
0
0
1.51084e-150
0
0
3.05179e-57
3.54379e-127
5.24842e-125
6.52772e-155
0
6.82885e-101
1.51887e-65
0
0
9.94832e-111
7.49621e-125
0
0
0
0
6.60457e-133
4.02365e-63
1.5771e-122
9.90246e-185
5.27624e-108
0
0
0
0
1.54913e-253
0
0
0
0
3.55703e-52
0
0
8.38902e-261
0
0
0
5.49726e-117
3.46795e-72
5.2546e-175
0
0
1.19932e-158
0
0
0
1.04667e-95
0
2.15706e-83
0
0
0
0
0
0
4.26372e-72
0
3.90235e-243
2.63436e-172
0
0
0
0
1.75138e-85
0
2.83959e-282
3.12827e-135
0
0
0
0
2.05286e-97
0
0
0
0
0
2.23136e-47
0
0
6.61121e-174
0
0
0
2.01825e-283
4.32074e-165
4.90168e-144
0
4.46881e-06
0
0
6.51871e-88
4.09358e-40
1.28244e-248
4.83572e-185
0
0
1.1289e-143
0
0
0
0
0
0
7.5333e-268
0
5.48069e-240
0
0
8.41977e-133
3.63482e-09
1.14026e-75
0
0
0
6.84756e-285
0
0
3.51038e-114
1.17696e-176
0
1.33999e-06
1.88376e-69
0
1.6688e-121
0
0
9.156e-26
1.99647e-95
0
2.75859e-23
0
0
0
0
1.95283e-61
0
7.56736e-175
0
0
2.04131e-249
1.17085e-101
5.56973e-166
0
2.75582e-25
5.53256e-22
7.64471e-184
1.02771e-13
4.0853e-24
0
2.50032e-296
1.59815e-22
1.80434e-161
1.64296e-247
5.37932e-261
0
0
1.55106e-276
0
0
0
3.4844e-16
4.02967e-77
2.10853e-212
1.29707e-148
1.6523e-247
0
0
7.83847e-36
0
0
0
0
0
5.43964e-134
0
0
2.29147e-71
0
0
0
0
0
0
4.46814e-98
0
0
0
0
2.66748e-90
1.6301e-240
1.81883e-30
4.94288e-108
5.9138e-51
1.11458e-21
0
1.9598e-228
1.21615e-21
0
0
1.9885e-25
0
1.33934e-87
0
0
0
5.2297e-28
1.07931e-88
0
0
0
0
0
0
0
0
4.15779e-139
4.88493e-86
2.14026e-76
5.83619e-44
0
0
2.83459e-227
0
3.61632e-19
7.25221e-79
4.9582e-48
0
2.52023e-180
1.16588e-183
0
3.95668e-88
0
0
3.54022e-233
1.0196e-185
5.67698e-105
5.26495e-227
0
0
1.07014e-188
0
0
3.88133e-266
0
0
0
0
2.71865e-186
2.34072e-194
0
0
0
1.33721e-248
1.14042e-183
3.08204e-35
0
0
1.12496e-98
7.28671e-264
4.26397e-299
0
6.91287e-286
0
1.23571e-53
0
0
1.44196e-291
0
0
2.65e-55
4.74185e-246
0
7.29452e-127
0
1.99265e-280
0
6.93443e-205
0
3.94808e-236
5.96896e-172
3.03044e-216
0
0
4.95624e-236
0
3.9324e-286
0
4.91496e-153
0
7.08038e-58
0
5.15536e-292
1.10916e-192
1.6302e-182
0
0
0
0
0
0
0
0
0
2.61759e-80
0
0
3.12671e-105
0
0
0
5.17096e-116
0
1.28289e-79
0
1.66601e-98
0
0
0
0
0
0
0
0
0
0
0
0
0
0
0
2.11714e-264
0
7.64255e-62
0
0
0
0
0
0
2.50311e-77
2.05052e-300
4.3401e-193
4.22248e-252
0
0
1.57821e-245
1.04321e-183
0
0
0
0
0
3.11036e-27
3.74467e-75
2.99076e-138
9.42526e-84
0
4.97586e-21
0
3.15767e-15
5.0563e-85
1.75392e-17
0
5.90035e-199
0
3.91535e-223
6.5306e-170
0
0
1.1351e-21
5.46093e-248
6.37712e-174
0
0
0
2.17116e-178
0
4.1485e-248
6.88433e-203
2.55225e-191
0
0
1.20431e-258
5.02215e-38
1.57528e-15
4.5632e-80
9.67949e-233
0
0
1.15962e-287
0
1.74742e-215
2.81193e-176
0
0
0
0
4.16919e-213
0
0
5.94972e-173
1.5311e-42
3.99068e-158
0
1.40161e-29
0
0
8.90052e-269
0
0
0
0
0
0
2.50797e-249
0
0
0
0
0
0
0
0
0
0
0
0
0
2.1696e-101
0
0
0
0
0
0
5.47854e-108
0
0
0
0
0
0
0
0
0
6.81864e-236
0
0
1.14456e-74
0
0
4.37414e-74
0
0
0
1.10188e-75
0
0
0
0
0
0
0
0
0
4.81447e-196
0
3.23164e-121
0
2.55617e-198
0
0
0
0
0
0
7.12472e-173
5.45876e-76
0
5.13029e-74
0
5.84635e-290
0
0
1.34116e-260
3.67284e-207
0
4.83989e-258
0
0
3.16638e-206
0
0
0
0
0
0
0
2.63531e-71
2.91179e-69
9.52321e-78
2.72116e-219
0
0
2.5199e-227
0
1.27842e-282
0
0
0
0
3.66781e-76
0
0
0
0
0
0
0
1.60343e-172
2.20632e-88
6.20056e-202
8.63052e-261
2.41403e-201
0
0
0
3.3261e-258
0
1.42773e-255
0
4.6257e-261
4.63457e-262
0
3.14915e-119
0
5.49783e-96
0
0
4.03195e-71
1.67878e-235
6.9499e-69
3.67479e-153
1.47538e-182
0
0
3.4209e-69
0
4.09219e-226
0
0
0
6.06307e-69
0
0
2.42085e-192
0
4.10298e-65
1.03916e-20
0
1.66834e-178
0
7.51228e-260
4.07748e-238
0
0
0
0
9.35254e-52
0
6.24835e-57
1.46864e-187
1.66437e-186
0
0
0
0
0
0
0
2.86649e-136
3.2414e-77
0
2.35457e-223
0
0
0
0
0
0
0
0
0
0
2.90643e-82
0
5.42476e-265
0
1.08139e-138
0
0
3.39955e-247
8.64249e-228
0
0
1.21778e-188
0
0
4.58941e-154
0
0
3.14091e-208
0
2.65678e-218
3.0817e-290
0
0
0
2.65679e-101
0
0
1.68534e-72
4.26464e-113
0
0
3.11237e-222
0
0
6.58373e-130
0
0
0
0
0
1.20157e-138
0
0
0
0
4.95515e-139
0
5.91174e-143
0
0
1.03006e-177
0
1.42848e-176
1.92055e-186
0
0
1.12908e-227
0
0
0
5.92379e-174
0
0
0
1.9941e-142
0
0
0
0
0
5.25902e-196
0
5.55277e-252
0
0
0
1.06899e-87
0
1.40824e-253
3.09646e-147
0
2.20097e-213
2.78686e-208
0
0
0
0
4.41854e-87
0
1.15126e-69
6.56284e-74
0
1.79215e-38
2.49608e-91
0
0
0
1.65759e-257
3.18354e-231
1.04585e-144
0
0
8.62463e-175
4.51324e-220
0
0
2.4683e-95
0
0
5.04326e-85
2.18236e-152
2.38667e-147
8.67227e-251
0
2.50153e-215
3.30483e-204
0
5.35613e-150
0
0
0
0
6.69126e-266
0
2.55153e-219
0
6.49526e-143
2.87495e-110
1.376e-182
6.3634e-145
0
0
0
3.76243e-109
0
1.34088e-196
0
1.96517e-100
0
5.81763e-194
0
1.49193e-90
0
1.51098e-99
1.93435e-103
0
0
0
0
4.99837e-106
1.0723e-222
8.70087e-222
2.91304e-181
0
6.60392e-292
0
0
1.43106e-285
0
3.60908e-290
6.38966e-110
9.79954e-267
0
0
0
4.87558e-284
0
0
0
0
0
0
0
3.06178e-166
4.87566e-147
0
8.2869e-222
0
0
3.64728e-178
0
0
0
0
1.14212e-269
0
2.21898e-171
1.19525e-161
0
0
0
3.41886e-208
1.02458e-122
3.81083e-99
5.5445e-201
1.1722e-109
0
8.03438e-52
0
2.95844e-108
0
7.91532e-135
0
0
0
2.1426e-251
1.82453e-95
0
0
1.8763e-84
0
0
4.43078e-67
1.81765e-41
0
1.33467e-234
1.82485e-108
3.97068e-106
6.37199e-193
4.88955e-239
1.0727e-139
2.58686e-186
0
0
0
2.85217e-124
0
0
0
2.58432e-156
3.10236e-228
6.9171e-237
8.64533e-132
0
5.80232e-178
0
0
2.62239e-234
0
1.54593e-183
0
2.51299e-175
0
3.50016e-209
0
2.62694e-103
0
1.90663e-184
1.74992e-206
4.66535e-253
0
0
4.65931e-158
0
3.08755e-184
0
5.32263e-221
0
9.75155e-182
0
0
0
0
1.10152e-151
9.42795e-182
0
0
0
0
6.83219e-130
0
8.96108e-113
0
2.4231e-207
0
5.3367e-139
0
0
0
0
0
0
0
0
3.43349e-246
0
0
0
0
0
0
0
0
3.78161e-143
0
0
0
0
0
0
0
0
0
0
0
1.55136e-110
0
0
7.04507e-160
0
0
0
0
0
1.07769e-79
0
0
0
1.56781e-258
0
0
0
0
1.72967e-197
0
0
0
0
2.6148e-115
2.13185e-186
0
0
0
0
0
5.83861e-113
0
1.8404e-194
0
0
3.86253e-265
1.19415e-216
0
0
0
0
0
0
0
0
0
7.94147e-216
8.15454e-243
5.45384e-110
0
1.63815e-214
0
0
0
0
0
0
0
0
0
0
0
0
1.98618e-239
0
6.37911e-107
0
0
8.31023e-113
4.54147e-240
0
0
0
6.70577e-194
0
0
6.7956e-152
6.23365e-129
0
0
0
0
0
5.78842e-122
0
0
8.01094e-158
0
0
0
0
0
6.02295e-240
0
0
1.13219e-291
0
0
2.03802e-237
0
0
0
1.71399e-217
0
0
0
0
1.11898e-117
8.99119e-126
0
0
0
0
0
0
6.58141e-234
0
5.86308e-43
0
0
0
0
0
0
0
0
1.86914e-200
1.68199e-155
0
0
7.89471e-104
0
0
0
4.76257e-211
0
0
0
0
0
4.94285e-240
1.53553e-232
2.18205e-234
0
0
0
1.8963e-101
1.60509e-264
0
0
0
0
0
0
5.11657e-289
7.39863e-211
0
0
1.12994e-286
1.55433e-185
0
6.09572e-111
7.02306e-97
4.76553e-163
0
0
0
0
5.49786e-284
0
0
0
0
0
0
0
0
0
0
0
0
5.60357e-192
0
0
0
0
3.85556e-182
0
0
0
0
9.77918e-149
1.94068e-146
3.71575e-204
3.33211e-165
0
6.44521e-144
0
0
0
0
1.6237e-234
0
0
0
0
0
0
0
0
0
0
0
0
1.8183e-247
0
0
0
0
0
1.10588e-216
6.99813e-240
5.52872e-106
0
0
0
0
1.74072e-113
5.58349e-134
0
1.44072e-43
0
1.50206e-111
3.83865e-282
1.86634e-46
2.49425e-157
0
0
0
6.74956e-243
8.71375e-174
8.83482e-172
3.1454e-193
0
3.8644e-240
0
0
0
0
1.286e-57
0
0
0
3.99549e-168
0
0
0
1.12129e-79
8.95513e-111
0
0
4.83078e-175
0
1.87864e-170
1.13505e-166
6.41434e-173
4.02672e-105
0
0
0
6.52429e-214
7.99093e-212
2.61062e-199
0
6.35211e-210
0
5.54446e-214
0
7.60807e-134
0
0
0
4.7508e-172
0
6.90224e-160
0
2.877e-209
0
3.25397e-211
0
0
0
0
1.98546e-248
0
0
0
1.76384e-181
2.39835e-239
0
2.38265e-136
0
0
0
0
0
0
0
9.31938e-251
1.97401e-137
0
0
0
0
0
0
0
1.06846e-223
1.32696e-81
3.84115e-203
0
1.78559e-147
0
0
7.67681e-242
0
0
0
0
1.23382e-149
7.4878e-107
0
0
6.60681e-110
0
0
0
0
0
0
0
0
0
0
0
0
0
0
0
0
0
0
0
0
7.64642e-245
5.69085e-109
0
0
1.32442e-194
0
4.4381e-99
1.91491e-198
8.0966e-212
8.9973e-251
0
0
0
1.46103e-192
0
1.12089e-111
3.08153e-190
0
0
0
0
0
0
0
0
4.4794e-232
0
0
5.19236e-208
0
0
0
0
4.66784e-39
1.8709e-98
0
0
0
0
2.56945e-111
0
0
0
0
6.81353e-119
0
0
0
0
4.10605e-125
0
0
0
1.93887e-289
0
0
0
0
0
0
0
0
0
0
0
2.83543e-119
0
0
0
0
0
0
1.4804e-229
0
0
4.69227e-254
0
0
0
0
0
0
0
0
0
0
0
0
0
0
0
0
0
0
0
0
1.70018e-197
0
0
0
0
0
0
0
0
0
0
4.38143e-154
0
0
0
0
0
0
0
0
0
0
3.36648e-128
0
0
4.16609e-128
0
0
0
1.66016e-270
0
0
1.694e-118
1.97457e-188
0
0
3.90138e-113
2.06484e-173
7.82841e-143
1.12273e-137
0
0
0
0
3.32437e-230
4.6288e-67
0
0
0
0
0
3.77818e-129
3.28759e-183
5.48769e-295
0
0
0
0
0
1.93225e-240
0
0
5.90816e-175
0
0
0
6.14369e-127
0
0
2.09514e-186
0
2.15162e-172
3.37453e-112
0
4.17542e-110
0
0
2.34051e-102
1.01006e-242
0
2.33705e-210
0
0
0
0
0
0
0
0
0
2.37783e-67
0
0
0
0
0
0
0
0
0
0
0
0
0
0
0
0
0
0
0
0
0
2.8065e-167
0
0
0
0
8.80963e-165
0
0
2.712e-162
2.07775e-80
1.26855e-276
0
0
0
1.17695e-60
0
6.62884e-114
0
0
0
0
0
0
3.16035e-230
0
0
0
0
0
0
0
0
2.60255e-40
5.78464e-103
0
0
1.96297e-172
2.16996e-107
8.82035e-111
0
0
1.56089e-133
0
0
0
0
0
2.33478e-138
0
9.95758e-136
0
0
0
0
0
0
0
0
0
0
0
0
1.42992e-227
1.39511e-52
0
0
0
0
0
0
0
6.79635e-81
9.39734e-149
0
0
3.26917e-209
1.08048e-206
7.47863e-53
2.56959e-154
0
6.44042e-212
1.66491e-124
0
0
2.08676e-209
0
0
0
0
0
0
0
0
0
0
0
0
1.65588e-69
0
0
0
0
0
0
0
0
0
0
7.80718e-203
0
0
0
0
8.9829e-73
0
0
2.37561e-266
0
0
0
0
0
0
0
4.13893e-94
1.40817e-71
0
0
0
0
2.02958e-124
0
2.88161e-109
0
1.20147e-187
1.24454e-94
4.11358e-165
1.26625e-34
0
0
8.5328e-24
0
0
0
0
7.34398e-189
0
0
1.98463e-255
7.33467e-253
0
1.02654e-100
0
0
7.82995e-122
2.80262e-63
7.24772e-06
0
0
0
9.00665e-235
0
0
0
0
2.7656e-146
0
4.9263e-195
3.92171e-15
0
0
0
0
0
0
0
0
0
0
0
0
0
1.17809e-120
0
2.14584e-156
0
0
0
0
0
6.1101e-66
9.76753e-266
4.16167e-248
0
7.44077e-13
0
7.34359e-85
3.48912e-280
7.03462e-173
4.11779e-89
1.67542e-89
3.16023e-114
0
0
0
0
0
6.40637e-27
0
0
4.78893e-11
0
3.06903e-232
0
0
0
0
0
0.00115787
0
0
0
6.8725e-21
0
0
0
5.51823e-132
0
1.02503e-148
1.54988e-109
7.8944e-160
1.08244e-76
0
0
9.26334e-91
0
3.55971e-106
0
0
0
0
9.74486e-62
3.44313e-66
0
0
0
9.88388e-08
0
0
5.68394e-77
0
0
0
5.08257e-121
0
0
0
4.78726e-134
0
0
0
0
0
0
0
0
1.27426e-217
2.87694e-124
6.55463e-168
0
0
0
4.12169e-93
0
0
4.1372e-100
0
0
0
0
0
0
0
2.95403e-61
0
0
9.08444e-120
0
0
3.26322e-15
0
1.63481e-157
1.11839e-103
0
0
0
9.9027e-109
0
1.73306e-152
0
0
8.44463e-223
0
4.58546e-71
0
0
0
8.01094e-164
4.81857e-111
1.27052e-70
0
0
0
0
8.01218e-118
0
0
2.31862e-194
0
0
0
1.91321e-163
3.98191e-61
2.62552e-24
3.13142e-122
0
2.38157e-63
7.63287e-213
0
0
0
8.2926e-129
3.795e-194
1.24808e-212
0
9.20116e-267
0
0
0
0
9.69344e-144
2.98388e-145
0
1.46884e-204
0
0
0
0
0
0
1.156e-199
6.96766e-139
5.48153e-174
0
0
0
1.82639e-174
0
4.88327e-181
0
0
1.41305e-185
2.66002e-213
0
2.6923e-126
0
0
0
6.1234e-191
0
0
0
4.03144e-195
2.41886e-136
0
0
0
6.14968e-85
2.80366e-110
0
6.80652e-102
0
1.3805e-61
0
0
2.52276e-150
1.29952e-132
0
0
0
2.70012e-184
6.44923e-100
1.64548e-35
6.0124e-228
5.78656e-274
0
0
0
0
2.62995e-123
0
0
0
0
0
5.33084e-120
0
0
0
2.13434e-215
0
0
0
0
9.97259e-262
0
0
5.03938e-293
0
0
2.91964e-180
0
0
0
1.83463e-40
0
0
0
5.82471e-34
0
0
0
9.73409e-90
0
2.6231e-163
0
0
0
5.00892e-148
1.46244e-229
0
2.31815e-259
3.17191e-177
9.88277e-175
0
0
0
0
6.45887e-121
0
0
0
0
0
0
0
0
2.44562e-79
0
0
0
0
0
0
1.34505e-79
0
0
0
0
0
0
2.12578e-193
2.42742e-211
1.16549e-268
0
2.24271e-218
0
5.26815e-234
3.03482e-254
0
0
0
2.01859e-154
1.67661e-115
0
0
0
5.00391e-113
0
4.55013e-125
5.22333e-81
6.10904e-111
0
0
4.87409e-175
2.53364e-168
0
0
0
4.02822e-177
1.35884e-256
0
1.25728e-144
1.46675e-139
1.34199e-117
0
0
0
0
9.31396e-240
0
0
0
0
0
0
2.19378e-267
5.35297e-103
0
0
0
8.11126e-72
0
9.09231e-70
6.18114e-98
7.22102e-33
1.00797e-95
5.24414e-198
0
0
0
1.19844e-140
0
1.02431e-201
0
0
0
0
4.57063e-199
0
6.79188e-135
9.6894e-196
1.86077e-196
0
0
0
0
0
3.24272e-119
0
0
0
9.69658e-199
0
3.81991e-242
0
0
0
3.3974e-129
0
0
1.07437e-126
4.57239e-124
0
1.3472e-130
0
0
7.61693e-61
3.15722e-135
0
0
0
0
0
2.20677e-128
2.06648e-71
3.56576e-121
4.03726e-140
1.38505e-139
0
1.23898e-41
0
0
0
0
0
5.63063e-43
0