/*--------------------------------*- C++ -*----------------------------------*\
| =========                 |                                                 |
| \\      /  F ield         | OpenFOAM: The Open Source CFD Toolbox           |
|  \\    /   O peration     | Version:  v2012                                 |
|   \\  /    A nd           | Website:  www.openfoam.com                      |
|    \\/     M anipulation  |                                                 |
\*---------------------------------------------------------------------------*/
FoamFile
{
    version     2.0;
    format      ascii;
    class       volScalarField;
    location    "0.5";
    object      k;
}
// * * * * * * * * * * * * * * * * * * * * * * * * * * * * * * * * * * * * * //

dimensions      [0 2 -2 0 0 0 0];


internalField   nonuniform List<scalar> 
108993
(
9.53691e-05
9.51483e-05
9.39491e-05
9.55124e-05
9.55239e-05
9.25209e-05
9.49356e-05
9.45278e-05
9.54796e-05
9.51908e-05
9.57127e-05
9.56821e-05
9.46966e-05
9.47472e-05
9.50169e-05
9.41738e-05
9.44269e-05
9.50752e-05
9.47757e-05
9.50755e-05
9.40535e-05
9.529e-05
9.45522e-05
9.5487e-05
9.53843e-05
9.50734e-05
9.48387e-05
9.53547e-05
9.57796e-05
9.34135e-05
9.57898e-05
9.5643e-05
9.48947e-05
9.55786e-05
9.4791e-05
9.55276e-05
9.48908e-05
9.54858e-05
9.46022e-05
9.50138e-05
9.59705e-05
9.57715e-05
9.51458e-05
9.54651e-05
9.50529e-05
9.35383e-05
9.48947e-05
9.4959e-05
9.60585e-05
9.54342e-05
9.55216e-05
9.59156e-05
9.5238e-05
9.53587e-05
9.56205e-05
9.57415e-05
9.50827e-05
9.52509e-05
9.44733e-05
9.58104e-05
9.53445e-05
9.54074e-05
9.52993e-05
9.47837e-05
9.51439e-05
9.5801e-05
9.44079e-05
9.56459e-05
9.59469e-05
9.54617e-05
9.52101e-05
9.50431e-05
9.5479e-05
9.5349e-05
9.49088e-05
9.57322e-05
9.45375e-05
9.60286e-05
9.52947e-05
9.52807e-05
9.51237e-05
9.48883e-05
9.47455e-05
9.46475e-05
9.57833e-05
9.50633e-05
9.57999e-05
9.49287e-05
9.51539e-05
9.56633e-05
9.52253e-05
9.45637e-05
9.56501e-05
9.41001e-05
9.55166e-05
9.54631e-05
9.45372e-05
9.38916e-05
9.44377e-05
9.46701e-05
9.55976e-05
9.6031e-05
9.59397e-05
9.57806e-05
9.42624e-05
9.56032e-05
9.57834e-05
9.58461e-05
9.56985e-05
9.5805e-05
9.47358e-05
9.5186e-05
9.51156e-05
9.53939e-05
9.5471e-05
9.47651e-05
9.48518e-05
9.45376e-05
9.59335e-05
9.53396e-05
9.52655e-05
9.50235e-05
9.50692e-05
9.34633e-05
9.49703e-05
9.53222e-05
9.54789e-05
9.49085e-05
9.45755e-05
9.56064e-05
9.49595e-05
9.56583e-05
9.58556e-05
9.45334e-05
9.53075e-05
9.45906e-05
9.5086e-05
9.48504e-05
9.47804e-05
9.51269e-05
9.47546e-05
9.43289e-05
9.51219e-05
9.51781e-05
9.55765e-05
9.54253e-05
9.454e-05
9.44596e-05
9.51354e-05
9.5219e-05
9.52499e-05
9.44609e-05
9.44336e-05
9.55911e-05
9.54085e-05
9.52182e-05
9.60046e-05
9.55038e-05
9.54201e-05
9.53265e-05
9.56487e-05
9.49952e-05
9.58366e-05
9.50547e-05
9.51533e-05
9.55854e-05
9.51776e-05
9.45181e-05
9.44629e-05
9.58933e-05
9.55839e-05
9.55776e-05
9.5584e-05
9.48179e-05
9.52015e-05
9.50929e-05
9.4856e-05
9.48311e-05
9.56499e-05
9.47267e-05
9.48911e-05
9.45617e-05
9.50134e-05
8.81185e-05
9.59528e-05
9.54384e-05
9.50779e-05
9.54278e-05
9.54258e-05
8.91151e-05
9.54298e-05
9.53828e-05
9.48476e-05
9.53602e-05
9.56622e-05
9.51915e-05
9.58447e-05
9.54837e-05
9.5745e-05
9.01021e-05
9.56414e-05
9.5632e-05
9.4033e-05
9.46758e-05
9.55469e-05
9.40662e-05
9.49445e-05
9.5457e-05
9.521e-05
0.000163064
9.46884e-05
9.50601e-05
9.45637e-05
9.50103e-05
9.4393e-05
9.37449e-05
9.4872e-05
9.53777e-05
9.51166e-05
9.60894e-05
9.53351e-05
9.47656e-05
9.5604e-05
9.51451e-05
9.48765e-05
9.42307e-05
9.4869e-05
9.57909e-05
9.55864e-05
9.45168e-05
9.16729e-05
9.54271e-05
9.45797e-05
9.45389e-05
9.50611e-05
9.418e-05
9.5569e-05
9.50056e-05
9.50912e-05
9.50089e-05
9.34794e-05
9.56314e-05
9.33781e-05
9.53158e-05
9.5747e-05
9.50936e-05
9.53398e-05
9.52048e-05
9.53938e-05
9.57524e-05
9.47e-05
9.53383e-05
9.51982e-05
9.56059e-05
9.54359e-05
9.52808e-05
9.53647e-05
9.52435e-05
9.58655e-05
9.33448e-05
9.53469e-05
9.46447e-05
9.57913e-05
9.45055e-05
9.39667e-05
9.53273e-05
9.57563e-05
9.59362e-05
9.33112e-05
9.52782e-05
9.38179e-05
9.42593e-05
9.54355e-05
9.59123e-05
9.50641e-05
9.50866e-05
9.56129e-05
9.59397e-05
9.57335e-05
9.53043e-05
9.56213e-05
9.42514e-05
9.35272e-05
9.49313e-05
9.55555e-05
9.53847e-05
9.4227e-05
9.56044e-05
9.58631e-05
9.2638e-05
9.52257e-05
9.45968e-05
9.57326e-05
9.55557e-05
9.5356e-05
9.45575e-05
9.58585e-05
9.52706e-05
9.45634e-05
9.26867e-05
9.46771e-05
9.44388e-05
9.56474e-05
9.42688e-05
9.5472e-05
9.44487e-05
9.38982e-05
9.47391e-05
9.416e-05
9.57434e-05
9.56726e-05
9.56619e-05
9.47177e-05
9.5126e-05
9.5714e-05
9.47873e-05
9.37444e-05
9.48818e-05
9.50742e-05
9.59627e-05
9.51226e-05
9.38659e-05
9.386e-05
9.35886e-05
9.44078e-05
9.50555e-05
9.50454e-05
9.58248e-05
9.50251e-05
9.58296e-05
9.6041e-05
9.5962e-05
9.39225e-05
9.51249e-05
9.51445e-05
9.50342e-05
9.53896e-05
9.55264e-05
9.54772e-05
9.49389e-05
9.51997e-05
9.51143e-05
9.49472e-05
9.55984e-05
9.49826e-05
9.51342e-05
9.48835e-05
9.48738e-05
9.4781e-05
9.45888e-05
9.5512e-05
9.3672e-05
9.36644e-05
9.50792e-05
9.50282e-05
9.53077e-05
9.48938e-05
9.325e-05
9.50155e-05
9.26424e-05
9.60547e-05
9.49078e-05
9.42033e-05
9.51269e-05
9.53975e-05
9.56684e-05
9.561e-05
9.49083e-05
9.51717e-05
9.55453e-05
9.44906e-05
9.56035e-05
9.4699e-05
9.52997e-05
9.61244e-05
9.54851e-05
9.57442e-05
9.64136e-05
9.43812e-05
9.55885e-05
9.40264e-05
9.42528e-05
9.57731e-05
9.45629e-05
9.51444e-05
9.34604e-05
9.49639e-05
9.44383e-05
9.51252e-05
9.5758e-05
9.43427e-05
9.37261e-05
9.41603e-05
9.47171e-05
9.45034e-05
9.6495e-05
9.58836e-05
9.53737e-05
9.50906e-05
9.52568e-05
9.64403e-05
9.50366e-05
9.44432e-05
9.53921e-05
9.55089e-05
9.3799e-05
9.49012e-05
9.3114e-05
9.50178e-05
9.7818e-05
9.50061e-05
9.48433e-05
9.44147e-05
9.4801e-05
9.54306e-05
9.57943e-05
9.54054e-05
9.49536e-05
9.26344e-05
9.50407e-05
0.000122142
9.52205e-05
9.77359e-05
9.41326e-05
9.56371e-05
9.49704e-05
9.55616e-05
9.37895e-05
9.45444e-05
9.34019e-05
9.67944e-05
9.52302e-05
9.65925e-05
9.50034e-05
9.50323e-05
9.53783e-05
9.48991e-05
9.55176e-05
9.57243e-05
9.48902e-05
9.51231e-05
9.50479e-05
9.58852e-05
9.34834e-05
9.55321e-05
9.57307e-05
9.48032e-05
9.57099e-05
9.51212e-05
9.38921e-05
9.52364e-05
9.53392e-05
9.56861e-05
9.6262e-05
9.60384e-05
9.52774e-05
9.52863e-05
9.5108e-05
9.59989e-05
9.47816e-05
9.27809e-05
9.52391e-05
9.31361e-05
9.54008e-05
9.52501e-05
9.40969e-05
9.44833e-05
9.42002e-05
9.37756e-05
9.47669e-05
9.31727e-05
9.55581e-05
9.54775e-05
9.50935e-05
9.57961e-05
9.47582e-05
9.4602e-05
9.56812e-05
9.47969e-05
9.55915e-05
9.48803e-05
9.59406e-05
9.5785e-05
9.5589e-05
9.34857e-05
9.47462e-05
9.47427e-05
9.42601e-05
9.49922e-05
9.57516e-05
9.53195e-05
9.56923e-05
9.4435e-05
9.45063e-05
9.51583e-05
9.35875e-05
9.44828e-05
9.5611e-05
9.41465e-05
9.51781e-05
9.43151e-05
9.53363e-05
9.42507e-05
9.53497e-05
9.55741e-05
9.55566e-05
9.51581e-05
9.47494e-05
9.47611e-05
9.52613e-05
9.55411e-05
9.49753e-05
9.56311e-05
9.58292e-05
9.53084e-05
9.50257e-05
9.46172e-05
9.52792e-05
9.58709e-05
9.60188e-05
9.38132e-05
9.3694e-05
9.53982e-05
9.55406e-05
9.58598e-05
9.5035e-05
9.51033e-05
9.55293e-05
9.51266e-05
9.58092e-05
9.42788e-05
9.5011e-05
9.47021e-05
9.49363e-05
9.50458e-05
9.58286e-05
9.49724e-05
9.55323e-05
9.56944e-05
9.49441e-05
9.42832e-05
9.53186e-05
9.52094e-05
9.58304e-05
9.58127e-05
9.51526e-05
9.43289e-05
9.47805e-05
9.57499e-05
9.4295e-05
9.47191e-05
9.45278e-05
9.44694e-05
9.60344e-05
9.57297e-05
9.43065e-05
9.56109e-05
9.58707e-05
0.000141793
9.45841e-05
9.54488e-05
9.53661e-05
9.44283e-05
9.55939e-05
9.35567e-05
9.48699e-05
9.55463e-05
9.45589e-05
9.63535e-05
9.57124e-05
9.55419e-05
9.40995e-05
0.000456631
9.38591e-05
9.53112e-05
9.53233e-05
9.59362e-05
9.36553e-05
9.43012e-05
9.53529e-05
9.58275e-05
9.49729e-05
9.58699e-05
9.61106e-05
9.55564e-05
9.46369e-05
9.47383e-05
9.38808e-05
9.57771e-05
9.38447e-05
9.59991e-05
9.40523e-05
9.50725e-05
9.52603e-05
9.52726e-05
9.48879e-05
9.61115e-05
9.41594e-05
9.584e-05
9.50878e-05
9.55019e-05
9.58182e-05
0.000136178
9.48051e-05
9.46733e-05
9.36555e-05
0.000102283
9.39887e-05
9.52496e-05
9.55196e-05
9.49761e-05
9.54915e-05
9.59264e-05
9.51778e-05
9.61149e-05
9.50202e-05
9.55547e-05
9.3992e-05
9.46475e-05
9.47928e-05
9.59547e-05
9.52859e-05
9.55529e-05
9.56015e-05
9.57829e-05
9.57539e-05
9.6014e-05
9.54569e-05
9.47382e-05
9.54543e-05
9.55969e-05
9.52642e-05
9.55153e-05
9.45707e-05
9.5122e-05
9.46326e-05
9.41103e-05
9.58488e-05
9.50209e-05
9.56234e-05
9.50841e-05
9.55487e-05
9.49889e-05
9.48035e-05
9.45914e-05
9.48607e-05
9.53152e-05
9.4506e-05
9.48934e-05
9.51426e-05
9.54191e-05
9.4589e-05
9.50701e-05
9.29582e-05
9.57547e-05
9.48889e-05
9.39315e-05
9.2107e-05
9.51459e-05
9.26437e-05
9.11104e-05
9.53691e-05
9.41116e-05
9.52056e-05
9.47049e-05
9.537e-05
9.43046e-05
9.5651e-05
9.43769e-05
9.48566e-05
9.59723e-05
9.60322e-05
9.58453e-05
9.36995e-05
9.32186e-05
9.59607e-05
9.47912e-05
9.32356e-05
9.53816e-05
9.57582e-05
9.50098e-05
9.56672e-05
9.51966e-05
9.54621e-05
9.30683e-05
9.64568e-05
9.59559e-05
9.30217e-05
9.3259e-05
9.51844e-05
9.48406e-05
9.52699e-05
9.55493e-05
9.43878e-05
9.53488e-05
9.44085e-05
9.42066e-05
9.46004e-05
9.42957e-05
9.52015e-05
9.54022e-05
9.48399e-05
9.26826e-05
9.30642e-05
9.6159e-05
9.33086e-05
9.54962e-05
9.4737e-05
9.55178e-05
9.47927e-05
9.54333e-05
9.55592e-05
9.53804e-05
9.57207e-05
9.50664e-05
9.4228e-05
9.46738e-05
9.53339e-05
9.40248e-05
9.56625e-05
9.571e-05
9.55133e-05
9.62168e-05
9.47019e-05
9.48101e-05
9.55125e-05
9.56728e-05
9.4309e-05
9.46284e-05
9.55628e-05
9.5172e-05
9.53535e-05
9.43147e-05
9.48518e-05
9.5599e-05
9.4364e-05
9.59388e-05
9.44781e-05
9.55163e-05
9.60439e-05
9.47839e-05
9.40267e-05
9.54956e-05
9.50091e-05
9.56812e-05
9.57825e-05
9.59132e-05
9.62758e-05
9.55688e-05
9.65148e-05
9.56533e-05
9.39539e-05
9.46023e-05
9.61036e-05
9.40823e-05
9.47735e-05
9.43232e-05
9.20996e-05
9.60684e-05
9.48724e-05
9.51551e-05
9.51597e-05
9.6153e-05
9.52084e-05
9.33945e-05
9.56589e-05
9.56143e-05
9.45474e-05
9.55081e-05
9.55166e-05
9.49592e-05
9.53005e-05
9.54933e-05
9.56658e-05
9.50525e-05
9.60639e-05
9.52304e-05
9.51111e-05
9.37517e-05
9.49656e-05
9.30095e-05
9.41685e-05
9.55275e-05
9.51741e-05
9.52385e-05
9.47248e-05
9.53267e-05
9.42978e-05
9.55019e-05
9.33509e-05
9.5334e-05
9.46255e-05
9.51934e-05
9.52073e-05
9.57957e-05
9.61786e-05
9.48363e-05
9.57413e-05
9.38233e-05
9.56941e-05
9.48006e-05
9.49668e-05
9.57081e-05
9.50675e-05
9.55319e-05
9.56837e-05
9.55279e-05
9.51415e-05
9.46438e-05
9.48365e-05
9.46749e-05
9.53981e-05
9.54089e-05
9.40463e-05
9.4464e-05
9.49993e-05
9.41914e-05
9.53042e-05
9.526e-05
9.43192e-05
9.49231e-05
9.42291e-05
9.52647e-05
9.55517e-05
9.54214e-05
9.47576e-05
9.40957e-05
9.45234e-05
9.44376e-05
9.60722e-05
9.52433e-05
9.55442e-05
9.53681e-05
9.61812e-05
9.48061e-05
9.41065e-05
9.506e-05
9.39694e-05
9.60123e-05
9.46876e-05
9.43823e-05
9.58428e-05
9.50027e-05
9.60212e-05
9.53564e-05
9.53682e-05
9.52571e-05
9.56724e-05
9.44344e-05
9.53977e-05
9.95326e-05
9.53847e-05
9.3109e-05
9.55771e-05
9.53977e-05
9.28065e-05
9.50569e-05
9.53641e-05
9.62246e-05
9.29226e-05
9.35692e-05
9.4999e-05
9.52686e-05
9.32851e-05
9.50466e-05
9.56582e-05
9.52588e-05
9.38154e-05
9.57163e-05
9.47543e-05
9.46116e-05
9.5014e-05
9.46483e-05
9.31191e-05
9.51088e-05
9.47829e-05
9.56572e-05
9.37433e-05
9.50158e-05
9.40299e-05
9.20741e-05
9.34224e-05
9.45952e-05
9.53461e-05
9.48625e-05
9.34628e-05
9.51349e-05
9.46977e-05
9.49573e-05
9.50295e-05
9.52398e-05
9.49611e-05
9.40809e-05
9.49053e-05
9.50339e-05
9.45028e-05
9.5063e-05
9.54523e-05
9.45939e-05
9.6176e-05
9.52156e-05
9.50346e-05
9.49614e-05
9.34216e-05
9.57331e-05
9.53656e-05
9.4648e-05
9.47017e-05
9.41641e-05
9.57415e-05
9.52869e-05
9.54334e-05
9.63371e-05
9.5857e-05
9.45405e-05
9.44914e-05
9.44545e-05
9.54667e-05
9.59449e-05
9.48537e-05
9.4301e-05
9.57029e-05
9.49966e-05
9.58072e-05
9.55188e-05
9.58058e-05
9.42946e-05
9.61427e-05
9.52638e-05
9.31728e-05
9.45491e-05
9.42689e-05
9.45315e-05
9.56436e-05
9.62776e-05
9.47261e-05
9.50156e-05
9.46193e-05
9.5597e-05
9.30045e-05
9.43732e-05
9.49294e-05
9.44844e-05
9.49779e-05
9.53575e-05
9.44031e-05
9.38565e-05
9.45667e-05
9.58136e-05
9.51544e-05
9.54132e-05
9.55631e-05
9.45159e-05
9.54413e-05
9.50156e-05
9.51974e-05
9.49157e-05
9.50754e-05
9.36362e-05
9.55275e-05
9.47724e-05
9.48139e-05
9.46919e-05
9.58267e-05
9.3598e-05
9.47921e-05
9.56661e-05
9.54306e-05
9.51502e-05
9.50657e-05
9.38357e-05
9.52771e-05
9.39739e-05
9.52333e-05
9.38734e-05
9.42199e-05
9.50344e-05
9.55559e-05
9.54424e-05
9.41685e-05
9.4836e-05
9.47521e-05
9.49262e-05
9.41702e-05
9.50356e-05
9.5455e-05
9.54313e-05
9.49473e-05
9.57753e-05
9.51397e-05
9.44107e-05
9.56881e-05
9.53477e-05
9.439e-05
9.48104e-05
9.40856e-05
9.49327e-05
9.40007e-05
9.54954e-05
9.41722e-05
9.49862e-05
9.44926e-05
9.50674e-05
9.46924e-05
9.53534e-05
9.63629e-05
9.51544e-05
9.47553e-05
9.42949e-05
9.48263e-05
9.52513e-05
9.52469e-05
9.56991e-05
9.22531e-05
9.53972e-05
9.54126e-05
9.48569e-05
9.47598e-05
9.53551e-05
9.37885e-05
9.40447e-05
9.49938e-05
9.52297e-05
9.52129e-05
9.57083e-05
9.57838e-05
9.52503e-05
9.51591e-05
9.59914e-05
9.50002e-05
9.58456e-05
9.56998e-05
9.56157e-05
9.56637e-05
9.59433e-05
9.66107e-05
9.55692e-05
9.52935e-05
9.57805e-05
9.50346e-05
9.45161e-05
9.53768e-05
9.54155e-05
9.57798e-05
9.53091e-05
9.45571e-05
9.44069e-05
9.48564e-05
9.4985e-05
9.4922e-05
9.52229e-05
9.50167e-05
9.55789e-05
9.52661e-05
9.34841e-05
9.53713e-05
9.52049e-05
9.4839e-05
9.37398e-05
9.58166e-05
9.93442e-05
9.50201e-05
9.52256e-05
9.5959e-05
9.61479e-05
9.49644e-05
9.49345e-05
9.44429e-05
9.46223e-05
9.46514e-05
9.59985e-05
9.45448e-05
9.64403e-05
9.58207e-05
9.6044e-05
9.41088e-05
9.32253e-05
9.5095e-05
9.43218e-05
9.49598e-05
9.52818e-05
9.45933e-05
9.44689e-05
9.54624e-05
9.55547e-05
9.56698e-05
9.42729e-05
9.55626e-05
9.51035e-05
9.44894e-05
9.51868e-05
9.57333e-05
9.56092e-05
9.34051e-05
9.61813e-05
9.5567e-05
9.43321e-05
9.49637e-05
9.52339e-05
9.5366e-05
9.66121e-05
9.6278e-05
9.49678e-05
9.49278e-05
9.59353e-05
0.000119449
9.41332e-05
9.46161e-05
9.56984e-05
9.43902e-05
9.58162e-05
9.51008e-05
9.31305e-05
9.41031e-05
9.58956e-05
9.64183e-05
9.40159e-05
9.54503e-05
9.58751e-05
9.5058e-05
9.49755e-05
9.5234e-05
9.34375e-05
9.49118e-05
9.28829e-05
9.56296e-05
9.5532e-05
9.48286e-05
9.55658e-05
9.41113e-05
9.52553e-05
9.49345e-05
9.51013e-05
9.55515e-05
9.48498e-05
9.56215e-05
9.35547e-05
9.53882e-05
9.59157e-05
9.5689e-05
9.55957e-05
9.56522e-05
9.4195e-05
9.30937e-05
9.55079e-05
9.60579e-05
9.47413e-05
9.50594e-05
9.55875e-05
9.54275e-05
9.56515e-05
9.60045e-05
9.40574e-05
9.52787e-05
9.34196e-05
9.51416e-05
9.46535e-05
9.28899e-05
9.56762e-05
9.39572e-05
9.4741e-05
9.59754e-05
9.48e-05
9.38894e-05
9.48185e-05
9.50246e-05
9.50461e-05
9.46674e-05
9.58657e-05
9.50397e-05
9.3623e-05
9.4443e-05
9.53886e-05
9.56809e-05
9.5314e-05
9.39255e-05
9.37153e-05
9.37811e-05
9.50943e-05
9.51747e-05
9.51128e-05
9.47294e-05
9.60427e-05
9.43705e-05
9.49121e-05
9.47537e-05
9.55133e-05
9.24893e-05
9.47961e-05
9.39204e-05
9.59773e-05
9.50302e-05
9.58149e-05
9.49898e-05
9.55567e-05
9.52796e-05
9.50084e-05
9.51666e-05
9.39644e-05
9.55742e-05
9.35336e-05
9.46555e-05
9.51093e-05
9.47864e-05
9.54626e-05
9.47767e-05
9.55861e-05
9.45822e-05
9.5418e-05
9.46014e-05
9.5088e-05
9.52259e-05
9.49704e-05
9.4807e-05
9.55697e-05
9.52551e-05
9.46048e-05
9.49662e-05
9.36888e-05
9.55213e-05
9.51903e-05
9.52323e-05
9.58825e-05
9.46991e-05
0.000457118
9.56307e-05
9.4495e-05
9.55621e-05
9.43233e-05
9.62389e-05
9.45636e-05
9.49991e-05
9.29343e-05
9.50346e-05
9.64606e-05
9.61701e-05
9.59358e-05
9.53607e-05
9.44e-05
9.52984e-05
9.62046e-05
9.59563e-05
9.59378e-05
9.55651e-05
9.52243e-05
9.54908e-05
9.50837e-05
9.47966e-05
9.46637e-05
9.54797e-05
9.57334e-05
9.566e-05
9.44739e-05
9.55847e-05
9.49902e-05
9.36898e-05
9.55828e-05
9.5411e-05
9.50361e-05
9.52135e-05
9.47196e-05
9.57017e-05
9.28509e-05
9.20074e-05
9.23838e-05
9.46682e-05
9.28044e-05
9.57598e-05
9.22438e-05
9.34623e-05
9.35352e-05
9.4024e-05
9.51041e-05
9.48527e-05
9.59266e-05
9.55925e-05
9.47323e-05
9.44946e-05
9.4681e-05
9.52073e-05
9.49865e-05
9.58673e-05
9.58993e-05
9.60364e-05
9.46533e-05
9.5822e-05
9.44256e-05
9.40843e-05
9.53925e-05
9.54752e-05
9.0424e-05
9.45175e-05
9.48529e-05
9.50864e-05
9.54965e-05
9.48017e-05
9.53558e-05
9.53109e-05
9.53407e-05
9.44035e-05
9.52252e-05
9.4772e-05
9.53233e-05
9.5491e-05
9.42881e-05
9.60871e-05
9.54235e-05
9.57518e-05
9.52208e-05
9.60754e-05
9.50412e-05
9.46919e-05
9.57366e-05
9.53262e-05
9.38973e-05
9.53522e-05
9.56973e-05
9.50383e-05
9.51828e-05
9.59542e-05
9.4153e-05
9.51687e-05
9.53077e-05
9.54027e-05
9.62729e-05
9.47254e-05
9.56481e-05
9.55191e-05
9.53024e-05
9.51286e-05
9.56144e-05
9.41232e-05
9.45435e-05
9.56528e-05
9.52728e-05
9.5234e-05
9.61562e-05
9.4523e-05
9.49186e-05
9.48145e-05
9.52743e-05
9.56819e-05
9.54315e-05
9.58386e-05
9.58294e-05
9.6193e-05
9.48005e-05
9.57976e-05
9.52598e-05
9.47869e-05
9.56425e-05
9.4098e-05
9.35346e-05
9.4637e-05
9.5176e-05
9.55089e-05
9.59653e-05
9.55279e-05
9.53336e-05
9.50375e-05
9.41576e-05
9.45553e-05
9.56131e-05
9.52979e-05
9.51044e-05
9.46645e-05
9.60607e-05
9.56174e-05
9.47737e-05
9.50885e-05
9.50113e-05
9.48369e-05
9.54227e-05
9.47282e-05
9.57547e-05
9.46663e-05
9.47645e-05
9.52704e-05
9.55899e-05
9.49767e-05
9.44579e-05
9.47988e-05
9.56568e-05
9.49879e-05
9.43139e-05
9.61031e-05
9.58062e-05
9.56003e-05
9.48342e-05
9.38269e-05
9.54263e-05
9.53555e-05
9.4231e-05
9.51929e-05
9.37329e-05
9.62976e-05
9.53931e-05
9.57897e-05
9.54733e-05
9.11692e-05
9.48635e-05
9.42718e-05
9.37075e-05
9.58353e-05
9.40803e-05
9.30403e-05
9.53192e-05
9.46753e-05
9.28862e-05
9.43347e-05
9.54707e-05
9.55364e-05
9.51582e-05
9.34045e-05
9.51094e-05
9.589e-05
9.4756e-05
9.52551e-05
9.49212e-05
9.5398e-05
9.4836e-05
9.40129e-05
9.47204e-05
9.57914e-05
9.55612e-05
9.37101e-05
9.47785e-05
9.47072e-05
9.59539e-05
9.48511e-05
9.46622e-05
9.41818e-05
9.47227e-05
9.55391e-05
9.53939e-05
9.44775e-05
9.49152e-05
9.49861e-05
9.48098e-05
9.46399e-05
9.3949e-05
9.49618e-05
9.52601e-05
9.39677e-05
9.46928e-05
9.58273e-05
8.97637e-05
9.50185e-05
9.58947e-05
9.44934e-05
9.61052e-05
9.54982e-05
9.49917e-05
9.49311e-05
9.4765e-05
9.51361e-05
9.51353e-05
9.48113e-05
9.37429e-05
9.54524e-05
9.49961e-05
9.59867e-05
9.56429e-05
9.56281e-05
9.54524e-05
9.50627e-05
9.48698e-05
9.50208e-05
9.47933e-05
9.40204e-05
9.51684e-05
9.50131e-05
9.50243e-05
9.51067e-05
9.56675e-05
9.57215e-05
9.51768e-05
9.31316e-05
9.54285e-05
9.46339e-05
9.52513e-05
9.51722e-05
9.29234e-05
9.53517e-05
9.31269e-05
9.49113e-05
9.48583e-05
9.29422e-05
9.50211e-05
9.50123e-05
9.47584e-05
9.52434e-05
9.576e-05
9.56016e-05
9.59315e-05
9.47132e-05
9.51148e-05
9.537e-05
9.62068e-05
9.59617e-05
9.54515e-05
9.46476e-05
9.48077e-05
9.5571e-05
9.57695e-05
9.58738e-05
9.56205e-05
9.4554e-05
9.57083e-05
9.50825e-05
9.50268e-05
9.59068e-05
9.41916e-05
9.52769e-05
9.40167e-05
9.51718e-05
9.46445e-05
9.39463e-05
9.53792e-05
9.48276e-05
9.52769e-05
9.54774e-05
9.45083e-05
9.40731e-05
9.50462e-05
9.44665e-05
9.43457e-05
9.39547e-05
9.5671e-05
9.40665e-05
9.49056e-05
9.40651e-05
9.34967e-05
9.46284e-05
9.29534e-05
9.50209e-05
9.52773e-05
9.4958e-05
9.45557e-05
9.61814e-05
9.54169e-05
9.56738e-05
9.42057e-05
9.52412e-05
9.44167e-05
9.56863e-05
9.61426e-05
9.36489e-05
9.45781e-05
9.53338e-05
9.31364e-05
9.31289e-05
9.36635e-05
9.54348e-05
9.51846e-05
9.53183e-05
9.47361e-05
9.52738e-05
9.48277e-05
9.36346e-05
9.5432e-05
9.37537e-05
9.52271e-05
9.48276e-05
9.46838e-05
9.59481e-05
9.51015e-05
9.49271e-05
9.43229e-05
9.32178e-05
9.58672e-05
9.51267e-05
9.37875e-05
9.56934e-05
9.51169e-05
9.38267e-05
9.38338e-05
9.3607e-05
9.31735e-05
9.5038e-05
9.45858e-05
9.46769e-05
9.60057e-05
9.53832e-05
9.57868e-05
9.166e-05
9.48776e-05
9.44469e-05
9.57595e-05
9.48073e-05
9.52436e-05
9.35544e-05
9.53106e-05
9.51197e-05
9.46949e-05
9.61814e-05
9.52951e-05
9.50689e-05
9.50766e-05
9.55803e-05
9.43499e-05
9.38165e-05
9.59026e-05
9.53221e-05
9.51086e-05
9.53775e-05
9.55095e-05
9.37124e-05
9.49099e-05
9.47504e-05
9.5384e-05
9.31719e-05
9.49991e-05
9.52913e-05
9.55554e-05
9.56307e-05
9.52295e-05
9.26186e-05
9.42226e-05
9.55644e-05
9.56083e-05
9.6004e-05
9.34742e-05
9.56044e-05
9.35961e-05
9.45067e-05
9.41743e-05
9.51633e-05
9.48867e-05
9.3586e-05
9.54594e-05
9.47888e-05
9.37597e-05
9.46419e-05
9.50275e-05
9.47953e-05
9.58627e-05
9.44901e-05
9.42631e-05
9.4548e-05
9.52827e-05
9.52067e-05
9.4832e-05
9.49557e-05
9.50821e-05
9.52688e-05
9.48401e-05
9.41086e-05
9.48356e-05
9.56399e-05
9.53676e-05
9.32756e-05
9.36177e-05
9.42709e-05
9.50987e-05
9.48806e-05
9.4374e-05
9.55802e-05
9.44729e-05
9.56328e-05
9.30173e-05
9.55015e-05
9.42146e-05
9.53931e-05
9.54727e-05
9.43041e-05
9.47008e-05
9.60901e-05
9.46354e-05
9.61845e-05
9.50937e-05
9.30816e-05
9.55023e-05
9.5762e-05
9.52513e-05
9.45147e-05
0.000207427
9.35642e-05
9.56209e-05
9.37948e-05
9.36916e-05
9.5071e-05
9.44105e-05
9.32725e-05
9.48655e-05
9.49778e-05
9.37678e-05
9.43731e-05
9.24524e-05
9.30766e-05
9.31007e-05
9.41426e-05
9.4964e-05
9.52483e-05
9.52362e-05
9.40683e-05
9.51343e-05
9.47906e-05
9.51037e-05
9.61247e-05
9.58656e-05
9.54368e-05
9.52541e-05
9.46432e-05
9.4059e-05
9.5345e-05
9.50005e-05
9.59574e-05
9.57873e-05
9.49774e-05
9.46968e-05
9.51738e-05
9.36455e-05
9.50418e-05
9.50599e-05
9.53173e-05
9.29433e-05
9.48759e-05
9.45388e-05
9.52476e-05
9.54151e-05
9.48554e-05
9.47283e-05
9.42366e-05
9.46715e-05
9.50775e-05
9.42737e-05
9.50962e-05
9.43417e-05
9.59014e-05
9.44653e-05
9.49707e-05
9.5529e-05
9.5573e-05
9.51693e-05
9.50234e-05
9.44753e-05
9.51652e-05
9.47115e-05
9.46615e-05
9.35681e-05
9.36408e-05
9.51352e-05
9.31157e-05
9.34837e-05
9.78765e-05
9.57339e-05
9.57205e-05
9.37756e-05
9.60611e-05
9.51557e-05
9.56507e-05
9.49486e-05
9.46001e-05
9.54085e-05
9.45224e-05
9.46386e-05
9.56738e-05
9.50595e-05
9.60687e-05
9.51577e-05
9.52877e-05
9.48617e-05
9.56501e-05
9.50127e-05
9.48226e-05
9.55687e-05
9.51077e-05
9.50209e-05
9.50929e-05
9.50031e-05
9.51071e-05
9.50733e-05
9.46867e-05
9.27516e-05
9.40636e-05
9.57917e-05
9.45599e-05
9.53479e-05
9.57257e-05
9.48546e-05
9.52026e-05
9.45108e-05
9.54895e-05
9.46898e-05
9.52541e-05
9.54734e-05
9.52391e-05
9.51312e-05
9.50341e-05
9.33219e-05
9.44593e-05
9.51756e-05
9.33549e-05
9.52754e-05
9.50767e-05
9.40457e-05
9.45016e-05
9.56445e-05
9.55689e-05
9.63222e-05
9.4988e-05
9.6103e-05
9.13386e-05
9.33916e-05
9.5369e-05
9.5114e-05
9.48046e-05
9.51831e-05
9.5632e-05
9.48889e-05
9.32174e-05
9.55121e-05
9.6108e-05
9.55456e-05
9.6011e-05
9.50278e-05
9.53459e-05
9.52116e-05
9.55797e-05
9.54439e-05
9.53504e-05
9.55537e-05
9.53955e-05
9.54536e-05
9.49678e-05
9.536e-05
9.47758e-05
9.5251e-05
9.54625e-05
9.50535e-05
9.28435e-05
9.38064e-05
9.48084e-05
9.53891e-05
9.48383e-05
9.5237e-05
9.50309e-05
9.54959e-05
9.24262e-05
9.46282e-05
9.53994e-05
9.39547e-05
9.47797e-05
9.60812e-05
9.44209e-05
9.5072e-05
9.60968e-05
9.32925e-05
9.43287e-05
9.31488e-05
9.45606e-05
9.57957e-05
9.56708e-05
9.45107e-05
9.40192e-05
9.49925e-05
9.61817e-05
9.56204e-05
9.53137e-05
9.57999e-05
9.42003e-05
9.52973e-05
9.62708e-05
9.32529e-05
9.53219e-05
9.48665e-05
9.61658e-05
9.41747e-05
9.49784e-05
9.37741e-05
9.54614e-05
9.55841e-05
9.53185e-05
9.61465e-05
9.48513e-05
9.49177e-05
9.52887e-05
9.56312e-05
9.51066e-05
9.39169e-05
9.54008e-05
9.48525e-05
9.48836e-05
9.45927e-05
9.52412e-05
9.50894e-05
9.45355e-05
9.40543e-05
9.53616e-05
9.41086e-05
9.55832e-05
9.60103e-05
9.59349e-05
9.51691e-05
9.52428e-05
9.50677e-05
9.59391e-05
9.51449e-05
9.5192e-05
9.51361e-05
9.39376e-05
9.49067e-05
9.52978e-05
9.47494e-05
9.4713e-05
9.52215e-05
9.4548e-05
9.47741e-05
9.45193e-05
9.39198e-05
9.48435e-05
9.62597e-05
9.37942e-05
9.48168e-05
9.45286e-05
9.50304e-05
9.56721e-05
9.56803e-05
9.5424e-05
9.46509e-05
9.50736e-05
9.47633e-05
9.46016e-05
9.48806e-05
9.46944e-05
9.44844e-05
9.51598e-05
9.5448e-05
9.4734e-05
9.44467e-05
9.45255e-05
9.49408e-05
9.55221e-05
9.43753e-05
9.46543e-05
9.44505e-05
9.47574e-05
9.49234e-05
9.42722e-05
9.48748e-05
9.52118e-05
9.39792e-05
9.47306e-05
9.56444e-05
9.56196e-05
9.47672e-05
9.52332e-05
9.43107e-05
9.23331e-05
9.59405e-05
9.44624e-05
9.50484e-05
9.45479e-05
9.50597e-05
9.60657e-05
9.5268e-05
9.58204e-05
9.60841e-05
9.51285e-05
9.48773e-05
9.52373e-05
9.42634e-05
9.48883e-05
9.43611e-05
9.3891e-05
9.37617e-05
9.55141e-05
9.49136e-05
9.50579e-05
9.56512e-05
9.55668e-05
9.402e-05
9.46786e-05
9.44335e-05
9.39253e-05
9.48597e-05
9.54383e-05
9.46437e-05
9.47533e-05
9.49208e-05
9.51228e-05
9.5224e-05
9.41119e-05
9.4843e-05
9.55394e-05
9.47496e-05
9.50986e-05
9.51934e-05
9.52182e-05
9.37883e-05
9.49589e-05
9.6049e-05
9.45888e-05
9.39149e-05
9.459e-05
9.50123e-05
9.42089e-05
9.52119e-05
9.48221e-05
9.534e-05
9.47666e-05
9.40016e-05
9.48449e-05
9.5186e-05
9.20452e-05
9.45916e-05
9.47737e-05
9.47618e-05
9.42312e-05
9.57427e-05
9.49876e-05
9.52184e-05
9.50976e-05
9.4673e-05
9.59485e-05
9.46489e-05
9.46665e-05
9.43112e-05
9.52375e-05
9.35044e-05
9.59811e-05
9.46117e-05
9.53366e-05
9.39271e-05
9.5269e-05
9.38049e-05
9.44256e-05
9.56412e-05
9.5061e-05
9.51327e-05
9.52794e-05
9.40063e-05
9.43837e-05
9.6068e-05
9.43613e-05
9.38356e-05
9.47376e-05
9.53299e-05
9.51919e-05
9.51086e-05
9.52695e-05
9.52229e-05
9.51393e-05
9.47933e-05
9.53747e-05
9.51457e-05
9.58731e-05
9.49541e-05
9.5176e-05
9.5258e-05
9.47051e-05
9.5366e-05
9.52192e-05
9.54298e-05
9.48745e-05
9.54826e-05
9.50932e-05
9.51787e-05
9.56192e-05
9.47904e-05
9.48767e-05
9.52009e-05
9.64809e-05
9.41336e-05
9.54134e-05
9.58062e-05
9.61207e-05
9.52448e-05
9.57773e-05
9.56523e-05
9.55181e-05
9.49619e-05
9.54835e-05
9.30384e-05
9.61171e-05
9.57946e-05
9.54837e-05
9.48603e-05
9.52509e-05
9.58555e-05
9.41216e-05
9.55716e-05
9.26839e-05
9.5458e-05
9.56527e-05
9.38625e-05
9.49669e-05
9.45488e-05
9.61618e-05
9.47486e-05
9.47896e-05
9.14313e-05
9.20336e-05
9.55119e-05
9.3689e-05
9.35695e-05
9.45624e-05
9.42596e-05
9.39612e-05
9.50849e-05
9.25843e-05
9.50431e-05
9.59106e-05
9.58776e-05
9.55574e-05
9.45191e-05
9.49728e-05
9.41519e-05
9.56059e-05
9.44864e-05
9.64021e-05
9.41238e-05
9.49083e-05
9.56238e-05
9.36532e-05
9.45826e-05
9.42349e-05
9.40618e-05
9.47295e-05
9.39591e-05
9.52293e-05
9.60009e-05
9.60515e-05
9.38206e-05
9.43886e-05
9.42163e-05
9.5428e-05
9.32158e-05
9.38741e-05
9.50075e-05
9.51824e-05
9.55178e-05
9.57973e-05
9.49287e-05
9.63086e-05
9.51016e-05
9.54558e-05
9.55613e-05
9.49568e-05
9.50443e-05
9.55898e-05
9.46294e-05
9.49402e-05
9.45108e-05
9.4938e-05
9.51853e-05
9.59945e-05
9.36763e-05
9.55369e-05
9.46235e-05
9.36454e-05
9.48916e-05
9.38645e-05
9.35262e-05
9.50771e-05
9.47393e-05
9.37171e-05
9.48933e-05
9.47159e-05
9.52133e-05
9.36283e-05
9.54655e-05
9.52696e-05
9.38832e-05
9.56567e-05
9.53804e-05
9.45371e-05
9.5704e-05
9.53374e-05
9.3966e-05
9.56477e-05
9.47943e-05
9.37153e-05
9.49502e-05
9.55547e-05
9.48071e-05
9.37066e-05
9.56753e-05
9.5353e-05
9.52666e-05
9.55098e-05
9.52481e-05
9.52547e-05
9.57512e-05
9.43526e-05
9.59608e-05
9.53839e-05
9.44704e-05
9.58489e-05
9.60635e-05
9.54144e-05
9.55336e-05
9.49684e-05
9.55957e-05
9.47345e-05
9.55523e-05
9.41454e-05
9.50176e-05
9.53134e-05
9.53321e-05
9.53267e-05
9.53563e-05
9.56666e-05
9.54083e-05
9.36565e-05
9.56189e-05
9.5489e-05
9.64506e-05
9.51479e-05
9.48087e-05
9.56498e-05
9.18877e-05
9.47757e-05
9.46965e-05
9.53376e-05
9.36464e-05
9.53472e-05
9.59435e-05
9.48464e-05
9.52455e-05
9.56811e-05
9.27258e-05
9.49923e-05
9.52383e-05
9.53096e-05
9.50185e-05
9.61872e-05
9.59397e-05
9.25823e-05
9.63418e-05
9.58144e-05
9.24339e-05
9.49086e-05
9.56284e-05
9.21236e-05
9.52687e-05
9.48082e-05
9.5786e-05
9.53289e-05
9.44024e-05
9.49229e-05
9.23739e-05
9.54991e-05
9.53287e-05
9.24013e-05
9.59982e-05
9.54277e-05
9.2951e-05
9.55563e-05
9.53536e-05
9.61442e-05
9.518e-05
9.5242e-05
9.53076e-05
9.49741e-05
9.35306e-05
9.5541e-05
9.52679e-05
9.3557e-05
9.54621e-05
9.54061e-05
9.32237e-05
9.47096e-05
9.49369e-05
9.47376e-05
9.51934e-05
9.51216e-05
9.50543e-05
9.61237e-05
9.48669e-05
9.55164e-05
9.52703e-05
9.27855e-05
9.59975e-05
9.52897e-05
9.28328e-05
9.45016e-05
9.32217e-05
9.601e-05
9.48631e-05
9.59877e-05
9.52209e-05
9.23628e-05
9.57688e-05
9.27919e-05
9.56024e-05
9.50147e-05
9.29159e-05
9.54989e-05
9.52796e-05
9.54659e-05
9.3321e-05
9.56613e-05
9.52429e-05
9.26518e-05
9.45999e-05
9.49897e-05
9.32673e-05
9.28623e-05
9.4981e-05
9.60221e-05
9.39569e-05
9.50279e-05
9.26195e-05
9.4773e-05
9.61366e-05
9.57551e-05
9.36643e-05
9.54878e-05
9.41802e-05
9.29524e-05
9.57919e-05
9.51445e-05
9.56578e-05
9.28397e-05
9.55077e-05
9.54967e-05
9.53873e-05
9.57787e-05
9.52503e-05
9.56514e-05
9.25449e-05
9.49617e-05
9.60461e-05
9.32848e-05
9.31058e-05
9.51679e-05
9.49646e-05
9.48566e-05
9.56518e-05
9.67309e-05
9.21332e-05
9.47446e-05
9.43116e-05
9.52247e-05
9.30636e-05
9.22994e-05
9.24029e-05
9.51635e-05
9.26779e-05
9.51162e-05
9.29666e-05
9.31617e-05
9.50795e-05
9.54252e-05
9.54274e-05
9.53133e-05
9.34487e-05
9.57468e-05
9.54236e-05
9.5649e-05
9.49645e-05
9.50141e-05
9.61602e-05
9.60988e-05
9.56022e-05
9.54134e-05
9.35475e-05
9.59447e-05
9.56298e-05
9.57676e-05
9.56312e-05
9.26176e-05
9.25605e-05
9.4683e-05
9.51099e-05
9.47578e-05
9.52233e-05
9.43827e-05
9.50585e-05
9.4698e-05
9.36905e-05
9.3808e-05
9.46224e-05
9.33628e-05
9.51816e-05
9.48914e-05
9.52207e-05
9.37475e-05
9.49808e-05
9.53366e-05
9.48124e-05
9.53506e-05
9.54311e-05
9.5066e-05
9.32389e-05
9.56131e-05
9.52661e-05
9.47306e-05
9.60325e-05
9.29431e-05
9.51112e-05
9.54406e-05
9.52993e-05
9.45325e-05
9.53244e-05
9.49468e-05
9.48805e-05
9.36709e-05
9.49031e-05
9.57468e-05
9.55366e-05
9.41247e-05
9.34461e-05
9.49905e-05
9.29687e-05
9.42438e-05
9.56664e-05
9.59357e-05
9.45378e-05
9.60811e-05
9.52697e-05
9.52793e-05
9.54145e-05
9.61782e-05
9.59439e-05
9.44141e-05
9.30098e-05
9.55797e-05
9.44703e-05
9.3025e-05
9.56545e-05
9.57179e-05
9.61202e-05
9.46957e-05
9.53449e-05
9.57654e-05
9.49382e-05
9.50608e-05
9.51952e-05
9.31989e-05
9.555e-05
9.45413e-05
9.40141e-05
9.58979e-05
9.55947e-05
9.602e-05
9.33395e-05
9.52057e-05
9.63596e-05
9.50562e-05
9.35501e-05
9.42676e-05
9.43688e-05
9.50563e-05
9.33368e-05
9.4224e-05
9.48569e-05
9.29956e-05