/*--------------------------------*- C++ -*----------------------------------*\
| =========                 |                                                 |
| \\      /  F ield         | OpenFOAM: The Open Source CFD Toolbox           |
|  \\    /   O peration     | Version:  v2012                                 |
|   \\  /    A nd           | Website:  www.openfoam.com                      |
|    \\/     M anipulation  |                                                 |
\*---------------------------------------------------------------------------*/
FoamFile
{
    version     2.0;
    format      ascii;
    class       volScalarField;
    location    "0.5";
    object      nut;
}
// * * * * * * * * * * * * * * * * * * * * * * * * * * * * * * * * * * * * * //

dimensions      [0 2 -1 0 0 0 0];


internalField   nonuniform List<scalar> 
108993
(
0.000100023
9.51187e-05
7.49874e-05
0.000103666
0.000103888
5.93665e-05
9.10639e-05
8.38203e-05
0.00010267
9.6074e-05
0.000108795
0.000107953
8.64956e-05
8.7438e-05
9.25811e-05
7.83462e-05
8.20938e-05
9.3451e-05
8.80453e-05
9.36531e-05
7.65748e-05
9.82066e-05
8.41149e-05
0.000102983
0.000100499
9.36651e-05
8.91135e-05
9.96892e-05
0.000110466
6.85073e-05
0.000110667
0.000106839
9.01835e-05
0.000105183
8.8155e-05
0.000103908
9.02176e-05
0.000102832
8.48537e-05
9.24407e-05
0.000116003
0.000110209
9.52465e-05
0.000102248
9.32249e-05
6.98959e-05
9.01781e-05
9.13904e-05
0.000118947
0.000101673
0.000103692
0.00011439
9.71128e-05
9.99364e-05
0.00010625
0.000109467
9.38071e-05
9.731e-05
8.2929e-05
0.000111191
9.92487e-05
0.000100959
9.85064e-05
8.83971e-05
9.5319e-05
0.000110927
8.16643e-05
0.000107053
0.000115197
0.0001022
9.67351e-05
9.31355e-05
0.000102749
9.96497e-05
9.02195e-05
0.000109136
8.40086e-05
0.000117862
9.83566e-05
9.80748e-05
9.47486e-05
8.99736e-05
8.73966e-05
8.57368e-05
0.000110632
9.34151e-05
0.000110883
9.06996e-05
9.53703e-05
0.000107498
9.66697e-05
8.4101e-05
0.000107252
7.71466e-05
0.000103717
0.000102194
8.36665e-05
7.41474e-05
8.1904e-05
8.61577e-05
0.000105591
0.000117795
0.000115121
0.000110567
7.93531e-05
0.000105858
0.000110573
0.000112377
0.00010833
0.000111205
8.71948e-05
9.58427e-05
9.46001e-05
0.000100663
0.000102447
8.78169e-05
8.93369e-05
8.38035e-05
0.000114961
9.94124e-05
9.77587e-05
9.27175e-05
9.3545e-05
6.90849e-05
9.1675e-05
9.91314e-05
0.000102601
9.04357e-05
8.43774e-05
0.000105866
9.13043e-05
0.000107365
0.000112573
8.3677e-05
9.87533e-05
8.47439e-05
9.42299e-05
8.93864e-05
8.81046e-05
9.47554e-05
8.77387e-05
8.04208e-05
9.47514e-05
9.58968e-05
0.000105128
0.000101488
8.37609e-05
8.2564e-05
9.52119e-05
9.66973e-05
9.73324e-05
8.26024e-05
8.21553e-05
0.000105561
0.000101129
9.66093e-05
0.000117209
0.000103658
0.000101147
9.91252e-05
0.000107141
9.20106e-05
0.000112102
9.33816e-05
9.54e-05
0.000105301
9.59205e-05
8.36799e-05
8.25897e-05
0.000113782
0.000105343
0.000105077
0.000105215
8.87643e-05
9.63293e-05
9.40007e-05
8.93681e-05
8.9335e-05
0.000107023
8.70699e-05
9.00002e-05
8.43943e-05
9.24857e-05
3.49898e-05
0.000115476
0.000101793
9.38221e-05
0.000101379
0.000101584
3.88044e-05
0.000101436
0.000100391
8.92382e-05
0.000100098
0.000107539
9.62049e-05
0.000112372
0.000102835
0.000109701
4.27319e-05
0.000106878
0.000106394
7.62717e-05
8.61916e-05
0.000104316
7.54452e-05
9.11724e-05
0.000102221
9.64109e-05
0.000106615
8.6381e-05
9.33033e-05
8.41834e-05
9.21914e-05
8.08594e-05
7.23087e-05
8.98248e-05
0.000100201
9.48769e-05
0.00011992
9.9238e-05
8.76537e-05
0.000105736
9.53768e-05
8.99016e-05
7.90229e-05
8.9674e-05
0.000110842
0.000105359
8.34629e-05
5.31023e-05
0.000101465
8.46074e-05
8.38355e-05
9.34511e-05
7.83378e-05
0.000104944
9.22422e-05
9.40674e-05
9.22976e-05
6.92266e-05
0.000106532
6.79659e-05
9.89832e-05
0.00010958
9.41272e-05
9.70566e-05
9.65366e-05
0.000100664
0.000109857
8.66359e-05
9.92328e-05
9.62545e-05
0.000105982
0.000101726
9.82134e-05
9.99198e-05
9.72175e-05
0.000112904
6.75233e-05
9.95216e-05
8.55922e-05
0.000110728
8.34085e-05
7.52199e-05
9.90693e-05
0.000109993
0.000114864
6.72139e-05
9.80487e-05
7.32541e-05
7.92667e-05
0.000101655
9.01537e-05
9.35831e-05
9.38712e-05
0.000106115
0.000114084
0.000109266
9.86748e-05
0.000106434
7.9503e-05
6.93947e-05
9.09571e-05
0.000104742
0.000100487
7.88924e-05
0.000105714
0.000112976
6.05032e-05
9.69886e-05
8.47521e-05
0.000108955
0.000104678
9.99198e-05
8.40765e-05
0.000112742
9.78531e-05
8.41744e-05
6.07878e-05
8.63363e-05
8.21302e-05
0.000106885
7.99853e-05
0.000102571
8.26209e-05
7.44705e-05
8.72966e-05
7.76595e-05
0.000109048
0.000107547
0.000107142
8.69188e-05
9.4644e-05
0.00010894
8.81238e-05
7.23092e-05
8.98381e-05
9.37438e-05
0.000115767
9.47608e-05
7.39305e-05
7.3859e-05
7.04942e-05
8.17612e-05
9.32399e-05
9.30075e-05
0.000111899
9.26762e-05
0.000111991
0.00011839
0.000115785
6.59106e-05
9.4777e-05
9.5054e-05
9.29527e-05
0.000100596
0.000103614
0.000102613
9.10687e-05
9.62965e-05
9.43588e-05
9.11229e-05
0.000105749
9.16591e-05
9.48509e-05
9.01929e-05
8.96182e-05
8.81464e-05
8.47767e-05
0.000103473
7.15068e-05
7.13952e-05
9.3969e-05
9.27003e-05
9.85561e-05
9.02002e-05
6.66314e-05
9.26008e-05
6.02803e-05
0.00011879
9.03885e-05
7.83389e-05
9.4751e-05
0.000100907
0.000107272
0.000105974
9.03863e-05
9.57123e-05
0.000104313
8.30869e-05
0.000105796
8.66797e-05
9.82026e-05
0.000120783
0.000103036
0.0001094
0.00013115
8.13573e-05
0.000105343
7.60399e-05
7.9378e-05
0.0001102
8.42884e-05
9.51963e-05
6.87303e-05
9.15182e-05
8.22992e-05
9.48024e-05
0.000109912
7.90675e-05
7.22345e-05
7.79747e-05
8.68912e-05
8.35005e-05
0.000134419
9.02768e-05
0.000100023
9.40818e-05
9.74704e-05
0.00013213
9.18975e-05
8.23316e-05
0.000100666
0.00010328
7.31335e-05
9.05131e-05
6.50885e-05
9.25243e-05
8.36605e-05
9.24123e-05
8.92365e-05
8.15596e-05
8.84608e-05
0.000101513
0.000110999
0.000100851
9.11275e-05
6.06211e-05
9.29501e-05
0.000110408
9.6711e-05
7.57662e-05
7.77675e-05
0.000106662
6.57118e-05
0.000104785
7.28502e-05
8.3127e-05
6.82422e-05
8.25347e-05
9.70241e-05
9.21893e-05
9.22636e-05
9.28073e-05
0.000100539
9.00683e-05
0.000103723
0.000108953
9.00241e-05
9.46716e-05
9.3025e-05
0.000113496
6.90279e-05
0.000103914
0.000109282
8.85225e-05
0.000108633
9.4599e-05
7.43549e-05
9.71408e-05
9.94097e-05
0.000108029
0.000125743
0.0001182
9.80476e-05
9.81334e-05
9.45186e-05
0.000117057
8.81288e-05
6.19188e-05
9.69832e-05
6.52051e-05
0.000100733
9.75872e-05
7.70537e-05
8.29203e-05
7.8797e-05
7.26665e-05
8.78508e-05
6.58244e-05
0.000104744
0.00010278
9.43654e-05
0.000111099
8.7756e-05
8.50996e-05
0.0001078
8.82725e-05
0.000105521
8.96946e-05
0.000115136
0.00011066
0.00010548
6.91108e-05
8.75385e-05
8.74239e-05
7.94895e-05
9.19864e-05
0.00010968
9.88817e-05
0.000108184
8.20506e-05
8.3418e-05
9.54351e-05
7.03839e-05
8.30159e-05
0.000106012
7.77426e-05
9.57954e-05
8.04854e-05
9.93571e-05
7.92808e-05
9.98106e-05
0.000105236
0.000104874
9.56291e-05
8.76861e-05
8.78031e-05
9.76173e-05
0.000104355
9.15318e-05
0.000106521
0.000111911
9.87686e-05
9.26594e-05
8.52674e-05
9.79494e-05
0.000113281
0.000117626
7.30858e-05
7.16855e-05
0.000100635
0.00010413
0.000112814
9.29706e-05
9.40397e-05
0.000103943
9.48734e-05
0.000111388
7.99344e-05
9.2269e-05
8.65441e-05
9.10064e-05
9.30462e-05
0.00011173
9.16418e-05
0.000104003
0.000108263
9.11035e-05
7.98654e-05
9.90119e-05
9.64755e-05
0.000111947
0.000111434
9.51618e-05
8.04411e-05
8.80445e-05
0.000109709
7.99288e-05
8.71269e-05
8.36088e-05
8.2921e-05
0.000117921
0.000109281
8.01705e-05
0.000105989
0.000113313
0.000111755
8.4444e-05
0.000101714
0.000100021
8.20881e-05
0.000105651
7.01917e-05
8.97449e-05
0.000104319
8.42274e-05
0.00012904
0.000108675
0.000104276
7.70816e-05
0.000164624
7.38299e-05
9.86925e-05
9.92293e-05
0.000115137
7.14857e-05
7.95889e-05
9.9669e-05
0.000111743
9.18068e-05
0.000113049
0.000120521
0.000104686
8.54837e-05
8.73261e-05
7.40559e-05
0.000110393
7.35299e-05
0.000116936
7.63906e-05
9.36268e-05
9.78653e-05
8.50897e-05
8.99028e-05
0.000120689
7.80953e-05
0.00011225
9.40594e-05
0.000103331
0.000111559
0.000127678
8.8536e-05
8.60736e-05
7.1278e-05
0.000106841
7.56808e-05
9.74001e-05
0.000103626
9.14656e-05
0.000103167
0.000114662
9.58581e-05
0.000120532
9.27256e-05
0.00010464
7.56806e-05
8.56216e-05
8.82669e-05
0.000115596
9.83461e-05
0.000104598
0.000105796
0.000110514
0.000110031
0.000117423
0.000102419
8.76789e-05
0.000102195
0.000105469
9.78165e-05
0.000103818
8.43226e-05
9.47688e-05
8.53795e-05
7.72254e-05
0.000112498
9.26013e-05
0.000106344
9.40791e-05
0.00010436
9.21289e-05
8.83152e-05
8.46531e-05
8.95334e-05
9.88441e-05
8.33254e-05
9.01693e-05
9.5037e-05
0.000101235
8.46728e-05
9.35437e-05
6.38328e-05
0.000110147
8.9987e-05
7.48495e-05
5.62748e-05
9.52005e-05
6.05097e-05
4.90429e-05
0.000100078
7.71413e-05
9.65006e-05
8.67996e-05
0.000100074
8.01352e-05
0.000107151
8.12902e-05
8.94512e-05
0.000115956
0.000118017
0.000112131
7.20008e-05
6.63698e-05
0.00011577
8.82758e-05
6.64389e-05
0.000100459
0.000109822
9.24055e-05
0.000107479
9.61646e-05
0.000102279
6.46745e-05
0.000132749
0.0001157
6.41775e-05
6.65478e-05
9.5867e-05
8.87918e-05
9.78042e-05
0.000104619
8.16419e-05
9.9673e-05
8.17226e-05
7.88783e-05
8.48581e-05
8.00347e-05
9.64769e-05
0.00010075
8.93448e-05
6.07002e-05
6.46321e-05
0.000122169
6.73501e-05
0.000103221
8.72922e-05
0.000103761
8.85723e-05
0.000101654
0.0001044
0.000100253
0.000108968
9.35696e-05
7.89666e-05
8.6054e-05
9.93355e-05
7.6193e-05
0.000107458
0.000108714
0.000103513
0.000124134
8.66546e-05
8.82909e-05
0.000103563
0.000107548
8.03129e-05
8.54041e-05
0.00010483
9.56506e-05
9.96793e-05
8.05143e-05
8.93643e-05
0.000105576
8.15312e-05
0.000115157
8.30466e-05
0.000103678
0.000118402
8.81778e-05
7.60778e-05
0.000102995
9.22823e-05
0.000107697
0.000110401
0.000114273
0.000126154
0.000104848
0.000135119
0.000107087
7.46918e-05
8.51491e-05
0.00012014
7.69529e-05
8.78371e-05
8.0204e-05
5.59029e-05
0.000119108
8.99517e-05
9.55042e-05
9.55836e-05
0.000121742
9.6526e-05
6.81316e-05
0.000107295
0.000106131
8.38488e-05
0.000103393
0.00010361
9.13825e-05
9.85432e-05
0.000103044
0.000107368
9.31993e-05
0.000118853
9.70304e-05
9.07401e-05
7.25034e-05
9.15442e-05
6.4238e-05
7.71882e-05
0.000103858
9.5729e-05
9.70919e-05
8.71246e-05
9.90451e-05
8.00014e-05
0.00010315
6.79019e-05
9.94306e-05
8.53645e-05
9.62563e-05
9.66009e-05
0.00011098
0.000122644
8.90611e-05
0.000109304
7.3027e-05
0.000108304
8.83148e-05
9.15619e-05
0.000108309
9.36575e-05
0.000103967
0.000107933
0.000103841
9.53136e-05
8.56413e-05
8.89571e-05
8.6098e-05
0.000100713
0.000101223
7.65558e-05
8.246e-05
9.22289e-05
7.86336e-05
9.86916e-05
9.40121e-05
8.03286e-05
8.67648e-05
7.90901e-05
9.7733e-05
0.000104203
9.63597e-05
8.7732e-05
7.7096e-05
8.39818e-05
8.22912e-05
0.000119146
9.7263e-05
0.000104207
0.000100139
0.000122878
8.84074e-05
7.73437e-05
9.33734e-05
7.54328e-05
0.000117351
8.62981e-05
8.13687e-05
0.000112257
9.21501e-05
0.0001177
9.99306e-05
0.000100161
9.75747e-05
0.000107785
5.55292e-05
0.000100679
6.21981e-05
0.00010037
5.69362e-05
0.000105093
0.000100788
6.20561e-05
9.32496e-05
9.98932e-05
0.000124212
6.3241e-05
7.03962e-05
9.22289e-05
9.77376e-05
6.71069e-05
9.30553e-05
0.000107131
9.77585e-05
7.31064e-05
0.000108768
8.7578e-05
8.49105e-05
9.23404e-05
8.5705e-05
6.54234e-05
9.441e-05
8.81665e-05
0.00010714
7.23489e-05
9.2389e-05
7.62062e-05
5.62134e-05
6.8474e-05
8.47062e-05
9.9699e-05
8.95911e-05
6.54253e-05
9.46869e-05
6.7854e-05
9.14185e-05
9.28919e-05
9.70702e-05
9.14862e-05
7.69332e-05
9.03539e-05
9.28216e-05
8.32209e-05
9.3429e-05
0.000102016
8.47861e-05
0.000122641
9.67444e-05
9.27575e-05
9.14022e-05
6.67173e-05
0.000109395
9.99019e-05
7.69624e-05
8.64693e-05
7.79729e-05
0.000109585
9.84453e-05
0.00010162
0.000128426
0.000112557
8.37062e-05
8.29533e-05
8.17879e-05
0.000102411
0.000115179
8.94253e-05
8.02001e-05
0.000108472
9.23971e-05
0.000111467
0.000103808
0.000111054
7.99465e-05
0.000121488
9.7713e-05
6.58093e-05
8.41043e-05
7.99133e-05
8.36608e-05
0.000106766
0.000126384
8.70192e-05
9.23773e-05
8.53835e-05
0.000105573
6.40471e-05
8.11761e-05
9.08168e-05
8.29094e-05
9.16559e-05
9.97197e-05
8.19361e-05
7.38958e-05
8.35459e-05
0.000111469
9.5436e-05
0.000101174
0.000104691
8.34052e-05
0.000101823
9.23463e-05
9.63846e-05
9.03728e-05
9.38313e-05
7.11875e-05
0.000103685
8.78634e-05
8.86422e-05
8.64296e-05
0.000111715
7.05343e-05
8.84417e-05
0.000107445
0.00010143
9.52054e-05
9.35273e-05
7.35344e-05
9.78779e-05
7.53375e-05
9.69287e-05
7.4185e-05
7.90063e-05
9.2852e-05
0.000104695
0.000101728
7.81164e-05
8.90955e-05
8.77339e-05
9.07297e-05
7.83206e-05
9.28885e-05
0.000102217
0.000101747
9.12794e-05
0.000110413
9.51266e-05
8.18777e-05
0.000108156
9.96249e-05
8.1213e-05
8.85467e-05
7.7153e-05
9.0867e-05
7.55505e-05
0.000103337
7.82331e-05
9.17738e-05
8.3059e-05
9.36595e-05
8.64044e-05
9.97414e-05
0.000129298
9.52065e-05
8.75448e-05
7.97161e-05
8.88839e-05
9.74616e-05
9.74322e-05
0.000108262
5.70467e-05
0.000100874
0.000101271
8.94038e-05
8.76339e-05
9.97998e-05
7.30428e-05
7.67915e-05
9.20414e-05
9.69528e-05
9.66016e-05
0.000108514
0.000110711
9.74652e-05
9.54338e-05
0.00011669
9.20285e-05
0.000112362
0.000108284
0.000106085
0.000107338
0.000115405
0.000139206
0.000105044
9.83277e-05
0.000110592
9.2987e-05
8.33861e-05
0.000100273
0.000101231
0.000110634
9.9042e-05
8.41875e-05
8.19359e-05
8.96031e-05
9.19638e-05
9.06654e-05
9.67479e-05
9.26036e-05
0.000105106
9.77826e-05
6.91632e-05
0.000100206
9.65136e-05
8.90844e-05
7.23121e-05
0.000111322
8.02752e-05
9.24417e-05
9.70422e-05
0.000115633
0.000121778
9.15563e-05
9.08473e-05
8.22536e-05
8.52653e-05
8.57394e-05
0.000116791
8.28921e-05
0.000132199
0.000111677
0.000118324
7.73214e-05
6.5986e-05
9.40048e-05
8.05675e-05
9.16351e-05
9.80922e-05
8.48814e-05
8.26139e-05
0.000102412
0.000104565
0.000107432
7.96628e-05
0.000104816
9.46056e-05
8.35276e-05
9.59502e-05
0.000108994
0.000106105
6.83158e-05
0.000122706
0.000104903
8.04487e-05
9.15025e-05
9.74181e-05
9.99544e-05
0.00013936
0.000126067
9.1506e-05
9.084e-05
0.000115051
9.29424e-05
7.7639e-05
8.5109e-05
0.000108177
8.18675e-05
0.000111454
9.42019e-05
6.53665e-05
7.73181e-05
0.000113864
0.000131395
7.58524e-05
0.000102005
0.000113293
9.33137e-05
9.17388e-05
9.69688e-05
6.86551e-05
9.03599e-05
6.27218e-05
0.000106415
0.000104078
8.88691e-05
0.000104911
7.7246e-05
9.75004e-05
9.1024e-05
9.44117e-05
0.000104463
8.95356e-05
0.000106204
6.99081e-05
0.00010052
0.000114552
0.000107867
0.000105659
0.0001068
7.87775e-05
6.49044e-05
0.000103336
0.000118649
8.54752e-05
9.33554e-05
0.000105459
0.00010148
0.000106883
0.000117035
7.65048e-05
9.80759e-05
6.85473e-05
9.52311e-05
8.56334e-05
6.28293e-05
0.000107678
7.52927e-05
8.74168e-05
0.000116134
8.84525e-05
7.43228e-05
8.86564e-05
9.27006e-05
9.31439e-05
8.46606e-05
0.000112914
9.29128e-05
7.07302e-05
8.23135e-05
0.000100535
0.00010778
9.90248e-05
7.46967e-05
7.20903e-05
7.29397e-05
9.40131e-05
9.58015e-05
9.47444e-05
8.71869e-05
0.000118358
8.11529e-05
9.04672e-05
8.77375e-05
0.000103652
5.9224e-05
8.83653e-05
7.48251e-05
0.000116267
9.28591e-05
0.000111657
9.2018e-05
0.00010485
9.81783e-05
9.24077e-05
9.55213e-05
7.54249e-05
0.000105012
6.95929e-05
8.59e-05
9.46135e-05
8.81473e-05
0.000102495
8.76294e-05
0.000105274
8.4631e-05
0.000101266
8.49449e-05
9.41594e-05
9.6851e-05
9.16101e-05
8.85512e-05
0.000104962
9.74184e-05
8.51453e-05
9.18621e-05
7.18773e-05
0.00010378
9.60449e-05
9.71402e-05
0.000113271
8.67798e-05
0.000181042
0.000106384
8.2969e-05
0.000104786
7.94311e-05
0.000124791
8.45202e-05
9.21289e-05
6.34291e-05
9.27876e-05
0.000133093
0.000122515
0.000114888
9.9893e-05
8.15563e-05
9.85198e-05
0.000123712
0.000115768
0.000115214
0.000104871
9.64329e-05
0.000103171
9.38273e-05
8.83936e-05
8.58915e-05
0.000102855
0.000109222
0.000107309
7.93489e-05
0.000105317
9.20028e-05
7.15884e-05
9.23535e-05
0.000101065
9.29786e-05
9.65195e-05
8.68637e-05
0.000108339
6.24101e-05
5.51838e-05
5.81818e-05
8.60902e-05
6.21407e-05
0.000110109
5.70554e-05
6.89218e-05
6.94865e-05
7.62205e-05
9.42047e-05
8.95225e-05
0.000114681
0.000105352
8.72183e-05
8.31438e-05
8.62479e-05
9.66973e-05
9.19934e-05
0.000113025
0.000113782
0.00011791
8.56655e-05
0.000111614
8.18398e-05
7.6808e-05
0.00010054
0.00010264
4.47346e-05
8.36892e-05
8.93884e-05
9.40211e-05
0.000102991
8.8388e-05
9.98461e-05
9.87895e-05
9.94905e-05
8.18187e-05
9.69158e-05
8.79814e-05
9.8913e-05
0.000102961
8.00548e-05
0.000119682
0.000101389
0.000109791
9.69872e-05
0.000119364
9.29014e-05
8.63433e-05
0.000109186
9.91854e-05
7.4501e-05
9.98832e-05
0.000108226
9.29105e-05
9.58717e-05
0.000115438
7.79953e-05
9.56335e-05
9.88093e-05
0.000100842
0.000126095
8.69256e-05
0.00010698
0.000103852
9.68169e-05
9.48513e-05
0.000106374
7.7585e-05
8.40207e-05
0.000107274
9.78918e-05
9.69509e-05
0.000121786
8.35493e-05
9.05517e-05
8.8831e-05
9.7927e-05
0.000107888
0.000101619
0.000112174
0.000111822
0.000123323
8.81618e-05
0.00011098
9.76051e-05
8.80351e-05
0.000106714
7.7328e-05
6.95425e-05
8.56776e-05
9.57007e-05
0.000103362
0.000115796
0.000103931
9.93228e-05
9.29289e-05
7.78642e-05
8.40719e-05
0.000106244
9.84797e-05
9.4328e-05
8.63461e-05
0.000118842
0.000106074
8.77932e-05
9.4053e-05
9.23025e-05
8.93259e-05
0.000101332
8.72454e-05
0.000109851
8.59049e-05
8.79282e-05
9.78058e-05
0.00010532
9.17306e-05
8.24641e-05
8.83894e-05
0.000107103
9.19015e-05
8.04252e-05
0.000120029
0.000111217
0.00010563
8.90768e-05
7.35479e-05
0.000101396
9.97924e-05
7.91304e-05
9.60982e-05
7.22828e-05
0.000126972
0.000100773
0.000110803
0.000102541
4.94883e-05
8.97655e-05
7.98489e-05
7.20437e-05
0.000112016
7.66827e-05
6.43411e-05
9.88944e-05
8.63104e-05
6.28042e-05
8.06589e-05
0.000102378
0.00010403
9.56467e-05
6.84276e-05
9.43896e-05
0.000113631
8.75464e-05
9.74428e-05
9.06336e-05
0.000100875
8.90359e-05
7.58795e-05
8.70482e-05
0.000110803
0.000104662
7.1977e-05
8.80338e-05
8.67905e-05
0.000115615
8.93057e-05
8.60285e-05
7.83554e-05
8.70434e-05
0.000104101
0.000100677
8.27772e-05
8.96681e-05
9.19769e-05
8.85495e-05
8.57264e-05
7.51438e-05
9.14603e-05
9.76027e-05
7.52479e-05
8.66218e-05
0.000111858
4.1065e-05
9.2675e-05
0.000113764
8.31339e-05
0.00012044
0.000103265
9.21706e-05
9.07855e-05
8.77283e-05
9.49343e-05
9.49778e-05
8.86736e-05
7.24303e-05
0.000102183
9.23764e-05
0.000116398
0.000106829
0.000106574
0.000102188
9.3389e-05
8.98315e-05
9.27845e-05
8.83232e-05
7.61797e-05
9.56586e-05
9.2242e-05
9.28569e-05
9.44342e-05
0.000107434
0.00010885
9.58564e-05
6.55283e-05
0.000101443
8.54517e-05
9.75319e-05
9.58222e-05
6.33078e-05
9.97101e-05
6.5371e-05
9.04792e-05
8.95438e-05
6.3462e-05
9.27911e-05
9.24676e-05
8.75362e-05
9.72519e-05
0.000109849
0.000105898
0.000114992
8.68921e-05
9.45177e-05
0.000100086
0.000123648
0.000115921
0.000102018
8.52677e-05
8.88306e-05
0.000104769
0.000110302
0.000113056
0.00010647
8.39999e-05
0.000108611
9.39533e-05
9.2719e-05
0.000114241
7.83355e-05
9.79941e-05
7.58239e-05
9.57735e-05
8.5523e-05
7.50534e-05
0.000100275
8.88575e-05
9.80667e-05
0.000102413
8.35858e-05
7.65921e-05
9.32554e-05
8.27958e-05
8.07641e-05
7.49965e-05
0.000107808
7.67572e-05
9.03949e-05
7.68058e-05
6.9475e-05
8.54298e-05
6.32541e-05
9.26156e-05
9.80383e-05
9.1461e-05
8.42395e-05
0.000122752
0.000101172
0.000107611
7.88222e-05
9.72571e-05
8.17813e-05
0.000107987
0.000121649
7.13967e-05
8.4683e-05
9.91289e-05
6.53354e-05
6.53723e-05
7.14836e-05
0.000101608
9.59326e-05
9.89611e-05
8.72543e-05
9.80732e-05
8.89735e-05
7.10275e-05
0.000101559
7.2337e-05
9.69207e-05
8.90788e-05
8.65178e-05
0.00011546
9.43832e-05
9.08296e-05
8.05155e-05
6.62356e-05
0.00011294
9.48e-05
7.28576e-05
0.000108232
9.45958e-05
7.33372e-05
7.35146e-05
7.05772e-05
6.5691e-05
9.29431e-05
8.45307e-05
8.61952e-05
0.00011715
0.000100394
0.000110672
5.27683e-05
8.97455e-05
8.23507e-05
0.000109996
8.85495e-05
9.72728e-05
7.0197e-05
9.88423e-05
9.45705e-05
8.63907e-05
0.000122671
9.8734e-05
9.36696e-05
9.37736e-05
0.000105137
8.07844e-05
7.32479e-05
0.000113917
9.89911e-05
9.43929e-05
9.99841e-05
0.000103416
7.20854e-05
9.01412e-05
8.75524e-05
0.000100748
6.59066e-05
9.19107e-05
9.85368e-05
0.000104509
0.000106528
9.70733e-05
6.04128e-05
7.88382e-05
0.000104829
0.000105984
0.000116942
6.9103e-05
0.000105955
7.0562e-05
8.35005e-05
7.81615e-05
9.55262e-05
9.00199e-05
7.06013e-05
0.000102335
8.84925e-05
7.24703e-05
8.55505e-05
9.26859e-05
8.79974e-05
0.00011289
8.30811e-05
7.95253e-05
8.41299e-05
9.82101e-05
9.63348e-05
8.8364e-05
9.16099e-05
9.3916e-05
9.78531e-05
8.90147e-05
7.72743e-05
8.90747e-05
0.00010666
9.99665e-05
6.70579e-05
7.08437e-05
7.95506e-05
9.42181e-05
9.01983e-05
8.10935e-05
0.000105638
8.26836e-05
0.000106744
6.42924e-05
0.000103255
7.85913e-05
0.000100244
0.00010246
8.02902e-05
8.68594e-05
0.000119901
8.53842e-05
0.000122957
9.42774e-05
6.50918e-05
0.000103227
0.000109951
9.74586e-05
8.3331e-05
0.000127847
7.04212e-05
0.000106075
7.21163e-05
7.16089e-05
9.34438e-05
8.22401e-05
6.67939e-05
8.96401e-05
9.18707e-05
7.2725e-05
8.12101e-05
5.8838e-05
6.48889e-05
6.52205e-05
7.77548e-05
9.11627e-05
9.73799e-05
9.73018e-05
7.65095e-05
9.51402e-05
8.80819e-05
9.41375e-05
0.000120672
0.000112944
0.000101529
9.74691e-05
8.55563e-05
7.67155e-05
9.95108e-05
9.23579e-05
0.000115814
0.000110921
9.18737e-05
8.64253e-05
9.57018e-05
7.05101e-05
9.29857e-05
9.35916e-05
9.88786e-05
6.36983e-05
8.98415e-05
8.3969e-05
9.73446e-05
0.000100725
8.95895e-05
8.70471e-05
7.89887e-05
8.5949e-05
9.35554e-05
7.97746e-05
9.41632e-05
8.0734e-05
0.000113916
8.22378e-05
9.15964e-05
0.000103888
0.000104866
9.56529e-05
9.27003e-05
8.266e-05
9.57095e-05
8.68424e-05
8.59588e-05
7.03772e-05
7.11428e-05
9.49254e-05
6.52653e-05
6.93414e-05
9.8587e-05
0.000109136
0.000108947
7.28398e-05
0.000118863
9.53961e-05
0.000106928
9.10357e-05
8.48385e-05
0.00010102
8.35223e-05
8.59192e-05
0.000107581
9.33218e-05
0.00011906
9.53415e-05
9.81538e-05
8.94898e-05
0.000106961
9.24543e-05
8.88518e-05
0.000104847
9.45362e-05
9.27262e-05
9.4062e-05
9.23067e-05
9.43157e-05
9.36792e-05
8.6218e-05
6.15676e-05
7.66084e-05
0.000110578
8.38242e-05
9.9642e-05
0.000109159
8.93388e-05
9.16788e-05
8.33889e-05
0.000103018
8.64997e-05
9.74669e-05
0.000102715
9.69966e-05
9.49692e-05
9.28314e-05
6.74955e-05
8.2536e-05
9.60638e-05
6.78774e-05
9.78024e-05
9.3702e-05
7.58955e-05
8.31095e-05
0.000106642
0.000104846
0.000128081
9.18268e-05
0.000120383
5.04039e-05
6.82432e-05
0.000100268
9.45718e-05
8.70456e-05
9.60601e-05
0.000106642
9.01086e-05
6.63022e-05
0.000103755
0.000120592
0.000104256
0.000117398
9.26139e-05
9.95169e-05
9.61463e-05
0.000105212
0.000101815
9.96943e-05
0.000104643
0.000100778
0.000102045
9.16207e-05
9.99376e-05
8.78542e-05
9.77208e-05
0.000102379
9.33225e-05
6.2428e-05
7.32688e-05
8.86035e-05
0.000100619
8.92077e-05
9.71882e-05
9.29403e-05
0.000103088
5.86703e-05
8.5528e-05
0.000100748
7.5044e-05
8.80154e-05
0.000119574
8.17498e-05
9.36062e-05
0.000120118
6.70043e-05
8.0252e-05
6.54635e-05
8.4227e-05
0.000111031
0.000107509
8.37041e-05
7.58528e-05
9.20628e-05
0.000123025
0.000106174
9.88337e-05
0.000110831
7.84994e-05
9.8399e-05
0.000125882
6.64674e-05
9.89502e-05
8.9683e-05
0.000122158
7.83089e-05
9.18912e-05
7.29095e-05
0.00010219
0.00010519
9.86355e-05
0.000121612
8.93409e-05
9.0481e-05
9.81763e-05
0.000106591
9.43482e-05
7.46527e-05
0.000100806
8.92125e-05
8.9976e-05
8.45372e-05
9.71946e-05
9.39851e-05
8.38357e-05
7.63657e-05
9.983e-05
7.71539e-05
0.000105318
0.000117232
0.000115151
9.55924e-05
9.72705e-05
9.35889e-05
0.000114896
9.51012e-05
9.6142e-05
9.49311e-05
7.49552e-05
9.02723e-05
9.84979e-05
8.74601e-05
8.6819e-05
9.69603e-05
8.40775e-05
8.78502e-05
8.32899e-05
7.47175e-05
8.93697e-05
0.000125615
7.29117e-05
8.87175e-05
8.36581e-05
9.28202e-05
0.000107405
0.000107715
0.000101482
8.57349e-05
9.36266e-05
8.77478e-05
8.48603e-05
8.99855e-05
8.65758e-05
8.29829e-05
9.5431e-05
0.000101861
8.72351e-05
8.24466e-05
8.34443e-05
9.09959e-05
0.000103828
8.12735e-05
8.58185e-05
8.24047e-05
8.77799e-05
9.08663e-05
7.9563e-05
8.97183e-05
9.66947e-05
7.55796e-05
8.71085e-05
0.000106772
0.000106282
8.76873e-05
9.70361e-05
8.02699e-05
5.81265e-05
0.000115296
8.26232e-05
9.30124e-05
8.42791e-05
9.33713e-05
0.00011896
9.76503e-05
0.000111567
0.000119618
9.48578e-05
8.98072e-05
9.72025e-05
7.96313e-05
9.0124e-05
8.11762e-05
7.431e-05
7.26229e-05
0.000103723
9.06062e-05
9.35285e-05
0.000106979
0.000104919
7.60406e-05
8.60646e-05
8.23e-05
7.48226e-05
8.97794e-05
0.00010169
8.56646e-05
8.74402e-05
9.0706e-05
9.47399e-05
9.68422e-05
7.69878e-05
8.9231e-05
0.000104357
8.76159e-05
9.41707e-05
9.62369e-05
9.69517e-05
7.29663e-05
9.11133e-05
0.000118369
8.44889e-05
7.46684e-05
8.45104e-05
9.23932e-05
7.88845e-05
9.65771e-05
8.8861e-05
9.95434e-05
8.78925e-05
7.57764e-05
8.93025e-05
9.60281e-05
5.53667e-05
8.47736e-05
8.78389e-05
8.78527e-05
7.89e-05
0.000109431
9.21019e-05
9.65307e-05
9.43038e-05
8.60858e-05
0.000115468
8.56735e-05
8.61148e-05
8.03333e-05
9.71844e-05
6.95847e-05
0.000116377
8.49869e-05
9.92502e-05
7.48709e-05
9.78407e-05
7.29702e-05
8.16725e-05
0.00010679
9.35431e-05
9.47189e-05
9.80672e-05
7.59004e-05
8.1528e-05
0.000118977
8.09484e-05
7.36622e-05
8.72634e-05
9.93536e-05
9.63594e-05
9.44506e-05
9.78837e-05
9.69058e-05
9.49121e-05
8.85683e-05
0.000100378
9.51607e-05
0.00011325
9.13474e-05
9.57798e-05
9.76629e-05
8.66498e-05
0.000100046
9.67032e-05
0.000101281
8.99079e-05
0.000102618
9.40672e-05
9.60593e-05
0.000106197
8.82483e-05
8.99623e-05
9.62487e-05
0.000133941
7.78442e-05
0.000101113
0.000111265
0.000120909
9.7211e-05
0.000110348
0.000106896
0.000103616
9.13533e-05
0.000103038
6.44485e-05
0.000120671
0.000110879
0.000103071
8.96578e-05
9.7216e-05
0.000112732
7.72466e-05
0.000104987
6.09558e-05
0.000102011
0.000107006
7.37635e-05
9.15374e-05
8.38626e-05
0.000122237
8.72987e-05
8.84303e-05
5.11611e-05
4.97011e-05
0.000103473
7.16502e-05
5.60699e-05
8.42947e-05
7.93888e-05
7.49993e-05
9.40409e-05
5.04359e-05
9.28811e-05
0.000114283
0.000113533
0.000104656
5.93835e-05
9.16732e-05
7.77469e-05
0.000105729
8.27518e-05
0.00013064
7.73322e-05
9.03976e-05
0.000106178
7.1286e-05
8.48026e-05
7.9099e-05
7.66068e-05
8.7207e-05
7.51589e-05
9.70652e-05
0.000116945
0.000118596
7.1671e-05
8.14115e-05
7.87504e-05
0.000101544
6.61929e-05
7.4148e-05
9.22682e-05
9.58344e-05
0.00010358
0.000110895
9.06653e-05
0.000127163
9.40496e-05
0.000102032
0.000104649
9.13274e-05
9.29703e-05
0.000105537
8.54889e-05
9.09914e-05
8.32883e-05
9.1039e-05
9.60152e-05
0.000116756
7.16044e-05
0.000104273
8.53285e-05
7.13008e-05
9.0205e-05
7.22892e-05
6.94846e-05
9.36319e-05
8.73985e-05
7.20974e-05
9.00481e-05
8.73299e-05
9.61965e-05
7.07994e-05
0.000102193
9.79599e-05
7.43528e-05
0.000107104
0.000100328
8.38026e-05
0.000108561
9.95373e-05
7.51894e-05
0.000106883
8.81965e-05
7.20416e-05
9.11769e-05
0.000104652
8.84067e-05
7.20594e-05
0.000107509
9.9643e-05
9.7866e-05
0.000103446
9.74092e-05
9.75936e-05
0.000109716
8.09226e-05
0.000115955
0.000100652
8.26239e-05
0.000112284
0.000118864
0.000101233
0.000103975
9.17127e-05
0.000105479
8.72483e-05
0.000104391
7.78034e-05
9.24517e-05
9.88857e-05
9.92467e-05
9.88431e-05
9.97883e-05
0.000107435
0.000100983
7.11903e-05
0.000106149
0.000102676
0.000132675
9.53159e-05
8.85891e-05
0.000106807
5.43627e-05
8.80044e-05
8.64168e-05
9.93593e-05
7.11164e-05
9.96574e-05
0.00011523
8.92507e-05
9.74087e-05
0.000107949
6.14351e-05
9.21168e-05
9.72679e-05
9.88401e-05
9.25986e-05
0.000123218
0.000115077
6.01904e-05
0.000128558
0.000111427
5.88411e-05
9.03938e-05
0.00010669
5.61864e-05
9.7853e-05
8.83808e-05
0.000110642
9.95297e-05
8.15503e-05
9.06604e-05
5.83645e-05
0.000103319
9.91042e-05
5.86736e-05
0.000116927
0.000101478
6.34433e-05
0.0001048
9.97463e-05
0.000121499
9.58018e-05
9.71607e-05
9.87288e-05
9.16993e-05
6.97098e-05
0.000104352
9.77255e-05
7.02163e-05
0.0001024
0.000101131
6.65038e-05
8.68405e-05
9.09313e-05
8.73738e-05
9.61871e-05
9.46285e-05
9.32365e-05
0.000117665
8.97182e-05
0.000103502
9.79352e-05
6.19647e-05
0.00011694
9.81901e-05
6.24051e-05
8.32958e-05
6.62364e-05
0.000117158
8.96051e-05
0.000116514
9.67989e-05
5.80986e-05
0.000110152
6.1947e-05
0.000105861
9.23995e-05
6.32501e-05
0.000103232
9.79965e-05
0.000102441
6.74604e-05
0.000107231
9.71925e-05
6.06795e-05
8.48801e-05
9.22783e-05
6.67532e-05
6.27257e-05
9.18068e-05
0.000117722
7.48183e-05
9.27771e-05
6.01904e-05
8.8132e-05
0.000121396
0.000109732
7.11892e-05
0.000102978
7.8438e-05
6.37702e-05
0.000110961
9.52329e-05
0.000107343
6.23422e-05
0.000103512
0.000103048
0.000100745
0.000110543
9.74716e-05
0.000107033
5.98671e-05
9.13809e-05
0.000118282
6.70641e-05
6.50779e-05
9.57798e-05
9.14426e-05
8.93879e-05
0.000106905
0.000144629
5.63224e-05
8.7334e-05
8.01898e-05
9.7013e-05
6.49152e-05
5.74148e-05
5.85112e-05
9.54453e-05
6.08797e-05
9.45571e-05
6.36486e-05
6.56824e-05
9.38657e-05
0.000101524
0.000101562
9.88265e-05
6.87303e-05
0.000109549
0.000101516
0.000106987
9.15428e-05
9.2496e-05
0.000122089
0.000120143
0.000105756
0.000101109
7.01879e-05
0.000115399
0.000106519
0.000110244
0.00010649
6.03466e-05
5.94321e-05
8.6373e-05
9.44972e-05
8.76377e-05
9.66599e-05
8.14526e-05
9.34962e-05
8.60386e-05
7.17502e-05
7.30435e-05
8.54134e-05
6.79002e-05
9.59479e-05
9.00713e-05
9.66976e-05
7.23146e-05
9.20911e-05
9.93022e-05
8.85985e-05
9.95848e-05
0.000101551
9.35072e-05
6.6441e-05
0.000106179
9.78279e-05
8.71325e-05
0.000117854
6.32455e-05
9.45351e-05
0.000101708
9.85605e-05
8.3735e-05
9.90181e-05
9.12021e-05
8.97835e-05
7.15882e-05
9.05165e-05
0.00010964
0.000104178
7.75971e-05
6.86312e-05
9.19396e-05
6.3818e-05
7.90877e-05
0.000107557
0.000115107
8.39294e-05
0.000119477
9.77889e-05
9.80558e-05
0.000101036
0.000122613
0.000115201
8.16541e-05
6.41646e-05
0.000105082
8.2838e-05
6.431e-05
0.000107059
0.000108723
0.0001208
8.65878e-05
9.9549e-05
0.000110171
9.10359e-05
9.34839e-05
9.63364e-05
6.61773e-05
0.000104215
8.38433e-05
7.58902e-05
0.000113993
0.000105724
0.000117489
6.74764e-05
9.65819e-05
0.000129126
9.35064e-05
7.01572e-05
7.95727e-05
8.10231e-05
9.32484e-05
6.77174e-05
7.9023e-05
8.6837e-05
6.39989e-05
9.95328e-05
0.000106527
8.91924e-05