/*--------------------------------*- C++ -*----------------------------------*\
| =========                 |                                                 |
| \\      /  F ield         | OpenFOAM: The Open Source CFD Toolbox           |
|  \\    /   O peration     | Version:  v2012                                 |
|   \\  /    A nd           | Website:  www.openfoam.com                      |
|    \\/     M anipulation  |                                                 |
\*---------------------------------------------------------------------------*/
FoamFile
{
    version     2.0;
    format      ascii;
    class       volScalarField;
    location    "0.5";
    object      p_rgh;
}
// * * * * * * * * * * * * * * * * * * * * * * * * * * * * * * * * * * * * * //

dimensions      [1 -1 -2 0 0 0 0];


internalField   nonuniform List<scalar> 
108993
(
0.00472321
0.00583355
0.00775527
0.00200894
0.00188762
0.00117838
0.00502309
0.000462702
0.00356969
0.00639338
0.00800573
0.00774792
0.00215318
0.00869294
0.00445844
0.0146093
0.00651564
0.00531991
0.0021053
0.00456918
0.00122065
0.00222355
0.00818901
0.00296878
0.00210709
0.00324995
0.00238766
0.00510978
0.00323126
0.00159378
0.00281797
0.00864549
0.00231865
0.00619641
0.00169692
0.00168348
0.00253096
0.00376841
0.0234365
0.0179698
0.00747301
0.00500147
0.00874271
0.00191696
0.0156148
0.0198559
0.00239898
0.00486714
0.00171652
0.00497529
0.00270067
0.013122
0.00634447
0.00267971
0.00503632
0.00440797
0.00232566
0.00179524
0.00367349
0.00184789
0.00211253
0.00222897
0.00181959
0.00322345
0.00176834
0.00374267
0.00180412
0.00253026
0.00810542
0.00934083
0.00304511
0.00235326
0.00313013
0.00235006
0.00215751
0.00330339
0.00322721
0.00672842
0.0023662
0.00189986
0.00395138
0.00709395
0.00349574
0.00690887
0.00528567
0.00865072
0.00669898
0.00788801
0.00146243
0.00179737
0.00179114
0.00311951
0.00172112
0.00195223
0.00175329
0.00892575
0.00306724
0.005186
0.00290627
0.00305717
0.00187065
0.00258248
0.00489189
0.00822203
0.00407489
0.00177702
0.00251966
0.000894279
0.00272773
0.0170401
0.0139414
0.00182733
0.0105708
0.0133609
0.00519602
0.0187385
0.00187794
0.00701852
0.0126997
0.003087
0.00738355
0.00234758
0.0137533
0.0077055
0.00324109
0.0128946
0.00768458
0.00527224
0.00225861
0.00190892
0.00892822
0.00210213
0.0043024
0.0206567
0.00473557
0.00657849
0.00245033
0.00468394
0.00208267
0.00864293
0.00748327
0.00355944
0.0137668
0.00228085
0.00206983
0.00351575
0.00449316
0.0149459
0.00763141
0.0280257
0.0291767
0.00309133
0.00879064
0.0295458
0.00411373
0.0103987
0.0066241
0.000730881
0.00139321
0.012428
0.0292286
0.000539687
0.00303636
0.00243683
0.00856024
0.0118285
0.00103836
0.00331
0.00332785
0.00566254
0.00281748
0.00448888
0.0133227
0.00612071
0.00265266
0.00391038
0.0118281
0.00337196
0.00577282
0.00396565
0.00817052
0.00378814
0.00136785
0.00759942
0.00855972
0.00450465
0.00169843
0.00667767
0.0063401
0.00764428
0.00684516
0.00176263
0.00691678
0.0104726
0.00516312
0.00802977
0.00749185
0.00532428
0.00430108
0.00753602
0.00112607
0.0112154
0.00172096
0.000232085
0.00708352
0.0264072
0.00514635
0.0141995
0.0050648
0.128184
0.00996807
0.00469242
0.0117218
0.00251719
0.0287268
0.00428516
0.005404
0.00515557
0.00123039
0.00286982
0.00304319
0.0287502
0.00942084
0.0109924
0.00249635
0.00342637
0.000727762
0.00602167
0.0175516
0.00476288
0.0205464
0.00357117
0.00342036
0.00582536
0.00386277
0.002988
0.00253696
0.00238804
0.00811528
0.000718711
0.00302221
0.00531207
0.00032086
0.000496232
0.00144602
0.0147327
0.00372655
0.0164365
0.000765447
0.00295359
0.00317511
0.00187227
0.00425138
0.0054448
0.00110154
0.000534526
0.00109876
0.0077322
0.00287731
0.0015384
0.00550602
0.00196159
0.0120979
0.0133517
0.00203621
0.00509049
0.00533757
0.00234504
0.00157189
0.00469011
0.000491421
0.00694537
0.0119725
0.0709834
0.0141746
0.00557681
0.00296021
0.00875478
0.00782877
0.00493233
0.0049522
0.0206823
0.0206889
0.00433426
0.00301713
0.0104034
0.00224704
0.00473916
0.00849315
0.0140971
0.00760262
0.00486921
0.0048324
0.00494096
0.00434917
0.00571951
0.00310823
0.00523703
0.00803571
0.000287513
0.0195373
0.0310987
0.00341794
0.000207362
0.00441911
0.00469085
0.00148549
0.00266657
0.00485
0.0101232
0.000842696
0.00239313
0.010539
0.00202646
0.0049913
0.0259408
0.00316921
0.0103708
0.0201864
0.00480756
0.00645432
0.00316545
0.00317302
0.00299142
0.00522824
0.0274054
0.0511842
0.0278011
0.00323319
0.00803477
0.00243948
0.0224579
0.0387599
0.00440407
0.0183354
0.00192062
0.00423701
0.0021127
0.00523976
0.00289694
0.00415207
0.0171273
0.00405062
0.00398856
0.00698746
0.00447661
0.00628655
0.00164819
0.00264751
0.00638869
0.00499237
0.00123345
0.0202236
0.0121957
0.0018221
0.00384165
0.00486598
0.0158179
0.00709317
0.00346557
0.0101575
0.00385736
0.00621038
0.0060743
0.00207361
0.00549226
0.0060058
0.00316674
0.00689041
0.0646933
0.0090934
0.00998134
0.00631579
0.0420922
0.00549888
0.034807
0.00837198
0.00534373
0.0311675
0.0069412
0.0297328
0.0313867
0.00499958
0.0158793
0.00441345
0.00881222
0.00919059
0.0220439
0.00500752
0.0143136
0.0311382
0.00881055
0.0311361
0.00849719
0.0127968
0.00469014
0.0715092
0.00316883
0.0136751
0.00359261
0.00506111
0.00744262
0.0112024
0.00439562
0.00259001
0.00883399
0.00882823
0.00461494
0.00820093
0.0701981
0.0077597
0.0062401
0.0371014
0.00230419
0.00812627
0.00397103
0.0348618
0.00935334
0.0119062
0.00034198
0.115346
0.00616875
0.0633001
0.00335892
0.00142007
0.0588782
0.00270843
0.0175165
0.0570471
0.000349198
0.0710562
0.0205853
0.0643502
0.00228291
0.00502573
0.00705884
0.00100852
0.00359706
0.00377481
0.00413771
0.00646328
0.00597927
0.00620406
0.000531308
0.00963331
0.00928051
0.00846092
0.0134556
0.00608826
0.000361374
0.00845111
0.00145779
0.00616816
0.00759809
0.00384857
0.00446651
0.00693262
0.000672005
0.00707284
0.00339263
0.0122176
0.0079864
0.0121287
0.0233552
0.0106431
0.00694647
0.00161644
0.0124453
0.00704853
0.00731573
0.00766137
0.00202291
0.00356882
0.00902768
0.00112855
0.0126692
0.00393194
0.0090709
0.0120843
0.0142287
0.00385281
0.00384613
0.00413861
0.00586167
0.00916659
0.00702834
0.00736004
0.00685508
0.0135965
0.00574061
0.00684744
0.00427548
0.0135989
0.00725287
0.0153406
0.0015961
0.00939341
0.00569203
0.00650424
0.00525176
0.00234891
0.00415158
0.00446419
0.00665274
0.0150314
0.022668
0.00608444
0.0041494
0.0211189
0.00630522
0.0129412
0.00849545
0.00378046
0.00972879
0.00628901
0.000462132
0.00276284
0.00619649
0.00291145
0.00512938
0.000698087
0.000328696
0.00803821
0.00779566
0.00345615
0.0149108
0.00690683
0.00649457
0.0148689
0.00767065
0.0014277
0.00188066
0.014766
0.00829383
0.00444748
0.00528151
0.00997231
0.00839088
0.00781203
0.0124659
0.00155173
0.0125163
0.000261567
0.00237297
0.0072883
0.00522313
0.00224256
0.0147347
0.005997
0.0032389
0.0183757
0.00146352
0.0233409
0.00273687
0.00647308
0.00147105
0.00272464
0.00728196
0.347351
0.00450965
0.0072359
0.00366019
0.00693433
0.00809994
0.00820509
0.0170621
0.00625374
0.00407046
0.00729092
0.00738811
0.0074818
0.00713116
1.10018
0.00839654
0.0202896
0.00888383
0.00665313
0.00809749
0.0563284
0.00797868
0.00966322
0.00568242
0.00611126
0.00248932
0.00326888
0.0147825
0.0203405
0.00844112
0.00875705
0.0035769
0.00787289
0.00233286
0.00281639
0.00642387
0.0730323
0.00323618
0.00389111
0.00213792
0.00425797
0.0114984
0.0068749
0.00815209
0.102986
0.0111931
0.00835446
0.00238624
0.0725323
0.00223733
0.0107538
0.00758737
0.0288392
0.0080222
0.013713
0.00758872
0.00781327
0.00616752
0.0123178
0.00212513
0.014716
0.00310084
0.0143652
0.00315125
0.00529666
0.0142692
0.00406314
0.00251842
0.00415041
0.0157731
0.0204802
0.0123733
0.0273027
0.00482328
0.0165794
0.0283914
0.0120802
0.00237801
0.00249806
0.0255189
0.015875
0.0130399
0.00540408
0.0129254
0.00540216
0.0101857
0.00442855
0.0123189
0.0094801
0.0117131
0.0149793
0.0123425
0.0120558
0.0157978
0.0124245
0.0184581
0.00834861
0.00276007
0.015936
0.0186845
0.00854923
0.018702
0.0184632
0.00263539
0.0103515
0.00494976
0.00459922
0.00615467
0.00535488
0.0118155
0.0109008
0.0121926
0.012586
0.00754601
0.0122149
0.0183522
0.0186103
0.00205436
0.0111708
0.00773706
0.00226124
0.0159099
0.00535418
0.00863821
0.0106949
0.0119062
0.0145109
0.012173
0.0107005
0.00754201
0.00775153
0.0361604
0.00189734
0.00704728
0.013582
0.0057043
0.0035672
0.0293149
0.00670235
0.0166681
0.00719536
0.0249494
0.0118357
0.00409001
0.00303344
0.00299089
0.0130329
0.000499631
0.0152923
0.00791577
0.00430473
0.00307987
0.0106017
0.0132408
0.0229187
0.00395041
0.0243357
0.00560549
0.0123274
0.0123044
0.00028539
0.0129043
0.00285557
0.0128397
0.0105925
0.014479
0.00598616
0.0134341
0.010179
0.0132307
0.0169424
0.00227681
0.0131528
0.0130208
0.0148402
0.0136742
0.0089091
0.000469915
0.00763961
0.00334107
0.00718455
0.00472915
0.00768762
0.014402
0.0204689
0.0176025
0.0106482
0.00966862
0.0111583
0.011685
0.0107994
0.010678
0.00655482
0.00340897
0.00324734
0.0103791
0.00329168
0.0097023
0.00328735
0.0126569
0.0143623
0.00190363
0.0118176
0.00344598
0.010387
0.00912767
0.00844168
0.0064241
0.00415786
0.01279
0.0023171
0.00616387
0.0092422
0.00975284
0.004483
0.017192
0.0228845
0.00855274
0.0094394
0.0701859
0.0154674
0.00830566
0.00605895
0.0214233
0.00954455
0.00944639
0.00932772
0.00411533
0.00934491
0.000467946
0.00480635
0.0082782
0.00323198
0.0187987
0.00425383
0.00712778
0.0181804
0.012331
0.0238419
0.00913241
0.0416512
0.00162734
0.00945306
0.0128682
0.00183553
0.00885935
0.0122511
0.00420281
0.00619256
0.00796997
0.00534315
0.00586755
0.00833746
0.0072234
0.00336962
0.00858065
0.0064464
0.0224871
0.00452236
0.00831794
0.055955
0.00467656
0.0570501
0.00832297
0.00833784
0.0103359
0.052448
0.010193
0.00469604
0.00885178
0.00784988
0.00447627
0.00554476
0.0133896
0.00986109
0.00875845
0.0156753
0.00449258
0.0090616
0.00897554
0.019114
0.00914633
0.00339695
0.00982897
0.00636263
0.00984611
0.00501534
0.0100222
0.00928012
0.00817381
0.0859443
0.00905902
0.0882843
0.0089822
0.0851238
0.00927843
0.00899263
0.00862323
0.0152115
0.00798995
0.00867912
0.00863822
0.00859833
0.0105851
0.00912838
0.0191731
0.002328
0.00211007
0.00839141
0.0152671
0.0110222
0.0151286
0.00248658
0.00627957
0.0150361
0.0190202
0.00529775
0.0142907
0.0154309
0.00888322
0.00520114
0.00764655
0.0190797
0.0191767
0.0107155
0.0156672
0.00863796
0.0398673
0.00134831
0.0440999
0.0178969
0.0315645
0.0024743
0.00309769
0.0141546
0.0120973
0.0107753
0.000638197
0.00239419
0.0145689
0.0231406
0.00192109
0.0190645
0.00908736
0.00267303
0.0365556
0.00280069
0.00401822
0.0523938
0.0328697
0.00244307
0.00518576
0.000539093
0.00786547
0.0129186
0.0123579
0.0461365
0.00703388
0.0435341
0.0115057
0.0128625
0.00297423
0.00847964
0.0123327
0.00852879
0.00248471
0.00081617
0.0113424
0.00494846
0.0126183
0.00149368
0.00440273
0.0174417
0.00437391
0.0147651
0.0145681
0.0119501
0.0119315
0.00365842
0.0302238
0.00385387
0.0206813
0.00419204
0.0049052
0.00068184
0.0103337
0.0119482
0.00443602
0.0060131
0.0431643
0.0116454
0.0170556
0.00237601
0.0115185
0.0177165
0.0304413
0.00798504
0.0106251
0.0184934
0.0118507
0.00582684
0.0117481
0.00870546
0.0113251
0.0152995
0.0119371
0.0153663
0.014508
0.0078746
0.0138216
0.00755728
0.00923347
0.014727
0.0251655
0.00607728
0.00301682
0.000698519
0.0148741
0.00286666
0.00364468
0.00256475
0.0152593
0.00836738
0.00729149
0.00811338
0.000864312
0.00819516
0.00797893
0.00220396
0.0173736
0.00784671
0.00836834
0.00719689
0.0027193
0.0173738
0.00591378
0.00298995
0.00068763
0.00162069
0.000992587
0.0211425
0.011068
0.00638677
0.00828356
0.00155672
0.0121492
0.0138691
0.0107006
0.00426616
0.00824368
0.0115761
0.00801389
0.00873359
0.0166987
0.00859511
0.00128175
0.0084271
0.00833138
0.00432581
0.00968212
0.00984114
0.00818135
0.00134
0.00772493
0.00429835
0.0141861
0.00752829
0.00984831
0.00040632
0.0074425
0.0102847
0.0136014
0.00787527
0.00912266
0.00743322
0.00595955
0.00892875
0.0100456
0.00641701
0.00259175
0.00397178
0.0332661
0.00903879
0.009798
0.00522065
0.0109928
0.0136802
0.00293813
0.020399
0.0124654
0.0134118
0.0086419
0.018846
0.0119134
0.015395
0.00983207
0.0200804
0.00215447
0.00474034
0.00471825
0.0125163
0.0111733
0.0823216
0.0139054
0.00840357
0.0105291
0.00772936
0.0123676
0.0090817
0.0124754
0.0115541
0.0124988
0.00810136
0.0226183
0.0147261
0.0141115
0.00549441
0.00348357
0.00368708
0.00588685
0.00344275
0.00239897
0.00710999
0.0168857
0.00307777
0.0205397
0.0084333
0.00774962
0.00575478
0.0143978
0.0206731
0.00341297
0.00828113
0.00600705
0.010156
0.00365281
0.0112974
0.0256776
0.0156251
0.00629695
0.0140098
0.000856512
0.00583214
0.00646497
0.000530704
0.00189175
0.00773992
0.101762
0.0150467
0.00233328
0.00619223
0.00371964
0.00912819
0.00882777
0.00359774
0.00520296
0.00593574
0.00572165
0.00333273
0.00747725
0.00758106
0.0045405
0.00758747
0.00146669
0.00559153
0.00493572
0.00518798
0.00811445
0.010327
0.0130725
0.0116896
0.0172063
0.00823296
0.00254626
0.0118705
0.00260122
0.00483015
0.00793438
0.00299924
0.00783078
0.00795504
0.0150109
0.0090618
0.00935995
0.00299748
0.00281561
0.00773435
0.00858741
0.0640748
0.049273
0.00562538
0.00374019
0.00519484
0.00846309
0.0088939
0.00480121
0.0115127
0.00370741
0.00334637
0.0028841
0.00342406
0.00344004
0.00484252
0.00885124
0.00276956
0.0117495
0.00805766
0.00789779
0.00876112
0.0324326
0.00890453
0.00893897
0.00357078
0.00511646
0.0279132
0.000648238
0.0126526
0.008856
0.00885753
0.00884342
0.0332379
0.0104076
0.00269761
0.0132571
0.00337855
0.0139984
0.0125859
0.00883532
0.0038155
0.00697893
0.00966485
0.00702758
0.00952211
0.00325668
0.0221554
0.0206923
0.0117864
0.00509251
0.00265622
0.011548
0.000417857
0.00304826
0.000535147
0.000831001
0.000704255
0.0320713
0.0116616
0.0103972
0.00720012
0.0153804
0.00384069
0.00996198
0.0155279
0.00822513
0.00219799
0.012634
0.0122871
0.00860686
0.0136826
0.00565677
0.0157901
0.00647349
0.00341538
0.00845795
0.00248902
0.00487281
1.85134
0.00575801
0.00488119
0.00424466
0.0271324
0.00643941
0.00457336
0.00903773
0.00814348
0.0162862
0.0162711
0.00486876
0.0100456
0.00710182
0.00570633
0.00360165
0.00687976
0.00195174
0.0105329
0.00268643
0.0209463
0.0100664
0.00320982
0.0140643
0.00371336
0.00156736
0.00393621
0.00976345
0.0561388
0.00835748
0.014738
0.0132646
0.0629358
0.00937061
0.00744631
0.00383557
0.0145883
0.00447555
0.00935076
0.00965665
0.00929903
0.0156334
0.00944733
0.00175391
0.00971973
0.00958617
0.00871325
0.00870529
0.0012295
0.013566
0.00472107
0.00391481
0.00488482
0.00865579
0.00257679
0.00657958
0.00630692
0.0166769
0.002533
0.00546751
0.00131543
0.00755029
0.00137893
0.000316758
0.00576944
0.0108871
0.0198998
0.000189272
0.0122193
0.010668
0.00737643
0.00443092
0.00201777
0.0151299
0.00770136
0.00657885
0.00904613
0.000679706
0.00730407
0.00735411
0.000438296
0.00750294
0.0365419
0.0072984
0.0152882
0.00866794
0.0130198
0.0153485
0.00840451
0.00491932
0.00111688
0.00633269
0.00838195
0.00412925
0.00281321
0.0108731
0.00127634
0.0104862
0.00864905
0.0254183
0.0081719
0.0165797
0.0136205
0.00194093
0.0108862
0.00283241
0.0016666
0.00137148
0.00883279
0.00869327
0.0129464
0.0123819
0.0145823
0.00890371
0.021322
0.0187628
0.0036403
0.00484746
0.00186343
0.00816568
0.00874962
0.00827331
0.0315152
0.00272678
0.00335097
0.00870373
0.00830868
0.0011332
0.00928157
0.00956934
0.020267
0.0193749
0.00800727
0.00348517
0.0185699
0.00233899
0.00673071
0.0153352
0.00902519
0.00977577
0.00648952
0.00675332
0.00962907
0.00816607
0.0216073
0.0135731
0.0074104
0.0216684
0.0103503
0.00667512
0.0153456
0.0288766
0.00626063
0.00876915
0.00633343
0.0110272
0.0132438
0.00348653
0.00620134
0.013869
0.0172601
0.0126179
0.00598892
0.00605491
0.0163291
0.00504317
0.00216052
0.0140873
0.0052131
0.00276866
0.00507628
0.00896773
0.0180096
0.00209949
0.00404674
0.0201815
0.00549102
0.0171791
0.00502012
0.0143223
0.00521279
0.00999686
0.0123919
0.00770242
0.00992992
0.0210483
0.0073776
0.0084007
0.0158463
0.00196883
0.00292371
0.00406314
0.0172952
0.0141208
0.00379276
0.0139961
0.00299643
0.0115444
0.0176853
0.0327097
0.009198
0.0206315
0.00248268
0.0291749
0.00636043
0.00284262
0.00362512
0.0029875
0.00293726
0.00243171
0.00368979
0.000364306
0.00852867
0.0263354
0.0163976
0.00762391
0.000381872
0.00463534
0.00149484
0.000227027
0.000675639
0.00485961
0.0172628
0.010572
0.0038783
0.00551609
0.00533742
0.0143738
0.00598451
0.00404402
0.0112348
0.00616322
0.00318402
0.00344508
0.00528807
0.0193571
0.008282
0.0122136
0.0301668
0.00344564
0.00723207
0.0259581
0.00254639
0.00319163
0.00142306
0.011742
0.0149315
0.0073382
0.0231802
0.00221269
0.0010873
0.0367061
0.00271783
0.00519314
0.00767428
0.00310126
0.00855459
0.00259592
0.0048084
0.00391188
0.0049871
0.0259747
0.0184723
0.00500714
0.0181872
0.0163658
0.00133471
0.0139885
0.00619421
0.00286741
0.00264266
0.0054652
0.00248827
0.00541267
0.00835233
0.00204048
0.011712
0.0192911
0.0270445
0.0181064
0.000580573
0.00555336
0.0213742
0.0260682
0.00401267
0.0135791
0.00419209
0.00265804
0.00703778
0.012399
0.0222919
0.013456
0.00442983
0.0225917
0.0209606
0.0262182
0.00483932
0.0124988
0.006853
0.00694578
0.0177258
0.00882383
0.0223648
0.0066377
0.00128849
0.00649429
0.0108953
0.00661204
0.00543467
0.00940875
0.00559688
0.00820856
0.0142315
0.0205541
0.0219453
0.00382438
0.00327568
0.0243602
0.000681329
0.00416202
0.0220826
0.00225134
0.0299898
0.00530532
0.00355943
0.00486655
0.00421579
0.00386412
0.00522496
0.0181862
0.0162875
0.00419182
0.023164
0.00386809
0.0235449
0.00560623
0.00905162
0.00781317
0.00819002
0.00446634
0.0038803
0.00385125
0.00478353
0.0102523
0.00455698
0.0038302
0.0121789
0.0368221
0.0053633
0.0131337
0.0219955
0.0161048
0.000502938
0.00973062
0.00374401
0.0045116
0.00257551
0.00302592
0.00409599
0.00577926
0.00968142
0.0250744
0.0125155
0.0167993
0.0196252
0.0127527
0.00436072
0.00786494
0.0257063
0.0099767
0.0225806
0.00212389
0.0132797
0.00172475
0.029574
0.00887385
0.00839881
0.00778426
0.0035507
0.00117055
0.00200646
0.0358718
0.00216215
0.00801552
0.00226462
0.0239987
0.0276005
0.00163555
0.00043007
0.0192527
0.0312884
0.0124442
0.0254362
0.00304425
0.023041
0.0240218
0.00285933
0.00889899
0.0148839
0.0135227
0.0076262
0.00591798
0.00781096
0.0270598
0.012252
0.00772395
0.0191039
0.010725
0.00805199
0.00535251
0.0248534
0.0451521
0.01502
0.0206525
0.00758685
0.00929589
0.00869053
0.00931461
0.0220685
0.0157636
0.0106745
0.00398507
0.00564014
0.0101082
0.00635509
0.00132645
0.00857869
0.0097237
0.00298217
0.00788108
0.00771519
0.00248677
0.0217042
0.0207939
0.00992805
0.0297465
0.00783632
0.000602348
0.013383
0.0321937
0.014914
0.018023
0.0171348
0.0181711
0.0284329
0.0274977
0.0236054
0.00967548
0.0194135
0.00396569
0.00843569
0.00916843
0.620824
0.0104111
0.014465
0.020283
0.0176108
0.0347573
0.0201744
0.00997545
0.00795439
0.00399991
0.000336834
0.00456868
0.00983695
0.00282985
0.0103412
0.0125233
0.0328122
0.024917
0.024615
0.0125579
0.0257668
0.00924373
0.0177013
0.0109759
0.0179682
0.0327055
0.0385016
0.00659316
0.00837845
0.00492164
0.00298622
0.00166993
0.00130438
0.013331
0.0093608
0.00909995
0.0186278
0.00768398
0.0144691
0.0214093
0.0204097
0.0224337
0.0159652
0.00108435
0.0418846
0.0139377
0.00493813
0.00791275
0.0238558
0.0154044
0.00311373
0.00871473
0.00814855
0.00917182
0.00207547
0.032631
0.0350339
0.0349386
0.0237664
0.00341297
0.0322575
0.0138811
0.00319531
0.0145971
0.0057879
0.00627266
0.021317
0.00714714
0.006084
0.0573187
0.00915908
0.00893867
0.00631021
0.0082889
0.000935051
0.0032569
0.0141464
0.00774733
0.00725476
0.0256966
0.0260305
0.0126562
0.00933543
0.00824166
0.00286174
0.00847431
0.00670772
0.00622754
0.0174328
0.0172549
0.00638979
0.00360443
0.0196975
0.00710192
0.00194444
0.00684518
0.00711028
0.0123985
0.0139612
0.0206193
0.0203987
0.020659
0.00188538
0.0152701
0.00709445
0.00294273
0.0137469
0.00327356
0.0137224
0.00404497
0.00517621
0.0158992
0.00173959
0.0064256
0.0134244
0.0138943
0.0141678
0.0137491
0.00565933
0.0154807
0.0142153
0.0108517
0.00879258
0.0144769
0.0130739
0.0140871
0.0116228
0.0188817
0.00437077
0.00538038
0.0133969
0.0327839
0.0126748
0.0293041
0.0186794
0.0135395
0.0035284
0.00124446
0.0505148
0.0141041
0.0161048
0.0193045
0.009277
0.0436954
0.0182358
0.00185231
0.0124339
0.000852349
0.014185
0.00435389
0.015875
0.0192727
0.00433986
0.0145488
0.0038682
0.0129701
0.0135713
0.00144046
0.00463163
0.0140823
0.00426387
0.00620101
0.00325419
0.00187802
0.0129597
0.00101405
0.0138359
0.0210886
0.00332739
0.00249284
0.0193699
0.00870079
0.00815211
0.0119363
0.00821122
0.00823678
0.00228198
0.00712616
0.00716663
0.00736098
0.0180027
0.00707385
0.00356406
0.0125216
0.00438131
0.0110208
0.0267646
0.00346035
0.00346407
0.0103922
0.00679521
0.0172971
0.000229346
0.00280394
0.000340027
0.000527543
0.00274305
0.0249326
0.0337108
0.0107556
0.00544234
0.0415508
0.00817665
0.0139909
0.00036461
0.0169854
0.00408073
0.0235988
0.0112579
0.00877602
0.00175684
0.00309494
0.0151105
0.0124643
0.000306593
0.00764275
0.0086342
0.00153396
0.0125223
0.0112548
0.00493872
0.00952913
0.00540346
0.0161093
0.00536927
0.000144485
0.00239949
0.00562632
0.00215049
0.0149315
0.0117575
0.000405922
0.000473615
0.015468
0.0034273
0.00802634
0.00659007
0.00353291
0.0210232
0.0168126
0.00670312
0.00418232
0.0052875
0.00840032
0.0153045
0.0070031
0.0173338
0.00649937
0.0190511
0.0118803
0.00191252
0.024535
0.0133919
0.0210614
0.0206129
0.0157777
0.00869244
0.00604336
0.00328425
0.0120089
0.00930064
0.0133557
0.0173627
0.00612736
0.0119241
0.00616352
0.0164396
0.01368
0.0133433
0.00617634
0.0160564
0.00732453
0.0035132
0.0201967
0.00748786
0.00105294
0.00268527
0.0145759
0.0119678
0.0123334
0.00448196
0.00337458
0.00654425
0.0174557
0.00688573
0.0187639
0.00341457
0.00349859
0.0193575
0.0282539
0.00105561
0.00710969
0.0195001
0.00733734
0.00759423
0.00502074
0.0169704
0.0160409
0.0225823
0.000921069
0.0200557
0.0219611
0.00970907
0.025177
0.0089005
0.035554
0.0023555
0.00926352
0.0212212
0.0216999
0.0285353
0.0349878
0.032551
0.0337946
0.000838387
0.0568867
0.0139989
0.0253418
0.000831186
0.0396253
0.0363833
0.000484012
0.0133695
0.0301959
0.00134097
0.0234539
0.000987943
0.0176305
0.0148676
0.0256404
0.0116118
0.0162879
0.00210912
0.00114166
0.00571656
0.00536713
0.0313972
0.00351003
0.0170876
0.00818133
0.000819307
0.000671335
0.000798831
0.00731089
0.00367804
0.00223517
0.0116353
0.00307289
0.0159468
0.00722391
0.0164449
0.000676063
0.0125659
0.00760736
0.0116127
0.00889936
0.000959306
0.000968685
0.00671447
0.00966537
0.00685455
0.0240049
0.0240097
0.0180107
0.0123206
0.00926378
0.00958084
0.00183713
0.00867068
0.0124683
0.00975254
0.00860523
0.0144833
0.0154123
0.0242277
0.00959782
0.00909543
0.00687062
0.0113839
0.0142494
0.00129055
0.00556657
0.00902144
0.0159998
0.0243002
0.00577502
0.0279374
0.0043172
0.0066776
0.0224398
0.029282
0.004561
0.0095183
0.00932122
0.00781367
0.00958703
0.0086896
0.005638
0.0163826
0.00357672
0.0066413
0.0073359
0.00945165
0.0328279
0.00462301
0.00940705
0.00594812
0.0163646
0.00441245
0.0018149
0.0165554
0.0131686
0.0137536
0.00686403
0.00111487
0.00450802
0.0186703
0.0874797
0.00245844
0.0114346
0.086128
0.00897873
0.00862766
0.0120257
0.00922647
0.0864354
0.00456289
0.00830244
0.00575636
0.00747777
0.0845056
0.00759698
0.000146179
0.00907157
0.00940095
0.00529002
0.00030527
0.00581145
0.00456835
0.000226357
0.00868746
0.00690492
0.000342783
0.0144504
0.000182861
0.0121064
0.0186208
0.00476607
5.03733e-05
0.0172472
0.0180403
0.00585336
0.00848373
0.00141507
0.00439204
0.00778382
0.00783186
0.00724928
0.0192464
0.00729887
0.00558097
0.00598656
0.00623325
0.00955936
0.00807523
0.0150356
0.016346
0.0194521
0.0182
0.0193713
0.0149754
0.0145959
0.00847293
0.00676788
0.0188994
0.00854269
0.0064847
0.0283344
0.00852709
0.0181285
0.00821492
0.00857049
0.0105504
0.00717109
0.0102447
0.00636848
0.0104547
0.00765873
0.00620867
0.0156634
0.00777897
0.0166411
0.00703453
0.00762359
0.00636778
0.0141922
0.0154027
0.00592493
0.0100769
0.0142613
0.0120713
0.00603352
0.00629554
0.00357094
0.0201823
0.0090206
0.0126326
0.00932232
0.00861574
0.00610351
0.00820844
0.0118497
0.0140836
0.0036726
0.00357027
0.00741611
0.0129263
0.00772906
0.00484408
0.0107229
0.00669884
0.0058201
0.00577644
0.00501319
0.0105398
0.00903781
0.00959934
0.00832556
0.0049131
0.00773294
0.00505773
0.00544091
0.00554068
0.0106416
0.0049857
0.00533859
0.0255504
0.00471725
0.0135532
0.0265764
0.00252299
0.00596352
0.0117709
0.0040705
0.00178377
0.00456545
0.00228785
0.00410178
0.0154966
0.0154254
0.0121118
0.00725301
0.0101749
0.00228081
0.0133815
0.0148284
0.00227511
0.00414014
0.0129342
0.00228828
0.00381069
0.0157997
0.00388497
0.0096047
0.0106342
0.0041372
0.00227258
0.0129037
0.0207761
0.0183938
0.00733283
0.0029424
0.00228722
0.00497766
0.00878522
0.00843817
0.00275407
0.00429621
0.00759594
0.0133578
0.00315325
0.00437207
0.00443792
0.0189698
0.00929552
0.0127671
0.0188204
0.0111934
0.00677264
0.0104185
0.0102878
0.00026059
0.00850997
0.0511632
0.0090751
0.00715243
0.00652489
0.0188112
0.00746529
0.00716356
0.0188723
0.00987305
0.0189828
0.00749716
0.0096179
0.00735479
0.00740927
0.0166225
0.0075095
0.0167852
0.00940486
0.00784178
0.0169044
0.00621361
0.00823203
0.00898752
0.0170538
0.00906424
0.0146585
0.0167018
0.00886682
0.0165703
0.0169985
0.0123384
0.0133825
0.00282834
0.012775
0.0295354
0.012545
0.0208638
0.00291759
0.00525418
0.0126363
0.00767718
0.012637
0.00827955
0.0077534
0.00407173
0.00230436
0.0084289
0.0045479
0.00801583
0.00924455
0.00100869
0.00805797
0.00058012
0.00809382
0.020142
0.00170412
0.00892361
0.00845162
0.0204909
0.00489011
0.00928896
0.0220825
0.0032963
0.00815212
0.0141718
0.0102836
0.00569391
0.00823703
0.0035883
0.00353762
0.00837766
0.00344885
0.0133852
0.00752312
0.00739465
0.0189671
0.0105109
0.00818201
0.00678557
0.00751535
0.00843956
0.00395042
0.00726824
0.0104375
0.00944542
0.00925073
0.00840632
0.0151662
0.018513
0.00738795
0.00881505
0.0277823
0.00811342
0.00444284
0.00751944
0.0198133
0.0147136
0.00866702
0.0152598
0.00753014
0.015564
0.00802709
0.0263372
0.00845216
0.0121672
0.0155234
0.00828129
0.00891562
0.00825577
0.00909968
0.00856489
0.00974338
0.00938779
0.0174142
0.0199694
0.0111557
0.00505158
0.0214544
0.0078583
0.00325134
0.0132715
0.00371768
0.0214919
0.00332823
0.0282372
0.0298635
0.0212087
0.00161093
0.00567973
0.0021884
0.0217594
0.00770498
0.0268491
0.00591504
0.0220069
0.0217954
0.0116176
0.00600854
0.0303001
0.00740014
0.00863663
0.0227167
0.0115305
0.0088144
0.0139606
0.00799207
0.012231
0.00195557
0.00733659
0.00587917
0.00408906
0.00876855
0.00566669
0.00689238
0.0287797
0.00830006
0.010387
0.00777104
0.0126847
0.0125081
0.00851173
0.00734612
0.00573838
0.00904704
0.0114694
0.00501452
0.00878934
0.00806383
0.0100769
0.00587632
0.0104464
0.0075028
0.0273854
0.0057387
0.0123582
0.00993202
0.0183111
0.00363633
0.00680754
0.00990021
0.00372808
0.00822956
0.0273523
0.00630783
0.0109739
0.00381033
0.00771004
0.008596
0.0102441
0.0038232
0.00801543
0.00925211
0.00274682
0.0149443
0.0234492
0.00389878
0.01311
0.00389512
0.0120871
0.0125648
0.00265399
0.00215912
0.0162872
0.00696758
0.00475862
0.00156601
0.00693372
0.00512241
0.00168433
0.00113678
0.0196004
0.0171916
0.000512838
0.00947987
0.00240705
0.00177965
0.00497173
0.00812888
0.00230843
0.00751674
0.0123536
0.00571069
0.00245359
0.00740929
0.00475001
0.0122332
0.0122678
0.00365609
0.0021089
0.00493131
0.0187388
0.00240201
0.00291308
0.00388738
0.00416046
0.00372794
0.00357451
0.00349015
0.0139788
0.0046729
0.00360621
0.00497268
0.0219752
0.0213253
0.00452044
0.00758813
0.0109444
0.0019006
0.00741556
0.0389581
0.000879985
0.0131407
0.0194342
0.00809415
0.00584121
0.00185666
0.0114857
0.00759263
0.00833299
0.0082703
0.00634175
0.00806932
0.00834917
0.00822647
0.0126143
0.00792643
0.01354
0.0035992
0.0090659
0.0214468
0.00827516
0.00861104
0.00224799
0.0187628
0.0245211
0.00343472
0.0043485
0.00176496
0.00718128
0.00779509
0.0182814
0.00818326
0.00792836
0.00779574
0.0107565
0.00162977
0.0085353
0.0197979
0.00324226
0.00224363
0.00456382
0.00286097
0.00808936
0.00990943
0.00421593
0.00876573
0.0073667
0.00698112
0.00397965
0.00455967
0.0168525
0.00311283
0.00161408
0.00775715
0.00454756
0.00453054
0.00227303
0.0165635
0.0110406
0.0198768
0.00715479
0.00490439
0.00136244
0.00213767
0.011338
0.00846741
0.0365607
0.00241379
0.00455275
0.0045595
0.017699
0.0187466
0.0115477
0.00453209
0.0375772
0.0393889
0.0105463
0.0381249
0.0279426
0.00476299
0.0155684
0.0159062
0.000530008
0.00475733
0.000623339
0.00631925
0.00339688
0.00704368
0.031538
0.0167751
0.0275121
0.0138386
0.0280318
0.00590399
0.00832066
0.0081747
0.0249735
0.0124582
0.0234883
0.0125478
0.0220842
0.0208614
0.00309854
0.0104773
0.0260654
0.00877929
0.00627167
0.019788
0.00901656
0.00293818
0.026016
0.0195772
0.000825588
0.00846794
0.00207403
0.000889786
0.00756287
0.00289493
0.0029048
0.00884961
0.0198447
0.00394756
0.00999038
0.00682026
0.0260543
0.01024
0.00787963
0.00309683
0.00428644
0.0313062
0.00405437
0.00395328
0.0121144
0.00302133
0.00496077
0.00446304
0.00623689
0.014177
0.0114962
0.00595341
0.000873465
0.00584895
0.0074886
0.00442652
0.0112223
0.00436681
0.00860294
0.0077967
0.00574988
0.00870923
0.00428654
0.00374156
0.00442831
0.00897797
0.00665094
0.00638792
0.0055998
0.00570202
0.00630104
0.0129071
0.0064088
0.0340606
0.00575948
0.00152152
0.00467107
0.0047347
0.00367726
0.0059299
0.00942955
0.0349371
0.0130593
0.0368553
0.00564783
0.010252
0.0110664
0.0367737
0.0350959
0.0120668
0.00575397
0.00695089
0.00586251
0.00117548
0.00710034
0.00238024
0.0037836
0.00940819
0.0518733
0.00332447
0.0183185
0.00353666
0.00746551
0.00559875
0.00334871
0.00787834
0.00164408
0.0053173
0.0201194
0.00686145
0.00219202
0.00343212
0.00676132
0.00836692
0.00453134
0.00875981
0.0215327
0.0056969
0.021117
0.00127532
0.0017612
0.008447
0.0214086
0.0220881
0.0220569
0.0203178
0.0203786
0.00916932
0.018829
0.0110406
0.0213604
0.00833431
0.00425131
0.00194561
0.00197939
0.010251
0.0168681
0.011713
0.00722511
0.0170214
0.016802
0.00856495
0.0165349
0.0189387
0.00482841
0.00198859
0.00230156
0.0235833
0.0241422
0.0169528
0.00119429
0.0237628