/*--------------------------------*- C++ -*----------------------------------*\
| =========                 |                                                 |
| \\      /  F ield         | OpenFOAM: The Open Source CFD Toolbox           |
|  \\    /   O peration     | Version:  v2012                                 |
|   \\  /    A nd           | Website:  www.openfoam.com                      |
|    \\/     M anipulation  |                                                 |
\*---------------------------------------------------------------------------*/
FoamFile
{
    version     2.0;
    format      ascii;
    class       surfaceScalarField;
    location    "0.5";
    object      phi;
}
// * * * * * * * * * * * * * * * * * * * * * * * * * * * * * * * * * * * * * //

dimensions      [1 0 -1 0 0 0 0];
oriented        oriented;


internalField   nonuniform List<scalar> 
210647
(
7.24645e-06
-8.10248e-06
-6.7721e-06
7.62778e-06
4.97695e-06
-2.60442e-06
7.18357e-06
-9.55638e-06
5.73441e-06
-8.2995e-06
1.97146e-06
5.9352e-07
-1.46487e-05
6.17486e-06
5.68291e-06
2.79093e-06
-2.60416e-06
7.41836e-06
-2.25581e-06
-2.5585e-06
1.70878e-08
2.66678e-07
5.30093e-10
-2.8429e-07
-9.36319e-06
3.26476e-07
3.98097e-06
5.05546e-06
-1.24211e-08
-5.59667e-07
5.7204e-07
4.50793e-06
9.11435e-06
6.17087e-06
-1.97932e-05
-9.85202e-07
5.43622e-06
-2.782e-06
-1.66941e-06
3.69897e-06
1.14321e-06
4.18538e-06
-9.02797e-06
2.19495e-06
7.07608e-06
-3.8132e-06
-5.45824e-06
-5.8821e-06
6.07664e-06
-4.13343e-06
3.93894e-06
-1.14646e-06
2.37998e-07
-4.01233e-07
1.30938e-06
-4.651e-06
1.7181e-06
-2.24154e-06
5.17415e-06
-1.75382e-05
2.13892e-05
-1.59997e-06
-2.25139e-06
-3.49801e-06
3.93067e-06
9.41995e-07
-1.37498e-06
1.92121e-06
-2.55442e-06
2.81482e-06
-2.18191e-06
1.36916e-05
3.63775e-07
-7.05466e-06
-7.00074e-06
-4.53997e-06
-6.6933e-06
-1.12304e-06
1.23562e-05
-5.24555e-08
3.19537e-06
-3.14298e-06
6.45031e-06
1.29965e-05
-6.94083e-06
-1.25063e-05
-3.30663e-06
2.53469e-07
5.23055e-06
-2.17773e-06
6.5554e-06
-6.57206e-06
-6.07504e-06
6.09128e-06
-6.58805e-06
8.28979e-06
-3.59433e-06
1.89257e-06
1.52551e-07
-2.40197e-06
2.87966e-06
-6.30273e-07
9.01691e-06
1.26278e-05
-5.99171e-06
-1.56531e-05
1.36574e-05
2.89762e-07
-2.18318e-06
-1.17642e-05
-1.27697e-05
5.46472e-06
-2.34489e-06
9.64982e-06
3.16935e-06
-4.94503e-08
-3.05288e-06
-6.70829e-08
-1.63265e-05
1.19772e-05
-6.19638e-06
1.05456e-05
-2.23815e-06
-6.65088e-07
1.22482e-06
1.6779e-06
-4.99579e-06
1.40125e-05
-7.00008e-07
-9.68926e-06
1.15567e-05
-1.16788e-06
-1.46555e-05
-5.18125e-06
2.17839e-05
-1.94766e-06
-1.65697e-06
7.83167e-07
6.74311e-06
-5.86946e-06
1.16203e-05
-2.98255e-06
-1.10864e-06
-7.52907e-06
-1.08376e-06
8.92062e-06
-7.83707e-06
-2.36884e-05
-9.08001e-06
1.94317e-05
1.3336e-05
3.77913e-06
-6.6064e-06
-1.16578e-05
1.44844e-05
2.69863e-06
9.6788e-06
-1.28872e-05
5.09258e-07
-3.62003e-06
-3.78169e-06
-4.02677e-06
1.14282e-05
-5.10189e-08
-6.20115e-07
6.70808e-07
-1.45345e-06
-1.29506e-05
1.44039e-05
4.14342e-06
-1.00898e-05
3.32672e-06
2.61903e-06
1.07179e-06
5.05402e-07
-6.43784e-06
4.86033e-06
6.62436e-06
8.56274e-07
-6.66883e-06
5.81207e-06
7.04786e-06
-6.97824e-06
-4.74082e-06
4.67085e-06
-7.12717e-06
3.28776e-07
-1.47759e-05
2.15744e-05
-9.19125e-06
1.5402e-05
-8.39286e-06
2.18213e-06
2.49019e-05
-1.16954e-05
-1.61858e-05
2.97826e-06
-4.44851e-06
-4.43301e-06
-2.2387e-07
9.1051e-06
-5.67255e-06
7.86808e-06
-2.92279e-06
7.27162e-07
6.47028e-07
2.11364e-06
1.13475e-06
-3.89589e-06
5.55102e-06
1.94538e-06
4.01007e-07
-7.89786e-06
-1.74608e-06
1.49269e-05
-6.86118e-06
-6.31968e-06
-2.76341e-06
1.68922e-06
-2.00164e-06
3.07586e-06
5.26774e-06
1.48179e-06
-6.99869e-06
2.49159e-07
4.75352e-06
-7.60167e-06
3.22095e-08
2.81579e-06
5.80149e-06
-7.8766e-06
-1.08819e-06
3.1632e-06
-2.55046e-07
5.48416e-07
-1.04032e-05
1.01097e-05
-7.17867e-07
4.19757e-06
-7.71552e-06
4.23561e-06
-2.10658e-06
-1.78322e-07
-6.80609e-07
2.96555e-06
7.50782e-07
1.05317e-05
-2.57083e-06
-8.71146e-06
-7.17823e-06
8.96212e-06
1.0101e-06
-2.79429e-06
-6.14394e-06
1.38521e-06
4.75871e-06
-9.77745e-06
6.7053e-06
1.96976e-06
1.10234e-06
4.45069e-06
-4.55071e-06
-1.95435e-06
2.05393e-06
-2.40211e-06
1.96417e-06
4.29378e-06
-3.85647e-06
-3.94464e-07
-7.07644e-06
6.50405e-07
6.82013e-06
-6.01679e-06
1.40056e-06
7.15371e-06
-2.53757e-06
6.00649e-06
-2.63731e-06
2.33435e-06
-5.70346e-06
1.30141e-06
-4.94154e-06
-2.37674e-06
-2.83732e-06
8.15297e-06
4.24424e-06
-9.56002e-06
1.19119e-05
-8.22438e-06
-4.75107e-06
1.06344e-06
-2.13141e-06
2.48389e-08
-9.54748e-06
1.09215e-05
-2.37209e-06
9.97324e-07
8.06277e-06
-1.7523e-05
1.02794e-05
-8.19207e-07
-1.74259e-07
-1.11833e-05
1.33389e-07
1.12243e-05
-1.58226e-06
-5.80927e-06
8.19117e-07
6.57245e-06
3.56515e-06
-3.67341e-06
-2.75797e-07
3.83788e-07
3.65642e-06
1.01534e-05
-7.94835e-06
-5.86147e-06
9.33504e-08
-5.06886e-06
4.97525e-06
-2.7189e-06
2.02725e-06
-1.67329e-06
2.36445e-06
2.14929e-07
5.37525e-07
-1.57684e-06
8.24066e-07
-6.10928e-06
-3.24174e-06
1.14433e-05
-2.09265e-06
-2.68325e-07
-4.78421e-06
3.45246e-07
4.70713e-06
-7.18988e-07
-1.21657e-07
3.97937e-06
-3.1387e-06
7.04791e-06
6.38798e-06
-5.84533e-06
-7.59065e-06
-6.10043e-06
2.31635e-06
4.34477e-06
-5.60692e-07
3.16837e-06
4.7183e-06
2.04026e-06
-9.92692e-06
2.72787e-06
-8.62619e-07
-7.96578e-06
-2.03238e-06
2.83599e-06
-8.03649e-07
6.69649e-06
-7.0536e-06
-3.42877e-06
3.78598e-06
-5.81418e-07
-1.02396e-06
4.21218e-06
-2.60731e-06
4.70436e-06
3.21483e-06
-4.75079e-06
3.3493e-06
1.28411e-07
1.19115e-06
-4.66888e-06
-4.92725e-06
4.79631e-06
-2.6427e-07
3.9516e-07
1.08408e-06
3.87347e-06
-5.27563e-06
3.18078e-07
3.76785e-06
-7.22704e-06
-1.03678e-06
4.49596e-06
-4.64875e-07
-8.12663e-06
2.04147e-05
-1.18234e-05
7.70604e-06
-4.69603e-06
-3.78455e-06
7.74245e-07
-1.99131e-06
4.16508e-06
2.13962e-06
-4.31395e-06
3.30176e-06
-5.30029e-06
2.36667e-06
-3.68389e-07
9.42435e-06
6.2427e-06
1.57851e-06
1.45256e-06
-9.27424e-06
-7.6967e-06
-3.17468e-05
1.27246e-05
2.67172e-05
4.21425e-06
6.97026e-06
-9.6723e-06
-1.51238e-06
-8.99722e-07
2.34127e-07
-1.88159e-05
1.94804e-05
1.15819e-05
-9.14323e-06
1.10131e-05
-1.34521e-05
4.50029e-06
7.24047e-06
8.51571e-06
-7.26612e-06
-1.25001e-06
-2.60872e-05
2.00037e-05
1.50408e-05
-8.95807e-06
5.87382e-06
-1.40104e-06
3.62577e-06
-8.09865e-06
-7.62759e-06
3.24691e-05
8.11182e-06
-3.29536e-05
4.6634e-06
-2.20245e-06
4.2057e-07
-2.88155e-06
3.76332e-06
3.24337e-06
-6.42767e-06
-5.79068e-07
2.6189e-05
-1.73763e-05
-1.05622e-05
1.74858e-06
3.92646e-06
1.06552e-05
-9.86324e-06
-7.76254e-07
-6.89881e-07
-8.50046e-07
2.31576e-06
5.12958e-06
-1.31007e-05
3.39418e-06
4.57685e-06
4.73e-05
-2.99052e-05
-2.66902e-05
9.29508e-06
1.55895e-06
2.01329e-06
2.35531e-07
-3.80807e-06
-1.02951e-06
-5.42677e-06
6.45616e-06
8.68821e-06
-5.71562e-06
-1.63547e-05
1.33815e-05
1.01889e-05
5.13345e-06
-1.02457e-05
-5.07682e-06
8.36867e-06
9.1366e-07
-7.40211e-06
-1.88057e-06
-9.09651e-06
7.12881e-06
7.0972e-06
-1.99925e-05
-9.52664e-06
1.27675e-05
1.67515e-05
-5.33669e-07
-4.93273e-07
-3.53556e-06
4.56217e-06
1.45992e-06
-9.36641e-06
-1.20862e-05
-1.02061e-05
-3.24892e-06
1.19899e-05
1.46481e-06
-1.82039e-05
7.29545e-05
-3.97171e-05
-1.5034e-05
1.16364e-05
-3.4026e-06
6.83543e-07
-8.91746e-06
1.13424e-06
-7.00052e-06
-5.96122e-07
6.46214e-06
-1.36325e-06
-1.28437e-05
5.11039e-06
-2.8616e-06
-5.40254e-06
-1.308e-06
9.57184e-06
-5.59043e-06
8.11405e-07
5.4643e-06
-6.85493e-07
7.87923e-07
-5.15055e-07
8.07501e-07
-1.08072e-06
-6.44231e-06
-3.25963e-06
9.55431e-07
8.74617e-06
4.53668e-06
1.83024e-07
-6.26906e-06
1.54914e-06
-8.97489e-06
7.64639e-06
4.79117e-06
-3.46326e-06
2.21093e-05
-3.99523e-06
-1.05545e-05
-7.55971e-06
1.07805e-05
1.80214e-06
7.84655e-06
-1.76685e-06
1.22468e-06
-7.30457e-06
4.30728e-06
-1.50706e-06
-4.05759e-06
1.25729e-06
-1.37032e-05
1.95332e-06
1.17496e-05
-7.45972e-06
2.57596e-06
-7.2622e-05
1.93928e-05
1.50371e-05
3.81909e-05
-1.29238e-05
-3.83808e-05
-2.13185e-05
1.42032e-06
7.52337e-07
-1.99511e-06
-1.77578e-07
-1.35479e-06
-1.33837e-06
-1.00748e-07
2.79376e-06
5.25302e-05
4.12472e-05
-3.12027e-05
-6.25762e-05
-9.29177e-06
2.60332e-06
-3.58213e-06
1.02705e-05
-1.61194e-05
1.11717e-05
-6.4226e-07
5.5896e-06
9.03629e-07
-1.60051e-06
1.12097e-05
-1.05135e-05
2.11855e-05
-2.83773e-05
-1.21927e-05
1.93841e-05
-3.04421e-05
-2.49845e-05
3.72926e-05
1.81339e-05
5.8038e-06
1.01477e-06
-8.98832e-06
2.16915e-06
0.000102903
-6.3298e-05
-1.82163e-06
1.24983e-07
-5.17142e-05
-8.22809e-07
-1.4735e-06
-5.8231e-06
8.11926e-06
-1.22939e-07
6.83441e-06
-6.29326e-06
-4.18352e-07
5.90646e-07
2.36626e-07
1.90146e-06
-2.72907e-06
4.78277e-06
1.64652e-05
4.77201e-07
-2.17259e-05
-1.57969e-06
2.01952e-06
-2.97611e-07
-1.42233e-07
1.59888e-06
-1.81032e-06
2.11421e-07
-5.32599e-07
8.43095e-06
1.34062e-06
-1.01924e-05
4.20527e-07
-4.37323e-06
4.57798e-06
-9.24639e-06
9.04156e-06
-7.97859e-06
6.42992e-06
2.31417e-06
-7.66044e-07
-8.34152e-06
1.79138e-05
6.06912e-06
-1.56422e-05
-5.42418e-06
-5.99362e-06
6.41417e-06
5.00359e-06
-2.18124e-06
6.12896e-06
9.09885e-06
-1.30467e-05
7.89424e-06
8.44327e-07
-5.48274e-06
-3.25587e-06
-6.63257e-06
2.98861e-05
-4.45619e-05
2.13079e-05
-2.07786e-06
-1.2544e-07
3.92964e-07
2.51131e-06
9.67166e-06
-6.23292e-06
-5.95021e-06
7.98037e-06
-1.54484e-06
-5.83517e-06
-6.00357e-07
-2.93237e-06
-8.18256e-07
-1.9619e-06
5.71206e-06
1.33168e-06
-9.55073e-06
2.45516e-06
5.7639e-06
2.66184e-05
-6.3374e-06
-6.24646e-06
-1.40347e-05
-9.45527e-07
1.2979e-06
-6.05785e-07
2.53323e-07
-3.44979e-06
5.11502e-06
8.48344e-07
-2.5142e-06
-1.3433e-06
-4.49243e-06
-3.13857e-06
8.97388e-06
4.58354e-06
-1.32271e-05
1.72338e-05
-8.59008e-06
-2.08048e-06
4.93347e-06
7.12681e-07
-3.56616e-06
-2.62163e-06
-1.0359e-06
-1.63652e-06
5.29357e-06
-3.7967e-07
-9.88219e-07
4.22238e-07
-3.86596e-06
6.07759e-06
2.12041e-06
-4.33238e-06
1.52482e-05
1.35408e-05
-2.86899e-05
-9.90642e-08
6.4768e-06
-5.23013e-06
-1.51179e-06
2.64842e-07
-1.50958e-05
2.26154e-05
-1.76095e-05
1.00896e-05
-6.516e-06
7.14275e-06
4.58601e-06
-5.21291e-06
7.80618e-06
5.03802e-06
-1.00908e-05
-2.75346e-06
2.57695e-06
1.03102e-05
4.58713e-06
-8.01588e-06
4.77858e-07
2.95063e-06
-2.73147e-07
-9.8734e-06
7.44146e-07
9.40203e-06
2.04604e-07
-8.46673e-07
1.93983e-06
-1.75129e-06
-1.1781e-06
3.00318e-06
-7.38619e-08
-1.86747e-05
1.72077e-06
-8.82825e-06
2.57816e-05
-1.0086e-07
-3.52818e-06
3.62899e-06
-8.52155e-06
-1.56036e-05
4.38559e-06
6.22858e-06
2.05343e-06
3.28126e-06
-1.15637e-05
5.81926e-06
4.00878e-05
-4.59074e-05
-9.16289e-07
1.10408e-06
-9.05565e-06
8.86766e-06
5.96722e-07
1.51172e-05
-4.51149e-05
2.94001e-05
4.41394e-06
4.87518e-06
-1.02345e-05
9.45346e-07
-0.00128889
0.000449879
0.000412807
0.000462597
6.45443e-06
-9.1438e-06
4.90067e-06
-2.21173e-06
-6.51901e-06
-5.68465e-07
7.08727e-06
-5.15567e-05
2.29827e-05
2.19411e-05
-1.64655e-05
-0.000103221
5.25259e-05
6.71591e-05
-5.66153e-07
2.75804e-05
-2.7015e-05
2.60997e-06
-3.0662e-06
-1.20403e-06
1.66016e-06
-1.31844e-06
-4.95523e-07
4.51736e-06
-2.7035e-06
9.36228e-06
-3.60037e-07
-9.58318e-06
5.80852e-07
2.58984e-05
-1.28542e-05
-2.88559e-07
-1.2756e-05
5.66505e-06
4.47078e-06
-1.61775e-05
6.04105e-06
-9.03717e-06
1.60991e-05
-9.10532e-06
2.04333e-06
2.21998e-05
-4.84017e-06
4.1728e-05
-5.90881e-05
2.03613e-05
-3.56479e-06
-4.73546e-06
-1.2061e-05
1.11829e-05
1.16023e-05
-3.87009e-05
1.59155e-05
4.11026e-06
6.77132e-07
-4.44825e-07
-4.34254e-06
1.2426e-06
-9.9622e-07
3.39623e-07
-5.85992e-07
1.07977e-05
6.75948e-06
8.3405e-06
-3.32947e-06
2.99431e-06
-1.01205e-05
1.04551e-05
-1.33512e-05
1.47708e-05
3.59204e-05
-3.7341e-05
-2.96584e-06
1.10603e-06
1.22322e-06
6.36612e-07
-9.45276e-07
-2.18435e-06
3.12942e-06
-8.19021e-06
3.34236e-06
2.73622e-07
4.57406e-06
-8.3532e-07
-1.48687e-07
7.97599e-07
-4.592e-06
3.94253e-06
7.15521e-06
-8.68387e-07
-8.33034e-06
2.04345e-06
1.68264e-06
-3.23813e-06
1.55548e-06
-4.24128e-07
-4.52925e-07
-1.68862e-05
1.77633e-05
-1.70848e-06
9.7425e-06
-6.89854e-06
-1.13561e-06
5.90906e-06
2.06907e-06
-3.27446e-06
-4.70415e-06
9.09779e-06
7.46549e-06
-2.66246e-05
1.00611e-05
-2.45962e-06
1.80645e-06
6.53153e-07
2.8957e-06
-2.91002e-06
-1.0778e-05
1.07919e-05
-2.07763e-08
9.50019e-08
-7.4216e-08
1.19193e-05
1.83639e-05
3.24874e-05
-1.87739e-06
-7.63482e-06
-2.29751e-05
-1.77207e-06
-5.82059e-06
-1.83301e-05
2.59221e-05
6.41257e-05
9.70697e-05
-0.000122469
-3.87266e-05
-3.83178e-05
1.32984e-05
-1.57611e-05
4.07798e-05
2.45093e-05
-1.57736e-06
1.24051e-05
-3.53378e-05
6.90246e-06
-1.11856e-05
1.43217e-05
-1.00386e-05
4.51922e-06
1.2772e-07
-4.647e-06
-1.80288e-06
-2.19857e-06
-1.1035e-05
1.50361e-05
-1.01055e-05
-6.91968e-06
1.06428e-05
6.3823e-06
-8.71858e-06
1.20816e-05
9.58239e-07
-4.32154e-06
-6.98433e-06
2.11538e-06
-2.38488e-05
2.87177e-05
1.60299e-05
1.59447e-05
2.45757e-05
-2.3294e-06
-2.92309e-05
-4.63471e-06
8.10687e-07
-2.58107e-06
6.40483e-06
-6.22709e-06
6.58294e-06
1.59095e-05
-1.62654e-05
5.56491e-08
1.08958e-07
-1.81944e-07
1.73631e-08
-9.79674e-06
9.02407e-06
3.43679e-06
-2.66431e-06
3.18681e-06
-6.02418e-06
-1.64427e-05
-4.581e-06
1.01604e-05
1.08625e-05
-6.69405e-06
-8.45708e-06
-7.00477e-07
1.58512e-05
2.38295e-05
-7.19867e-06
-7.6076e-06
-9.02357e-06
5.98567e-06
-2.88436e-06
-3.65252e-06
5.51225e-07
-9.09336e-06
6.49993e-06
-5.97415e-06
8.56739e-06
6.60654e-06
-3.69759e-06
7.29679e-06
-1.02058e-05
1.17348e-07
-2.91944e-07
2.30238e-07
-6.28034e-06
1.34849e-06
9.19973e-06
-4.26808e-06
-1.97032e-07
-7.48145e-07
3.3899e-07
6.06211e-07
-6.84997e-06
-1.04086e-05
8.57669e-06
8.68185e-06
1.7855e-05
-2.60015e-05
-1.04104e-05
1.85565e-05
-1.55141e-05
-0.000227692
0.000128988
0.000114223
2.40025e-06
-1.82451e-06
1.65606e-05
-1.7137e-05
-9.43562e-06
1.20648e-07
2.98062e-06
6.33414e-06
4.91829e-06
4.75475e-06
3.08881e-07
-9.98201e-06
0.000161759
-5.28635e-05
2.06152e-05
-0.000129512
-9.09079e-06
-4.74796e-06
5.202e-06
8.6363e-06
-2.31256e-06
-1.07096e-05
9.24534e-06
3.77654e-06
-5.47864e-06
1.19805e-05
5.23921e-06
-1.17413e-05
1.36555e-06
1.97656e-06
-1.69532e-07
-3.17316e-06
2.61654e-06
-9.95991e-07
-2.55407e-07
-1.32498e-06
1.29584e-06
-7.47619e-07
7.76721e-07
-5.94925e-06
1.35008e-06
-1.1183e-05
1.57821e-05
-4.4216e-06
1.08329e-05
4.35729e-06
-1.07691e-05
-1.34444e-06
4.7039e-06
1.85007e-06
-5.20945e-06
-6.30391e-06
4.38687e-06
-7.4774e-06
9.39435e-06
-3.17206e-07
9.98253e-06
-1.08613e-05
1.19555e-06
2.84787e-08
7.17087e-06
-6.81359e-06
-3.85906e-07
6.97586e-07
2.24334e-07
-2.48487e-06
1.56253e-06
-5.52376e-06
3.59768e-06
-2.67087e-06
4.59686e-06
6.88084e-06
7.88106e-06
-2.1066e-05
-8.20366e-06
-1.18812e-06
-3.69558e-07
9.76144e-06
7.76169e-07
-1.8581e-06
5.57585e-06
-4.49398e-06
-6.8666e-06
5.08177e-06
1.8745e-06
-8.97843e-08
5.7514e-06
-3.26414e-06
1.32213e-05
-1.57085e-05
2.19476e-06
1.35017e-06
-1.12779e-05
7.73272e-06
-3.6467e-06
5.01775e-06
-1.37138e-06
3.92806e-07
-2.61607e-08
9.25232e-08
-4.59161e-07
4.59871e-05
-4.08832e-05
3.42068e-05
-3.93112e-05
-6.21728e-05
-2.69489e-06
-7.35777e-06
7.22247e-05
1.11208e-05
-9.33234e-06
-3.77893e-06
1.99021e-06
1.10761e-07
2.81992e-07
1.84982e-06
-8.17573e-06
1.03625e-05
-4.03652e-06
-2.13875e-07
1.84372e-06
-1.65551e-06
2.53775e-08
5.1457e-07
6.1762e-07
-1.13219e-06
-3.19959e-06
-2.78201e-06
6.70285e-07
5.31121e-06
1.39988e-06
-2.06171e-07
-1.40782e-06
4.43525e-05
-5.41511e-05
-3.14659e-05
4.12641e-05
-9.42534e-07
2.00563e-06
1.87015e-06
-2.93334e-06
-1.18894e-05
-2.98566e-08
3.00473e-06
8.91442e-06
-1.52574e-06
-2.17606e-06
8.47451e-06
-4.77304e-06
6.03466e-06
-4.73086e-06
-9.87469e-07
-3.16442e-07
-3.44092e-06
-7.0107e-07
4.134e-06
7.43193e-09
-2.97423e-05
-5.34258e-05
2.73914e-05
5.57759e-05
1.55671e-06
-1.53188e-06
-3.99427e-06
-9.41055e-06
5.76172e-06
7.64266e-06
2.26296e-05
8.79702e-06
-1.10087e-05
-2.04187e-05
1.88644e-06
-5.39148e-06
-8.36049e-06
1.18654e-05
8.4867e-08
9.85747e-06
-2.53597e-06
-7.40677e-06
1.84914e-06
-4.70737e-07
-3.00309e-07
5.4329e-07
4.54633e-06
-4.78943e-06
-4.011e-06
3.91164e-07
3.31929e-06
3.63451e-06
1.18077e-06
3.15994e-07
-5.13135e-06
-1.89117e-05
2.23172e-05
3.98411e-05
-4.32477e-05
0.000105992
-0.000110403
9.14628e-05
-8.70537e-05
-1.83404e-05
2.03779e-06
0.000101955
-8.56537e-05
-1.02402e-05
8.1781e-06
-1.05044e-06
3.11249e-06
6.21181e-06
-1.78129e-05
-9.43917e-07
1.25447e-05
1.46787e-05
-4.94083e-06
-7.2144e-06
-2.52352e-06
3.60689e-05
-9.66865e-05
-4.72027e-06
6.53367e-05
7.10609e-06
0.000109225
1.17086e-06
-0.000117502
1.62212e-06
-1.78594e-06
8.71041e-06
-8.5466e-06
-3.66676e-05
1.8243e-06
3.48425e-05
-2.50606e-07
6.03473e-06
-5.78446e-06
2.12177e-07
-4.51159e-07
-8.00909e-06
8.24786e-06
-7.8312e-08
-7.93e-06
3.39904e-06
4.60913e-06
1.01292e-07
1.19307e-05
-2.28502e-06
-9.74739e-06
-1.30234e-06
-9.78886e-06
7.64417e-06
3.44697e-06
-1.61507e-07
9.40408e-06
6.39905e-07
-9.8823e-06
-9.14635e-06
-2.42965e-05
3.34424e-05
1.15284e-05
3.16816e-06
-1.05667e-05
-4.13014e-06
-3.95793e-06
1.04615e-05
-3.21554e-06
-3.28858e-06
6.45911e-07
-3.40195e-06
-1.2774e-06
4.03297e-06
-3.18344e-06
2.62971e-06
4.30454e-06
-3.75121e-06
-7.81667e-06
4.68984e-06
-1.06049e-06
4.18685e-06
-5.05263e-07
5.05828e-06
2.42102e-06
-6.97407e-06
2.84497e-07
1.20134e-06
-1.4859e-06
-8.46832e-06
2.32726e-07
4.18753e-07
8.63448e-06
-4.86893e-06
3.08931e-06
-6.85517e-06
2.05906e-07
-1.11923e-07
-9.39894e-08
-6.67161e-07
6.03847e-07
6.2893e-08
-3.75467e-08
2.09958e-06
-5.29646e-06
3.23398e-06
6.51825e-06
-6.20476e-07
-4.8525e-06
-1.04524e-06
1.51412e-06
8.36788e-06
-1.06774e-06
-8.8145e-06
-6.93002e-06
-2.17706e-06
3.45426e-06
5.65277e-06
2.71479e-07
-7.44124e-06
7.21634e-08
7.09752e-06
6.15075e-06
-1.36049e-06
-4.79048e-06
2.04077e-07
5.25251e-08
-2.56553e-07
-9.56664e-06
-1.65794e-05
1.58301e-05
1.03152e-05
1.85606e-05
-1.76813e-06
-5.26408e-06
8.40459e-06
-7.41175e-06
3.69663e-06
5.35886e-06
-1.71244e-06
-1.26234e-05
8.97709e-06
6.13126e-07
6.49252e-06
-9.55763e-06
2.45179e-06
1.54001e-05
-1.33196e-05
-8.03551e-06
5.9547e-06
-8.29578e-06
-3.64516e-06
1.11725e-05
7.68289e-07
-3.51139e-06
-2.28197e-06
1.32406e-05
-7.44725e-06
-1.4563e-07
4.30892e-06
-4.16368e-06
0.000215481
-5.92905e-05
-0.000194675
3.8481e-05
3.92116e-06
3.49268e-06
4.35637e-06
-1.17705e-05
-5.47649e-06
5.06754e-06
-1.08955e-05
1.1304e-05
2.02729e-08
9.22964e-06
-4.30723e-07
-8.81934e-06
-4.21743e-05
0.000143077
-0.000119975
1.90711e-05
6.08845e-06
-1.49414e-05
-1.84847e-05
2.7337e-05
-0.00012373
4.9322e-05
5.03271e-05
2.40793e-05
-2.82568e-06
7.49554e-06
1.50331e-06
-6.17376e-06
1.78442e-06
-1.07497e-05
1.77477e-05
-8.78274e-06
1.22742e-05
-6.90717e-05
-1.29449e-05
6.97415e-05
-1.16849e-05
6.49179e-06
4.97155e-06
2.20918e-07
-3.1575e-05
-2.38658e-05
5.77475e-06
4.96655e-05
7.12379e-05
-6.59284e-05
6.96414e-06
-1.00344e-07
-9.85929e-07
-2.03413e-05
2.14274e-05
1.77559e-05
1.10623e-06
-2.54683e-05
6.60569e-06
-2.69193e-06
-3.90147e-06
3.71024e-06
2.88289e-06
-2.63276e-07
-7.39906e-07
6.8969e-07
3.13257e-07
4.77731e-06
-4.41302e-06
-1.23432e-06
8.69612e-07
-1.15324e-06
3.96905e-06
9.22038e-06
-1.20368e-05
-4.24655e-06
7.37232e-07
-3.06798e-06
6.57705e-06
8.69421e-06
-1.13291e-06
2.11063e-05
-2.86685e-05
2.04069e-05
-7.10071e-05
5.05996e-05
-1.72709e-07
-4.3381e-07
3.4304e-07
6.22789e-05
2.35443e-05
-6.54169e-05
1.77445e-06
-3.47025e-06
2.24437e-06
-5.48841e-07
-8.76551e-06
-2.38972e-06
1.11549e-05
-2.9732e-05
1.46122e-05
1.00562e-05
5.06319e-06
-3.72219e-05
-0.000290689
0.000216021
0.000111888
7.12148e-07
-1.15818e-06
-9.52579e-06
9.97178e-06
4.07166e-07
6.88222e-06
-1.66307e-05
9.34081e-06
9.74096e-06
-1.55486e-05
1.03158e-05
-2.16756e-05
-4.83121e-06
-3.22552e-06
4.00145e-05
7.67085e-05
-4.93562e-05
-6.73675e-05
-1.82163e-05
1.17197e-05
-1.22823e-05
1.87784e-05
8.59996e-07
-2.63182e-06
-5.35607e-06
7.12774e-06
-1.14599e-05
1.34871e-05
8.70233e-06
-1.07298e-05
1.78847e-08
-1.90806e-07
-3.11615e-08
-9.85594e-07
7.66949e-07
2.49385e-07
-1.88132e-06
-2.01253e-06
-1.02931e-06
4.92315e-06
-1.52096e-05
4.07785e-06
4.50854e-06
6.62286e-06
0.000156905
0.000145056
-0.000301842
-1.75216e-07
-3.19363e-07
4.94239e-07
-7.20321e-06
-4.33506e-06
8.7565e-07
1.06625e-05
-4.35065e-05
6.74034e-05
-8.48532e-05
6.09553e-05
-4.65585e-07
5.13873e-06
2.72059e-07
-4.94539e-06
4.48134e-06
-3.4566e-07
-1.22341e-06
-2.91275e-06
-1.20507e-05
9.3779e-06
8.77223e-06
-6.09945e-06
-0.000131725
0.000116783
-3.61125e-05
5.10526e-05
2.50984e-07
5.0981e-06
-5.53786e-06
1.88331e-07
-2.65654e-06
4.54378e-07
-7.26707e-06
9.46917e-06
-1.44633e-06
-1.25898e-06
2.7053e-06
0.000235199
0.000668229
-0.000729168
2.67969e-06
7.11015e-06
-2.08726e-06
-7.70284e-06
0.000130286
-3.53312e-05
-0.000167821
7.29089e-05
8.56399e-07
-1.20801e-07
-7.35604e-07
-1.51204e-06
2.28278e-06
-2.44272e-06
1.67192e-06
3.4681e-05
-5.47333e-05
9.02277e-05
-7.01763e-05
-3.94556e-07
-7.17371e-06
6.0326e-06
1.53551e-06
-1.63658e-05
4.93814e-05
3.81909e-07
-3.33977e-05
-7.61045e-05
-7.05094e-05
0.000128199
1.84132e-05
-2.72474e-07
1.53109e-07
-7.76698e-08
7.67988e-05
-0.000340141
0.000226128
9.97044e-06
-1.76685e-07
-1.78735e-05
8.07879e-06
-0.000299279
0.000327417
4.86813e-05
-1.02272e-05
5.985e-07
1.11331e-05
-1.50453e-06
2.0417e-06
2.10563e-06
4.50835e-06
-8.6557e-06
-3.39431e-06
-1.8819e-06
5.33274e-06
-5.70118e-08
-9.34211e-06
-3.4313e-06
7.54711e-06
5.2261e-06
1.58966e-06
1.72252e-06
-8.5283e-06
5.21602e-06
-4.32314e-06
-2.6784e-07
4.59089e-06
4.13606e-06
-1.43469e-06
-7.04903e-06
4.34758e-06
-2.62224e-06
8.06504e-07
-2.00353e-06
3.81888e-06
-8.57863e-06
1.12886e-06
1.11435e-05
-3.69399e-06
-1.16862e-05
-1.85222e-06
1.35572e-05
-1.91678e-08
-3.82567e-07
1.50867e-06
-4.92351e-07
-6.33768e-07
3.40108e-07
-3.56474e-06
5.29522e-06
-2.07124e-06
1.58658e-05
-1.92682e-06
-1.19013e-06
-1.27494e-05
1.39351e-06
-9.31635e-06
-5.68577e-06
1.36081e-05
9.84429e-06
-2.89647e-06
-1.52902e-05
-7.26278e-06
-6.43372e-06
5.11757e-06
1.24183e-06
-1.94168e-07
-1.43029e-06
-5.1013e-06
2.92295e-07
2.92554e-06
1.88302e-06
-2.79569e-06
4.08529e-06
-1.52579e-07
-1.13713e-06
3.59971e-06
-4.16608e-07
-1.04464e-05
-1.64931e-05
4.16933e-06
6.03511e-06
6.28811e-06
-4.83833e-06
4.01842e-06
-3.50335e-06
5.2058e-06
-1.28943e-07
1.48704e-07
-5.22561e-06
1.71688e-06
-3.7429e-06
4.02865e-07
1.62271e-06
-1.925e-06
8.83545e-07
2.26835e-06
-1.22699e-06
-1.72327e-06
-3.1282e-06
1.04578e-05
-5.60683e-06
-5.39437e-06
-3.00509e-07
4.87292e-06
8.21897e-07
5.48282e-06
-6.78871e-06
-1.24676e-05
1.37736e-05
-1.34242e-05
3.59509e-06
-6.7682e-06
1.6597e-05
-3.60399e-06
2.41184e-05
-1.50316e-05
-3.80032e-05
-3.48263e-05
3.64797e-05
3.63488e-05
2.35924e-06
2.68944e-06
4.79073e-06
-9.84001e-06
-5.81066e-06
9.63124e-06
4.08773e-07
-4.22951e-06
-2.52873e-06
-1.45529e-06
3.98387e-06
-3.5595e-05
-1.39272e-05
4.59181e-05
-1.21716e-06
5.32263e-07
-5.1258e-06
1.48719e-06
-3.44201e-06
9.05178e-06
-7.09709e-06
-2.15317e-06
1.18911e-07
2.03408e-06
-6.33995e-06
-3.2411e-07
1.14472e-06
5.51921e-06
4.93312e-06
-5.58087e-06
-1.11577e-05
1.18054e-05
6.15923e-06
2.3946e-06
-6.66092e-06
-1.89311e-06
1.88864e-06
2.81685e-06
-4.70548e-06
1.06351e-05
-9.85952e-06
-7.76068e-07
6.38905e-06
-1.6198e-06
-9.4642e-08
-4.67481e-06
-1.05274e-05
7.23228e-06
-7.20322e-06
1.04977e-05
-2.18755e-06
-2.44533e-06
4.63251e-06
1.80522e-05
-9.08764e-06
-1.26659e-05
3.70058e-06
6.58589e-06
4.59718e-06
-8.27106e-06
-2.91217e-06
8.78413e-06
-1.34982e-05
1.90101e-06
2.813e-06
-6.80541e-07
1.0075e-05
-1.34697e-05
4.07519e-06
-2.19545e-06
-1.40871e-05
9.65838e-06
6.62393e-06
-1.04983e-05
-1.71128e-06
1.22096e-05
1.36854e-06
9.25685e-06
-8.63986e-06
-1.98558e-06
-1.32196e-06
-1.15729e-05
1.21543e-05
7.40419e-07
-6.91837e-06
7.07649e-06
-3.26965e-07
1.68646e-07
1.45779e-06
-9.89919e-06
1.03136e-05
-1.87271e-06
9.03551e-06
-1.15988e-05
-4.18612e-06
6.74902e-06
3.25477e-06
-3.68297e-06
-1.65269e-06
9.02605e-07
7.28679e-06
2.11959e-06
-1.03094e-05
1.20256e-05
-4.39336e-06
-7.63265e-06
2.57339e-06
-6.65031e-06
-2.64972e-06
6.7267e-06
3.53393e-06
1.82745e-05
-2.23237e-05
5.1461e-07
-8.43083e-08
2.71516e-06
5.3843e-07
-8.58763e-06
1.24176e-05
-1.43284e-05
-1.93453e-06
9.26623e-07
-8.33596e-06
9.34342e-06
-4.79384e-06
-5.171e-06
1.04018e-05
-4.36971e-07
7.52365e-06
-5.5692e-06
6.47706e-06
-8.43165e-06
2.47299e-06
-4.58962e-06
2.1166e-06
-1.05826e-05
1.11004e-06
8.63703e-06
8.35409e-07
5.07455e-06
2.11678e-06
-5.10947e-07
-6.68038e-06
-9.26909e-06
-1.75926e-06
9.19682e-06
1.83156e-06
-7.67945e-06
2.45932e-06
6.59096e-06
-1.37167e-06
-1.26931e-05
-4.97235e-05
5.12688e-05
1.11467e-05
-6.1068e-07
1.09414e-05
1.38047e-06
-1.17114e-05
-1.4167e-06
-1.31266e-06
7.95756e-06
-5.22829e-06
-3.24804e-06
-1.33454e-05
1.30338e-05
3.55886e-06
-1.13329e-05
4.48056e-06
5.79159e-06
-1.84605e-05
2.50722e-05
-1.1275e-06
-5.48505e-06
-1.56486e-05
4.07427e-06
3.76284e-06
7.81114e-06
-5.94135e-08
3.70618e-07
-8.85382e-06
8.54241e-06
-3.43246e-06
9.07884e-07
9.79375e-06
-7.26985e-06
1.07071e-05
7.13407e-07
-5.99388e-06
-5.42694e-06
5.30987e-06
3.73984e-06
-2.84037e-05
1.93525e-05
1.18345e-06
-9.69891e-07
-1.14744e-06
9.3387e-07
2.96097e-07
1.11154e-05
-7.08031e-06
-4.33145e-06
-5.43319e-06
-6.43311e-06
4.4691e-08
1.1821e-05
-4.54171e-06
-4.9438e-06
1.86374e-07
9.29861e-06
7.98812e-06
6.27756e-06
-1.29513e-05
-1.31457e-06
1.76303e-05
3.4724e-06
-1.31145e-05
-5.78547e-06
-3.71202e-06
-7.99773e-07
1.02969e-05
2.37188e-06
5.07219e-06
3.33283e-07
-7.77777e-06
5.00664e-06
-1.20505e-05
-4.29167e-06
1.13354e-05
1.17311e-06
6.17909e-06
1.04735e-05
-1.78263e-05
-1.01503e-06
1.78889e-06
-7.74176e-07
1.16181e-05
-5.5037e-06
-3.82748e-06
-2.28707e-06
6.55771e-06
1.02473e-05
-1.56325e-05
-6.04649e-06
2.90087e-06
5.51713e-06
3.63033e-06
-6.32834e-06
-1.18629e-06
3.88446e-06
-1.61355e-06
3.61827e-06
4.02986e-06
5.43425e-07
1.31641e-05
-7.52891e-06
2.80409e-06
-2.49254e-06
5.5194e-07
-8.63773e-07
6.97151e-06
-8.2228e-07
-6.14942e-06
3.41308e-06
5.18921e-06
-1.17815e-05
3.17915e-06
-6.39367e-06
4.77728e-07
5.40798e-06
5.07571e-07
6.02221e-07
-1.33974e-08
3.07146e-06
-3.66078e-06
6.10512e-07
5.31002e-06
4.32329e-06
-1.02446e-05
5.67082e-06
2.2255e-06
-7.89672e-06
4.40634e-06
-4.68678e-06
2.80467e-07
-9.50758e-06
-9.95138e-07
1.05021e-05
7.68246e-07
9.27486e-07
-1.69578e-06
-1.9006e-06
-5.66878e-06
-5.08276e-07
8.07726e-06
6.79893e-06
3.48962e-06
-2.55811e-06
-7.73102e-06
-7.08228e-06
6.22223e-06
1.76669e-06
-9.06779e-07
1.45168e-07
-4.07201e-06
2.02832e-06
1.89853e-06
1.30391e-05
-5.93848e-06
-8.2098e-06
5.47155e-06
3.83089e-06
-1.09299e-06
2.36676e-06
-4.58381e-06
3.83727e-07
1.83332e-06
-1.30329e-05
-3.97137e-05
1.6951e-05
3.57952e-05
3.45877e-06
1.56025e-06
-1.47295e-06
-3.54607e-06
2.07712e-06
1.05243e-05
-1.26021e-05
-7.04465e-06
1.0337e-05
-5.44439e-06
2.15177e-06
3.60253e-06
-1.65932e-06
-4.56596e-06
-2.5186e-07
4.65803e-06
2.48809e-06
-2.32233e-06
-1.65874e-07
-7.38206e-06
-1.3237e-05
1.88072e-05
1.81148e-06
0.000151747
-0.0014083
0.000696295
0.000727344
3.83952e-06
7.87642e-06
-4.49108e-06
-7.22506e-06
-9.42697e-07
1.05381e-05
-7.43512e-06
-2.16052e-06
7.86418e-06
-1.57528e-06
-4.96011e-06
-1.32879e-06
-6.53095e-06
7.89945e-06
7.15544e-07
-1.18866e-05
1.82981e-06
9.34081e-06
-2.59148e-07
1.46426e-06
-1.65169e-07
-1.04019e-06
-2.07286e-06
7.81673e-06
5.32445e-05
-5.89888e-05
2.64029e-06
-6.87224e-06
5.1627e-06
-9.31115e-07
5.54918e-06
1.85389e-06
1.17341e-07
-7.52056e-06
1.27211e-05
-1.77108e-05
-9.32589e-06
1.43147e-05
1.20892e-05
-6.05024e-07
-1.80575e-06
-1.01025e-05
-3.0401e-06
1.29451e-05
1.96779e-07
-6.36612e-06
-1.38541e-06
7.80622e-06
-5.48563e-08
-0.000391778
0.000978508
0.00127085
-0.00148855
1.50399e-06
-1.60508e-06
-1.58347e-07
6.50109e-05
7.91152e-06
-5.4577e-05
-1.83463e-05
-6.39431e-06
5.86017e-06
8.77889e-06
-8.24514e-06
-7.95673e-06
-1.51653e-06
8.3276e-06
1.14524e-06
1.52936e-06
-6.53233e-08
-6.84712e-05
8.83546e-05
0.00010018
-0.000120065
6.17641e-06
-1.42619e-05
1.71298e-05
-9.04481e-06
1.37678e-05
-2.40313e-06
-9.44192e-07
-1.04212e-05
1.32708e-06
-6.34145e-06
5.53711e-06
-5.2283e-07
3.96684e-06
-1.04662e-06
-9.67008e-06
6.74919e-06
1.52481e-05
8.9492e-07
-3.39965e-06
-1.27434e-05
5.48323e-06
3.96242e-06
-1.20265e-06
-8.24382e-06
8.96354e-06
-8.0287e-06
-7.14601e-06
6.21072e-06
2.77478e-06
5.29002e-06
-8.06548e-06
2.1809e-06
-9.8839e-07
3.11192e-07
-1.41094e-06
-2.03599e-06
2.99091e-06
4.55418e-07
6.77315e-07
2.39688e-07
-9.16977e-07
-1.50597e-05
-2.51356e-06
1.48768e-05
2.69567e-06
7.04412e-07
-3.99774e-06
4.74243e-07
2.81889e-06
-3.09632e-06
-5.27815e-06
2.94099e-06
4.49583e-06
2.30551e-06
6.13744e-06
-1.29391e-05
0.000105314
-0.00012083
7.00433e-06
2.66124e-06
-1.46444e-05
4.97879e-06
-5.4506e-06
3.08942e-06
-1.53742e-05
1.77353e-05
-3.26244e-06
2.08053e-07
3.75861e-06
1.19546e-05
-4.87748e-06
-4.63454e-06
-2.44282e-06
1.37917e-06
-4.17159e-06
9.15749e-06
-6.36556e-06
2.95566e-06
-1.19534e-05
1.94766e-06
7.0498e-06
-6.24462e-06
-7.14584e-06
8.359e-06
5.03118e-06
0.00060003
-0.000752526
0.000191102
-1.06288e-06
4.50868e-06
-1.00656e-05
6.61942e-06
-3.51027e-07
1.64735e-07
1.28169e-06
-1.09567e-06
3.27913e-06
-8.90885e-08
-3.00002e-06
-1.90243e-07
4.88515e-05
0.000324313
3.2888e-06
-9.82045e-09
-7.41328e-06
4.99553e-06
1.41663e-05
-1.17488e-05
-8.54659e-06
9.45158e-06
-3.50672e-07
-5.54661e-07
1.66127e-05
5.78885e-05
-0.000108724
3.42218e-05
9.07409e-07
-1.20287e-05
1.74222e-07
1.09464e-05
-5.37896e-06
1.38522e-05
-4.39458e-07
-8.03474e-06
-7.97861e-06
8.67472e-07
-6.72839e-07
7.7835e-06
9.72179e-06
1.85099e-06
3.6492e-06
-1.52228e-05
-8.38214e-06
-2.73775e-06
3.43993e-06
7.67992e-06
3.97052e-06
2.4218e-05
-3.93168e-06
-2.42576e-05
2.62231e-08
3.2292e-05
-3.66377e-05
-1.1752e-05
1.60976e-05
1.01055e-06
5.64146e-06
-2.65157e-06
-4.00046e-06
6.36306e-06
1.99963e-05
1.09082e-05
-3.72687e-05
-4.44547e-06
-2.93282e-06
8.38878e-06
1.8798e-06
-7.92976e-06
-3.05545e-06
9.10544e-06
-1.61871e-05
1.2956e-05
-8.53e-06
1.17604e-05
3.06549e-06
4.90255e-06
-1.39385e-05
5.97018e-06
8.05293e-06
-8.54948e-06
2.868e-06
-2.37156e-06
4.44509e-06
-3.29364e-06
-1.296e-05
1.18085e-05
1.01095e-05
-3.9428e-06
1.38799e-05
-2.00471e-05
-4.44968e-06
4.53081e-06
-1.9872e-06
1.90538e-06
5.67577e-06
-2.31555e-05
5.07501e-06
1.24042e-05
0.000114416
-5.00432e-05