/*--------------------------------*- C++ -*----------------------------------*\
| =========                 |                                                 |
| \\      /  F ield         | OpenFOAM: The Open Source CFD Toolbox           |
|  \\    /   O peration     | Version:  v2012                                 |
|   \\  /    A nd           | Website:  www.openfoam.com                      |
|    \\/     M anipulation  |                                                 |
\*---------------------------------------------------------------------------*/
FoamFile
{
    version     2.0;
    format      ascii;
    class       volScalarField;
    location    "0.5";
    object      Qdot;
}
// * * * * * * * * * * * * * * * * * * * * * * * * * * * * * * * * * * * * * //

dimensions      [1 -1 -3 0 0 0 0];


internalField   nonuniform List<scalar> 
108993
(
0
0
8.35128e-155
0
0
0
5.13581e-235
0
0
0
4.86078e-282
0
0
0
0
0
0
0
0
0
0
0
0
0
0
0
0
0
0
0
0
0
0
1.06874e-261
0
0
0
0
0
0
0
0
0
0
0
0
0
5.73808e-253
0
1.14862e-206
0
0
2.07994e-222
0
0
0
0
0
0
0
0
0
0
0
0
0
0
0
4.64401e-285
0
0
0
0
0
0
0
0
0
0
0
0
0
0
0
0
0
2.25817e-223
3.23664e-282
0
0
0
0
0
0
0
0
0
0
0
0
0
0
0
2.0728e-277
0
0
0
0
0
0
8.28084e-107
0
7.14259e-160
0
0
1.13699e-81
0
0
0
0
0
0
6.15093e-92
0
0
1.25361e-86
0
0
0
0
1.31342e-182
0
0
0
0
0
0
0
0
0
0
0
0
0
0
0
0
0
0
0
0
0
3.30703e-144
3.41359e-30
0
5.55529e-127
0
0
0
0
0
0
0
0
0
3.50114e-115
0
0
0
0
0
0
1.01015e-107
0
0
0
2.91349e-110
0
0
0
1.53406e-270
0
0
0
0
0
0
0
0
0
0
0
0
0
0
1.2151e-171
0
0
0
0
0
0
0
0
0
6.82311e-49
0
2.57258e-118
0
3779.83
5.87535e-176
0
1.10648e-109
6.46573e-117
0
0
0
0
0
0
0
0
1.29585e-142
4.49142e-114
0
0
0
0
2.28741e-64
0
3.18138e-134
0
0
0
0
0
0
0
0
0
0
0
0
0
0
0
2.87402e-127
7.12477e-87
0
0
0
0
0
0
0
0
0
1.90753e-175
0
0
0
0
0
5.45705e-83
0
5.94222e-249
0
0
0
0
0
3.65579e-166
0
0.124781
0
0
0
0
0
0
0
0
0
0
0
0
0
4.67392e-246
5.97628e-191
0
0
0
2.27062e-243
0
0
0
0
0
0
0
1.28681e-76
0
0
0
0
0
0
0
0
8.47102e-123
0
0
1.19098e-153
0
0
0
0
4.00227e-155
2.6915e-113
0
9.45447e-206
0
0
0
0
0
0
0
0
0
0
3.6226e-55
1.51224e-09
0
0
0
0
0
0
0
0
6.97936e-79
1.12005e-247
0
0
0
0
0
0
0
0
0
0
3.04655e-163
0
0
0
0
0
0
0
1.01997e-247
0
0
0
0
0
0
0
0
5.32862e-130
1.44279e-134
0
2.2759e-13
1.42591e-202
0
0
0
0
0
1.48726e-42
5.89081e-39
0
1.43133e-62
0
1.37821e-239
1.09185e-206
2.61412e-112
9.07854e-259
0
1.71472e-41
0
5.00486e-39
0
0
0
0.00968203
0
1.6159e-80
0
0
3.26373e-103
1.23252e-111
0
0
1.81472e-252
3.23108e-235
0
0
43.4923
0
0
2.09011e-47
0
8.46931e-283
0
0
0
0
0
4464.67
2.65498e-222
2.88885
0
0
0.0017195
0
0
0
0
0.111589
5.4286e-109
2.6084
0
0
0
0
0
0
0
0
0
0
0
2.83845e-186
0
4.33379e-154
0
0
0
3.71412e-195
0
0
0
0
0
0
0
0
0
3.1578e-106
0
9.68273e-104
1.10028e-50
0
1.40683e-167
0
1.8606e-101
4.28285e-165
0
0
0
0
1.10904e-125
0
0
0
8.67821e-187
0
3.23712e-90
0
0
0
0
5.31809e-108
3.36611e-165
8.26788e-156
0
0
5.53531e-264
0
0
0
0
4.36687e-68
0
7.53476e-106
0
0
0
0
0
0
3.73e-174
0
1.08165e-50
0
0
1.21522e-110
0
0
0
0
5.47052e-151
0
0
0
0
1.74486e-290
0
0
0
0
0
0
0
0
0
0
0
0
0
0
0
0
0
0
0
0
3.6953e-156
0
0
0
0
0
0
0
0
0
0
1.08926e-79
0
0
0
0
0
0
0
24933.8
0
3.87877e-196
0
0
4.37513e-174
0
3.40806e-87
0
0
2.11891e-194
0
3.25817e-162
0
95656.5
0
4.13184e-54
3.64138e-144
0
8.24125e-216
0
0
2.69888e-150
0
0
0
0
0
0
0
0
0
3.92134e-179
0
2.59995e-293
0
0.00111949
0
0
0
2.82493e-262
0
0
1.63247e-212
1101.01
0
0
0
9.64087
0
2.38665e-136
0
8.39092e-25
2.07092e-154
0
4.37195e-164
0
0
8.25154e-85
0
5.29874e-114
0
0
0
0
0
0
0
0
9.08891e-90
1.70848e-134
0
6.78225e-35
0
5.33801e-76
0
6.28278e-87
0
0
0
2.96321e-68
0
0
0
0
0
0
1.07725e-84
7.55487e-146
0
1.5875e-90
0
0
2.50673e-63
0
0
4.18505e-203
1.5066e-290
1.90253e-87
2.98277e-184
0
4.28001e-182
0
0
0
0
0
0
0
7.018e-103
0
0
1.73625e-101
0
2.4905e-112
0
0
0
3.82774e-100
0
0
0
0
2.33149e-187
0
2.41064e-96
0
1.02501e-94
7.42653e-142
0
0
0
0
9.55906e-187
9.28551e-113
0
0
0
0
0
8.72886e-262
5.51624e-81
0
0
0
0
1.58669e-111
0
5.78871e-80
0
0
0
0
0
0
0
3.71214e-75
0
0
2.30341e-122
0
0
4.74702e-288
1.0654e-73
1.96211e-131
0
0
0
0
5.59487e-111
2.58568e-79
0
0
2.74273e-71
0
0
2.41665e-166
0
0
0
0
0
0
0
0
4.00789e-100
1.42393e-119
0
0
0
8.31871e-122
0
0
0
0
0
0
0
0
5.07365e-80
0
0
0
0
0
1.51039e-148
0
6.03052e-260
0
0
0
0
2.32182e-143
0
0
2.41005e-72
7.62137e-58
6.25568e-213
8.74668e-141
2.29046e-06
1.32316e-94
1.23465e-198
0
3.45524e-31
4.74101e-137
2.51954e-143
2.65434e-147
6.36717e-229
0
0
0
0
0
5.95916e-125
0
0
0
6.76852e-94
2.52191e-62
9.08803e-179
2.45222e-20
0
6.20357e-140
0
0
1.12304e-136
0
0
0
0
0
0
0
0
0
0
0
1.93779e-41
0
0
0
0
0.0010044
0
0
4.06754e-134
0
0
0
0
8.77782e-210
0
2.62566e-280
0
2.7787e-151
0
0
0
0
0
0
0
0
1.04516e-134
0
0
0
1.69488e-160
0
8.7561e-291
0.105699
6.67555e-145
18.4773
2.04815e-149
0.000510342
3.43764e-142
0
0
0
0
0
0
0
1.99363e-146
0
5.70293e-158
0
0
0
0
5.45109e-113
1.51988e-76
0
0
1.24252e-61
4.60796e-163
0
0
0
0
0
2.38262e-225
8.25009e-177
1.57702e-155
2.28066e-112
0
3.25918e-161
0
0
0
0
0
0
0
3.12931e-85
0
0
0
0
0
4.78486e-57
0
0
0
5.45907e-285
1.28661e-16
0
0
0
4.81167e-44
0
0
0
0
0
0
0
0
0
5.53651e-133
0
0
0
1.06517e-99
0
0
0
9.98464e-117
7.65163e-236
0
0
0
0
0
2.02572e-100
0
0
0
0
5.81734e-42
0
0
0
0
0
4.03112e-125
0
0
0
0
0
6.12856e-87
0
0
4.64309e-76
0
0
0
2.48724e-88
4.12639e-125
0
0
0
1.02782e-138
1.53085e-140
0
2.2535e-89
0
5.40829e-257
3.28451e-99
2.56113e-149
0
0
0
0
0
0
0
0
0
0
0
0
3.38506e-155
0
0
1.38333e-179
0
0
0
0
7.78261e-160
0
0
0
0
0
0
0
0
0
0
2.81389e-274
0
0
6.63943e-117
0
0
6.53837e-233
0
0
0
1.00728e-159
6.24213e-62
1.30303e-166
0
0
0
0
0
0
0
0
0
0
0
0
0
0
0
0
9.83973e-102
3.48682e-246
7.97426e-178
0
0
1.58362e-144
1.87376e-139
0
0
0
8.67291e-47
1.60987e-158
9.46868e-138
0
0
0
0
8.53897e-148
7.44031e-120
0
6.12803e-175
0
0
0
2.20927e-134
0
0
0
0
2.32347e-130
2.59429e-130
0.0540607
0
1.08159e-223
0
0
8.37077e-122
0
4.98264e-122
0
0
1.37218e-185
0
0
6.7559e-105
0
0
0
0
0
0
1.52885e-192
0
0
2.05379e-128
5.11379e-170
0
0
0
0
0
6.26042e-179
0
0
0
0
0
0
0
0
0
0
0
0
0
0
88.3101
1.09951e-88
0
0
0
0
1.9212e-275
0
0
0
0
0
0
0
0
3.59731e-268
0
0
0
0
0
0
9.81722e-97
0
2.49081e-126
8.62441e-175
0
0
0
0
8.38315e-178
0
0
4.23286e-205
0
0
1.6629e-143
0
0
0
0
0
0
0
0
0
1.43715e-177
3.6624e-129
0
2.13606e-201
0
0
0
0
0
0
5.18429e-168
0
8.49744e-199
4.73039e-150
0
3.41455e-133
9.16201e-35
0
1.02086e-164
0
0
0
0
0
0
0
6.936e-250
3.31072e-38
3.61163e-121
0
0
0
1.76081e-110
0
0
0
0
0
0
0
0
5.15901e-51
3.31821e-111
0
0
0
0
0
0
0
0
0
0
5.74461e-136
4.79549e-120
0
0
0
0
0
0
0
0
0
0
6.84499e-113
0
0
0
0
1.15737e-200
0
0
285873
0
0
0
0
0
0
1.3144e-144
0
6.52263e-85
0
0
0
2.22851e-193
1.17396e-265
0
0
0
0
0
0
0
0
5.70626e-137
0
0
0
0
0.000474769
0
1.41594e-100
2.07622e-108
0.00038704
1.11544e-178
0
0
0
0
0
6.24648e-151
6.72146e-158
0
5.23817e-160
0
1.76908e-148
4.82049e-146
8.21501e-248
1.41454e-250
0
2.00035e-108
0
0
0
0
0
0
0
4.81238e-60
0
0
0
3.30679e-179
0
0
0
6.81791e-122
0
0
0
0
0
0
0
0
0
2.9267e-188
0
0
0
1.98369e-181
0
0
0
4.43921e-185
1.03687e-91
0
0
0
0
0
0
0
0
0
0
1.09589e-99
0
0
0
0
3.36296e-178
0
0
0
0
0
0
0
0
0
1.54879e-156
7.1409e-100
2.16207e-90
1.17171e-163
0
0
0
0
0
0
0
1.06352e-178
4.33207e-24
0
0
1.93059e-134
7.04161e-186
0
5.25645e-106
1.0501e-103
3.02521e-126
0
0
0
3.52563e-68
0
7.04911e-184
0
3.65343e-114
0
0
1.11363e-181
0
0
4.06808e-106
1.98784e-110
0
0
0
0
0
0
0
0
0
1.13404e-123
0
0
0
1.15596e-89
5.38496e-97
0
0
0
0
0
0
0
0
0
0
0
0
0
0
6.28646e-72
0
0
0
3.32063e-148
0
1.73681e-158
1.78385e-170
1.94065e-230
0
4.34312e-132
2.39235e-264
2.40669e-147
0
0
0
0
2.51862e-115
5.25297e-90
0
9.61497e-98
0
0
2.38331e-106
0
2.98511e-168
2.09239e-125
0
0
0
0
0
0
0
0
0
0
7.9585e-102
0
9.4209e-96
2.22594e-183
0
0
0
0
0
0
0
6.22144e-166
0
0
2.79249e-241
0
3.83337e-230
0
0
0
0
0
0
0
0
1.02396e-107
9.0194e-34
0
0
2.64179e-59
0
0
0
0
0
4.83956e-182
0
0
0
2.75799e-43
0
2.44858e-246
0
0
1.11526e-147
0
0
0
3.85176e-244
2.15606e-70
0
7.55414e-246
2.67872e-84
0
0
0
0
0
0
0
0
0
6.16568e-175
0
0
1.50686e-73
5.34466e-45
0
0
0
0
0
0
0
0
0
0
1.99131e-155
0
1.70614e-91
0
0
0
6.18937e-39
0
0
1.66918e-238
0
0
0
0
2.12053e-242
4.16274e-274
8.43215e-245
2.94359e-103
1.66468e-242
0
0
0
3.47731e-256
9.84568e-114
9.51722e-109
3.30147e-105
0
0
0
0
0
3.20073e-65
0
0
0
0
0
0
0
0
0
0
0
1.41648e-66
0
0
0
0
0
0
0
0
0
0
0
0
0
0
0
0
4.21442e-120
1.61866e-116
0
0
0
0
0
0
0
0
0
0
6.34571e-59
0
0
0
0
0
0
0
0
0
0
0
0
0
8.88932e-176
2.17379e-169
0
0
0
0
0
0
0
0
0
9.72572e-42
0
0
7.6086e-127
0
5.80952e-131
0
0
0
0
0
6.01504e-190
2.69578e-109
5.62889e-87
0
0
0
4.21466e-44
0
0
0
7.68283e-117
0
0
0
0
0
1.75341e-92
0
0
0
0
3.12444e-90
0
7.65403e-161
0
1.96622e-229
0
0
0
0
0
0
0
0
0
0
1.19238e-74
2.36046e-173
0
7.72567e-238
0
0
1.82169e-30
0
0
0
0
0
0
0
0
0
1.75224e-247
0
0
49158.6
9.99702e-100
0
9.58872e-37
0
2.30967e-16
0
0
9.75641e-210
4.09744e-267
0
0
0
0
8.01202e-102
0
0
0
2.22084e-96
0
5.22291e-84
0
0
0
0
6.90602e-22
0
1.30897e-185
1.01109e-147
0
0
0
0
0
0
6.83065e-170
3.74693e-98
0
0
3.66602e-81
0
1.03105e-111
4.91211e-99
0
1.6776e-18
0
0
0
0
3.2713e-110
0
0
0
2.961e-178
0
1.19215e-41
0
3.27062e-37
3.17263e-64
0
1.25043e-50
4.25133e-75
0
6.40606e-95
0
0
0
0
0
10.1613
1.84557e-177
0
0
2.09522e-138
0
0
0
0
1.77092e-159
0
0
0
0
0
0
4.32119e-130
0
2.34831e-198
0
0
0
0
0
0
0
0
0
0
0
1.28735e-133
0
0
0
0
0
0
1.11988e-145
0
0
0
0
0
0
0
0
0
0
0
8.92212e-221
5.15333e-70
0
0
5.56984e-184
1.7191e-104
1.57864e-160
0
4.28929e-128
8.31501e-97
1.25146e-263
0
5.94446e-86
0
5.83606e-152
0
2.15997e-75
7.41237e-178
0
0
6.28004e-23
0
3.09166e-72
0
7.21771e-88
3.20608e-15
0
0
0
0
0
0
0
0
0
0
0
3.316e-172
0
0
0
2.11203e-132
0
0
0
0
0
0
0
0
0
0
4.25101e-118
2.63135e-192
0
2.53475e-109
0
0
0
2.09395e-200
2.95659e-233
1.06334e-230
0
1.81942e-189
0
9.42798e-166
0
7.77907e-133
7.52519e-53
0
0
0
7.11721e-163
0
0
0
0
0
0
2.78457e-64
2.01879e-41
0
1.56207e-213
2.85134e-36
1.92815e-155
2.8431e-87
0
0
0
0
0
0
0
0
0
0
0
0
0
0
0
0
0
1.38345e-144
0
0
0
0
0
0
0
0
3.95197e-136
0
0
4.65888e-119
0
2.47521e-180
7.10422e-215
0
0
1.18894e-139
0
0
0
0
0
6.18623e-176
0
0
2.30652e-111
1.09009e-185
0
0
3.34422e-154
0
0
0
0
0
0
5.18376e-136
0
0
0
1.30105e-212
0
0
2.33624e-85
0
0
0
0
0
0
0
0
0
0
0
0
1.65842e-112
0
0
0
6.40445e-150
2.65701e-197
2.75251e-125
0
0
0
0
0
0
0
0
0
0
1.68033e-150
1.84861e-65
8.67072e-62
0
0
1.50528e-114
0
1.93216e-52
3.76393e-165
4.21503e-38
0
7.85746e-191
0
0
3.64018e-57
0
5.89446e-41
0
0
0
0
3.01783e-60
0
1.52601e-15
4.69779e-47
0
0
0
0
1.33487e-84
0
0
0
6.71181e-63
0
8.8246e-112
0
0
2.42637e-218
1.22069e-242
3.31168e-57
0
0
1.40046e-197
0
0
0
0
0
0
0
0
0
0
0
0
0
0
8.84144e-113
3.3104e-159
0
0
0
0
0
0
3.33231e-86
0
0
1.0061e-124
1.67344e-125
0
0
1.99805e-109
2.02e-130
0
0
3.80294e-76
0
2.91161e-128
0
0
0
9.93587e-112
0
0
0
4.93679e-68
0
0
0
0
0
0
0
0
2.07972e-142
0
1.81352e-200
0
0
2.08565e-233
1.84672e-100
0
0
0
4.35072e-163
0
0
0
0
0
0
0
0
3.13179e-112
0
0
0
0
0
0
0
0
0.0842507
0
0
3.36593e-159
0
0
0
0
4.50231e-261
0
0.0924295
0
0
0
1.2942e-135
0
0
0
0
0
0
0
0
2.42156e-99
0
0
1.59595e-64
0
0
0
4.99749e-90
9.58392e-201
9.58985e-270
0
0
0
0
0
2.96265e-41
0
0
3.40403e-198
1.58941e-195
0
0
1.9916e-89
0
0
2.618e-52
0
6.8108e-88
7.31673e-96
3.68448e-267
0
1.02218e-102
0
0
0
0
9.52618e-98
0
0
3.17026e-104
0
0
0
0
0
0
0
0
0
0
0
0
0
0
7.92053e-266
0
0
4.30541e-80
0
0
0
0
0
1.48417e-78
5.55674e-143
0
2.80839e-263
2.53309e-142
0
0
0
0
1.29367e-155
0
0
0
3.8322e-157
1.69201e-195
0
2.04997e-264
0
2.56788e-122
0
0
0
0
2.57013e-268
0
0
0
0
0
0
0
0
0
0
0
0
0
0
0
0
0
0
4.38092e-67
0
1.15846e-111
0
4.1532e-140
0
0
1.48523e-81
0
0
0
0
0
1.61665e-60
0
0
1.12772e-174
0
0
0
0
0
3.11506e-193
0
0
0
5.05318e-185
0
0
0
0
4.00138e-156
0
0
0
0
0
5.76459e-116
2.16768e-165
0
0
0
1.06733e-137
0
7.31167e-198
0
3.49836e-184
0
2.29599e-211
6.60134e-163
7.14148e-188
0
2.48737e-160
6.62543e-163
7.89931e-158
0
1.19536e-190
0
1.50363e-231
0
7.25916e-189
0
3.87248e-163
0
0
0
0
1.10185e-160
0
0
0
0
5.78379e-281
1.3179e-60
0
0
2.4745e-96
0
6.57208e-100
0
0
0
0
0
5.69714e-124
3.55614e-150
0
0
0
1.18514e-260
0
0
0
4.63709e-148
7.25728e-139
0
2.94765e-207
0
3.49128e-197
0
0
0
0
0
0
0
0
0
2.47221e-211
5.90976e-94
0
0
9.73071e-195
0
0
0
0
0
3.63436e-255
0
0
1.15126e-141
0
0
9.26715e-253
0
0
4.5558e-180
0
8.93643e-170
0
2.16357e-154
0
0
0
8.15683e-205
0
4.20549e-195
0
0
0
0
0
9.33786e-87
0
0
0
0
0
0
0
0
0
0
0
1.03344e-218
0
0
0
0
0
0
4.02392e-127
8.77075e-152
7.32398e-291
0
1.55724e-267
5.10971e-127
0
0
0
0
0
0
0
1.65438e-124
0
0
0
5.67171e-122
2.3112e-125
0
0
3.91573e-45
2.94096e-180
0
1.13535e-99
1.21471e-128
9.4239e-141
2.88202e-93
0
3.90111e-100
0
0
0
0
0
0
5.95634e-199
3.40324e-70
0
3.53918e-158
0
0
1.92747e-117
7.23897e-227
3.4435e-212
0
0
0
0
0
0
0
0
1.02619e-171
4.39512e-194
0
0
0
1.64574e-191
8.26516e-135
0
0
0
0
0
1.86594e-73
0
0
0
0
2.87366e-157
0
0
0
0
0
0
0
0
0
0
0
0
0
0
0
0
0
0
1.83417e-255
0
0
0
4.20492e-140
8.74074e-143
0
0
0
0
0
1.14468e-226
0
0
4.34207e-130
9.41639e-242
0
0
0
9.20495e-117
7.89542e-186
0
0
0
0
0
0
0
0
0
0
0
0
0
0
0
1.55429e-70
0
0
0
5.04815e-143
0
0
1.02329e-40
0
0
0
0
9.70203e-217
0
0
0
0
0
0
0
0
0
3.17541e-126
1.96683e-204
3.76678e-71
2.53983e-273
0
2.76989e-72
0
2.85925e-148
0
0
1.56815e-65
0
0
0
8.01483e-224
3.49483e-214
0
8.12147e-244
0
4.40892e-205
0
0
0
0
0
0
0
0
2.79961e-226
1.28176e-149
0
0
0
0
0
0
2.21977e-116
0
0
0
0
0
0
0
0
0
0
0
0
0
4.32426e-157
0
4.91949e-42
0
0
0
0
0
0
0
9.67661e-40
0
0
1.07404e-33
0
0
1.41729e-135
0
0
0
0
0
0
4.44573e-276
0
0
6.80511e-42
1.62485e-94
7.43954e-43
0
0
6.80306e-208
2.86904e-56
0
0
1.35714e-128
2.26215e-82
5.32283e-68
0
2.70491e-148
2.23472e-47
2.6499e-206
0
1.17362e-129
0
0
3.15749e-53
2.10495e-153
0
0
0
0
2.33809e-179
0
0
2.80092e-172
4.90007e-139
0
0
0
0
0
3.47149e-139
0
0
6.69503e-36
0
0
0
0
0
0
0
2.24408e-161
1.35798e-154
0
0
0
0
0
0
0
0
0
0
0
0
0
0
1.66126e-266
0
0
0
0
0
1.27949e-164
0
0
0
0
0
0
0
0
8.84245e-187
0
0
3.03636e-26
0
0
0
0
1.55176e-29
0
0
0
0
0
0
0
0
0
2.30944
0
2.39973e-172
4.8084e-234
5.00917e-174
0
0
3.29074e-242
0
8.25054e-278
6.3819e-128
3.58402e-188
0
0
1.15543e-194
0
0
0
0
0
0
0
0
0
0
0
0
0
0
9.3823e-149
0
1.50182e-130
2.81019e-92
0
0
0
0
1.02127e-178
0
0
1.60007e-214
0
0
0
0
0
0
0
0
0
1.83234e-55
0
0
0
7.36821e-125
0
0
3.23419e-54
8.51464e-47
3.47254e-183
0
9.18424e-68
6.72634e-181
0
0
0
1.44329e-152
0
0
0
0
6.97311e-247
0
0
0
0
0
0
3.87857e-61
3.82776e-61
4.06683e-189
1.13215e-58
9.60269e-62
2.73304e-58
0
0
4.43752e-59
0
0
1.3142e-67
0
0
0
9.02933e-204
5.87852e-135
0
0
3.26767e-94
0
7.44024e-152
0
0
0
6.91105e-98
6.87813e-268
1.35214e-243
0
0
4.48553e-168
1.50135e-91
2.5745e-89
0
0
1.03169e-75
0
3.7956e-158
0
3.16515e-160
1.58707e-81
8.1307e-37
0
0
0
0
9.33601e-261
0
0
0
0
0
0
0
8.00581e-214
0
0
0
0
0
1.60177e-131
2.43026e-172
0
0
1.30478e-169
0
5.84926e-150
0
0
0
0
0
3.55916e-193
2.2409e-152
0
0
0
5.52524e-275
0
0
0
0
0
0
0
0
0
0
0
0
1.70714e-227
0
0
0
0
0
0
0
0
0
0
0
0
0
0
0
0
2.33971e-146
0
0
0
0
7.85459e-198
1.15483e-169
0
0
0
6.84995e-144
0
1.58661e-267
0
0
0
0
2.90218e-138
0
0
1.47679e-287
0
0
0
1.31715e-181
1.09713e-144
4.4109e-111
0
0
0
9.18376e-158
0
1.26092e-155
0
0
2.84819e-119
0
0
0
0
0
2.51256e-143
0
0
9.84607e-266
0
0
0
0
0
0
0
0
0
0
0
0
0
1.25919e-86
0
0
0
0
0
0
0
0
0
0
0
0
0
2.77843e-149
0
0
0
0
2.87475e-64
0
0
0
0
0
0
5.60784e-188
3.74908e-180
2.84822e-242
0
0
1.23608e-131
2.60835e-95
9.29691e-28
0
0
0
0
0
2.35059e-241
0
0
0
0
4.18719e-52
3.08355e-157
0
0
0
2.84279e-76
3.14246e-118
0
0
0
1.24171e-97
0
0
0
0
0
0
0
2.05504e-75
0
8.72435e-95
0
0
0
2.76904e-150
0
0
0
0
0
0
0
0
0
0
0
0
0
4.67982e-104
0
0
0
0
1.03128e-165
0
0
0
0
0
0
0
0
0
0
4.40781e-73
0
1.88213e-72
0
1.22417e-117
0
0
0
0
0
0
1.7017e-65
0
7.04857e-204
0
8.16122e-116
2.97428e-263
0
5.75197e-199
0
0
0
0
1.56829e-38
0
1.73022e-51
3.64867e-256
0
0
0
2.98953e-117
0
0
0
0
0
3.50272e-64
1.44331e-190
5.35029e-130
0
0
4.67493e-191
0
0
0
7.50912e-155
0
4.87807e-158
0
6.00434e-125
9.6872e-106
8.25761e-189
2.90253e-137
9.17976e-116
0
4.29202e-113
0
2.7944e-188
0
5.94144e-51
0
0
3.9526e-152
0
1.36183e-96
5.01153e-58
1.65217e-120
0
2.88279e-114
0
0
0
0
0
5.03658e-134
0
0
0
2.0418e-102
0
0
0
1.18309e-160
7.59472e-261
0
0
0
0
1.04078e-50
0
0
0
0
0
2.21968e-136
2.05616e-111
8.23593e-66
0
0
0
1.39513e-156
0
0
0
5.99118e-97
2.93135e-226
9.38802e-82
5.13541e-235
1.14313e-223
0
4.0078e-164
0
5.45104e-217
6.99816e-65
2.05735e-171
8.07748e-242
7.22968e-175
0
0
0
0
6.36265e-79
3.09985e-125
0
2.86493e-132
0
0
0
4.31851e-94
0
0
1.35976e-158
0
0
0
0
0
0
0
0
0
0
0
4.02899e-163
6.52829e-142
0
72.1407
0
0
0
0
0
5.29619e-187
0
1.68058e-238
0
1.20283e-120
0
0
0
0
0
0
0
1.96224e-253
0
0
0
0.0524531
3.22137e-71
0
0
0
0
0
0
2.42352e-114
0
0
44.0737
4.86857e-63
3.25783e-261
0
2.34511e-39
0
1.28586e-18
2.25907e-90
3.05633e-288
4.58474e-16
0
0
0
0
1.119e-54
0
3.23828e-167
0
0
3.16434e-266
7.1555e-101
0
0
3.36819e-18
1.329e-14
0
3.84983e-06
8.28629e-18
0
0
1.24376e-15
0
0
0
0
0
0
0
0
2.61919e-158
3.81564e-09
0
0
0
0
0
0
3.82214e-28
0
0
0
0
0
0
0
0
4.87218e-65
0
0
0
0
0
0
8.20244e-92
0
1.37258e-149
0
3.81852e-241
4.52673e-83
5.71323e-258
1.208e-24
0
0
2.4609e-14
0
4.65074e-250
2.33304e-14
2.74031e-157
0
3.18154e-18
0
6.64162e-81
0
0
0
0
4.91905e-82
0
2.48731e-190
0
0
0
0
0
0
1.29941e-133
2.80359e-79
2.86991e-68
8.32879e-38
0
0
9.17501e-228
0
7.46726e-11
0
0
0
1.51853e-177
0
0
3.648e-81
0
3.69672e-229
1.17784e-242
0
0
0
0
0
1.63019e-182
0
0
0
0
0
0
0
4.44425e-180
0
0
0
0
1.29488e-266
1.89897e-177
1.56888e-28
0
0
8.79791e-93
1.57268e-290
0
0
0
0
1.43243e-47
0
0
0
0
0
5.89505e-49
4.83577e-264
0
6.66258e-123
0
0
0
1.54685e-230
8.58011e-137
2.06721e-253
1.52092e-179
1.81415e-224
0
0
7.77907e-248
0
0
0
0
0
1.97382e-51
0
0
2.24515e-197
3.16803e-187
3.2778e-222
0
0
0
0
0
1.40845e-277
0
0
1.151e-73
0
0
4.75045e-101
0
0
0
0
0
2.63394e-72
6.55102e-136
1.84191e-93
0
0
7.04788e-249
0
0
0
0
0
0
0
0
0
0
0
0
0
0
6.8919e-55
0
0
0
0
0
0
1.1945e-70
0
0
1.32796e-269
0
0
9.68771e-253
0
0
0
1.24674e-118
2.93525e-57
2.28133e-286
3.56659e-20
1.6807e-68
1.32134e-138
3.66594e-78
0
1.31798e-15
0
9.3463e-08
2.4038e-78
6.38788e-10
0
2.22395e-205
0
1.72293e-247
0
0
0
2.81093e-14
3.7893e-256
0
0
0
0
1.3625e-185
0
4.49298e-260
3.90143e-204
9.78328e-193
4.32428e-256
0
0
9.99438e-32
5.16788e-08
3.04567e-73
4.01095e-225
0
0
0
0
3.20864e-234
0
0
0
0
0
0
0
0
0
8.90261e-36
2.2192e-162
0
3.44944e-22
0
0
0
0
0
0
0
0
0
3.35995e-267
0
0
0
0
0
0
0
0
0
0
0
0
0
4.90805e-96
0
0
0
0
0
0
6.23808e-104
0
0
0
0
0
0
0
0
0
0
0
0
5.98101e-68
0
0
1.40053e-68
0
0
0
2.18088e-70
0
0
0
0
0
6.30131e-280
0
3.22823e-260
0
1.68449e-197
0
8.72009e-113
0
8.98552e-200
0
0
0
0
0
0
0
0
0
0
0
0
0
0
0
1.16765e-227
0
0
0
0
6.82836e-229
0
0
0
0
0
0
0
1.0514e-65
1.65286e-63
1.35422e-72
0
0
0
0
0
0
0
0
0
0
4.04021e-71
0
1.09033e-200
0
0
0
0
0
6.19068e-173
0
0
0
1.90966e-206
0
0
2.45844e-256
0
0
0
0
7.35144e-288
6.82276e-280
0
0
0
3.89294e-91
0
1.628e-235
1.20835e-65
0
2.2143e-63
0
1.42153e-212
6.07885e-135
0
7.98743e-64
4.61829e-215
1.91283e-239
0
0
0
1.7054e-63
0
0
1.17763e-217
2.74156e-177
0
2.80444e-13
0
9.39978e-175
1.28587e-174
5.98418e-286
1.08461e-253
0
9.76038e-213
0
0
0
0
3.35548e-51
1.44195e-191
0
0
4.49146e-214
0
8.86928e-178
3.2132e-80
0
1.45625e-139
0
2.96933e-71
0
1.54801e-231
0
0
0
0
0
0
0
3.60704e-180
0
0
0
0
0
0
0
0
0
0
2.22995e-237
0
0
0
0
0
0
0
0
5.91632e-200
0
5.65458e-242
0
0
0
0
4.25119e-97
0
0
5.95151e-67
9.37285e-108
0
0
7.15734e-242
0
0
3.78917e-124
1.22978e-76
2.0222e-262
0
5.70756e-141
0
0
0
0
0
1.29205e-171
4.62763e-134
7.99185e-139
7.66729e-139
1.58425e-250
2.00161e-169
6.04868e-177
4.49226e-138
3.4249e-174
0
0
2.05705e-143
1.34104e-235
0
0
0
1.496e-171
0
0
0
1.08649e-137
0
0
0
0
0
0
3.26662e-122
2.4646e-287
0
0
0
2.04348e-81
2.46732e-250
0
2.68206e-141
0
1.2301e-216
9.95615e-214
0
0
0
0
5.09291e-82
0
8.12318e-63
1.04523e-68
0
0
1.72575e-85
0
0
0
9.43396e-275
3.8744e-246
9.85762e-139
0
0
0
2.47704e-224
0
0
2.21865e-90
0
0
7.66151e-79
2.07332e-146
2.20608e-141
0
0
0
0
0
5.4826e-144
0
8.85136e-250
0
0
2.10337e-269
0
0
0
2.04123e-136
0
2.47892e-176
1.05622e-143
0
0
0
3.19811e-104
0
0
0
0
0
2.82365e-199
1.43626e-91
2.38138e-83
0
1.85364e-92
1.12303e-98
0
0
0
0
0
2.25225e-238
1.95654e-248
1.43488e-177
0
0
0
0
0
0
0
0
0
0
0
0
0
0
1.48096e-291
6.06152e-163
0
0
5.06636e-159
0
0
1.66034e-151
0
0
0
0
0
0
0
0
0
0
0
3.21513e-169
1.78338e-157
0
0
0
8.23486e-225
9.77673e-118
0
9.19702e-203
1.82612e-104
0
2.70715e-45
0
5.45138e-103
0
2.58041e-132
0
0
0
0
4.25621e-88
0
0
2.65873e-78
0
0
2.20024e-59
1.18396e-38
0
0
1.81886e-103
4.17764e-101
0
0
0
3.00562e-184
0
0
0
2.83428e-120
0
6.26778e-196
0
0
0
0
6.37021e-128
0
1.12001e-177
0
0
0
0
3.44663e-242
0
8.49259e-175
0
9.91745e-269
0
4.67045e-97
0
0
3.35492e-212
0
0
0
0
0
2.01271e-180
0
0
0
0
0
0
2.80846e-255
0
1.97486e-163
7.04669e-178
0
0
0
0
4.39701e-132
0
0
0
0
0
0
0
0
0
0
0
0
0
0
0
0
0
0
0
0
0
0
0
3.0525e-147
0
0
0
0
0
0
0
0
0
0
1.70539e-256
0
0
0
0
4.96192e-156
1.38113e-153
0
0
0
2.69618e-75
0
4.01521e-151
0
0
0
0
0
0
4.3788e-261
0
0
0
2.02784e-148
0
0
0
0
8.29056e-222
0
0
5.42108e-107
0
7.09619e-196
0
0
0
1.04704e-262
0
0
0
0
0
0
0
0
0
0
0
2.96155e-106
0
0
0
0
0
0
0
0
0
0
0
0
0
0
0
0
5.71673e-102
0
0
2.3396e-106
0
0
8.36338e-214
0
0
0
0
1.30447e-146
4.32032e-121
0
9.74195e-277
0
0
0
0
0
0
3.85043e-156
0
0
0
0
2.52318e-126
0
0
0
0
0
0
0
0
0
0
0
0
0
0
0
1.97479e-111
7.91626e-121
0
0
1.02815e-164
0
0
0
0
0
2.07071e-37
0
0
0
0
0
0
0
0
2.31544e-204
0
0
0
2.59615e-99
0
0
0
1.58215e-216
0
0
0
0
0
0
6.81694e-256
1.3209e-248
0
0
0
0
0
0
0
0
0
0
0
0
7.4325e-216
0
0
0
0
0
0
2.08345e-94
1.72293e-166
0
0
0
0
0
0
0
0
0
0
0
0
0
0
0
0
0
0
0
0
0
0
7.32917e-187
0
0
0
0
6.46692e-146
1.37729e-143
0
0
0
4.52652e-141
0
2.39525e-51
0
0
0
0
0
0
0
0
0
0
0
0
0
0
0
0
0
0
0
8.86527e-196
0
2.82939e-276
0
1.81894e-100
0
0
0
0
1.93262e-113
1.63774e-130
1.10988e-122
4.61095e-37
1.70654e-96
0
0
5.2011e-40
0
8.83163e-182
0
0
0
1.14967e-167
1.62796e-165
3.2546e-193
3.08132e-161
0
0
0
0
0
5.32222e-51
0
0
0
0
0
0
0
9.16612e-74
4.88853e-115
0
0
9.58114e-168
0
9.96352e-163
1.13321e-168
2.82208e-165
1.98717e-98
0
0
0
4.04184e-244
2.22005e-212
5.98273e-200
0
1.13784e-265
0
0
0
2.27089e-126
0
0
1.71621e-136
1.24841e-175
0
2.40086e-155
2.55363e-141
7.88972e-210
0
1.14995e-241
0
0
0
1.20636e-136
0
0
0
0
0
0
0
4.71219e-133
0
0
0
0
0
0
0
0
5.85008e-134
0
0
0
0
0
1.8237e-84
0
0
0
6.62383e-270
0
5.24585e-154
0
3.15503e-202
0
0
0
0
0
2.34894e-168
3.23498e-99
0
0
0
0
0
0
0
0
0
0
0
0
0
3.09296e-91
1.20933e-253
0
0
0
0
0
0
0
0
0
1.39326e-104
0
0
3.63059e-205
0
0
0
9.76996e-216
0
0
0
0
4.09466e-184
0
9.64135e-107
0
0
0
0
0
0
0
0
0
0
0
0
3.10236e-212
0
0
0
0
1.77101e-31
6.75221e-91
0
0
0
0
0
0
2.64352e-130
0
0
1.89471e-114
0
0
0
7.13572e-188
3.18247e-116
0
0
0
0
0
0
0
1.00378e-113
0
0
0
0
0
0
0
8.10752e-116
0
0
0
0
0
0
0
0
0
0
0
0
0
0
9.86539e-181
0
0
0
0
0
0
0
0
0
0
0
0
0
0
2.03521e-124
1.12358e-201
0
0
0
0
0
0
0
0
0
0
2.51095e-168
0
0
0
0
0
1.08136e-254
0
0
0
0
5.14623e-120
0
0
1.09922e-122
0
0
2.37555e-129
0
0
0
6.18248e-115
9.57303e-194
0
0
0
0
1.8934e-138
0
0
0
0
0
8.19338e-230
3.60661e-61
0
1.71774e-239
5.89388e-76
0
0
1.09628e-123
3.92704e-180
0
0
6.74594e-129
0
0
0
3.67361e-239
5.45113e-96
0
0
0
2.17748e-179
3.43985e-115
6.89288e-122
0
0
6.59591e-180
0
0
0
0
0
0
3.02295e-97
9.25692e-98
0
8.39829e-129
2.33034e-213
0
0
1.39808e-153
0
0
0
0
0
0
1.87385e-60
0
0
0
0
0
0
3.76306e-221
0
0
0
0
0
0
0
0
0
5.57384e-111
0
0
0
0
8.32131e-165
0
0
0
0
2.31023e-162
0
0
9.25577e-160
1.32871e-74
0
0
0
8.2673e-98
5.75168e-53
0
1.37943e-109
0
0
0
0
0
0
7.20969e-230
0
0
0
0
0
0
0
0
0
4.3593e-101
0
0
1.22021e-167
3.88806e-107
2.02247e-114
0
0
0
0
0
0
0
0
0
0
1.9457e-140
0
0
0
0
0
0
0
0
0
0
0
0
3.39311e-227
0
0
1.11495e-137
0
0
0
0
0
8.18265e-75
7.47832e-148
0
0
0
0
1.03799e-48
1.36381e-150
3.52558e-155
5.30767e-213
1.93681e-128
0
0
1.65159e-210
0
0
0
0
0
0
0
0
0
0
0
0
9.69005e-63
0
0
0
0
0
0
0
0
0
0
3.30824e-208
0
0
0
0
3.62387e-66
0
0
0
0
0
0
0
0
0
0
4.71139e-88
5.39268e-66
0
0
0
0
0
0
9.75233e-106
0
0
4.95791e-94
1.64065e-166
1.62787e-26
2.10671e-106
0
3.60305e-19
0
0
0
0
1.13842e-191
0
0
6.76811e-258
2.48996e-255
0
6.12474e-94
0
0
2.40501e-131
1.00756e-57
400.453
1.12414e-131
0
0
0
0
0
0
0
4.34642e-142
0
0
1.70589e-07
0
0
0
1.30266e-194
0
0
0
0
0
0
0
0
0
1.08308e-122
0
1.86552e-155
0
0
2.06439e-113
0
0
3.75589e-59
0
0
0
1.04806e-05
0
7.78093e-80
0
1.78076e-171
1.80578e-83
1.45212e-84
5.60318e-108
0
0
0
0
1.2054e-67
5.15017e-22
0
0
0.00152255
0
0
0
0
0
0
5.7845e-107
135978
0
0
0
1.93774e-14
0
0
0
0
0
2.32145e-147
4.16544e-101
4.45478e-171
7.37956e-72
0
0
5.1079e-86
0
4.05972e-100
0
0
0
0
0
0
0
0
1.42716e-158
2.17298
0
5.03824e-151
0
0
2.48817e-168
0
2.23245e-125
0
0
0
0
0
0
0
0
0
0
0
0
0
3.42994e-125
0
1.74437e-62
0
0
0
0
0
1.5324e-94
0
0
0
0
0
0
0
3.09317e-55
0
0
0
0
0
3.88415e-09
0
9.43531e-164
1.63153e-97
7.25769e-158
0
0
0
0
0
0
0
0
2.1296e-178
0
0
0
0
0
0
1.61817e-64
2.35978e-91
0
0
0
9.76173e-113
5.68119e-88
0
2.73617e-243
0
0
0
1.59534e-164
2.13168e-57
1.35967e-17
0
0
3.65102e-58
0
0
0
0
3.8677e-125
6.93809e-195
3.08066e-261
0
0
0
0
1.20783e-136
0
0
1.87401e-143
0
2.65537e-205
0
0
0
0
0
0
2.16116e-198
5.71511e-137
0
2.90547e-215
0
0
0
0
0
0
0
0
0
0
1.12887e-122
0
0
0
1.72222e-187
0
0
0
2.80533e-193
0
1.00148e-205
0
0
3.50134e-79
2.29154e-104
0
1.5484e-99
0
1.30217e-54
0
0
0
1.51655e-129
0
0
0
0
3.14684e-97
0
0
0
0
0
0
0
0
0
0
0
2.71644e-263
1.66572e-263
0
8.69406e-261
0
0
1.02274e-223
0
0
0
1.08141e-110
0
0
0
0
0
2.50912e-74
0
0
4.99569e-258
0
2.72726e-34
0
0
0
1.50835e-27
0
0
0
3.25985e-84
1.10186e-95
5.66283e-171
0
0
0
6.49094e-149
0
0
0
9.79577e-185
3.10153e-182
0
0
0
5.80637e-99
4.63816e-116
0
0
0
0
0
0
0
0
0
0
0
0
1.60786e-96
0
0
2.08765e-75
0
0
0
0
0
0
0
0
0
0
0
0
1.26106e-253
0
1.5619e-217
0
0
2.09167e-158
0
0
0
0
0
0
0
8.83983e-74
1.42582e-104
0
0
0
0
5.56918e-176
0
0
1.05506e-198
0
0
0
6.64346e-137
1.27133e-112
8.4227e-119
0
0
0
0
0
1.65676e-87
0
0
0
0
0
9.45981e-96
0
2.30901e-109
0
0
0
4.4822e-63
9.22266e-91
0
1.78062e-88
7.01949e-196
0
0
2.77527e-93
0
0
0
0
0
0
0
0
0
9.03046e-128
1.28541e-193
0
0
0
0
0
0
8.86082e-117
0
0
0
1.16578e-196
0
0
3.05723e-120
2.64449e-123
1.90361e-206
3.7235e-126
0
0
1.14479e-123
4.40656e-121
0
0
0
0
0
3.61854e-130
0
0
0
3.0556e-47
9.88007e-204
6.73806e-122
7.52967e-65
0
1.3861e-133
3.00206e-133
0
0
0
0
0
0
0
1.15941e-35
0
3.60808e-77
0
1.03362e-241
0
0
6.64201e-187
3.05961e-49
1.95873e-136
0
0
0
9.55941e-79
5.87805e-152
1.94987e-177
0
0
1.47303e-27
0
0
0
0
1.03275e-156
8.37514e-129
0
0
1.7921e-56
1.52927e-158
0
7.66263e-79
0
6.78377e-259
5.75926e-67
2.09443e-71
4.24685e-189
0
0
2.60662e-109
2.93048e-239
2.14291e-71
0
0
0
4.28121e-258
7.37714e-187
0
6.62307e-182
0
1.38339e-98
0
0
0
0
0
0
1.37505e-117
7.91499e-123
0
0
0
0
1.40951e-116
3.81572e-118
1.05767e-119
1.26308e-115
1.40367e-192
5.60378e-79
0
2.10153e-159
0
7.16077e-179
5.64137e-71
0
3.27815e-189
0
0
0
6.35575e-235
4.80429e-154
7.04265e-140
1.47664e-21
5.74741e-55
1.45598e-120
3.62279e-20
0
1.96902e-80
0
0
0
6.24522e-66
0
4.70293e-156
2.62814e-105
0
1.61132e-153
1.06849e-41
2.88476e-10
0
0
8.964e-221
0
7.55725e-193
0
0
0
0
0
0
0
0
0
0
0
6.63001e-62
7.04794e-92
0
1.25568e-111
0
0
0
0
0
0
0
0
1.35225e-179
0
3.59818e-16
0
0
0
6.72301e-90
0
0
0
0
0
3.61903e-122
0
0
0
0
0
0
1.95147e-159
0
3.65022e-47
2.39058e-160
0
8.09172e-32
0
3.36537e-69
1.22097e-131
0
0
0
0
0
0
0
0
0
0
0
1.70546e-206
0
0
0
0
0
6.14529e-84
0
0
0
0
0
0
0
0
0
1.72602e-109
0
0
0
0
0
1.10657e-99
0
0
0
0
0
0
0
0
0
0
2.12031e-109
0
0
0
0
0
0
4.87728e-109
0
0
8.82414e-133
6.95399e-43
0
0
1.72786e-39
0
0
0
0
0
0
9.39664e-43
0
2.04855e-11
0
0
2.7691e-98
0
0
0
2.70708e-222
3.05594e-89
1.69382e-192
0
2.01655e-232
3.75729e-95
5.26122e-116
0
0
0
5.6219e-141
0
0
18216
0
9.08638e-06
1.2332e-94
0
3.96404e-12
0
3.61129e-34
0
1.78027e-11
0
0
0
5.20778e-09
0
0
0
0
5.33812e-85
0
5.26338e-111
0
0
0
0
1.96426e-154
0
3.71147e-50
3.95363e-127
7.81856e-177
9.21186e-20
2.58389e-42
2.53713e-120
1.62708e-21
0
0
0
0
0
0
2.66786e-53
0
4.3957e-147
0
1.4812e-70
0.00305047
0
0
1.86027e-47
1.06998e-38
0
4.2219e-08
1.43568e-168
3.50608e-125
0
1.30042e-206
0
5.45656e-103
0
4.48932e-178
0
1.62079e-192
0
4.06443e-141
1.91951e-149
0
0
0
0
0
0
3.72563e-174
0
0
4.23616e-50
0
7.55273e-204
0
1.81745e-95
0
5.97877e-149
0
0
3.69151e-83
9.92138e-179
0
0
2.34376e-153
0
3.02112e-120
0
0
5.03167e-137
6.88014e-85
0
0
2.24252e-57
1.35152e-170
0
0
0
0
0
1.28583e-118
4.56557e-161
0
0
0
0
0
1.31949e-70
0
2.9751e-103
2.33729e-88
3.85733e-75
1.35699e-18
0
6.06763e-188
3.06263e-59
0
0
0
0
2.33501e-161
0
2.30109e-76
3.88149e-76
8.4203e-144
0
1.38166e-98
0
6.62073e-172
0
4.22684e-86
2.82897e-170
0
2.33108e-141
0
0
0
0
0
9.873e-124
0
4.65179e-195
5.61856e-241
5.97337e-159
0
0
2.09784e-124
1.49254e-154
2.2126e-165
0
0
3.28091e-266
2.96305e-125
0
0
0
0
0
7.81232e-179
5.30677e-176
1.47343e-160
0
0
2.69372e-198
0
0
0
6.86763e-162
0
0
0
0
0
0
0
1.78238e-154
0
0
0
0
0
6.09884e-181
0
0
9.55032e-225
0
0
4.79217e-200
0
8.01662e-246
0
2.99715e-193
1.11593e-83
0
2.72749e-94
0
0
0
2.51182e-239
6.97454e-128
0
0
0
0
4.14638e-143
0
0
0
0
1.28323e-113
0
0
0
2.10162e-42
0
1.14903e-65
4.41132e-74
0
1.70029e-118
0
1.26216e-178
0
4.86737e-134
5.92051e-76
6.19026e-29
0
0
4.21491e-99
0
0
3.79523e-90
0
7.34468e-27
0
0
0
0
2.61723e-227
0
0
9.34193e-27
3.17466e-92
0
0
1.08891e-143
0
0
3.31928e-76
0
3.12966
0
0
0
2.21597e-74
1.35469e-135
8.29112e-62
0
0
0
5.37879e-54
0
4.14187e-115
2.72939e-148
1.69605e-126
2.7241e-76
1.47571e-70
10.228
0
188.695
1.24131e-190
0.234375
0
0
2.15157e-129
1.13149e-64
0
0
2.13509e-117
8.23178
0
0
0.0158565
0
0
0
0
0
0
0
8.55364e-48
2.87647e-114
4.69135e-62
0
0
7.62264e-46
0
0
2.08577e-129
0
0
0
0
0
0
0
3.67594e-58
9.27149e-63
4.23603e-139
0
0
0
5.71102e-132
0
0
1.17169e-224
1.54142e-77
0
0
7.12642e-118
0
0
0
0
0
0
0
5.06792e-149
0
0
6.87237e-171
3.10816e-81
0
0
0
0
0
6.4811e-82
1.18571e-112
0
0
0
2.28753e-121
2.53598e-85
0
0
0
0
0
0
1.23508e-125
5.10254e-74
6.75191e-171
0
0
2.45687e-136
0
0
0
0
4.45695e-91
0
1.17257e-266
0
0
0
3.82081e-252
6.58605e-209
0
0
0
0
0
0
0
9.76419e-161
5.17785e-137
3.08751e-133
0
0
0
7.62616e-264
0
0
0
0
3.39306e-221
0
0
0
0
0
0
0
2.05009e-89
0
2.0432e-171
0
0
0
0
0
0
2.97839e-197
2.67123e-169
0
0
0
0
0
1.6702e-211
0
0
0
5.4118e-125
0
0
0
0
1.18257e-215
6.11734e-169
2.57694e-268
0
1.75394e-171
0
3.37151e-234
0
0
0
0
0