/*--------------------------------*- C++ -*----------------------------------*\
| =========                 |                                                 |
| \\      /  F ield         | OpenFOAM: The Open Source CFD Toolbox           |
|  \\    /   O peration     | Version:  v2012                                 |
|   \\  /    A nd           | Website:  www.openfoam.com                      |
|    \\/     M anipulation  |                                                 |
\*---------------------------------------------------------------------------*/
FoamFile
{
    version     2.0;
    format      ascii;
    class       volScalarField;
    location    "0.5";
    object      qr;
}
// * * * * * * * * * * * * * * * * * * * * * * * * * * * * * * * * * * * * * //

dimensions      [1 0 -3 0 0 0 0];


internalField   uniform 0;

boundaryField
{
    fire_inlet
    {
        type            calculated;
        value           nonuniform List<scalar> 
41
(
-1.68043e-10
-1.14881e-10
-3.1477e-11
-4.26041e-11
-2.2311e-11
1.33582e-12
-1.56888e-11
-7.30438e-12
-3.33671e-11
-1.58167e-11
-1.3614e-11
-2.27658e-11
-1.03057e-10
-3.89946e-11
-3.73603e-11
-9.10063e-11
-5.36318e-11
-3.23439e-11
-7.28733e-11
-3.61808e-11
-9.94191e-11
-1.69166e-10
-3.72182e-11
-5.1827e-11
-1.56234e-10
-1.02602e-10
-1.06084e-10
-1.14269e-10
-5.22391e-11
-7.13385e-11
-3.55698e-11
-6.807e-11
-3.89662e-11
-7.09406e-11
-9.53548e-11
-4.86295e-11
-5.12159e-11
-5.51381e-11
-8.57625e-11
-6.27267e-11
-6.39773e-11
)
;
    }
    outlet
    {
        type            calculated;
        value           nonuniform List<scalar> 
400
(
-8.7887e-11
-8.3368e-11
-5.5735e-11
-4.24123e-11
-1.51843e-11
-3.51008e-12
-6.25278e-13
-4.40536e-13
-3.3431e-11
-1.20366e-11
-3.41061e-12
-1.14255e-11
-1.73372e-12
-2.25953e-12
-9.52127e-13
-1.27898e-12
-3.3971e-11
-7.82165e-11
-2.44782e-11
-6.08154e-11
-1.25979e-11
-2.63327e-11
-3.10578e-11
-1.75291e-11
-4.11688e-11
-3.09441e-11
-3.61808e-11
-3.00062e-11
-2.23253e-11
-4.29878e-11
-4.76064e-13
-5.71561e-11
-4.92335e-11
-9.72022e-12
-1.75504e-12
-4.58726e-11
-6.11067e-13
-4.78124e-11
-9.37916e-13
-9.62075e-12
-8.44196e-11
-4.27178e-11
-3.28271e-12
-8.81073e-13
-1.53761e-11
-8.81073e-13
-1.31521e-11
-2.89191e-12
-1.47082e-12
-3.40634e-11
-2.98428e-11
-9.33227e-11
-3.82983e-12
-3.84404e-12
-2.81943e-11
-4.40892e-11
-1.74722e-11
-8.13571e-12
-1.41682e-11
-4.65405e-12
-7.87992e-12
-3.363e-11
-3.55769e-11
-1.87299e-11
-2.40021e-11
-3.14841e-11
-1.98739e-11
-4.49631e-11
-2.03215e-11
-8.2423e-13
-8.02913e-13
-7.60281e-13
-1.51346e-12
-9.9476e-13
-2.30074e-11
-4.4956e-11
-3.13136e-11
-1.30811e-11
-3.2756e-12
-1.01679e-11
-4.29878e-12
-7.87992e-12
-9.39337e-12
-6.35936e-12
-1.55822e-11
-6.30962e-12
-1.70388e-11
-9.34364e-12
-1.06581e-11
-4.5759e-12
-1.22924e-12
-6.0183e-12
-5.59908e-12
-1.73657e-11
-1.4353e-12
-2.8777e-12
-6.71463e-12
-2.90612e-12
-3.62377e-12
-2.71427e-12
-1.50447e-09
-1.46864e-09
-1.07239e-09
-8.11298e-10
-4.25587e-10
-2.24112e-10
-6.99529e-11
-3.54987e-11
-2.2937e-10
-8.3439e-11
-5.77671e-11
-5.4186e-11
-4.78408e-11
-5.58984e-11
-3.48876e-11
-4.14104e-11
-1.31124e-10
-1.09305e-09
-6.05802e-10
-6.51255e-10
-2.59533e-10
-4.36927e-10
-1.32708e-10
-2.51752e-10
-8.55849e-11
-1.07256e-10
-7.99503e-11
-9.63638e-11
-7.74634e-11
-7.46624e-10
-2.20339e-11
-1.02698e-09
-8.33523e-10
-4.17572e-10
-2.11813e-10
-2.13156e-10
-9.24985e-11
-1.03041e-09
-2.81162e-11
-1.01182e-09
-1.44581e-10
-1.52452e-09
-6.44739e-10
-3.37153e-11
-9.06724e-11
-1.24516e-10
-4.27747e-11
-5.53392e-10
-4.35804e-10
-2.07493e-10
-2.88765e-10
-1.48077e-10
-5.65898e-10
-7.53765e-10
-7.39618e-10
-5.07896e-11
-6.90079e-11
-5.33475e-11
-4.72653e-11
-1.36935e-09
-5.00656e-10
-3.404e-10
-3.17144e-10
-1.50514e-10
-2.45883e-10
-4.5199e-10
-8.99284e-10
-5.88187e-11
-3.94273e-10
-2.3114e-11
-8.05542e-11
-4.91838e-11
-7.90301e-10
-3.52145e-11
-5.95335e-10
-6.05212e-10
-4.40892e-11
-6.89084e-11
-6.26272e-11
-1.29027e-10
-4.78266e-10
-3.71976e-10
-2.34124e-11
-9.07008e-11
-4.96598e-11
-5.51807e-11
-2.9911e-10
-1.35003e-10
-4.31442e-11
-4.37062e-10
-5.54223e-11
-3.33749e-10
-3.11879e-10
-1.64057e-10
-6.71818e-11
-5.29496e-11
-1.04606e-10
-1.68278e-10
-2.71285e-10
-1.58224e-10
-7.92184e-11
-3.0937e-11
-5.51879e-11
-5.41007e-11
-7.14309e-11
-3.07971e-10
-2.03634e-10
-5.29141e-11
-1.79853e-10
-8.91944e-11
1.15733e-10
3.76019e-11
8.6203e-11
7.7705e-11
1.00954e-10
1.14568e-10
1.03654e-10
1.25766e-10
1.221e-10
1.46287e-10
1.28978e-10
1.21048e-10
9.79412e-11
7.86997e-11
1.30797e-10
1.17751e-10
1.39124e-10
1.52625e-10
1.77067e-10
1.95399e-10
2.06995e-10
2.07109e-10
1.18973e-10
1.64704e-10
2.10861e-10
2.22627e-10
2.73616e-10
2.64748e-10
3.18522e-10
3.18295e-10
3.33017e-10
3.29806e-10
3.04027e-10
6.63221e-10
6.77943e-10
5.14433e-10
4.53554e-10
4.68702e-10
4.28599e-10
4.64638e-10
2.34309e-10
2.20354e-10
4.97295e-10
4.33886e-10
6.8772e-10
6.62908e-10
1.87441e-10
2.24532e-10
4.7541e-10
6.47304e-10
5.15683e-10
4.05834e-10
5.40012e-10
9.40474e-11
2.49742e-10
3.58597e-10
3.43846e-10
5.72271e-10
7.86429e-11
5.35493e-10
5.1287e-10
2.47439e-10
5.02325e-10
5.43622e-10
4.35762e-10
3.84688e-10
5.6707e-10
2.34053e-10
1.4839e-10
1.35543e-10
8.15703e-11
1.14767e-10
1.01892e-10
1.06553e-10
1.14142e-10
6.54268e-11
1.22299e-10
1.34662e-10
1.85935e-10
1.7755e-10
2.08473e-10
1.97957e-10
1.85565e-10
2.0114e-10
1.97474e-10
1.91648e-10
2.46814e-10
2.62304e-10
3.48081e-10
2.8831e-10
4.63046e-10
1.05445e-10
5.38478e-10
5.81707e-10
4.20272e-10
4.79872e-10
4.47358e-10
3.92191e-10
3.89235e-10
2.52072e-10
2.32063e-10
3.46745e-10
4.39542e-10
5.42315e-10
4.81208e-10
2.17113e-10
1.23237e-10
8.54641e-11
4.89223e-10
2.41727e-10
5.58742e-10
1.15222e-10
4.22091e-10
1.62999e-10
4.41219e-10
4.48296e-10
1.26988e-10
5.05082e-10
4.75239e-10
3.91736e-10
3.5979e-10
3.55243e-10
1.77323e-10
1.96621e-10
2.28937e-10
1.5595e-10
2.60997e-10
1.77948e-10
1.67319e-10
2.00686e-10
1.8872e-10
2.27999e-10
1.90511e-10
1.75334e-10
1.88237e-10
2.06086e-10
2.33172e-10
2.25981e-10
2.97206e-10
3.56948e-10
3.09541e-10
1.35486e-10
3.82244e-10
3.5277e-10
3.41913e-10
3.80595e-10
4.86949e-10
3.96426e-10
4.21153e-10
5.23244e-10
3.51378e-10
5.14234e-10
2.09553e-10
2.59689e-10
1.05018e-10
4.23285e-10
4.54975e-10
4.00291e-10
3.24007e-10
4.49916e-10
2.14044e-10
1.80876e-10
2.0799e-10
1.71951e-10
2.02732e-10
2.87486e-10
1.80023e-10
2.66454e-10
3.45182e-10
3.04937e-10
2.25953e-10
3.9239e-10
3.23695e-10
2.70916e-10
1.26505e-10
1.78488e-10
2.19103e-10
3.84745e-10
3.50411e-10
2.14726e-10
2.29335e-10
2.2294e-10
2.71967e-10
2.97945e-10
3.45125e-10
2.09951e-10
4.50228e-10
2.9803e-10
2.0998e-10
2.55994e-10
)
;
    }
    base
    {
        type            calculated;
        value           nonuniform List<scalar> 
14237
(
-1.73941e-11
-1.57456e-11
-1.00613e-11
-3.89662e-11
-2.20268e-11
-1.70814e-11
-1.09992e-11
-9.83391e-12
4.54747e-13
8.2423e-13
2.07478e-12
-9.6037e-11
-1.0229e-10
-6.19309e-11
-2.59206e-11
-2.94733e-11
-6.42331e-12
-2.24532e-12
-1.13687e-13
2.84217e-14
1.42109e-13
7.10543e-13
9.66338e-13
1.50635e-12
2.41585e-12
2.67164e-12
4.3201e-12
-1.00584e-10
-7.0969e-11
-6.99174e-12
-2.99281e-11
-2.99565e-11
5.96856e-13
3.12639e-13
8.2423e-13
1.25056e-12
3.72324e-12
-6.94342e-11
2.359e-12
-3.78009e-12
-2.47269e-12
-5.96856e-13
1.27898e-12
-7.00311e-11
2.50111e-12
3.9222e-12
3.72324e-12
-2.84217e-14
-1.39266e-12
-3.63798e-12
4.20641e-12
-7.42091e-11
-1.27898e-12
-2.6148e-12
-4.83169e-12
-6.53699e-13
-3.69482e-12
-1.02631e-10
7.78755e-12
3.65219e-12
1.9611e-12
-5.11591e-13
-5.96856e-13
-1.37845e-12
-2.03215e-12
1.81899e-12
3.12639e-13
-1.71951e-12
-4.09273e-12
5.08749e-12
7.23333e-12
-2.88239e-09
-2.24988e-09
-1.39978e-09
-2.26811e-09
-9.50749e-10
-1.40551e-09
-8.38341e-10
-9.79753e-10
-5.70765e-10
-7.47065e-10
-4.57334e-10
-5.52816e-10
-4.53269e-10
-3.90443e-10
-3.83238e-10
-3.97776e-10
-4.61711e-10
-4.06601e-10
-1.19958e-09
-5.81352e-10
-1.33059e-09
-1.33015e-09
-1.5139e-09
-1.0653e-09
-1.02526e-09
-9.1984e-10
-1.21844e-09
-1.0199e-09
-9.21332e-10
-8.99959e-10
-8.80178e-10
-8.45105e-10
-7.8505e-10
-7.00965e-10
-6.61231e-10
-6.55049e-10
-4.93912e-10
-4.52488e-10
-5.66047e-10
-4.9279e-10
-4.48026e-10
-4.38021e-10
-3.61013e-10
-3.94849e-10
-3.91168e-10
-4.0572e-10
-3.10976e-10
-2.81247e-10
-2.59817e-10
-3.02506e-10
-2.6462e-10
-2.34053e-10
-2.76899e-10
-3.06471e-10
-3.47157e-10
-3.12582e-10
-2.6688e-10
-3.37508e-10
-3.0451e-10
-3.23482e-10
-2.31552e-10
-2.71427e-10
-3.19034e-10
-2.43077e-10
-1.58877e-11
-2.30074e-11
-2.86065e-11
-2.65885e-11
-2.359e-11
-4.56453e-11
-6.38209e-11
-8.20961e-11
-1.87768e-10
-5.21538e-12
2.24532e-12
-1.92131e-11
-7.07701e-12
2.06057e-12
1.50635e-12
1.3074e-12
-1.54898e-12
9.09495e-13
-1.77636e-12
-3.1406e-12
-7.71649e-12
4.56168e-12
8.88178e-12
9.09495e-12
9.26548e-12
1.24487e-11
4.13536e-12
1.97531e-12
4.76064e-12
3.31113e-12
8.05755e-12
7.02016e-12
2.03784e-11
1.06724e-11
3.92788e-11
3.20881e-11
9.84386e-11
6.89511e-11
2.10107e-10
1.20835e-10
2.70276e-10
2.49969e-10
3.53495e-10
3.5665e-10
6.39915e-10
7.58519e-10
5.40524e-10
6.30422e-10
7.25535e-10
6.39346e-10
5.85061e-10
7.15531e-10
6.05795e-10
6.45201e-10
5.78765e-10
6.68933e-10
6.39361e-10
7.35781e-10
5.09559e-10
5.58984e-10
5.91726e-10
4.87745e-10
4.18609e-10
4.51323e-10
3.74911e-10
4.7504e-10
3.85924e-10
3.75323e-10
4.01315e-10
3.51449e-10
2.98243e-10
2.59718e-10
2.31623e-10
2.32049e-10
2.18861e-10
1.51502e-10
1.59815e-10
1.10262e-10
1.43586e-10
2.85638e-11
4.40252e-11
-6.645e-11
-6.02398e-11
-2.48605e-10
-2.05674e-10
-4.33303e-10
-3.89832e-10
-6.93092e-10
-4.35605e-10
-9.5028e-10
-6.67569e-10
-1.64574e-09
-1.56525e-09
-2.65528e-09
-1.1122e-09
-1.15426e-09
-1.69548e-09
-2.14332e-09
-1.77124e-09
-1.7249e-09
-9.43615e-10
-8.53447e-10
-6.51113e-10
-3.73518e-10
-3.30957e-10
-3.39952e-10
-2.60869e-10
-2.33285e-10
-2.53564e-10
-4.96669e-10
-5.78112e-10
-1.14896e-09
-1.57495e-09
-2.23963e-09
-1.39464e-09
-3.38288e-09
-4.52043e-09
-5.2236e-09
-5.72314e-09
-4.47925e-09
-4.48293e-09
-3.36034e-09
-2.28664e-09
-1.646e-09
-1.07892e-09
-1.0286e-09
-9.54728e-10
-9.13587e-10
-1.10913e-09
-4.17657e-10
-3.35376e-12
-2.13731e-11
-3.12355e-11
-2.69864e-11
-2.63753e-11
-3.29692e-11
-5.27081e-11
-8.05613e-11
-9.96891e-11
1.98952e-13
-2.13163e-13
-1.93694e-11
-1.82609e-11
-2.08047e-11
-7.10543e-14
3.97904e-13
2.27374e-13
1.42109e-12
-2.55795e-13
1.09424e-12
-3.55271e-13
-3.12639e-12
-2.32532e-09
-1.58974e-09
-1.89632e-09
-1.06229e-09
-1.34408e-09
-1.44917e-09
-1.32694e-09
-2.11534e-09
-1.74329e-09
-1.83203e-09
-1.53852e-09
-8.18915e-10
-7.36662e-10
-4.52971e-10
-4.07212e-10
-3.97904e-10
-2.95401e-10
-2.73914e-10
-2.74255e-10
-3.1109e-10
-5.29596e-10
-6.74348e-10
-1.4127e-09
-1.05325e-09
-2.32838e-09
-3.93484e-09
-5.10147e-09
-5.09381e-09
-4.91413e-09
-5.11278e-09
-4.2034e-09
-2.97584e-09
-2.03677e-09
-1.32766e-09
-1.12904e-09
-9.94731e-10
-2.90545e-09
-2.71001e-11
-2.33911e-11
-2.38884e-11
-1.89146e-11
-4.16378e-11
-6.23999e-11
-9.50848e-11
-5.00535e-10
-1.2875e-11
4.56168e-12
4.40536e-13
6.53699e-13
-1.13687e-12
-2.52953e-12
-8.52651e-13
-2.54374e-12
-6.57963e-12
-8.08598e-12
-3.78009e-12
-1.59332e-09
-9.24786e-10
-7.87253e-10
-4.284e-10
-3.18622e-10
-3.26295e-10
-2.91394e-10
-2.49599e-10
-1.7981e-10
-2.10107e-10
-4.40053e-10
-5.04158e-10
-9.77025e-10
-1.16009e-09
-1.78198e-09
-3.92833e-09
-4.48402e-09
-4.96549e-09
-4.531e-09
-4.26218e-09
-3.22669e-09
-2.2476e-09
-1.41877e-09
-1.384e-09
-1.12634e-09
-1.13079e-09
-1.23208e-11
-2.70148e-11
-2.52527e-11
-2.21547e-11
-3.69056e-11
-4.35847e-11
-6.97469e-11
-1.76371e-10
1.35003e-12
-6.96332e-13
-5.82645e-13
-2.16005e-12
-4.26326e-13
-2.75691e-12
-9.57812e-12
-6.37712e-10
-3.96895e-10
-3.14827e-10
-3.85327e-10
-1.98014e-10
-1.71624e-10
-2.17582e-10
-3.65802e-10
-4.88825e-10
-7.60267e-10
-1.18114e-09
-1.47644e-09
-2.38413e-09
-4.1962e-09
-4.60054e-09
-5.10332e-09
-4.80708e-09
-4.90607e-09
-3.71152e-09
-3.03999e-09
-2.11296e-09
-1.12961e-09
-1.23171e-09
-1.37419e-11
4.59011e-12
5.82645e-13
-1.71052e-09
-1.73667e-09
-8.01663e-10
-2.12759e-09
-1.70267e-09
-3.24209e-09
-1.73515e-11
-4.44672e-10
-1.14105e-09
-9.97318e-10
-1.14765e-09
-7.09832e-10
-8.98922e-10
-5.0666e-10
-5.32481e-10
-3.71472e-10
-4.27377e-10
-2.78206e-10
-3.63897e-10
-2.65217e-10
-2.4734e-10
-3.30616e-10
-2.92587e-10
-1.13674e-09
-6.6062e-10
-8.45546e-12
-1.59162e-12
3.12639e-12
-8.43684e-10
-6.89312e-10
-7.58092e-10
-5.51623e-10
-5.80556e-10
-4.78607e-10
-5.20473e-10
-4.45681e-10
-4.33303e-10
-3.34467e-10
-3.9266e-10
-4.32337e-10
-4.28642e-10
-4.00888e-10
-3.851e-10
-2.60016e-10
-3.14472e-10
-2.58012e-10
-2.84174e-10
-2.49415e-10
-2.39297e-10
-2.31296e-10
-2.6381e-10
-2.73829e-10
-1.60483e-10
-3.46773e-10
-3.0991e-10
-3.52529e-10
-3.13364e-10
-2.73403e-10
-3.41075e-10
-2.15522e-10
-2.65487e-10
-2.7454e-10
-4.40068e-10
-3.92177e-10
2.10321e-12
-1.82183e-11
-1.66978e-11
-2.14726e-11
-2.43574e-11
-2.42153e-11
-2.84786e-11
-1.70814e-11
-1.76783e-11
-3.97335e-11
-5.21538e-11
-6.14619e-11
-1.33483e-10
-3.68374e-10
9.23706e-13
-1.19041e-09
2.41585e-13
8.3844e-13
-1.49498e-11
5.68434e-12
-3.45324e-12
-1.19913e-09
3.2685e-13
4.26326e-13
-5.54223e-13
-8.66862e-13
-7.37543e-12
-1.42109e-13
-2.21689e-12
-1.64846e-12
-5.15854e-12
-6.66489e-12
-7.64544e-12
-1.08429e-11
-1.13118e-11
-4.85187e-10
-2.85087e-09
-1.55836e-09
5.27223e-12
-2.84217e-13
5.64171e-12
-6.39488e-13
-5.11591e-12
4.26326e-14
-1.09424e-12
6.65068e-12
2.52953e-12
3.38218e-11
1.51346e-11
6.23288e-11
4.57447e-11
1.19357e-10
6.21299e-11
1.6577e-10
1.26406e-10
1.83803e-10
1.79014e-10
3.36485e-10
6.37982e-10
3.23524e-10
-1.71867e-09
5.02581e-10
4.25288e-10
5.25731e-10
4.62464e-10
4.25842e-10
3.7636e-10
4.76675e-10
4.18481e-10
5.10795e-10
3.59805e-10
5.10823e-10
4.45681e-10
4.21167e-10
4.63913e-10
3.77497e-10
3.3063e-10
3.67677e-10
2.85922e-10
4.04356e-10
3.38559e-10
2.9786e-10
3.45679e-10
2.31594e-10
2.34778e-10
1.78417e-10
1.84642e-10
1.60284e-10
1.19314e-10
1.04464e-10
1.05317e-10
4.0643e-11
6.32241e-11
-1.14966e-11
-2.25953e-12
-2.1484e-10
-1.55239e-10
-3.27958e-10
-2.48193e-10
-3.2388e-10
-3.28484e-10
-6.61899e-10
-3.53722e-10
-1.27476e-09
-1.57218e-09
-8.50648e-10
-6.44363e-10
-1.459e-09
-1.53139e-09
-1.40065e-09
-1.29447e-09
-1.14798e-09
-1.39175e-09
-1.49572e-09
-1.30538e-09
-6.48356e-10
-5.78297e-10
-9.64917e-12
-5.70807e-10
-5.03377e-10
-1.49869e-09
-1.66555e-09
-1.56952e-09
-2.88281e-10
-2.04807e-10
-2.62617e-10
-1.75945e-10
-1.32545e-10
-1.58309e-10
-2.46018e-10
-4.07482e-10
-8.51955e-10
-8.80064e-10
-9.25752e-10
-1.31429e-09
-1.24081e-09
-1.69065e-09
-1.2264e-09
-4.39267e-09
-4.31847e-09
-4.25479e-09
-3.8293e-09
-3.28717e-09
-2.39424e-09
-1.6513e-09
-1.08078e-09
-8.83205e-10
-8.5123e-12
-9.60654e-12
-8.66706e-10
-6.62155e-10
-1.07852e-09
-2.60695e-09
-3.31113e-12
-2.65743e-12
-1.84528e-09
-1.57219e-09
-2.48546e-09
7.5886e-12
-1.19975e-09
-1.28706e-09
-3.98231e-10
-1.36554e-09
-1.35304e-09
-8.27001e-10
-8.42917e-10
-2.09326e-11
-2.42153e-11
-2.02931e-11
-1.45519e-11
-2.87059e-11
-4.42668e-11
-7.85576e-11
-1.79554e-10
-1.97289e-10
-2.10164e-10
-3.33898e-10
-1.25145e-09
-3.9914e-10
-2.78533e-12
-1.97531e-12
-4.13536e-12
5.68434e-14
-6.06803e-12
-9.6918e-12
-1.08002e-11
-1.27613e-11
-8.78231e-12
-5.72555e-10
-7.69631e-10
-2.66624e-09
-1.11555e-11
-5.68832e-10
-3.2631e-10
-2.65203e-10
-2.76557e-10
-1.84599e-10
-1.29319e-10
-1.355e-10
-1.79625e-10
-4.27946e-10
-4.98844e-10
-8.45517e-10
-9.2389e-10
-2.91024e-10
-3.7944e-09
-2.37037e-11
-3.07321e-09
-4.00631e-09
-3.53396e-09
-4.2767e-09
-3.27707e-09
-2.436e-09
-1.71654e-09
-1.37604e-09
-9.62615e-10
-5.86084e-10
-4.02622e-10
-1.39266e-12
-1.97261e-10
-1.0233e-09
-1.25185e-09
-1.75095e-09
-2.31243e-09
-3.14778e-09
-3.5418e-09
-1.01986e-09
-8.48175e-10
-1.27051e-09
-9.67219e-10
-1.6836e-09
-2.31097e-09
-2.36756e-09
-3.79701e-09
-3.41056e-09
-7.1266e-10
-5.70438e-10
-3.63087e-10
-3.44343e-10
-1.46613e-10
-8.70983e-11
-1.0283e-10
7.71649e-12
-2.37834e-09
-8.05755e-12
-1.79341e-11
-1.09708e-11
-2.08148e-09
-4.91269e-11
-6.03293e-10
-7.07701e-12
-3.19602e-11
-3.61382e-11
-1.30328e-10
-2.87059e-12
-1.36566e-11
-2.77112e-12
-3.49587e-12
-2.98428e-12
-8.29914e-12
-1.40119e-11
-8.02061e-11
-1.49953e-10
-2.62887e-10
-2.30841e-10
-3.35717e-10
-2.91493e-10
-1.83505e-10
-2.01268e-10
-3.47313e-09
-3.44559e-09
-3.34714e-09
-3.86497e-09
-9.40986e-10
-8.82139e-10
-4.55884e-10
-6.96005e-10
-3.57318e-10
-5.288e-10
-3.42197e-10
-3.53054e-10
-2.60954e-10
-3.04922e-10
-2.8696e-10
-3.07509e-10
-8.95298e-10
-8.05869e-10
-5.2286e-10
-1.21503e-11
-7.25393e-10
-1.15108e-11
-1.18092e-11
-5.61243e-10
-4.5732e-10
-6.00792e-10
-3.53268e-10
-4.06075e-10
-3.88567e-10
-3.95318e-10
-4.30461e-10
-4.16236e-10
-4.41389e-10
-4.60645e-10
-3.54831e-10
-3.85896e-10
-2.25768e-10
-3.24988e-10
-2.57216e-10
-2.22101e-10
-3.25628e-10
-4.17955e-10
-3.37138e-10
-3.56536e-10
-5.06844e-10
-4.25388e-10
-3.39938e-10
-5.50969e-10
-3.83338e-10
-4.75481e-10
-3.51662e-10
-3.98543e-10
-1.79909e-11
-1.83036e-11
-2.01936e-11
-2.30926e-11
-2.05915e-11
-2.21267e-09
-3.95488e-11
-6.91998e-10
-1.16057e-09
-2.52655e-10
-3.51008e-12
-2.59504e-10
-3.89988e-10
-3.59535e-11
-5.47118e-11
-5.25802e-13
-3.65219e-12
4.9738e-13
-1.4353e-12
-1.73657e-11
-5.28502e-11
-1.64277e-11
-1.89146e-11
-5.99556e-11
-6.03819e-11
-7.19069e-11
-1.97474e-10
-6.89013e-10
-7.35369e-10
-7.84866e-10
-5.94014e-12
-4.66116e-12
-5.04485e-12
-3.59535e-12
-5.17275e-12
9.87654e-12
-4.40536e-13
4.02594e-11
2.05631e-11
6.48015e-11
5.29496e-11
1.07534e-10
1.03839e-10
1.53562e-10
1.54074e-10
3.38559e-10
3.91822e-10
2.12509e-10
-1.42919e-10
3.87686e-10
3.9131e-10
3.78051e-10
3.06187e-10
3.68345e-10
3.50553e-10
3.07637e-10
3.07537e-10
4.47471e-10
3.77554e-10
4.65619e-10
4.10722e-10
3.45551e-10
3.47114e-10
2.87315e-10
2.95131e-10
3.42354e-10
2.41485e-10
2.36895e-10
2.54644e-10
2.36611e-10
2.22101e-10
1.85011e-10
1.89317e-10
1.19826e-10
1.30868e-10
1.05601e-10
1.04492e-10
5.3916e-11
7.10259e-11
-3.22586e-12
4.26326e-13
-1.59176e-10
-9.82965e-11
-2.85198e-10
-1.67219e-10
-3.3144e-10
-2.98442e-10
-8.4593e-10
-1.19593e-09
-5.22959e-12
-1.08429e-11
-4.59139e-10
-5.58941e-10
-1.37774e-10
-2.57586e-10
-2.05333e-10
-1.7566e-10
-9.77849e-11
-1.97019e-10
-1.31308e-10
-6.82547e-11
-4.32294e-11
-9.66338e-13
-6.55547e-11
-3.84972e-11
-1.56888e-11
-8.86757e-12
-1.56106e-10
-3.30076e-10
-1.29222e-09
-5.5168e-10
-2.8902e-10
-2.50594e-10
-4.1581e-11
-4.0643e-11
-3.08435e-09
-4.95277e-10
-3.88681e-10
-5.86809e-10
-2.58359e-09
-2.57292e-09
-2.35723e-09
-2.59662e-09
-3.42193e-09
-2.9921e-09
-2.2772e-09
-1.5724e-09
-1.15368e-09
-1.06533e-09
-4.17074e-10
-3.21421e-10
-3.98728e-10
-1.76038e-09
-1.12128e-09
-6.97838e-10
-5.69202e-10
4.73221e-12
6.92069e-12
-9.12337e-12
-1.37888e-10
-1.21119e-10
-4.29438e-10
-1.64846e-12
5.74119e-12
-6.46594e-12
-3.40236e-10
-3.6664e-12
-6.1533e-12
-2.84217e-14
-7.10543e-14
-2.09984e-09
-1.91105e-09
-1.44983e-09
-1.18513e-09
-1.24351e-09
-4.09557e-11
-3.00275e-11
-5.80371e-10
-1.79938e-09
-2.13387e-09
-3.62377e-12
4.68958e-12
-1.17382e-11
-6.00579e-10
-5.23983e-10
-3.38929e-11
-4.14957e-11
-7.85278e-10
-8.42277e-10
-6.56314e-10
-3.634e-10
-1.19772e-09
-1.04089e-09
-1.80364e-10
-4.04185e-10
-6.7611e-10
2.17426e-12
-1.22378e-09
4.09273e-12
3.41061e-12
-3.87956e-12
-3.78009e-12
-2.91323e-12
-9.52127e-13
-6.82121e-12
-8.68283e-12
-4.33602e-10
-1.25908e-11
-6.13909e-12
-1.49925e-11
-9.73444e-12
-1.76939e-10
-5.17275e-12
-3.662e-10
-1.3131e-09
-1.47814e-09
-8.69704e-12
-3.50951e-10
-1.90184e-10
-2.96467e-10
-1.06427e-09
-8.88221e-10
-2.92773e-09
4.22062e-12
-3.29692e-12
-1.27898e-13
-3.33955e-12
-2.74468e-10
-1.14073e-09
-1.20286e-09
-2.22354e-09
1.36708e-11
-9.36637e-11
-3.02691e-12
-9.99293e-10
-1.02304e-10
-5.07981e-10
-2.25668e-10
-1.00748e-09
-5.59666e-10
-7.73596e-10
-6.60052e-10
-2.90838e-09
-2.61835e-09
-9.96124e-10
-3.00574e-09
-2.22866e-09
-1.74192e-09
-1.37312e-09
-4.23185e-10
8.62599e-12
-7.76623e-11
-5.02723e-10
-4.86523e-10
-1.49045e-09
5.01643e-12
-4.34525e-10
-1.08713e-11
-1.4964e-11
-2.5949e-10
-2.88323e-09
-8.37019e-11
-1.0435e-10
-5.00791e-11
-1.74254e-10
-3.15632e-09
-2.8479e-09
-2.04575e-09
-2.28593e-09
-2.25688e-09
-1.2939e-09
-1.83719e-09
1.44951e-12
5.96856e-13
-4.08704e-10
-3.11275e-10
-3.64608e-10
-2.74937e-10
-2.99551e-10
-3.49416e-10
-2.30017e-10
-4.71118e-10
-1.36708e-11
-3.98927e-10
-5.11889e-10
-1.20232e-09
-2.18151e-10
-2.25413e-10
-2.11998e-10
-2.26763e-10
-1.79682e-10
-1.84528e-10
-2.23991e-10
-2.17241e-10
-2.11898e-10
-1.96565e-10
-2.44654e-10
-2.20481e-10
-2.48932e-10
-2.25654e-10
-1.88606e-10
-3.05079e-10
-2.4292e-10
-4.87816e-10
-3.65176e-10
-5.19563e-10
-4.63686e-10
-4.1419e-10
-3.86436e-10
-4.58158e-10
-4.30617e-10
-2.7768e-11
-3.09512e-11
-4.26184e-11
-3.93783e-11
-2.01084e-11
-1.6172e-11
-1.39835e-11
-8.44551e-11
-3.79842e-10
-1.73443e-09
-1.79099e-10
-1.04231e-09
-7.92681e-11
-1.10987e-11
-1.8737e-10
-7.09122e-12
-7.29017e-12
9.9476e-14
-3.41913e-10
-3.68814e-10
-3.1612e-10
-3.58639e-10
-2.2284e-10
-1.41966e-11
-1.71241e-11
-7.64544e-12
-2.17568e-11
-2.43858e-11
-1.29023e-09
-7.78755e-12
-1.14539e-11
-4.43379e-12
-5.71276e-12
1.44524e-11
1.33724e-11
5.08464e-11
2.55227e-11
1.11058e-10
5.80513e-11
1.50663e-10
1.34378e-10
2.19217e-10
3.28683e-10
1.72733e-10
-1.25056e-11
-1.75504e-11
3.06329e-10
2.95643e-10
3.12639e-10
2.71356e-10
3.08489e-10
2.7164e-10
3.36996e-10
3.15751e-10
3.40606e-10
3.00957e-10
3.47569e-10
2.88992e-10
2.96751e-10
2.30571e-10
2.31225e-10
2.57074e-10
1.8845e-10
1.66139e-10
2.02036e-10
1.52227e-10
1.491e-10
1.2983e-10
1.32133e-10
1.13019e-10
7.07985e-11
7.21059e-11
4.28599e-11
4.9468e-11
-1.87583e-12
8.00071e-12
-5.21538e-11
-4.2391e-11
-1.74069e-10
-1.47921e-10
-9.52468e-10
-1.42109e-13
-1.07892e-09
-7.6065e-10
-4.90843e-11
-3.63656e-11
-2.93724e-10
-3.88752e-10
-3.34509e-10
-1.68171e-10
-7.45473e-10
-3.69042e-10
-3.03316e-10
-9.45164e-11
-8.59472e-11
-5.24949e-11
2.27374e-12
-5.81281e-10
-2.81915e-10
-2.85112e-10
-2.29085e-09
1.33582e-11
-2.75094e-09
-1.14977e-09
-1.28964e-10
-7.65255e-11
-1.12846e-09
-1.78204e-11
-2.33342e-11
-2.65332e-09
-2.09998e-09
-2.69901e-09
-1.84031e-11
-1.9682e-11
-1.74936e-11
-5.5212e-10
-4.02935e-10
-7.28861e-10
-2.0939e-09
-2.07149e-09
-1.86947e-09
-1.87838e-09
-1.83145e-09
-1.34582e-09
-3.41061e-13
-4.70308e-10
-5.25517e-11
-7.68097e-11
-4.21466e-10
-3.82386e-10
-4.26041e-11
-2.95302e-11
-1.83957e-09
-1.81839e-09
-1.4353e-11
-1.0638e-09
-1.28502e-09
-1.23579e-09
-7.66605e-10
-4.54563e-10
-2.14511e-09
-2.5409e-10
-4.30276e-10
-8.91021e-12
-3.82272e-12
-2.59627e-09
-2.16319e-09
-4.00746e-12
-6.39602e-10
-4.45723e-10
-2.49969e-11
-3.98757e-11
-9.64917e-12
-2.52527e-11
-6.94342e-11
-1.23208e-10
-2.50324e-10
-1.01426e-09
-9.90781e-11
-3.25429e-12
-8.04334e-12
-1.10845e-11
-5.73223e-10
-8.53333e-10
-6.51525e-10
-2.59774e-11
-3.254e-10
-1.31593e-11
-1.82311e-10
-2.13674e-10
-1.04805e-10
-8.40004e-11
-1.04291e-09
-4.57902e-10
-4.34966e-10
8.58336e-12
6.6791e-12
-1.1638e-09
-8.55735e-10
-1.04356e-09
-1.88436e-11
-3.12639e-12
-2.60059e-12
-4.49063e-12
-1.4474e-09
-1.23691e-10
-5.07612e-11
-9.45349e-10
-5.82133e-10
-6.90846e-10
-2.72848e-12
-2.84217e-12
-5.74119e-12
-1.02318e-12
-9.41341e-10
-1.00968e-09
-1.69635e-09
-1.16148e-09
-1.71099e-11
-2.70006e-12
-3.36442e-10
1.4353e-11
-1.39693e-11
-2.94989e-10
-5.99982e-11
-6.68336e-11
-6.99032e-11
-1.79435e-09
-3.62959e-10
-2.37394e-09
-1.84508e-09
-8.05343e-10
-8.72518e-10
-7.29315e-10
-1.03371e-09
-1.48796e-09
-6.45159e-10
-2.23139e-10
-2.15465e-10
2.31637e-12
-3.97904e-13
-1.05538e-09
-8.1144e-12
-2.37321e-12
-1.52767e-11
-1.11517e-09
-1.78997e-09
-2.00515e-11
-9.32943e-11
-1.88058e-09
-2.77964e-10
-2.93596e-10
-2.74298e-10
-2.11699e-10
-2.08944e-09
-2.30642e-11
-2.77822e-11
-2.93596e-11
-1.73642e-10
-1.92145e-10
-2.07663e-10
-2.07208e-10
-1.76286e-10
-2.06185e-10
-1.63936e-10
-2.36497e-10
-2.57501e-10
-2.20368e-10
-2.66638e-10
-2.46146e-10
-2.29562e-10
-3.47669e-10
-3.52912e-10
-4.52758e-10
-4.46718e-10
-5.06745e-10
-5.35081e-10
-6.3028e-10
-6.33534e-10
-3.89946e-11
-1.34733e-10
-8.55778e-11
-9.9547e-10
-1.70516e-10
-3.76048e-10
-1.41497e-10
-1.04166e-11
-5.88329e-10
-5.68434e-13
-4.718e-12
-3.6664e-12
-8.81073e-12
-2.05404e-10
-1.54898e-12
-7.1374e-10
-7.22935e-10
-2.53124e-10
-4.0589e-10
-2.64237e-10
-1.41824e-11
-7.75913e-12
-1.82467e-11
9.70601e-12
-2.359e-12
2.26095e-11
1.33298e-11
6.54836e-11
3.96199e-11
1.03398e-10
1.0418e-10
1.47935e-10
2.17909e-10
1.50592e-10
-2.19558e-11
-2.6759e-11
-7.31859e-11
2.02689e-10
1.79881e-10
1.90468e-10
1.63482e-10
2.16659e-10
2.14001e-10
3.00972e-10
2.15167e-10
2.83578e-10
2.72792e-10
2.02306e-10
1.96479e-10
2.60798e-10
1.59915e-10
1.78531e-10
2.05176e-10
1.32957e-10
1.3101e-10
1.30427e-10
1.32275e-10
1.13886e-10
9.63922e-11
7.20206e-11
7.65397e-11
4.17089e-11
5.12443e-11
1.57314e-11
2.9118e-11
-6.13909e-11
-5.78524e-11
-1.25297e-10
-8.95426e-11
-8.80092e-10
-9.88777e-10
-1.7323e-11
-2.70575e-11
-4.03588e-12
-1.30029e-11
-3.82272e-12
-2.04736e-10
-2.84217e-12
5.22959e-12
-3.74172e-11
-5.16138e-11
-1.04377e-09
-9.48532e-10
-1.08137e-09
-2.43602e-10
-2.50026e-10
-3.01839e-11
-1.33852e-10
-1.67105e-10
-2.54204e-10
-3.59464e-10
-5.8165e-11
-2.42395e-10
-1.21332e-09
-1.09235e-09
-2.33342e-11
-2.16858e-11
-1.19236e-09
-8.70216e-10
-9.70516e-10
-1.76293e-09
-1.41955e-09
-4.26326e-13
-1.35735e-09
-1.02395e-09
-5.81366e-11
-4.92975e-11
-2.91749e-11
-3.01981e-11
-3.33813e-11
-9.39295e-10
-6.18442e-10
-9.69209e-10
-2.82384e-10
-3.39497e-11
-1.37567e-09
-1.33075e-09
-8.73413e-10
5.27223e-12
-5.11591e-11
-3.95488e-11
-3.47029e-11
-4.85159e-11
-3.11928e-11
-2.13419e-10
-4.29623e-10
-1.93948e-09
-2.17142e-11
-2.11884e-11
-2.80238e-11
-1.62753e-09
-2.48122e-11
-3.56692e-12
-4.70578e-10
-6.76181e-10
-6.23871e-10
-1.44382e-11
-1.02176e-11
-8.977e-11
-2.01652e-11
-2.53522e-11
-1.6135e-10
-3.03288e-10
-5.28644e-12
-1.40417e-10
-7.7867e-10
-2.95728e-11
-1.57314e-11
-3.35234e-11
-7.56017e-12
-8.79837e-10
-9.39806e-10
-1.99094e-10
-5.79803e-12
-7.14806e-12
-3.70619e-11
-1.65528e-10
-3.86237e-10
-5.5239e-10
-6.33122e-10
-1.58039e-09
-1.59167e-09
-1.96081e-10
-2.413e-11
-1.62159e-09
-2.01847e-09
-2.06398e-10
-1.04717e-09
-1.2343e-09
-7.59925e-10
-7.56486e-10
-1.92797e-09
-1.05302e-11
-1.03972e-09
-8.8113e-10
-8.94914e-10
-1.15961e-11
-8.31051e-11
-1.54017e-10
-4.72937e-11
-3.3495e-11
1.26619e-11
-1.66082e-10
-1.69422e-10
-1.58593e-10
-3.87388e-11
-3.89377e-11
-4.32152e-11
-2.23626e-09
-1.82638e-09
-1.67418e-09
-1.26053e-09
-1.73739e-09
-2.71527e-10
-2.08502e-10
-1.23023e-10
-7.3328e-10
-6.73808e-10
-9.87654e-12
-1.39266e-11
-1.09704e-09
-1.27187e-10
-3.92092e-10
-2.55355e-10
-4.1922e-12
-7.58703e-10
-9.25752e-10
-3.23439e-10
-2.37677e-10
-3.60131e-10
-2.48519e-10
-3.07296e-10
-3.53211e-10
-3.14841e-10
-2.6175e-10
-3.0667e-10
-3.79629e-10
-4.19249e-10
-5.38407e-10
-5.29795e-10
-7.66534e-10
-6.81865e-10
-9.28566e-10
-7.78854e-10
-5.20828e-11
-1.50283e-09
-2.14641e-10
-1.9071e-11
-2.65743e-12
-1.47895e-09
-7.79366e-10
-6.7017e-10
-2.19416e-11
-1.28895e-09
-1.07917e-10
-8.73968e-12
-7.3328e-12
1.10845e-11
7.60281e-12
4.36842e-11
3.58256e-11
8.72546e-11
5.83782e-11
1.04549e-10
1.12891e-10
1.04848e-10
1.58863e-10
9.17879e-11
1.36538e-10
1.20764e-10
2.14456e-10
1.27798e-10
2.0097e-10
1.81188e-10
1.77963e-10
1.62501e-10
1.62032e-10
1.59076e-10
1.6928e-10
1.6243e-10
1.32914e-10
1.46656e-10
1.11854e-10
1.08287e-10
9.79838e-11
1.00343e-10
7.71649e-11
9.65628e-11
5.14007e-11
4.99227e-11
1.32161e-11
2.47695e-11
-3.80567e-11
-1.19229e-11
-4.29168e-12
-9.05175e-10
-9.86503e-10
-1.03171e-11
-1.00252e-09
-1.0386e-09
-1.05375e-09
-1.10462e-09
-8.17423e-10
-7.86144e-10
-7.96575e-10
-1.09837e-09
-1.14326e-09
-1.3614e-11
-2.66454e-11
-7.4381e-10
-3.52856e-11
-2.03926e-11
-2.24105e-11
-2.44e-11
-1.09505e-09
-1.19921e-09
-7.97826e-10
-9.74865e-12
-1.19229e-11
-4.34852e-12
-1.58116e-09
-1.41095e-09
-4.01599e-11
-1.9952e-11
-2.21974e-11
-1.89431e-11
-5.23812e-11
-8.14865e-10
-8.58776e-10
-2.23437e-10
-6.3892e-11
-7.1509e-11
-1.16492e-09
-2.22116e-11
-2.89333e-11
-2.67988e-10
-4.00703e-10
-1.07875e-10
-7.50333e-12
-8.54925e-11
-1.47367e-11
-9.76058e-10
-1.03938e-09
-1.9142e-11
-8.6871e-11
-1.09139e-10
-7.87281e-11
-2.18023e-10
-1.7144e-10
-1.19442e-09
-1.30328e-09
-4.94538e-10
-4.01315e-11
-3.17897e-11
-2.92601e-11
-3.52429e-12
-4.73221e-12
-1.2821e-09
-7.75117e-10
-1.11611e-09
-1.03839e-09
-1.05173e-09
-2.4113e-10
-3.27105e-10
-1.65394e-09
-1.67168e-09
-2.18805e-10
-2.08018e-10
-2.02505e-11
-1.79114e-10
-2.25953e-10
-1.72861e-10
-1.52058e-09
-1.34328e-09
-8.79851e-10
-3.76588e-11
-3.75593e-11
-8.46541e-11
-3.75167e-11
-3.85967e-11
-6.30251e-10
-8.94516e-10
-6.76152e-11
-6.89653e-11
-1.38971e-09
-8.001e-10
-4.2661e-10
-4.23725e-10
-5.17204e-10
-5.06489e-10
-7.68537e-10
-7.12788e-10
-6.82675e-10
-6.53827e-10
-6.24553e-10
-8.57142e-10
-9.11669e-10
-7.99062e-10
-1.04129e-09
-3.55129e-11
-6.01759e-10
-5.24821e-10
-1.18106e-09
-3.38645e-11
-1.16397e-09
-1.11925e-09
-3.41913e-11
-3.48308e-11
-2.35332e-11
-5.60334e-11
-8.18531e-10
-1.01892e-11
-5.68434e-13
-3.75167e-12
2.11173e-11
1.33582e-11
5.79377e-11
3.02975e-11
8.88036e-11
7.07843e-11
8.84626e-11
1.28964e-10
6.94342e-11
1.83292e-10
1.25169e-10
1.59844e-10
1.64476e-10
1.17936e-10
1.11555e-10
1.2021e-10
9.75859e-11
1.13033e-10
1.07889e-10
1.0796e-10
8.62315e-11
7.85718e-11
9.06653e-11
7.50759e-11
6.72173e-11
5.11449e-11
6.95053e-11
2.33769e-11
2.77254e-11
-1.43672e-11
-2.5338e-11
2.20268e-12
-2.50921e-10
-2.386e-11
-1.88578e-11
-2.27658e-11
-1.57358e-09
-1.45529e-09
-1.26704e-09
-8.88676e-10
-8.9895e-10
-4.88228e-10
-3.70051e-11
-7.60892e-10
-8.59501e-10
-8.57739e-10
-1.99805e-11
-1.60156e-11
-1.21393e-09
-1.22377e-09
-1.17326e-09
-1.5774e-12
-3.40208e-11
-2.0222e-11
-2.02931e-11
-2.95017e-11
-9.00968e-12
-2.65743e-12
-9.99023e-12
-5.7581e-10
-4.93159e-10
-1.17029e-09
-1.16363e-09
-2.97149e-11
-7.70342e-10
-5.53953e-10
-8.92854e-10
-7.23247e-10
-8.61135e-10
-9.68527e-10
-2.50964e-11
-2.07478e-11
-1.97389e-11
-5.34286e-10
-4.22162e-10
-6.36589e-10
-7.73639e-11
-4.2688e-10
-2.34905e-11
-1.99378e-11
-3.87956e-12
-1.13982e-09
-5.01871e-10
-2.38401e-10
-2.55511e-10
-2.80465e-10
-8.87923e-10
-9.0111e-10
-9.34037e-10
-1.09027e-09
-1.2575e-09
-2.32774e-11
-2.38032e-11
-6.55234e-10
-3.31923e-10
-2.02505e-11
-2.36611e-11
-2.6148e-11
-2.74554e-11