/*--------------------------------*- C++ -*----------------------------------*\
| =========                 |                                                 |
| \\      /  F ield         | OpenFOAM: The Open Source CFD Toolbox           |
|  \\    /   O peration     | Version:  v2012                                 |
|   \\  /    A nd           | Website:  www.openfoam.com                      |
|    \\/     M anipulation  |                                                 |
\*---------------------------------------------------------------------------*/
FoamFile
{
    version     2.0;
    format      ascii;
    class       volScalarField;
    location    "1.1917995";
    object      alphat;
}
// * * * * * * * * * * * * * * * * * * * * * * * * * * * * * * * * * * * * * //

dimensions      [0 2 -1 0 0 0 0];


internalField   nonuniform List<scalar> 
83563
(
1.99142e-05
3.48041e-05
3.64042e-05
2.98862e-05
5.97614e-05
4.81397e-05
0.000110654
0.000299179
8.69089e-05
0.000646419
6.37333e-05
0.000396356
0.00220456
2.09963e-05
0.000299755
0.00363856
2.28947e-05
2.09953e-05
0.000391108
2.09236e-05
2.08435e-05
2.08791e-05
0.000398661
0.00118797
2.26188e-05
3.69514e-05
2.68504e-05
0.000739708
3.93125e-05
2.52813e-05
3.80458e-05
1.3472e-05
0.0002769
2.28373e-05
2.09908e-05
9.00535e-05
3.02561e-05
3.77282e-05
3.62503e-05
0.000125561
2.57207e-05
8.39342e-05
4.31222e-05
6.42737e-05
3.42265e-05
0.000239694
0.00219962
0.000165345
8.31525e-05
0.00868982
0.00777612
9.45906e-05
0.00182748
0.00233109
7.8461e-05
0.00352035
3.22491e-05
0.00170174
0.00226047
0.000124934
0.00217998
0.00100736
6.0237e-05
3.556e-05
0.00335992
0.00186254
0.00334419
4.81692e-05
9.77467e-06
0.00641386
0.000126559
0.00468831
2.72331e-05
0.00506415
3.49282e-05
0.0141196
0.00224342
2.64538e-05
2.47322e-05
0.00204959
2.119e-05
1.63213e-05
2.21447e-05
0.00210806
0.000150331
2.05424e-05
2.45063e-05
0.00149488
2.32318e-05
4.51368e-05
0.000186946
1.53305e-05
0.000303005
0.000214566
0.000734716
0.000266038
0.00152262
0.000295171
5.67373e-05
0.000153023
7.56051e-05
2.75929e-05
9.55899e-05
2.71265e-05
6.44009e-05
3.71767e-05
4.07179e-05
1.95944e-05
0.00051151
2.12927e-05
0.000219343
8.077e-05
0.000545514
8.57839e-05
3.0317e-05
1.70689e-05
0.00803205
0.000329025
6.17668e-05
1.48978e-05
6.24571e-05
9.04702e-05
0.000117737
0.0012536
0.000177108
2.43621e-05
0.00169132
0.000122759
0.000202338
5.82328e-05
0.00715214
0.00206037
9.64687e-05
0.00274381
4.97887e-05
2.11085e-05
0.000112517
3.7986e-05
3.62481e-05
0.00461831
0.000112031
0.00176402
6.69742e-05
0.000105502
0.00787537
0.00220316
8.12792e-05
2.65569e-05
7.63464e-05
3.24864e-05
0.00204687
2.47006e-05
3.40024e-05
0.0001409
1.98462e-05
1.6715e-05
1.8243e-05
5.11971e-05
7.76588e-05
0.000118026
0.000147991
2.12435e-05
3.01734e-05
2.08149e-05
0.000234763
0.000812325
1.42995e-05
0.010773
1.81212e-05
0.000258644
1.94301e-05
1.9468e-05
0.0114501
0.000338238
0.0103588
5.4651e-05
5.58482e-05
7.26604e-05
9.24614e-05
1.55504e-05
6.42298e-05
2.23909e-05
0.000134308
0.000242999
0.000394835
0.000703798
0.000335807
0.00011777
6.64495e-05
1.95461e-05
2.06048e-05
0.000484064
0.00117343
0.00108805
8.19589e-05
0.0019239
5.83175e-05
0.000245899
2.08647e-05
0.000138719
0.00012957
7.36363e-05
0.000238399
1.5896e-05
0.000313864
0.000311967
4.356e-05
0.0104754
2.09092e-05
5.95698e-05
0.000181123
0.000495828
1.87347e-05
1.47676e-05
9.39437e-05
0.000197699
9.51381e-05
1.45668e-05
2.97934e-05
8.22409e-05
2.89974e-05
5.4182e-05
6.79972e-05
7.12621e-05
0.0001995
1.59723e-05
0.000406076
2.21479e-05
3.59452e-05
0.000228562
2.30529e-05
4.64242e-05
1.65526e-05
4.21357e-05
0.00498848
2.10935e-05
0.000156316
1.88094e-05
2.20072e-05
2.56849e-05
0.000174892
0.000109227
7.0603e-05
1.58345e-05
8.74878e-05
2.69037e-05
0.000505891
1.71351e-05
0.00267426
5.68123e-05
0.000104346
4.28473e-05
3.49417e-05
0.000651784
5.18416e-05
5.08868e-05
1.90064e-05
0.000242902
2.45504e-05
3.92899e-05
3.71466e-05
8.78717e-05
0.00376796
0.000159569
4.87767e-05
8.45612e-05
0.000137361
7.28591e-05
1.54709e-05
1.53626e-05
7.68354e-05
0.000117556
0.000380436
6.25076e-05
0.000111749
5.33611e-05
0.000248926
0.00021965
2.55356e-05
4.65759e-05
0.000296472
2.06327e-05
1.98726e-05
0.00026073
0.000581711
2.68328e-05
0.00166928
2.3101e-05
1.78862e-05
3.90685e-05
0.000816742
1.50731e-05
0.00025595
2.2333e-05
2.90757e-05
7.06339e-05
9.71098e-05
0.00021304
4.42865e-05
3.7249e-05
3.49636e-05
5.581e-05
7.73128e-05
2.38365e-05
2.15904e-05
0.000194037
0.000246714
0.00403453
0.000147778
0.000526925
7.72735e-05
0.000164614
0.00150519
0.000880971
0.000614917
0.000105678
0.00816168
9.77853e-05
1.70109e-05
5.7381e-05
0.00049088
9.6829e-05
2.37872e-05
3.8566e-05
5.94022e-05
1.74422e-05
0.000344824
0.00382978
8.60175e-05
0.00311659
7.55327e-05
3.7012e-05
1.49628e-05
0.00292098
1.86151e-05
2.31208e-05
7.06439e-05
0.00327881
0.000188924
2.78783e-05
0.005192
0.00146792
2.20439e-05
2.61821e-05
6.21621e-05
4.99696e-05
0.000208387
4.90014e-05
0.000256258
2.47692e-05
1.8087e-05
0.000139286
3.53581e-05
0.00071392
0.00162624
2.08297e-05
0.000194786
0.000116077
7.08136e-05
0.000703464
0.00808427
0.000617066
0.00158726
0.0104999
0.00229993
0.00048212
0.00056494
0.000197211
0.0120119
2.10804e-05
4.80386e-05
9.36371e-05
0.000232791
0.000308192
0.00036841
0.000116489
0.00445238
6.03178e-05
2.83486e-05
4.56719e-05
4.16123e-05
0.000195804
2.8365e-05
0.000350467
0.00405404
0.00195199
6.44773e-05
7.10491e-05
0.00489948
8.11331e-05
0.00028251
2.47922e-05
3.96411e-05
0.00329358
0.000248956
0.000256745
0.000124487
0.000179894
4.47091e-05
1.78979e-05
0.00105916
1.79035e-05
2.79472e-05
0.0158773
0.000596146
4.79471e-05
0.000358475
7.28522e-05
2.16965e-05
0.000103465
0.00377021
0.000230204
1.90274e-05
3.09689e-05
0.00216582
2.13571e-05
4.56973e-05
8.49884e-05
0.00342352
5.39957e-05
2.44578e-05
3.26636e-05
0.00333817
2.26634e-05
0.000260019
0.0040897
7.51604e-05
0.000274238
0.000183409
7.7952e-05
5.26524e-05
0.000532346
0.000100131
4.32411e-05
0.00338435
0.000222025
0.0159776
2.23601e-05
0.000138869
0.000806258
0.000338313
0.000113721
0.0122697
2.46703e-05
0.0014668
0.00010434
0.000100325
0.00220528
0.00352863
0.0084138
0.00163081
3.09018e-05
7.28967e-05
4.01702e-05
0.000201171
0.000294257
0.00321046
2.19365e-05
3.0579e-05
0.000241856
1.78235e-05
0.00164558
3.46883e-05
2.50694e-05
3.37328e-05
4.3007e-05
2.16961e-05
4.60957e-05
5.90926e-05
0.000103716
0.000118809
9.26846e-05
3.13386e-05
0.000196889
8.2548e-05
0.000241327
7.26709e-05
6.80652e-05
8.02792e-05
6.01856e-05
7.76779e-05
2.8071e-05
7.1443e-05
7.13204e-05
1.70094e-05
0.000176364
8.89356e-05
0.00021532
0.0090293
1.72405e-05
1.59235e-05
4.90408e-05
7.10471e-05
0.00207227
0.000399631
7.76191e-05
4.40171e-05
4.82876e-05
4.07273e-05
3.01708e-05
1.8915e-05
9.00849e-05
4.47358e-05
2.35519e-05
6.65093e-05
1.80111e-05
5.35155e-05
7.85234e-05
5.25843e-05
7.42926e-05
1.92697e-05
2.67829e-05
2.19429e-05
2.13088e-05
2.93575e-05
2.43539e-05
5.76537e-05
0.00410222
0.00441635
3.07941e-05
5.74827e-05
0.000188593
0.000109213
0.000103876
0.000152576
2.88384e-05
9.05744e-05
0.00367851
2.45885e-05
2.77526e-05
2.74972e-05
2.13138e-05
6.01169e-05
3.26756e-05
3.25707e-05
3.48883e-05
0.00344479
0.000519892
0.000134328
0.00323973
6.89232e-05
1.65284e-05
0.00120968
0.000135477
0.000888947
0.000750874
3.31884e-05
0.00108263
0.000815252
6.87724e-05
6.96946e-05
8.39023e-05
0.000112385
6.78497e-05
1.51759e-05
0.000117522
0.00130749
0.00405403
0.000883903
2.13647e-05
0.00011995
0.00378345
3.92652e-05
0.000171762
0.000630735
2.81292e-05
0.000674465
2.45932e-05
1.58781e-05
0.000176179
0.00557084
0.000107948
3.13147e-05
7.68061e-05
0.000846428
0.000154009
2.96203e-05
2.56551e-05
2.77043e-05
3.28281e-05
2.96526e-05
9.10066e-05
0.0126697
8.43583e-05
2.51846e-05
3.72969e-05
2.29152e-05
6.38559e-05
2.08966e-05
0.000136985
2.16558e-05
2.53397e-05
2.17287e-05
3.02403e-05
6.11676e-05
2.22895e-05
2.51456e-05
2.71986e-05
2.10305e-05
1.58223e-05
5.68821e-05
2.181e-05
2.37486e-05
2.16405e-05
4.38742e-05
4.4258e-05
0.00078022
3.06479e-05
2.87416e-05
2.70541e-05
3.37182e-05
2.31656e-05
1.88653e-05
5.17304e-05
0.00221457
3.73119e-05
6.79531e-05
9.95915e-05
0.000150697
0.00017236
0.000283919
0.00417902
5.92832e-05
3.89874e-05
1.78849e-05
5.3638e-05
9.65633e-05
2.73683e-05
4.64676e-05
2.12466e-05
0.00011842
4.89791e-05
4.13191e-05
0.000139112
2.46482e-05
0.00128981
8.78832e-05
8.565e-05
2.14763e-05
3.02863e-05
4.41931e-05
0.000364934
0.000428958
5.3498e-05
7.074e-05
2.18361e-05
2.32555e-05
0.000455298
0.00258092
6.52713e-05
5.56097e-05
8.39112e-05
0.000205593
0.000128774
0.000285609
5.61971e-05
0.000458042
1.68919e-05
5.1868e-05
7.08197e-05
2.64315e-05
0.00269819
9.46834e-05
0.000161569
0.00155836
2.09422e-05
7.99725e-05
2.45344e-05
2.2767e-05
0.000432335
0.0001107
8.0758e-05
9.08615e-05
0.000517177
0.000251234
6.23139e-05
0.00116393
5.56994e-05
6.61563e-05
0.000858759
0.00188744
9.22975e-05
0.000292204
0.00155659
1.8484e-05
0.000300814
0.00188864
0.00134029
0.000714323
3.83665e-05
5.34501e-05
0.000148219
3.26787e-05
0.000356338
0.000176034
0.00159144
9.86002e-05
0.000536657
6.40757e-05
3.62439e-05
7.46839e-05
4.87622e-05
2.16667e-05
0.000131931
0.00115049
0.000195516
1.35101e-05
6.07254e-05
6.80519e-05
0.0001525
2.10872e-05
0.000134672
2.09496e-05
3.54656e-05
0.000157458
1.59509e-05
2.54623e-05
3.39206e-05
0.000131886
0.0142915
2.23681e-05
0.00126404
3.20332e-05
0.000124674
2.33968e-05
9.79481e-05
0.00279679
0.000988481
3.94871e-05
0.00458783
1.46217e-05
2.20158e-05
2.49186e-05
0.00552167
0.00179051
0.000203018
2.90359e-05
4.49439e-05
0.00154096
1.49512e-05
3.94984e-05
8.04367e-05
1.75871e-05
0.000136028
7.61322e-05
4.30262e-05
0.000129463
0.00107804
0.00195344
3.35523e-05
4.46755e-05
5.37684e-05
2.07771e-05
0.0045176
0.00011481
0.00026986
2.07789e-05
2.43981e-05
0.000303463
7.04729e-05
4.02192e-05
2.72248e-05
5.07441e-06
1.67064e-05
0.000112609
4.52028e-05
2.08966e-05
3.47824e-05
0.000110335
0.00209735
4.51415e-05
2.28251e-05
1.37439e-05
0.000141545
3.00846e-05
8.92604e-05
2.87874e-05
0.000684285
2.43521e-05
4.711e-05
7.11432e-05
0.00756073
0.00389315
0.00312198
2.72101e-05
0.00191214
4.27679e-05
0.000224231
3.20833e-05
6.27832e-05
0.000104008
0.00123337
4.05372e-05
0.00339638
0.000112406
8.9622e-05
0.000309215
9.54233e-05
2.86151e-05
3.5023e-05
0.000168593
2.64836e-05
0.000161455
1.87176e-05
1.82624e-05
2.64612e-05
0.000118615
0.00136202
0.000875802
0.000165006
2.46234e-05
6.72212e-05
0.00148136
0.000870537
0.000773332
0.000672883
2.3763e-05
0.000535532
2.03025e-05
1.87684e-05
0.000371604
3.38281e-05
0.0011889
0.000682167
5.95695e-05
0.000143685
0.000149897
0.000169123
2.38484e-06
3.80774e-05
1.75298e-05
0.0129199
6.0023e-05
0.00215452
5.38308e-05
2.1055e-05
2.11907e-05
5.47025e-05
3.76979e-05
0.00010453
3.30721e-06
2.46857e-05
3.01906e-05
2.14712e-05
6.28069e-05
3.03725e-06
0.00109303
0.000156651
0.000512458
0.00413624
0.000875669
1.7318e-05
1.47871e-05
2.32986e-05
2.97218e-05
1.65589e-05
3.40339e-05
0.000501704
0.000146412
8.11434e-05
2.08265e-05
4.81989e-05
2.85429e-05
1.68549e-05
0.000235395
5.20509e-05
0.000556948
5.58933e-05
6.07999e-05
1.66019e-05
0.000111484
0.000426654
0.000480282
4.54929e-05
4.61555e-05
0.000151723
0.00120755
1.77721e-05
2.8692e-05
2.97692e-05
2.10814e-05
4.95773e-05
5.10561e-05
1.45595e-05
1.8078e-05
0.00442566
0.00019448
4.38777e-05
0.00144313
0.00201012
2.57658e-05
0.000438617
1.94373e-05
2.8742e-05
2.2327e-05
2.06751e-05
0.000164164
1.76026e-05
0.000233808
0.000247083
3.52034e-05
1.40132e-05
4.9439e-05
0.000206403
1.94655e-05
6.22706e-05
5.85187e-05
1.80459e-05
3.79509e-05
0.000251696
1.77326e-05
2.8279e-05
1.50188e-05
4.17445e-05
5.02523e-05
0.00305837
0.00145377
1.60234e-05
0.00155451
2.12252e-05
0.000101634
0.000254461
0.000110783
0.000291575
0.000200217
3.45424e-05
0.000123231
4.90656e-05
0.000961766
4.9166e-05
0.00152849
0.000322932
0.000199911
0.000130643
0.00173459
0.000115601
0.00105643
4.2024e-05
0.000151186
0.0014251
0.000152459
5.80654e-05
0.000195599
5.32585e-05
2.30784e-05
2.11737e-05
7.96876e-05
0.000226069
6.73663e-05
0.000109646
2.13002e-05
2.19455e-05
2.82203e-05
2.4213e-05
2.15299e-05
0.000133351
0.00127582
1.86355e-05
2.05384e-05
2.11268e-05
0.000136709
2.12505e-05
4.60735e-05
2.08619e-05
0.000151392
0.000223462
7.32064e-05
1.84883e-05
0.0007901
5.51411e-05
0.000221796
5.6795e-05
3.68873e-05
3.48599e-05
4.96072e-05
0.000196774
1.58722e-05
5.83744e-05
2.29978e-05
6.13025e-05
3.03002e-05
8.43114e-05
4.56504e-05
2.45491e-05
3.18248e-05
7.90548e-05
0.00020498
0.000222331
3.32834e-05
0.000115897
0.00086982
0.00012453
1.75664e-05
3.2263e-05
2.72696e-05
0.000476384
0.000263284
0.000102172
0.000155867
0.000994974
0.000266616
2.06056e-05
2.07028e-05
3.34744e-05
0.00116637
3.5989e-05
0.000435217
0.000346779
0.000578074
4.83655e-05
4.19217e-05
2.73746e-05
7.10275e-05
1.81885e-05
4.7674e-05
0.0070756
5.19664e-05
0.000150783
0.000555685
0.0173384
0.00015424
3.66187e-05
0.000591675
0.000190049
0.000191459
2.24057e-05
2.09042e-05
0.000240585
3.39286e-05
1.8347e-05
0.000214876
0.00123412
5.12137e-05
5.47877e-05
5.42095e-05
2.07584e-05
6.41307e-05
2.62873e-05
4.95248e-05
3.26676e-05
0.000140166
0.000165568
2.07233e-05
0.000256339
2.45975e-05
0.000208542
5.81038e-05
3.53262e-05
0.00477424
3.422e-05
0.00537904
0.00200405
1.56461e-05
2.26676e-05
2.3442e-05
0.000147428
1.84565e-05
0.000101584
2.07389e-05
0.00316918
2.3443e-05
0.00135434
0.000243009
0.00215547
7.73122e-05
1.50484e-05
0.000171947
5.67556e-05
7.57183e-05
0.000159574
7.71659e-05
0.000108701
0.00308959
3.3319e-05
0.00316785
6.94588e-05
3.57607e-05
6.98706e-05
0.000275981
0.00933064
2.17743e-05
0.000206105
0.000921194
2.08566e-05
0.000114818
0.00871443
3.38764e-05
0.000209443
4.63792e-05
0.000795596
0.000112174
0.000211081
0.000279361
0.000102975
0.00011436
0.000230361
2.42812e-05
0.000160474
0.000163537
8.60258e-05
0.00021551
2.51555e-05
0.00021878
8.60052e-05
8.9893e-05
2.25394e-05
7.1532e-05
1.95706e-05
0.000112971
2.38745e-05
2.05373e-05
2.68021e-05
5.19251e-05
2.1083e-05
0.000452288
4.04556e-05
0.000132601
9.67995e-05
0.000147619
8.89811e-05
0.00262834
2.23712e-05
3.63178e-05
1.49809e-05
0.000158772
5.77165e-05
0.00063653
2.07924e-05
0.000278284
3.32723e-05
2.03557e-05
0.00017863
5.44471e-05
3.48972e-05
1.82751e-05
2.3016e-05
2.09139e-05
0.000477469
3.56554e-05
5.61656e-05
3.59774e-05
4.18958e-05
1.63802e-05
2.26037e-05
8.88519e-05
6.1435e-05
7.19082e-05
0.000184539
5.00762e-05
2.22208e-05
5.62523e-05
2.96973e-05
2.76346e-05
2.51811e-05
2.09316e-05
0.000108785
1.81511e-05
2.1211e-05
3.55212e-05
3.99089e-05
0.000295863
2.94806e-05
0.000897516
2.843e-05
2.65813e-05
2.44228e-05
3.98635e-05
4.79839e-05
5.79073e-05
3.83579e-05
2.23996e-05
5.31988e-05
0.00017557
5.43333e-05
6.44339e-05
8.63721e-05
0.000160355
4.26563e-05
0.000255144
1.5988e-05
0.000140087
3.61867e-05
0.000389881
1.9782e-05
2.31679e-05
1.8676e-05
1.87882e-05
0.00010276
0.000557768
4.09163e-05
0.000481945
0.0128038
0.00237411
0.00770618
0.000640514
0.0153413
2.1957e-05
2.19388e-05
3.54183e-05
0.00020692
4.87926e-05
0.00325266
5.21502e-05
1.5553e-05
0.000150012
0.000273873
2.96381e-05
0.000165588
0.000144006
6.37918e-05
3.8531e-05
9.9016e-05
1.74991e-05
2.79573e-05
0.000181842
2.0919e-05
8.35631e-05
0.00209536
0.000161779
7.95346e-05
2.11455e-05
3.65098e-05
4.14003e-05
0.000283194
1.7771e-05
0.000279599
9.46387e-05
0.000140037
0.00481243
3.17535e-05
1.75576e-05
2.3125e-05
0.000223793
3.91387e-05
6.93126e-05
1.52407e-05
7.21912e-06
0.000456063
3.01613e-05
2.27512e-05
7.02613e-06
3.21406e-05
1.9241e-05
9.65216e-05
1.78767e-05
0.000205474
1.5556e-05
2.38608e-05
5.16911e-05
0.000333005
0.0148389
5.51294e-05
1.75215e-05
1.75828e-05
0.000227542
0.00137198
0.000354142
7.63628e-05
2.10757e-05
8.0337e-05
0.00017992
6.44544e-05
0.000316289
6.03971e-05
2.53371e-05
0.00028716
1.94662e-05
5.05215e-05
5.89512e-05
2.42595e-05
0.000141142
0.000123624
4.08156e-05
2.94523e-05
0.000390552
0.000122052
2.81426e-05
0.000509553
0.00607085
0.00014482
0.00528046
0.000181557
1.91092e-05
8.37291e-05
0.00381
0.000196983
7.40671e-05
0.000224255
2.39965e-05
0.00384229
7.73289e-05
1.7222e-05
2.256e-05
5.05809e-05
1.98082e-05
0.000151585
0.000156169
7.49645e-05
6.63237e-05
5.18437e-05
0.000322166
0.000352897
2.01294e-05
0.000136495
6.78217e-05
2.13102e-05
2.82108e-05
3.81972e-05
0.000269104
4.3222e-05
2.10805e-05
2.30474e-05
0.00179568
1.72726e-05
1.45337e-05
1.6887e-05
0.000134614
0.00935383
2.1171e-05
0.00164776
3.60902e-05
2.54725e-05
0.00366374
5.32927e-05
0.0032499
0.00823976
8.50265e-05
6.84306e-05
0.0121899
4.30991e-05
0.0102059
0.000112937
5.96039e-05
1.94787e-05
2.02973e-05
5.92162e-05
0.0010693
2.0739e-05
0.000199346
1.81989e-05
2.58757e-05
0.000184117
2.83065e-05
7.16033e-05
1.62072e-05
0.000183721
0.0170031
4.75102e-05
0.000247507
0.000217563
6.16178e-05
0.000217404
6.56584e-05
0.000106617
0.000236462
9.59255e-05
3.61144e-05
0.00322947
3.03828e-05
7.5348e-05
2.42513e-05
3.58769e-05
3.42252e-05
4.54726e-05
2.36143e-05
1.9686e-05
5.26624e-05
3.74561e-05
3.86047e-05
3.03264e-05
2.08597e-05
5.18757e-05
0.0166222
0.000175987
2.08599e-05
4.3915e-05
0.00253789
4.49983e-05
0.0132526
0.000286891
2.25302e-05
2.70285e-05
2.15161e-05
2.49484e-05
0.00652913
3.38736e-05
7.56075e-05
6.59976e-05
0.000264596
3.98721e-05
1.62656e-05
6.50679e-05
0.00308677
2.15237e-05
0.0152973
0.000392802
0.000264151
0.000220053
2.87247e-05
3.34301e-05
4.25199e-05
0.000379717
0.000180772
0.000215115
0.000193054
2.42043e-05
1.96417e-05
2.30886e-05
5.20173e-05
5.85651e-05
0.000176564
2.39474e-05
0.000136782
3.60648e-05
9.11471e-05
5.19945e-05
7.48177e-05
5.05866e-05
3.69697e-05
2.25109e-05
3.43632e-05
7.91281e-05
2.16394e-05
5.33652e-05
3.49923e-05
1.9864e-06
6.79184e-05
1.55568e-05
4.54813e-05
5.14444e-05
0.000110184
0.000184214
6.36123e-05
4.21326e-05
0.000160816
0.0159916
1.74878e-05
4.05049e-05
0.00315276
2.31663e-05
0.000130673
2.09812e-05
3.14005e-05
2.32702e-05
2.04594e-05
2.8377e-05
4.8773e-05
0.00522132
4.95017e-05
6.67477e-05
3.61249e-05
4.08853e-05
0.000296973
2.04042e-05
0.00018742
7.11421e-05
0.000213088
0.00281771
4.14264e-05
5.31727e-05
2.03684e-05
6.33314e-05
0.000346706
1.39836e-05
2.07711e-05
0.00023744
6.51782e-05
0.00519666
0.000483664
6.76176e-05
2.06577e-05
0.000137963
3.93575e-05
0.005093
2.33205e-05
3.22604e-05
0.000277332
0.00282659
2.61079e-05
0.0061135
0.00015272
0.000196908
0.000475079
0.000185613
3.60187e-05
0.00563886
0.000329114
4.88714e-05
0.000144706
2.95186e-05
0.000196648
0.00343794
0.000162429
2.51662e-05
1.70383e-05
0.000492997
0.000217364
5.04989e-05
2.78175e-05
0.000246313
0.000133944
4.87801e-05
1.5892e-05
4.75283e-05
0.00306216
1.59641e-05
0.000127654
2.8332e-05
4.41953e-05
1.6286e-05
2.47267e-05
2.56268e-05
2.48038e-05
4.06075e-05
0.000186806
5.62735e-05
8.1447e-05
0.0153028
1.89888e-05
1.87819e-05
9.97257e-05
0.000769308
4.87028e-05
0.00103998
5.74041e-05
0.000225145
0.000105686
2.79154e-05
5.10748e-05
4.61192e-05
1.82047e-05
4.84266e-05
2.64381e-05
5.49585e-05
8.38443e-05
0.000291697
1.87953e-05
2.0917e-05
0.00163897
0.00240996
2.10413e-05
0.00011937
0.00281959
0.00257523
6.20427e-05
0.00237541
2.68855e-05
0.000120981
4.01889e-05
0.00209436
1.93764e-05
7.20119e-05
2.74877e-05
3.85143e-05
9.63873e-05
2.37458e-05
0.000113449
1.61611e-05
0.00461217
5.32085e-05
3.22687e-05
1.48541e-05
4.46352e-05
0.000163409
4.6992e-05
2.58141e-05
4.00017e-05
9.31534e-05
3.78497e-05
2.10404e-05
0.00856331
0.000237018
0.0137476
0.000142129
1.97375e-05
0.00843067
0.000153001
2.30037e-05
2.10438e-05
3.33041e-05
5.60102e-05
2.62134e-05
8.22725e-05
8.56197e-05
0.000142383
0.00405051
2.44863e-05
2.21385e-05
7.09472e-05
0.013322
0.0174386
2.6604e-05
0.0162412
0.00877219
0.000923731
0.0165481
2.55011e-05
0.0190054
3.65971e-05
2.98563e-05
0.0178216
0.000173736
0.000148513
0.00413292
0.0003222
0.00580552
0.00477536
3.5954e-05
5.60593e-05
1.83882e-05
1.95268e-05
0.000284053
3.10855e-05
0.000498917
1.73935e-05
1.6478e-05
1.68052e-05
0.00522089
0.00722052
1.70857e-05
2.6032e-05
1.58356e-05
5.14695e-05
0.0045902
0.00634251
6.86709e-05
8.16437e-05
2.07806e-05
0.000155943
2.75161e-05
8.89965e-05
4.66937e-05
2.18023e-05
5.42022e-05
4.0285e-05
8.18894e-05
2.88986e-05
3.5026e-05
4.42984e-05
6.82998e-05
5.419e-05
0.000810068
2.16261e-05
7.82331e-05
5.68719e-05
9.0621e-05
0.000129535
8.63398e-05
2.20592e-05
0.000252622
0.00116215
0.00151906
0.000123853
9.74377e-05
0.000645592
0.000191482
0.000141091
0.000293323
0.000106734
0.00277227
0.00162584
3.78757e-05
0.000136338
5.22925e-05
0.00132958
0.000203664
0.00227473
1.44403e-05
5.02811e-05
0.00028712
8.9023e-05
0.000126905
2.30449e-05
5.23603e-05
4.25965e-05
7.48018e-05
3.13055e-05
0.000280418
9.20602e-05
3.78584e-05
4.80557e-05
7.23856e-05
3.65349e-05
0.000266883
0.000250708
5.09946e-05
2.06771e-05
2.38321e-05
0.000256539
6.18899e-05
6.39688e-05
2.02789e-05
2.34993e-05
3.5539e-05
2.36664e-05
0.000431913
2.17751e-05
3.07712e-05
1.56502e-05
6.79027e-05
8.89533e-05
7.94549e-05
1.99308e-05
9.96779e-05
2.0822e-05
3.08279e-05
4.18858e-05
1.61644e-05
1.98071e-05
0.00718959
2.88377e-05
2.39525e-05
6.35892e-05
3.01295e-05
2.79508e-05
0.00322373
0.00298034
2.33698e-05
2.15818e-05
3.68649e-05
0.000325268
0.00673465
7.58636e-05
0.000199081
3.79619e-05
0.000287097
5.22252e-05
2.33471e-05
2.08756e-05
0.000286968
3.87599e-05
1.54757e-05
2.11477e-05
2.03752e-05
2.473e-05
0.00273695
0.000281814
2.18137e-05
7.10957e-05
0.00538438
2.09821e-05
5.9186e-05
2.11798e-05
3.87592e-05
1.67012e-05
6.61082e-05
2.80795e-05
1.74635e-05
0.00996964
7.06509e-05
0.000127697
5.64777e-05
2.39537e-05
0.000399457
0.00902087
3.60309e-05
2.36409e-05
0.00828582
0.000147575
4.9696e-05
2.9783e-05
8.11033e-05
2.07928e-05
1.82305e-05
8.05258e-05
2.3958e-05
0.000649969
2.48523e-05
7.1973e-05
0.00374304
4.98353e-05
4.55175e-05
8.5261e-05
0.00678143
2.19607e-05
0.00311843
2.24516e-05
0.00417541
6.01522e-05
3.33874e-05
1.74042e-05
0.000165718
8.78911e-05
4.09991e-05
7.84179e-05
3.08103e-05
2.379e-05
1.81759e-05
3.24066e-05
2.13662e-05
6.37217e-05
6.23906e-05
2.66233e-05
5.28014e-05
0.00017602
4.56909e-05
2.31078e-05
0.00428079
2.90534e-05
0.000112569
0.000254592
2.38598e-05
2.22659e-05
4.61315e-05
0.000119417
0.00210376
5.2188e-05
3.66969e-05
0.00111069
0.00115088
2.04189e-05
6.7192e-05
5.11224e-05
2.7695e-05
1.97071e-05
5.89317e-05
3.34733e-05
6.70826e-05
3.15105e-05
0.00501979
6.86296e-05
2.60326e-05
8.93038e-05
2.07461e-05
3.34846e-05
2.45703e-05
0.00291135
0.0166409
3.67221e-05
2.981e-05
5.86937e-05
1.99068e-05
1.84485e-05
9.54004e-05
0.00161736
1.82573e-05
0.00296975
2.55616e-05
2.83003e-05
7.23996e-05
3.59542e-05
0.000106445
0.0027926
8.2328e-05
0.000337475
1.79648e-05
0.000223215
9.06635e-05
3.38894e-05
0.000416611
6.06186e-05
2.09842e-05
0.00322298
9.82506e-05
5.38119e-05
4.43719e-05
2.07894e-05
2.05398e-05
0.000130914
2.12717e-05
2.53225e-05
5.56816e-05
0.000248055
2.22366e-05
3.30464e-05
0.00255905
0.000145098
0.00182159
0.000492665
6.17004e-05
0.000123519
0.000723099
5.85745e-05
6.10919e-05
6.53498e-05
0.000363143
9.1912e-05
2.01553e-05
3.94364e-05
3.82319e-05
0.000104316
4.94774e-05
0.000122504
0.00194804
3.2685e-05
0.000242706
0.00309974
2.43719e-05
2.32371e-05
8.05135e-05
0.000257194
0.00325482
2.15773e-05
1.82234e-05
6.95362e-05
2.14207e-05
0.000154411
0.00312033
6.27726e-05
5.3861e-05
0.00436942
3.79618e-05
4.733e-05
2.5511e-05
2.02765e-05
0.00195719
0.000232849
0.000106976
0.000210908
5.92852e-05
1.85437e-05
2.95689e-05
0.0110971
2.09722e-05
2.0993e-05
0.00234726
3.44001e-05
5.53314e-05
2.47591e-05
0.00200337
2.99318e-05
0.00299537
2.40365e-05
1.61905e-05
0.000204147
0.00105487
0.000177683
6.96536e-05
0.000107952
2.72777e-05
2.08725e-05
0.00246501
0.00224101
0.000829758
2.43416e-05
0.00136991
0.000928424
2.77153e-05
1.7611e-05
2.13397e-05
0.000105721
7.41948e-05
1.93823e-05
0.000160668
7.41725e-05
0.0016661
0.0012607
0.00113516
0.000397331
1.89037e-05
0.000209558
3.0278e-05
0.000132931
0.00743986
1.85025e-05
2.18779e-05
4.45611e-05
0.000159585
1.94741e-05
0.00057571
0.000547679
0.000203895
2.51558e-05
8.48393e-05
9.96344e-05
2.18109e-05
0.000241257
6.39808e-05
0.000296995
7.06963e-05
0.00118901
5.49251e-05
1.62821e-05
1.71624e-05
3.37583e-05
0.000502641
1.58169e-05
3.80409e-05
0.00126085
0.000837774
0.000274629
0.00137429
2.18634e-05
4.56304e-05
1.81046e-05
0.00026884
3.62023e-05
0.000144446
2.44804e-05
0.000153372
2.05382e-05
0.00123047
4.31743e-05
1.82847e-05
2.18682e-05
0.00295478
0.000557562
1.51917e-05
0.000523792
2.09856e-05
2.27543e-05
4.90818e-05
0.000112691
6.7053e-05
4.85646e-05
2.20892e-05
0.000474239
0.000115802
2.98088e-05
0.0110728
0.0123624
0.00011011
4.6269e-05
0.000107538
7.5403e-05
0.000106409
6.06399e-05
0.000405654
7.53618e-05
1.73298e-05
9.49847e-05
5.33134e-05
3.07244e-05
3.31393e-05
1.86812e-05
0.000109925
1.61784e-05
5.18992e-05
3.81187e-05
0.000146781
1.81364e-05
0.000107362
0.000116298
6.09167e-05
1.71255e-05
1.99872e-05
9.57421e-05
0.000427725
2.35056e-05
4.43528e-05
3.4303e-05
2.13489e-05
2.88977e-05
0.000128606
4.37314e-05
2.88442e-05
2.13421e-05
3.86998e-05
2.08232e-05
2.23289e-05
2.29618e-05
8.75419e-05
0.000176894
0.000130603
0.000993597
0.000200287
3.91254e-05
2.22659e-05
4.5374e-05
0.00198378
7.2261e-05
0.000109163
2.09031e-05
2.09494e-05
3.73545e-05
1.94138e-05
0.00136943
0.000142063
9.129e-05
0.00273352
8.24594e-05
4.87332e-05
1.92445e-05
0.00273193
0.000185157
0.00124381
2.09755e-05
0.00114196
0.000112959
0.000139999
1.51811e-05
0.0013763
0.000122203
0.000375076
0.000130738
0.000188793
0.000133207
2.62086e-05
0.00109475
1.88905e-05
0.00529319
0.00708117
0.00707536
3.12539e-05
0.000344295
0.000343835
0.000118125
1.89547e-05
0.00467517
0.00790306
2.25423e-05
0.000108085
1.84742e-05
1.83356e-05
1.59813e-05
0.00834141
0.00964396
3.5855e-05
6.56341e-05
0.000567536
0.0117789
0.00010977
2.50152e-05
0.00852092
0.000273059
7.17656e-05
0.0110233
0.00337626
0.000114968
2.9293e-05
0.000169321
5.14711e-05
1.83034e-05
3.44822e-05
3.25703e-05
1.80337e-05
0.000103634
3.05798e-05
5.44813e-05
4.67819e-05
4.15783e-05
0.000358002
2.9549e-06
0.00196123
0.00393657
1.54284e-05
4.34899e-05
4.83404e-06
8.58418e-05
1.65529e-05
0.000152001
3.53136e-05
0.00197796
0.000150262
1.07206e-05
7.18522e-05
0.00013977
8.27982e-05
2.8682e-06
1.95681e-05
0.00133583
0.000235428
0.000204061
0.00636897
7.9963e-05
0.000106897
1.58773e-05
0.000171587
2.32251e-05
1.63035e-05
0.000135587
0.000124352
5.61448e-05
3.29925e-05
4.21297e-05
1.6819e-05
6.29432e-05
0.000270452
1.79664e-05
0.000121329
0.000224825
0.000288502
5.0433e-05
0.000987936
5.47964e-06
4.28715e-05
1.67744e-05
3.07092e-05
2.24039e-05
0.000173432
0.000190401
5.81848e-05
5.09768e-05
5.55945e-05
6.38511e-05
2.88849e-05
0.00030676
1.82732e-05
5.46734e-05
0.000139967
6.2084e-05
0.0135433
0.000128719
0.00015021
2.12095e-05
0.0122205
0.00236402
2.72136e-05
0.000102111
5.39652e-05
5.47233e-05
0.000155411
1.97104e-05
0.000230167
2.10342e-05
0.00127845
3.84106e-05
4.44763e-05
1.64414e-05
6.55275e-05
8.46927e-05
2.27034e-05
6.09586e-05
2.13609e-05
3.08585e-05
2.27523e-05
2.08236e-05
0.000319559
3.18359e-05
2.78647e-05
4.2836e-05
0.00161678
4.76811e-05
1.90755e-05
3.65063e-05
1.86183e-05
0.000211443
8.72098e-05
0.000141511
0.000134366
2.99351e-05
0.000574339
0.000849584
5.83703e-05
4.08789e-05
0.00171667
3.35438e-05
0.000413901
6.03111e-05
2.28427e-05
3.86659e-05
2.25902e-05
0.00633081
5.5067e-05
1.58273e-05
1.49263e-05
2.14346e-05
0.00453784
0.000139176
0.000493046
4.06016e-05
0.000101218
0.000402122
1.69391e-05
2.20685e-05
0.0039634
0.0001407
0.00363555
3.35438e-05
2.64505e-05
0.00203584
0.00036873
8.57274e-05
5.19113e-05
2.02277e-05
7.08474e-05
2.09316e-05
0.000105755
7.00465e-05
7.7361e-05
6.06679e-05
0.000131745
2.58684e-05
0.00302107
0.00960927
0.000121028
7.33425e-05
2.12616e-05
5.7238e-05
0.00834861
0.000183748
2.48739e-05
5.28512e-05
4.0218e-05
0.00224649
0.000102868
0.00114021
4.32018e-05
2.2602e-05
2.36126e-05
0.000362042
0.000505787
2.10728e-05
2.15053e-05
5.93297e-05
8.20457e-05
3.10082e-05
5.99792e-05
0.000625394
7.81358e-05
5.87621e-05
0.000244581
0.00276926
7.86944e-05
2.10344e-05
0.000165552
3.08885e-05
1.72364e-05
0.000329809
2.40749e-05
0.000277785
1.65766e-05
4.36159e-05
3.21539e-05
0.000314424
6.84737e-05
2.17055e-05
0.000166637
3.13339e-05
2.16289e-05
4.56442e-05
2.56623e-05
2.4272e-05
0.000101023
4.33225e-05
3.09356e-05
0.00014279
6.35265e-05
3.08688e-05
0.00745206
0.000139732
7.04491e-05
0.000516385
0.0032098
2.79348e-05
7.49477e-05
2.12867e-05
9.26305e-05
4.55977e-05
0.000139953
0.000141643
0.0117461
0.000164736
3.90547e-05
6.07233e-05
0.000217521
2.62938e-05
5.7993e-05
2.29874e-05
3.01262e-05
7.08353e-05
0.00488749
7.51412e-05
2.57134e-05
2.28262e-05
8.04357e-05
2.80198e-05
9.02183e-05
0.00527115
6.94666e-05
0.0097009
2.40577e-05
0.00751945
8.83705e-05
0.00454447
0.000252113
0.000132743
0.0091057
0.00353907
4.91466e-05
0.000289872
2.17694e-05
0.000240642
2.13411e-05
0.000137731
3.56933e-05
0.000377461
0.00799513
6.27986e-05
0.000163856
1.4698e-05
0.00268022
1.96838e-05
2.11313e-05
3.23264e-05
0.000118274
2.30671e-05
2.02197e-05
0.00106936
0.00022409
2.07216e-05
2.26678e-05
7.01635e-05
2.09854e-05
5.43553e-05
2.46979e-05
2.39171e-05
2.11188e-05
5.08848e-05
1.4438e-05
7.94587e-05
0.0156239
1.95126e-05
0.000667305
0.000375991
0.0001756
0.000175529
0.00321157
5.17489e-05
4.16297e-05
4.33437e-05
0.000229136
0.000210845
2.53847e-05
1.79297e-05
2.66907e-05
0.000306121
2.33006e-05
0.00193355
3.63801e-05
6.44759e-05
2.08615e-05
3.09976e-05
7.23443e-05
0.000165833
3.04208e-05
9.00243e-05
2.40975e-05
0.0001054
9.17822e-05
1.82634e-05
5.30446e-05
0.000537071
0.00028504
0.00191944
0.000109502
0.0113025
8.80497e-05
0.000220743
0.000237121
0.000358688
2.61174e-05
0.00013846
3.02417e-05
0.000758865
0.000169236
0.00021759
0.000236007
0.000104549
6.87234e-05
0.000144717
4.27511e-05
1.43486e-05
8.46112e-05
0.000700694
2.46055e-05
0.00205875
8.94547e-05
4.90326e-05
4.18101e-05
5.53649e-05
4.77087e-05
0.000126177
6.4164e-05
0.000490831
2.13286e-05
0.00134961
7.58608e-05
1.77845e-05
2.16074e-05
0.000131945
0.000120249
0.000147565
0.000342984
4.59187e-05
0.000141765
7.88986e-05
3.85772e-05
1.77546e-05
6.17841e-05
0.000141765
3.83655e-05
0.0154494
1.71915e-05