/*--------------------------------*- C++ -*----------------------------------*\
| =========                 |                                                 |
| \\      /  F ield         | OpenFOAM: The Open Source CFD Toolbox           |
|  \\    /   O peration     | Version:  v2012                                 |
|   \\  /    A nd           | Website:  www.openfoam.com                      |
|    \\/     M anipulation  |                                                 |
\*---------------------------------------------------------------------------*/
FoamFile
{
    version     2.0;
    format      ascii;
    class       volScalarField;
    location    "1.1917995";
    object      epsilon;
}
// * * * * * * * * * * * * * * * * * * * * * * * * * * * * * * * * * * * * * //

dimensions      [0 2 -3 0 0 0 0];


internalField   nonuniform List<scalar> 
83563
(
3.5434e-05
2.91169e-05
0.000102522
0.000145651
0.000273848
0.000178671
0.00306595
0.0134765
0.00111958
0.0820329
0.000654599
0.0135857
1.63898
2.15799e-05
0.011182
0.121105
2.68902e-05
2.16021e-05
0.0162827
2.13321e-05
2.1125e-05
2.11854e-05
0.0206985
0.0397581
2.60126e-05
0.000521875
4.523e-05
0.100468
0.000444664
5.7601e-05
0.000491486
7.80277e-05
0.00269026
2.68358e-05
2.44606e-05
0.00102638
4.04845e-05
0.000118473
9.66048e-05
0.00639996
7.74643e-05
0.00116218
0.000188614
0.00123944
0.0335312
0.0197104
0.211827
0.00825421
2.0047e-05
0.304232
0.296807
0.00168553
0.333564
0.695481
0.00160554
0.724353
0.000122339
0.672303
0.765615
0.00549664
0.853662
0.0653549
2.72597e-05
9.25717e-05
1.92807
3.08924
1.00237
0.00120806
0.039658
0.344653
0.00265374
2.79846
7.47569e-05
2.15063
8.67608e-05
1.53045
0.962082
4.78861e-05
5.911e-05
0.693048
2.95397e-05
0.000202245
0.000212286
0.193852
0.000458004
3.66371e-05
3.06303e-05
0.0524816
3.64096e-05
5.72783e-05
0.00755419
7.32157e-05
0.0434035
0.00738134
0.197275
0.0142085
0.306457
0.0463477
1.35938e-05
0.00659612
0.00234194
4.38611e-05
0.00152204
7.04132e-05
0.000475026
0.000165556
0.000232445
2.75454e-05
0.226839
2.23322e-05
0.0131712
0.00237331
0.0475727
0.00249937
3.15489e-05
0.00012493
0.317989
0.0246355
0.000450678
0.000126619
0.00060966
0.00149432
0.00583206
0.155784
0.0119904
0.000287711
0.15
0.00160371
0.0098297
2.82494e-05
0.620649
0.703675
0.00226657
0.266112
0.000938893
2.18171e-05
0.00555915
3.55688e-05
0.000569495
0.494366
0.00242164
0.30606
2.64228e-05
0.00259836
1.117
0.959816
0.00191421
4.0838e-05
0.00214972
6.76181e-05
0.133379
2.4503e-05
0.000107621
0.00523441
3.01214e-05
4.88142e-05
3.73318e-05
1.47701e-05
9.94674e-05
0.0153256
0.00612959
2.85547e-05
8.98886e-05
0.000293763
0.014896
0.0354575
6.92741e-05
0.388296
7.83911e-05
0.0148242
0.000144523
0.000230828
1.09237
0.030707
1.01597
2.61677e-05
0.000316114
0.0016341
0.00182216
4.47911e-05
0.00116001
4.12783e-05
0.00629409
0.0102705
0.0331151
0.107339
0.0177022
0.00280901
0.00557966
5.76196e-05
3.08617e-05
0.048898
0.149872
0.0383125
5.97183e-05
0.0937041
0.00120986
0.0140793
2.12284e-05
0.00456485
0.00378747
0.000623788
0.0172252
4.13063e-05
0.0284758
0.0272358
0.00073194
0.622926
2.21388e-05
0.00100809
0.00748042
0.099923
6.87845e-05
0.00011006
0.00268397
0.00527776
0.00292408
9.9578e-05
0.000271863
0.000143277
7.98496e-05
1.53321e-05
0.00179018
0.000964152
0.0266717
0.000110965
0.088973
2.31483e-05
0.000441621
0.0245424
2.7464e-05
0.000510529
4.01735e-05
0.000545123
2.17249
2.17682e-05
0.00664766
0.000155516
0.000217011
4.7538e-05
0.00843113
0.00160835
2.44487e-05
0.000104278
0.00255504
2.64978e-05
0.0405409
0.000125579
0.475896
0.000256536
0.00400719
4.12261e-05
0.000225855
0.0548442
0.000500834
0.000401641
2.7731e-05
0.0161592
0.000167726
0.000332291
0.000274244
0.00109998
0.102333
0.00648039
8.20942e-05
0.00160322
0.00506126
0.0022608
0.000110557
4.94855e-05
0.00282365
0.00783654
0.00805104
0.000486408
0.00565288
0.000382782
0.0219248
0.00873145
5.0918e-05
5.54988e-05
0.0147782
0.000171884
3.2639e-05
0.0103373
0.0122611
2.47148e-05
0.66564
0.000266427
6.94866e-05
2.43567e-05
0.0187231
9.00188e-05
0.0267071
0.000133392
7.31939e-05
0.00212695
0.00202296
0.00828215
4.78171e-05
2.89278e-05
2.77909e-05
0.000819581
0.00119681
2.37966e-05
2.24478e-05
0.0150774
0.0218489
3.10973
0.00506974
0.0625461
0.00176458
0.00171572
1.29423
0.0217206
0.056643
0.00166958
1.35941
0.00283551
8.84843e-05
3.26478e-05
0.0564603
0.00338445
2.94491e-05
0.000145071
3.62343e-05
4.5449e-05
0.0338303
0.835725
0.00250754
0.200135
0.00266118
5.62635e-05
6.29954e-05
0.734272
4.27003e-05
2.93271e-05
0.000666711
2.81459
0.00764369
3.2962e-05
3.2038
1.42716
0.000173205
2.27555e-05
0.00131814
0.000667735
0.0102523
0.000161687
0.0158061
2.29307e-05
2.86423e-05
0.00747863
8.45737e-05
0.53947
0.582784
2.11051e-05
0.00541424
0.00380227
0.000981435
0.0829754
1.14016
0.0626171
0.17906
0.473311
0.221565
0.0436074
0.0445331
0.00832005
0.661337
3.0289e-05
0.000832745
0.00178757
0.00989745
0.29654
0.165662
0.00308619
0.210863
0.00152687
7.75484e-05
0.000880506
0.000139338
0.00412009
0.000250112
0.00322666
0.338413
0.0858467
0.000454676
0.000790534
0.163981
0.00226244
0.00950461
0.00017559
0.000113747
0.106805
0.00428675
0.0153261
0.00490781
0.00680025
0.000492199
3.18972e-05
0.160765
7.89316e-05
2.51601e-05
1.84221
0.0594587
0.0002076
0.0655643
0.00141601
2.48645e-05
0.0046285
2.06852
0.00118224
0.000185877
7.17936e-05
0.842564
7.70678e-05
0.000210695
1.57238e-05
0.254637
0.000260312
3.15684e-05
6.84668e-05
2.38242
0.000248491
0.0160845
2.8232
0.00211767
0.0254548
0.00285125
0.00241221
0.00111395
0.0117137
0.00266868
0.000685093
0.243784
0.00919001
0.921253
2.88271e-05
0.00551936
0.122731
0.0193039
0.00123345
0.424195
0.00042703
0.0557229
0.00287205
0.0010007
0.132079
4.54295
18.2058
0.0961177
5.63474e-05
0.001345
0.000112312
0.00870676
0.0183489
0.0625287
0.000101286
6.19907e-05
0.0134147
8.80437e-05
0.423311
0.000216351
3.46731e-05
0.000121848
0.000280248
0.000113732
0.000672899
0.000335006
0.00199256
0.00282943
0.0030866
5.98008e-05
0.006434
0.00251118
0.0156002
0.00129741
0.000624088
0.000521745
0.00127209
0.00047026
4.34844e-05
0.00155511
9.05186e-05
0.000138924
0.00292586
0.00210742
0.0104933
2.19825
3.91062e-05
7.1781e-05
0.000611991
0.000944693
0.157193
0.0426735
6.84999e-05
0.000429792
0.0001493
0.00022504
0.000189559
2.81404e-05
0.00230323
0.00150087
2.8859e-05
0.00106826
6.14046e-05
1.92638e-05
0.00313389
0.000810027
0.000924315
0.000136609
3.397e-05
2.26716e-05
2.23261e-05
0.000117479
0.000480706
1.85439e-05
0.532103
0.892338
0.000118328
0.000501441
0.0119526
0.00229363
0.00403924
0.00704617
8.53092e-05
0.0045741
1.00889
7.28774e-05
4.29644e-05
0.000408426
2.82801e-05
0.000567656
0.000137198
0.000185855
0.000655417
0.632328
0.0466627
0.00583343
0.527394
0.000699456
0.000333652
0.458644
0.00487482
0.032266
0.0299932
0.00027962
0.0439938
0.302744
0.00266551
0.00162956
0.00220048
0.00398653
0.0064138
8.10845e-05
0.00371006
0.0434658
1.22054
0.183754
2.24961e-05
0.00536827
0.317928
0.000650913
0.00670178
0.0197548
0.000132625
0.0712146
3.42127e-05
0.000129459
0.00603052
0.645164
0.00258857
0.000114084
0.00121539
0.129107
0.0078414
5.12594e-05
7.62227e-05
0.000645932
8.83014e-05
7.95902e-05
0.163571
0.460473
0.00189878
3.35031e-05
0.000358487
4.24814e-05
0.000456064
2.16812e-05
0.212941
2.33473e-05
0.000390716
2.38107e-05
0.000181933
0.000746121
2.49863e-05
4.62314e-05
4.05548e-05
2.21955e-05
5.36192e-05
0.000292371
2.38462e-05
2.91848e-05
2.72245e-05
0.000338599
0.000154671
0.0426442
0.000177803
5.13868e-05
4.58133e-05
0.000100259
0.000245185
3.4487e-05
0.000226916
0.491624
0.000280544
0.000629255
0.000977106
0.00556948
0.00749707
0.00783433
0.35205
0.000614899
0.000588371
4.57327e-05
0.000814755
0.00242119
7.01082e-05
0.000427238
3.48573e-05
0.000826455
0.000744462
0.000365493
0.00348143
3.20495e-05
0.0981366
0.00142242
0.0021257
2.37786e-05
5.11812e-05
0.000589946
0.014479
0.0193643
0.000480005
2.74011e-05
2.37106e-05
2.77781e-05
0.00538382
1.8713
0.00109019
0.000870586
0.00251311
0.013636
0.00818994
0.0247786
0.00103688
0.0277316
0.00015475
0.000871533
0.00170684
4.67359e-05
0.507415
0.0019922
0.00411129
0.366327
2.13555e-05
0.000116421
3.81615e-05
5.09141e-05
0.0243187
0.00386251
0.00207595
0.00177162
0.0192208
0.0145574
0.00166975
0.0316771
0.00180154
0.00167554
0.0224343
0.39593
0.00148508
0.0277345
0.686251
3.11579e-05
0.00729145
0.169371
0.0292426
0.0474455
0.000109778
0.000448075
0.0127127
9.00778e-05
0.0254657
0.0166954
0.218087
0.00258212
0.0665488
0.00114195
0.00049776
0.00182601
0.000445851
2.383e-05
0.00165332
0.0561422
0.00717369
0.000123284
0.000558539
0.00139506
0.00432334
2.26679e-05
0.0031497
2.14825e-05
3.57472e-05
0.00503633
4.48424e-05
5.21403e-05
2.10263e-05
0.00444609
0.725681
2.49533e-05
0.0803706
7.38786e-05
0.0021733
0.000364707
3.04075e-05
3.18477
1.0148
0.000131214
2.44857
7.88762e-05
2.47075e-05
3.39504e-05
0.552876
2.92829
0.00915369
2.14674e-05
0.000113186
1.87105
0.000127644
0.000149436
0.00492381
6.12318e-05
0.00896492
0.00107405
0.000216619
0.00328807
0.122149
0.424134
9.66954e-05
0.000178016
0.000258691
2.10152e-05
1.68235
0.00325719
0.0141265
2.09342e-05
8.88356e-05
0.0234909
0.000469639
0.000175306
5.66653e-05
0.0205839
6.12846e-05
0.00285238
0.000297192
2.165e-05
0.000195558
0.0043651
0.0991025
0.000249862
3.59201e-05
6.81523e-05
0.00230974
5.2465e-05
0.00097749
0.000111755
0.0415398
4.96548e-05
0.000525014
0.00131139
0.310751
0.830546
2.03691
4.14789e-05
1.04237
0.000682144
0.00830208
8.31519e-05
0.00082324
0.00232691
0.0869401
0.000370642
0.628732
0.00331624
0.00139383
0.0101812
0.00170624
4.66772e-05
0.000311922
0.00472924
0.000371097
0.008667
8.88315e-05
0.00024521
5.7305e-05
0.00564431
0.903729
0.189771
0.00971462
0.000467922
0.000180894
0.423381
0.151615
0.0546751
0.129087
2.92637e-05
0.0348605
0.000226101
3.43847e-05
0.00392866
0.000218662
0.358082
0.0237784
0.00163771
0.00641762
0.00290885
0.000283756
0.00771208
0.000157495
3.27852e-05
1.471
0.000920176
0.201776
0.000338825
2.20822e-05
2.19526e-05
1.78885e-05
0.000114325
0.00356413
0.0058854
0.0852165
5.34435e-05
2.45876e-05
0.000395608
0.0059399
0.1219
0.00584028
0.0447677
2.47182
0.0423216
0.000117247
7.74326e-05
2.70267e-05
6.54314e-05
0.0473708
6.08931e-05
0.0396194
0.00299808
0.00184725
7.73748e-05
0.000777183
0.000111762
7.64553e-05
0.0119829
5.85217e-05
0.0361493
0.000107385
0.00088412
8.09958e-05
0.00370106
0.0684391
0.0245984
5.79587e-05
0.000186866
0.00575159
0.0237964
3.26221e-05
3.03259e-05
4.57008e-05
2.17463e-05
1.59728e-05
0.000914635
0.000148941
3.55781e-05
0.230492
0.0156817
0.000992218
0.120441
0.594654
0.0004132
0.0585025
0.000109513
4.90268e-05
2.85334e-05
2.40025e-05
0.00461083
3.144e-05
0.00716001
0.0124991
0.000535977
9.00863e-05
0.000513029
0.00727961
0.000142993
0.00113514
0.000898267
0.000123013
9.91285e-05
0.00753735
0.000129496
0.000132245
5.67486e-05
0.000420858
0.00101922
0.606234
0.708052
3.78559e-05
0.210318
2.2072e-05
0.00021697
0.0115668
0.00354635
0.0245186
0.00411941
0.000283725
0.00331666
0.000710976
0.865014
0.000472461
0.0522355
0.00920187
0.00945912
0.00329153
1.03523
0.00427484
0.0512935
0.0001324
0.00610339
0.200108
0.00479343
0.00121967
0.014696
1.47692e-05
2.90373e-05
2.34625e-05
0.00174571
0.00545913
0.00122372
0.00205984
0.000217344
0.000206444
0.000397077
3.73069e-05
2.289e-05
0.00260018
0.259879
5.09983e-05
2.03766e-05
2.2665e-05
0.00464367
2.21354e-05
0.000393953
2.94748e-05
0.00651541
0.013978
0.000932383
3.62139e-05
0.0654342
0.00092263
0.00100998
0.000524041
6.49145e-05
7.965e-05
0.000403244
0.0107095
0.000254004
0.0010483
2.77328e-05
0.000682703
5.24528e-05
0.00317544
0.000237946
6.69716e-05
4.36386e-05
0.00105155
0.00860616
0.0100432
2.71309e-05
0.00246407
0.131488
0.00581229
5.36052e-05
0.000117456
4.75247e-05
0.00672994
0.0149847
0.00231484
0.00825203
0.0347501
0.00741579
2.86903e-05
2.07764e-05
0.000109988
0.0924042
0.00020297
0.0259215
0.0246419
0.0533326
0.000269373
0.000193055
4.19913e-05
0.0014078
0.000259811
0.00041122
0.193447
0.000970572
0.0051403
0.0398251
1.35421
0.00198309
0.000204466
0.0516471
0.00931035
0.00300386
5.35594e-05
2.15332e-05
0.0143228
1.84634e-05
2.82323e-05
0.0179443
0.0921286
0.00131787
2.25417e-05
5.00107e-05
2.09182e-05
0.000185351
4.80818e-05
0.000862153
0.000334422
0.00409436
0.00776519
0.00012035
0.0179013
4.56345e-05
0.0153727
1.79025e-05
0.000122925
0.972114
9.25786e-05
3.42379
1.02259
0.000184737
2.11282e-05
2.76887e-05
0.005634
4.50566e-05
0.00422371
3.11194e-05
0.517499
2.66868e-05
0.511584
0.00165781
0.225314
0.00231645
5.56387e-05
0.00447564
0.00102985
0.00112197
0.00424894
0.00286412
0.00267695
2.2928
0.000498592
0.291619
2.35386e-05
0.000472812
0.00187765
0.0115072
3.59473
2.36116e-05
0.00791358
0.0289638
2.23864e-05
0.00484888
10.2134
0.000170739
0.00399565
2.38059e-05
0.04881
0.0361788
0.0107873
0.0158479
0.00156521
0.00286433
0.00891162
5.3e-05
0.00932831
0.00946251
0.00146567
0.0149991
4.18237e-05
0.0208632
0.00458375
0.00270031
0.000215575
0.000147461
2.76885e-05
0.0053672
3.10125e-05
0.000298074
3.88194e-05
0.00049074
6.28859e-05
0.0181564
0.000858712
0.00713375
0.00135924
0.0043538
0.00248945
0.607374
2.7288e-05
9.76986e-05
8.03499e-05
0.00157798
0.00140744
0.0787461
2.09714e-05
0.0124588
2.6073e-05
2.80435e-05
0.00652252
1.86445e-05
0.000115281
8.55536e-05
2.99859e-05
2.33113e-05
0.0297249
3.72249e-05
1.9888e-05
0.00104555
0.000538312
4.36739e-05
2.62368e-05
0.00230363
0.00101461
3.84564e-05
0.00863623
0.000810231
3.56832e-05
0.000731852
7.39066e-05
2.30644e-05
3.33585e-05
2.3753e-05
0.00175108
2.91085e-05
2.21996e-05
0.000402045
4.23066e-05
0.019417
2.40858e-05
0.0163601
3.44513e-05
6.20669e-05
3.10642e-05
0.000523856
0.000279519
0.000993081
0.0007814
0.000181353
0.00120187
0.0103009
0.00137848
0.000561545
0.00280504
0.00799586
0.000156579
0.0206515
5.32507e-05
0.00259626
1.9141e-05
0.021855
6.20747e-05
2.32654e-05
9.55112e-05
8.91976e-05
0.00444522
0.048367
0.000129766
0.0392346
0.665951
0.14036
0.679662
0.128796
1.98842
0.000171596
0.000482068
0.000425727
0.0131666
0.000876627
0.545559
2.81774e-05
0.000132626
0.00344656
0.0258986
0.000295448
0.00560813
0.00373764
0.00083183
0.000205881
0.00250392
2.94486e-05
0.000171563
1.02423
2.15796e-05
0.075018
0.444377
0.00530518
0.00127216
2.36838e-05
0.000277373
0.000337685
0.0158266
4.28983e-05
0.0115863
0.00206608
0.510015
0.424873
0.00028027
0.000250558
3.07882e-05
0.00683692
3.83383e-05
0.00133279
5.70756e-05
0.00897982
0.379298
6.07602e-05
2.75231e-05
0.0116193
0.000359021
0.000224204
0.00314684
0.00014712
0.00340231
0.0223509
2.64111e-05
0.00182932
0.00171033
1.20326
0.00130301
4.3061e-05
0.000116207
0.00538644
0.263376
0.0101634
0.000951973
8.2288e-05
0.00163542
0.00197354
0.000682863
0.0119625
0.00119611
0.000329243
0.0217539
0.000119312
3.09778e-05
2.01696e-05
0.000141055
0.00540173
0.00173176
0.000243775
5.22255e-05
0.00448385
0.00596863
5.36997e-05
0.0215449
0.332884
0.00565409
1.16189
0.00127585
9.64184e-05
0.00273216
1.00391
0.00973404
0.00179248
0.00939983
3.26571e-05
0.948278
0.00134998
4.57469e-05
3.01419e-05
0.00139528
8.3761e-05
0.00218491
0.00710738
0.00192108
0.000382545
0.000722651
0.0182905
0.0144473
2.7664e-05
0.00742318
0.00126487
3.02554e-05
2.03564e-05
0.000743527
0.0132419
0.000368908
2.17946e-05
2.71537e-05
2.41401
4.63483e-05
6.88459e-05
5.05101e-05
0.00552953
3.66087
2.4699e-05
1.86267
0.000167075
2.48782e-05
0.230786
0.00151478
2.46999
1.33761
0.00237027
0.00558642
2.21145
0.0677091
1.80427
0.0061647
0.00157245
3.0321e-05
2.45427e-05
0.000543426
0.0716694
2.21057e-05
0.0115726
2.89391e-05
3.69713e-05
0.00868051
9.10836e-05
0.000601846
4.08228e-05
0.00495096
4.45574
0.000654306
0.00868346
0.0073201
0.0012426
0.0167306
0.00112414
0.00298542
0.0135849
0.00449539
8.17925e-05
0.0386547
5.79586e-05
0.00230075
7.586e-05
0.000191344
0.000490883
0.000634971
2.66193e-05
2.52745e-05
0.000542983
0.000153193
7.40154e-05
4.52568e-05
2.34569e-05
0.000467058
1.3073
0.00333493
2.227e-05
0.000633572
0.530082
8.69048e-05
0.457995
0.0193271
5.13669e-05
9.98789e-05
0.000272867
3.18214e-05
1.71204
0.000157751
0.00245697
0.000492315
0.0172603
0.000308304
4.43261e-05
6.297e-05
0.805911
2.20357e-05
0.981412
0.0119903
0.0176612
0.0135056
2.67923e-05
8.11718e-05
0.000565579
0.0356818
0.00654665
0.0346654
0.00857776
2.48784e-05
3.11833e-05
2.30771e-05
0.000844832
0.000349872
0.00608079
4.06059e-05
0.00556384
0.000177674
0.000717958
0.000347751
0.000677612
0.00075787
0.000332841
2.66229e-05
2.99782e-05
0.000469244
0.0001402
0.000237738
0.000340001
0.00262556
0.000404778
9.21772e-05
0.000528615
0.00129893
0.0035045
0.0087192
0.0037327
0.000697835
0.00647891
2.10892
0.000109606
0.000135397
1.47338
2.75488e-05
0.00345135
2.6265e-05
0.000153399
2.13302e-05
2.46512e-05
7.47422e-05
0.000910166
4.0329
0.000896627
0.000955292
0.000555639
0.000672315
0.0141622
3.09768e-05
0.0114643
0.00206837
0.0460315
0.975682
0.000281705
0.000320984
0.000161889
0.000615936
0.0865254
9.81372e-05
2.85428e-05
0.014242
1.07868e-05
1.5476
0.0383457
0.00156007
2.06652e-05
0.00490799
5.39488e-05
4.24626
0.0003819
7.88441e-05
0.0212071
4.21818
0.000374147
5.73819
0.00791637
0.00769719
0.0116668
0.00788544
0.00034007
4.02214
0.0189312
0.000182032
0.00639827
0.000343038
0.0230312
1.18765
0.00833241
4.09084e-05
5.2622e-05
0.0440785
0.0147006
2.02416e-05
0.00010071
0.017464
0.00883176
1.82295e-05
0.0001509
0.000486522
0.87542
5.59847e-05
0.0159966
7.2342e-05
0.00057434
8.41283e-05
3.36214e-05
2.64085e-05
3.27625e-05
0.000267566
0.0088951
0.000321188
0.000835928
1.23802
0.000123107
3.69956e-05
0.00188562
0.0458572
0.000359314
0.0117205
0.00112881
0.015945
0.00257492
6.90119e-05
0.000363974
0.000243423
2.93904e-05
0.00017593
0.000388589
0.000452235
0.00235731
0.0177158
5.55897e-05
2.14461e-05
0.188902
0.41429
3.20095e-05
0.00475499
0.707509
0.306849
0.00108242
0.500394
3.95201e-05
0.0059904
0.000519189
1.46278
0.000357271
0.00056909
9.20493e-05
0.000100493
0.000283517
3.29474e-05
0.000461255
0.000125233
0.216933
0.000693556
0.000668863
0.000127729
2.22896e-05
0.0105824
0.000176455
0.000216195
0.000129623
0.000384324
5.09941e-05
2.34372e-05
0.481434
0.0125189
0.840169
0.00798251
4.04097e-05
0.367724
0.00871751
4.159e-05
2.16442e-05
0.000659016
0.00106059
0.000366334
0.00244146
0.00293699
0.00731937
2.35336
3.41379e-05
2.44825e-05
0.00535409
0.3898
1.44482
5.85688e-05
1.24523
0.561764
0.0482401
1.24395
3.53297e-05
1.96796
0.000142622
5.96068e-05
1.59027
0.00759076
0.00629699
0.0534343
0.0400122
4.79039
1.21889
8.75379e-05
0.000941454
0.000103882
0.000147555
0.0394378
9.63867e-05
0.0196423
3.76109e-05
0.00015102
0.000192608
5.06138
8.39577
4.69472e-05
3.33688e-05
0.000157833
2.38544e-05
0.730831
5.34429
0.00063902
0.000321856
2.18395e-05
0.00386719
6.6636e-05
0.000416792
2.37073e-05
3.45293e-05
0.000401607
2.52091e-05
0.00236783
2.18025e-05
0.000382495
2.76379e-05
0.00233265
0.000707712
0.0768116
2.30199e-05
0.00146453
1.88834e-05
0.00237806
0.00258798
0.00211401
0.000237673
0.0132779
0.0763672
0.233395
0.0036009
0.00143057
0.0720205
0.00816054
0.00428937
0.0144735
0.00240234
0.676313
0.503322
0.000320501
0.00461383
0.000791171
0.338839
0.0112829
1.29523
7.38949e-05
0.000781353
0.00778565
0.00245149
0.00474282
3.51018e-05
4.69564e-05
0.000653476
4.56956e-05
0.000149316
0.0123438
0.00285885
0.000506878
0.00111252
0.00118546
4.03757e-05
0.0229764
0.0298717
1.77643e-05
2.26325e-05
0.000158522
0.00393162
0.00140095
0.000444919
3.81807e-05
2.77975e-05
4.34514e-05
2.8807e-05
0.0615034
3.39319e-05
5.42495e-05
5.69135e-05
0.00145795
0.0020917
0.0026731
0.0404208
0.00188149
2.51126e-05
7.44164e-05
2.17789e-05
4.51701e-05
0.0002367
0.248388
6.85832e-05
3.04253e-05
0.00111518
2.06947e-05
3.31706e-05
0.066349
0.333306
2.26968e-05
2.22194e-05
9.7719e-05
0.0309687
0.704774
0.00212457
0.00708436
0.000103061
0.00902708
0.000695327
3.9979e-05
2.11996e-05
0.0128633
0.000652894
0.000130026
2.19109e-05
2.93318e-05
0.000133537
1.28935
0.00257984
2.41716e-05
2.52388e-05
10.3128
2.15032e-05
0.000379004
2.20015e-05
0.000260234
3.62615e-05
0.000509322
5.25559e-05
0.000106484
29.8627
0.000803037
0.00262511
0.000325742
3.01497e-05
0.0142207
0.252708
0.000120829
2.95958e-05
21.0625
0.00965015
0.000563716
0.000116043
0.00145733
2.19796e-05
5.13124e-05
1.47226e-05
2.9106e-05
0.0613975
3.89122e-05
0.00119545
2.29894
1.55239e-05
3.6713e-05
0.00150233
7.65524
2.42317e-05
1.29463
2.54477e-05
1.3328
0.00123153
0.000433123
7.61038e-05
0.00763725
0.002104
3.70583e-05
0.00141932
0.000185563
3.37823e-05
9.46362e-05
0.000217634
2.2388e-05
0.000976209
0.000844754
2.34164e-05
0.000518476
0.0107183
0.000374947
4.28618e-05
2.19772
0.000187455
0.00258292
0.000909237
2.9175e-05
4.18324e-05
0.000268207
0.00202557
0.469916
0.000483098
0.000107796
0.103227
0.100622
2.58479e-05
0.000583325
1.36937e-05
0.000105825
2.98173e-05
0.000676148
1.81074e-05
0.00104134
6.09083e-05
8.42872
0.000664023
0.000137969
0.00164282
2.84588e-05
0.00019105
7.21013e-05
0.650382
1.81821
0.000209308
0.000135877
0.00053052
0.000172198
4.30611e-05
0.00223785
0.174379
3.5733e-05
1.36456
3.48627e-05
4.56351e-05
0.00103986
8.21562e-05
0.0034692
0.193998
0.00184967
0.0185936
0.000213546
0.00718364
0.000951057
0.000109621
0.0100185
0.000650775
2.15602e-05
1.39115
0.00350078
7.36436e-05
0.000658405
2.83986e-05
3.69793e-05
0.00472194
2.39138e-05
8.50352e-05
0.000412367
0.0106363
2.14104e-05
4.70632e-05
0.572548
0.00417765
0.471853
0.0926187
0.00288165
0.00385256
0.0219546
0.0022976
0.00134316
0.00117145
0.05812
0.00301878
2.74926e-05
0.0001441
2.18955e-05
0.00241614
0.00235756
0.00350639
6.29543
0.000144836
0.0161233
0.205338
3.54437e-05
3.19413e-05
0.00189489
0.0181683
1.37787
2.44881e-05
9.82616e-05
0.00146872
2.2542e-05
0.00635953
12.4515
0.00119061
0.000307449
14.2951
0.000283043
0.000210113
3.48131e-05
2.35407e-05
0.0662778
0.0125894
0.00237983
0.00729505
2.49838e-05
0.000202651
0.000149924
0.540176
2.14807e-05
2.15731e-05
1.17612
0.00014892
3.14889e-05
5.18782e-05
2.22982
0.000559931
0.604705
3.28215e-05
4.35137e-05
0.0126419
0.0341446
0.0046856
0.00155232
0.00112509
4.15788e-05
2.28293e-05
0.575025
0.626041
1.16567
6.50436e-05
0.85755
1.62885
4.82121e-05
8.89194e-05
0.000104305
0.00531213
0.00167317
0.000112228
0.00575307
3.75051e-05
0.761613
0.602607
0.183693
0.0389694
8.84837e-05
0.00654057
0.000770446
0.00591033
0.526613
2.78385e-05
3.15415e-05
0.000701606
0.0114393
2.96249e-05
0.0219644
0.0150733
0.00944088
6.14073e-05
0.00177003
0.00294974
2.27777e-05
0.0164892
0.000573903
0.016304
0.00150663
0.285244
0.00142989
5.0748e-05
5.29803e-05
0.000760849
0.215336
4.71806e-05
0.000707284
0.0216516
0.0534061
0.0128949
0.142295
2.65352e-05
0.000171028
0.000167541
0.0232308
0.00035277
0.00393054
2.13077e-05
0.0111793
0.000196271
0.113744
0.000275884
0.000116478
2.38284e-05
0.347816
0.130093
6.67161e-05
0.143562
2.24904e-05
6.37656e-05
0.00158368
0.00308843
0.000821518
0.000461567
2.96966e-05
0.0297604
0.00449183
0.000212742
0.57185
0.752185
0.00357647
0.000396376
0.0011864
0.0012618
0.0036739
0.000381185
0.0588737
0.000841901
4.76645e-05
0.00217735
0.00103109
0.000188196
0.000133883
3.02785e-05
0.00347916
4.24575e-05
1.46413e-05
2.06493e-05
0.00416167
0.000130564
0.00322582
0.00445265
0.00294232
4.17886e-05
0.000197365
0.00312758
0.0616485
0.00022135
1.92761e-05
0.00058044
2.08866e-05
2.41573e-05
0.00615719
1.8474e-05
2.23755e-05
2.2282e-05
0.000344271
2.09572e-05
2.43305e-05
2.6984e-05
0.00260757
0.0115465
0.00444249
0.296565
0.00813633
0.000133916
2.49352e-05
2.1375e-05
1.03384
0.0613581
0.00298897
2.12757e-05
2.15034e-05
0.000273481
2.7265e-05
0.20467
0.00582982
0.00191408
0.27671
1.60686e-05
0.000160359
3.66815e-05
0.314367
0.0104542
0.406351
0.000248877
0.495205
0.00467499
0.00484559
7.25554e-05
0.385044
0.00428449
0.0245336
0.00483113
0.00549497
0.00595549
4.6809e-05
0.117628
4.84105e-05
1.45833
3.98403
4.21873
0.000614413
0.0165449
0.0174576
0.00399343
4.90878e-05
0.974135
6.08404
2.57425e-05
0.00448306
4.92221e-05
0.000180224
9.83126e-05
6.00897
0.41262
0.000192664
0.000989959
0.0113828
1.09954
0.00112929
2.39937e-05
0.358491
0.0390407
0.000521715
0.588155
0.28394
0.00404708
8.31743e-05
0.0105917
0.00104521
3.01033e-05
0.000670696
6.55031e-05
4.20744e-05
0.00101907
0.000117965
0.000543322
0.000273962
0.000145373
0.0236727
0.00692583
0.426649
0.797981
6.89514e-05
0.000608493
0.00895435
0.00102391
8.55667e-05
0.00298139
0.00111443
0.546394
0.0048565
0.0137492
0.00148068
0.00409375
2.39859e-05
0.0041182
3.82761e-05
0.172514
0.0234914
0.00931718
0.392914
0.00136486
0.00269595
0.000139091
0.00592348
2.72886e-05
0.000144486
0.00459157
0.00241541
0.00065222
9.9991e-05
0.000340624
4.52019e-05
0.000802776
0.0101966
4.67332e-05
0.00588714
0.0105209
0.0182686
0.000481175
0.0829338
0.00717598
0.00011653
0.000170591
7.32734e-05
2.51609e-05
0.0069322
0.00861538
0.00104745
0.000782497
0.000981771
0.000213534
0.000101158
0.0158648
0.000133693
0.000221924
0.00538169
0.00122737
1.50916
0.00477275
0.00434056
2.34446e-05
1.40461
0.263329
4.92402e-05
0.00187198
1.55012e-05
0.000134982
0.00585538
3.18996e-05
0.00610538
2.18003e-05
0.0456106
0.00111619
0.000187727
6.32538e-05
0.000620432
0.00161884
5.63103e-05
0.000882263
0.000158619
0.000116275
2.62859e-05
2.10493e-05
0.0235989
0.000386836
6.87332e-05
0.00116653
0.295669
2.65063e-05
3.74458e-05
8.50659e-05
5.30672e-05
0.0133878
0.000884241
0.00644846
0.00246246
5.24663e-05
0.0260623
0.646776
0.000863402
0.000190891
0.190532
0.000635928
0.00750202
0.000966273
2.69978e-05
0.00100144
0.000422773
1.11641
0.000672301
5.33206e-05
5.05844e-05
8.48944e-05
5.9586
0.00554121
0.136865
0.000461142
0.00211428
0.0586707
8.94826e-05
2.47824e-05
3.91925
0.00546193
2.0715
8.92752e-05
0.000720438
1.20321
0.0698755
0.00224133
0.000216043
0.000224003
0.00184429
2.14943e-05
0.00266319
0.00108981
0.00136432
0.000402912
0.00279422
7.77401e-05
0.360262
1.72158
0.00215403
0.00196271
2.22253e-05
0.000331766
0.431106
0.0147063
7.42564e-05
0.000551646
0.000154718
1.12242
0.00183068
0.306203
0.000202684
4.71076e-05
5.16136e-05
0.0226795
0.420082
2.37318e-05
2.28103e-05
1.75882e-05
0.00430229
0.000136181
0.000951822
0.0699657
0.0020911
0.000957506
0.0165529
0.522714
0.00167501
2.15794e-05
0.00772614
0.000146882
3.49242e-05
0.0176665
2.96592e-05
0.0178725
4.01285e-05
0.000708533
0.000380212
0.016468
0.00138502
2.34369e-05
0.00580429
0.000132624
2.319e-05
0.000738866
6.65506e-05
3.90159e-05
0.00111299
0.00022579
8.99569e-05
0.00306551
0.000733975
8.20134e-05
4.13917
0.00184489
0.00131619
0.0508117
0.714449
7.73027e-05
0.000956933
2.6474e-05
0.00133206
0.00096956
0.00244015
0.007024
0.35997
0.0030242
0.000202563
2.88055e-05
0.0114827
0.000171376
0.000793138
8.47663e-05
5.76138e-05
0.00137637
1.71914
0.00196494
4.1604e-05
2.62651e-05
1.14592e-05
4.29546e-05
0.00213912
2.05857
0.00161498
10.2861
3.03075e-05
5.00851
0.00129997
1.31433
0.0144732
0.00592115
8.2065
0.259207
0.000595322
0.00995213
2.39216e-05
0.00830107
0.000185317
0.00634292
0.000664794
0.0178539
0.155638
0.00139216
0.0079858
6.12875e-05
0.560135
0.00015286
2.20152e-05
1.94449e-05
0.00473546
3.261e-05
2.70667e-05
0.0805676
0.00740842
0.000268926
0.000170522
4.81295e-05
2.39002e-05
0.000439411
0.000227226
2.87995e-05
2.21743e-05
7.19803e-05
9.95492e-05
0.0019467
1.68199
4.4797e-05
0.0806964
0.0857973
0.00588832
0.00750459
1.58719
0.000410362
0.0788607
0.00110115
0.0126763
0.0134952
0.000250869
3.33471e-05
0.000334953
0.0351776
3.10307e-05
0.0750107
0.000642136
0.00183936
2.37285e-05
2.31502e-05
0.000562015
0.00786309
0.000177862
0.0013103
0.000154034
0.00121922
0.000540251
5.70165e-05
0.000518356
0.156648
0.0307918
0.124488
0.0040309
0.563545
0.000476921
0.0116608
0.011641
0.0477179
5.12305e-05
0.00618004
5.02246e-05
0.219475
0.00651376
0.0256676
0.00915108
0.00545375
0.000282866
0.00711524
6.68183e-05
8.90466e-05
0.00150106
0.101991
3.18986e-05
0.11999
0.00118384
0.00149453
2.64103e-05
2.95976e-05
0.00107756
0.000666296
0.00108323
0.019513
2.23924e-05
0.0496095
0.00190134
0.000171397
0.000326434
0.000987615
0.00238919
0.00106412
0.0204471
0.000759956
0.00561429
0.00187013
0.000471557
0.000223731
0.000897795
0.00324413
7.5727e-05
3.51376
5.72078e-05
0.00149787
2.89974e-05
0.0018221
9.04652e-05
0.011033
0.00559066
0.0197373
3.22131e-05
2.42127e-05
0.000165181
0.0262274
0.00430875
0.552836
0.00350801
0.04505
0.331499
0.000164735
0.124774
7.24085e-05
3.13934e-05
4.42914e-05
0.000609122
3.61485e-05
0.00382163
0.00579494
0.000379967
0.00146423
0.00281684
0.0276759
4.83998e-05
6.65578e-05
0.000117629
0.00100358
0.000534795
0.0130209
6.74596e-05
0.0017529
0.0782728
0.0534069
2.15338e-05
0.0530644
2.17013e-05
0.00017069
0.000224105
0.000598429
0.00678813
0.00207909
0.00636102
0.000727199
0.000375307
6.04181e-05
0.000930871
0.00247474
2.1362e-05
0.00404086
0.00182795
6.96929e-05
2.43365e-05
0.000135592
0.0233147
0.00144134
0.0399073
0.000182828
0.00148017
0.0085284
6.04429e-05
0.0016301
0.000503667
2.28497e-05
2.95805e-05
0.0641372
0.00047972
0.000579157
7.82474e-05
2.29227e-05
0.000329356
1.84926e-05
2.14768e-05
2.52572e-05
4.74686e-05
2.19789e-05
5.87169e-05
0.00452598
0.000797652
2.54515e-05
0.0136478
0.000935777
2.21135e-05
0.00010609
0.000753063
0.0516351
0.01785
0.426092
0.00218725
0.000274408
0.226566
0.00402128
0.0123687
0.00496904
0.0205687
9.07568e-05
2.1151e-05
0.20409
7.61916e-05
0.000620384
0.000263111
2.06017e-05
0.0354597
2.16284e-05
3.30583e-05
1.48845e-05
0.00190974
2.23531e-05
2.24705e-05
0.000143139
0.00610222
4.52145e-05
0.000104627
0.000423425
0.71877
0.00464096
0.0932589
0.252337
7.59743e-05
0.10004
3.51717e-05
0.00265647
0.0140276
6.03835e-05
0.000120548
0.000616157
0.674678
2.55726
2.96225e-05
0.00215075
0.856763
0.00170622
0.00255979
0.00617171
0.0075977
0.0112604
0.00171679
0.314615
0.00100934
2.21341e-05
8.65149e-05
2.48756e-05
0.00019988
0.802192
0.000321932
0.00133792
1.39121
2.16399e-05
0.000401964
3.97568e-05
0.000866344
4.12092e-05
0.00161321
0.00377793
0.00122892
0.0068214
0.484815
3.46832e-05
5.98287e-05
0.0726006
0.00445227
0.000342592
0.00551966
0.000627186
0.000105335
5.91333e-05
2.71826e-05
3.84815e-05
0.0239496
0.407388
9.05194e-05
0.0013588
0.0029951
0.026969
4.22874e-05