/*--------------------------------*- C++ -*----------------------------------*\
| =========                 |                                                 |
| \\      /  F ield         | OpenFOAM: The Open Source CFD Toolbox           |
|  \\    /   O peration     | Version:  v2012                                 |
|   \\  /    A nd           | Website:  www.openfoam.com                      |
|    \\/     M anipulation  |                                                 |
\*---------------------------------------------------------------------------*/
FoamFile
{
    version     2.0;
    format      ascii;
    class       volScalarField;
    location    "1.1917995";
    object      k;
}
// * * * * * * * * * * * * * * * * * * * * * * * * * * * * * * * * * * * * * //

dimensions      [0 2 -2 0 0 0 0];


internalField   nonuniform List<scalar> 
83563
(
8.16193e-05
9.78999e-05
0.00018781
0.000202894
0.000394673
0.000285175
0.00180346
0.00618066
0.000959309
0.0223914
0.000627623
0.00716495
0.184597
6.54163e-05
0.00563246
0.0648946
7.62767e-05
6.54482e-05
0.00778431
6.49274e-05
6.44871e-05
6.46345e-05
0.00884331
0.0211219
7.456e-05
0.000427289
0.000107105
0.0265158
0.000406782
0.000117263
0.000421192
9.97453e-05
0.00265551
7.60867e-05
6.96344e-05
0.000934898
0.000107634
0.000205647
0.000181986
0.00275728
0.000137234
0.000960516
0.000277405
0.000868425
0.00328297
0.00668669
0.0665579
0.0035912
0.000125489
0.157936
0.147666
0.00122792
0.075884
0.123738
0.00109165
0.154924
0.00019315
0.103944
0.127853
0.00254895
0.132578
0.0249519
0.000124582
0.000176458
0.247263
0.233122
0.177905
0.000742225
0.00191356
0.144557
0.00177964
0.351768
0.000138738
0.320574
0.000169237
0.451524
0.142952
0.000109416
0.000117547
0.11592
7.68707e-05
0.000176562
0.000211359
0.0624142
0.000807644
8.43004e-05
8.42331e-05
0.0273
8.93877e-05
0.000156336
0.00365518
0.000102956
0.011156
0.00387269
0.0370004
0.00598193
0.0664054
0.0113782
8.53432e-05
0.0030893
0.00129445
0.000106953
0.00117292
0.000134358
0.000538031
0.000241433
0.000299509
7.13641e-05
0.0331025
6.70193e-05
0.00522797
0.00134671
0.0157327
0.00142563
9.50489e-05
0.000142015
0.154896
0.00876014
0.00051293
0.000133534
0.00060214
0.00113218
0.00254899
0.0429816
0.00448447
0.000257646
0.0489972
0.0013702
0.00433834
0.000124686
0.204416
0.117027
0.00144098
0.0830517
0.000665121
6.59532e-05
0.00243272
0.000113056
0.000442271
0.14692
0.00160815
0.0713866
0.000129301
0.00161322
0.289155
0.141295
0.00121337
0.000101234
0.00124622
0.000144071
0.0508672
7.5637e-05
0.000186019
0.00264215
7.51203e-05
8.77447e-05
8.01534e-05
8.45017e-05
0.000270244
0.00413923
0.00292961
7.56859e-05
0.000160119
0.000240596
0.00575424
0.0165088
9.66984e-05
0.198444
0.000115853
0.00602375
0.000162917
0.000206376
0.344697
0.00996043
0.316403
0.000116253
0.000408602
0.00106068
0.00126224
8.10494e-05
0.000840235
9.3384e-05
0.0028286
0.00486925
0.0111287
0.0267414
0.00750734
0.00177702
0.00187321
0.000103124
7.74788e-05
0.014972
0.0408177
0.0198562
0.000215431
0.0413533
0.000817009
0.00572508
6.46774e-05
0.0024473
0.00215503
0.000658673
0.00623243
7.87126e-05
0.00919386
0.00896878
0.000549227
0.247689
6.61173e-05
0.000754414
0.0035795
0.0216464
0.000110328
0.000123961
0.00154553
0.00314348
0.00162271
0.000117054
0.000276903
0.000333851
0.000147874
8.8575e-05
0.00107394
0.000807129
0.00709504
0.000129408
0.0184864
6.95944e-05
0.000387505
0.00728524
7.7347e-05
0.000473771
7.92061e-05
0.000466117
0.320111
6.58569e-05
0.00313502
0.000166672
0.000213061
0.000107459
0.00373549
0.0012887
0.00012771
0.000124913
0.00145515
8.20765e-05
0.0138535
0.000142656
0.109615
0.000371164
0.00198903
0.00012921
0.000273174
0.0183976
0.000495456
0.000439639
7.05211e-05
0.00609411
0.00019735
0.000351392
0.000310343
0.000955951
0.060096
0.00312927
0.000194583
0.00113387
0.0025649
0.00124806
0.00012715
8.4675e-05
0.00143236
0.00295163
0.00542344
0.000536135
0.00244373
0.000439575
0.00718389
0.0042625
0.000110816
0.000156319
0.00644294
0.000183105
7.82479e-05
0.00505172
0.00822303
7.91678e-05
0.102612
0.000241328
0.000108271
9.48586e-05
0.0120674
0.000113269
0.00803936
0.000167853
0.000141848
0.00119189
0.00136284
0.00409027
0.00014147
0.000100901
9.58314e-05
0.000657918
0.000936052
7.32192e-05
6.76642e-05
0.0052594
0.00713915
0.344519
0.00266338
0.0176715
0.00113574
0.00163553
0.13565
0.0134906
0.0179651
0.00129482
0.322734
0.00161903
0.000119236
0.000133029
0.0161996
0.00176048
8.1356e-05
0.000229981
0.00014259
8.6497e-05
0.010508
0.173911
0.00142856
0.0768198
0.00137968
0.000140323
9.43302e-05
0.142411
8.66229e-05
8.00268e-05
0.000667238
0.295052
0.00369678
9.32056e-05
0.396397
0.140675
0.000190005
7.50277e-05
0.000880873
0.00056426
0.00449548
0.000273621
0.00619104
7.32543e-05
6.99021e-05
0.0031413
0.000168032
0.0603102
0.0941879
6.44351e-05
0.00316607
0.00204332
0.000811176
0.0234897
0.294241
0.0191097
0.0514345
0.216224
0.0688773
0.014112
0.0154457
0.00394236
0.27428
7.7654e-05
0.000615595
0.0012584
0.00466957
0.0292622
0.0239747
0.00184706
0.0936113
0.00093417
0.000144134
0.000617162
0.00023415
0.00277265
0.000259023
0.00328186
0.113098
0.0395278
0.000526541
0.000728492
0.0867185
0.00131735
0.00503841
0.000202783
0.00020641
0.0573348
0.00317873
0.00610351
0.00240566
0.00340286
0.00045648
7.33871e-05
0.0402128
0.000115555
8.15368e-05
0.525489
0.0183433
0.000306881
0.0148894
0.00099088
7.13801e-05
0.00213086
0.271413
0.0016068
0.000182939
0.000145017
0.13131
0.000124649
0.000302009
0.000112345
0.0902549
0.000364505
8.54159e-05
0.000145465
0.274105
0.00023083
0.00630442
0.330244
0.00122675
0.00812091
0.00225616
0.0013342
0.00074614
0.00770752
0.00159071
0.000529684
0.0878842
0.00439622
0.372635
7.80227e-05
0.00269286
0.0305804
0.00786633
0.00115112
0.221578
0.000315888
0.0278716
0.00168486
0.000973939
0.052604
0.38954
1.20213
0.0386341
0.000128261
0.000963662
0.000206482
0.00407014
0.00714801
0.0439005
0.000144923
0.000133896
0.0055838
0.000121766
0.0810775
0.000266359
9.06213e-05
0.000197182
0.000337683
0.000152732
0.000541889
0.000432625
0.00139815
0.00178298
0.00164545
0.000133072
0.0034633
0.0014021
0.00596883
0.000944729
0.000634189
0.000629568
0.000854405
0.000588096
0.000107372
0.00102511
0.000247071
0.000149479
0.00221438
0.00133275
0.00462275
0.433832
7.97516e-05
0.000103892
0.000532843
0.000796739
0.0554363
0.0127017
0.00022421
0.000423004
0.000260926
0.000294294
0.000232588
7.08624e-05
0.00140106
0.000798176
8.01194e-05
0.000819504
0.000102188
9.86744e-05
0.0015261
0.000635867
0.000805379
0.000157765
9.26998e-05
6.8554e-05
6.70343e-05
0.000180507
0.000332879
0.000100481
0.143614
0.192991
0.000185544
0.000521869
0.00461761
0.00153884
0.001993
0.00318937
0.000152468
0.00198124
0.187212
0.00013012
0.000106141
0.000326093
7.54396e-05
0.000568105
0.000205849
0.000239221
0.000465473
0.143386
0.0151596
0.00272451
0.127075
0.00067494
0.000228445
0.0724072
0.00250916
0.0165333
0.0146486
0.000296235
0.0212805
0.0482818
0.00131745
0.00103681
0.00132594
0.00205852
0.00202978
0.000107814
0.00203127
0.0231815
0.215269
0.0391765
6.73805e-05
0.00246893
0.106386
0.000492068
0.0033019
0.0108485
0.000187791
0.0213064
8.91617e-05
0.000139379
0.00317043
0.184289
0.00162654
0.000183774
0.000939576
0.0321409
0.00338077
0.000119765
0.00013597
0.000411526
0.000165537
0.000149382
0.0118064
0.23502
0.00123177
8.92654e-05
0.000355591
9.59079e-05
0.000524815
6.54131e-05
0.0165066
6.91094e-05
0.000306158
6.99084e-05
0.000228102
0.000656912
7.25352e-05
0.000104807
0.000102113
6.63966e-05
8.94909e-05
0.000396622
7.00865e-05
8.09406e-05
7.45954e-05
0.000374845
0.000254301
0.0177357
0.000226889
0.000118144
0.000108224
0.000178745
0.00023197
7.83324e-05
0.00033326
0.101548
0.000314634
0.000635717
0.000959459
0.00281694
0.00349654
0.00458968
0.117916
0.00058708
0.00046747
8.78685e-05
0.000643162
0.00148838
0.000134666
0.000433305
8.36376e-05
0.000964198
0.000587079
0.000377945
0.00214293
8.6414e-05
0.0346658
0.00108803
0.0013121
6.94512e-05
0.000121018
0.000497066
0.00707225
0.00886721
0.000496602
0.000135325
6.99367e-05
7.81349e-05
0.00485015
0.213529
0.000820309
0.000676676
0.00141225
0.00515222
0.00315866
0.00818572
0.000743415
0.0109745
0.000157234
0.000659199
0.00106945
0.000108017
0.113722
0.00134329
0.00252685
0.0734357
6.49916e-05
0.000297951
9.40615e-05
0.000104606
0.00997123
0.00201906
0.00125998
0.00124642
0.00979356
0.00588351
0.000992437
0.0186906
0.000974615
0.00102463
0.0134892
0.0840143
0.00113839
0.00875724
0.100425
7.37041e-05
0.00457228
0.0556396
0.0194368
0.0179236
0.000199442
0.000475838
0.00424154
0.000166793
0.0092671
0.00527296
0.0572633
0.00155341
0.0183903
0.000833137
0.000413628
0.00113617
0.000453822
6.98367e-05
0.00143798
0.0246854
0.00364373
0.000125462
0.000566237
0.00094746
0.0025003
6.71897e-05
0.00200372
6.51958e-05
0.000109528
0.00273965
8.21477e-05
0.000112006
8.21455e-05
0.00235592
0.312787
7.26141e-05
0.0310062
0.000149582
0.0016012
0.000284339
0.000167808
0.290118
0.0973945
0.000221243
0.32558
0.00010436
7.16799e-05
8.93853e-05
0.171372
0.222547
0.00419271
7.67341e-05
0.000219257
0.165008
0.000134275
0.000236146
0.00193725
0.000100843
0.00339814
0.00087932
0.000296722
0.00200704
0.0353594
0.0884664
0.000175086
0.000274134
0.00036255
6.42173e-05
0.267853
0.00188082
0.00600572
6.40954e-05
0.00014308
0.00821382
0.000559602
0.000258305
0.000120759
0.000994751
9.83258e-05
0.00174299
0.000356171
6.53661e-05
0.000253722
0.00213498
0.0446673
0.000326477
8.80081e-05
9.40294e-05
0.00175867
0.00012212
0.000908801
0.000174416
0.0163875
0.000106901
0.000483692
0.000939152
0.148842
0.17465
0.244858
0.000103285
0.137069
0.000525589
0.00419747
0.00015873
0.000698945
0.00151576
0.0318179
0.000376966
0.141925
0.00187722
0.00108646
0.00547288
0.00124619
0.000112334
0.000321391
0.00274726
0.000305066
0.00363954
0.000125331
0.000205876
0.000119699
0.00251728
0.107771
0.0396507
0.00389453
0.000330133
0.000339249
0.0770164
0.0353774
0.0200228
0.0286847
8.1063e-05
0.0133003
0.000208377
7.80322e-05
0.00371599
0.000264486
0.063512
0.0124367
0.000960792
0.00295422
0.00203226
0.000673872
0.000416916
0.000238088
7.36237e-05
0.423044
0.000723333
0.064246
0.000415196
6.62679e-05
6.62842e-05
9.61347e-05
0.000201837
0.00187759
0.000428752
0.00445105
0.000123553
7.06115e-05
0.000484863
0.000412877
0.0356601
0.00295804
0.0148073
0.310646
0.018809
0.000138559
0.000103983
7.71499e-05
0.00013556
0.00271805
0.000140052
0.0137891
0.00203762
0.00119079
0.000123393
0.000595851
0.000173613
0.000110333
0.00516631
0.000169658
0.0138063
0.000238143
0.00071305
0.000112704
0.00197765
0.0166149
0.010577
0.000157832
0.000285553
0.00288779
0.0166961
7.39305e-05
9.06523e-05
0.000113362
6.58053e-05
8.64933e-05
0.000665109
0.000143196
7.79017e-05
0.0981403
0.00537097
0.000642003
0.0405413
0.106235
0.000318374
0.0155851
0.000141843
0.000115393
7.75643e-05
6.84533e-05
0.00267793
7.22589e-05
0.00398269
0.00540553
0.000422906
0.000109167
0.000489949
0.00377059
0.000162255
0.000818174
0.000704769
0.000145045
0.000188481
0.00423944
0.000147583
0.000188147
8.96586e-05
0.000407675
0.000696796
0.132258
0.098604
7.56128e-05
0.0555784
6.65204e-05
0.000456978
0.00527805
0.0019279
0.00823024
0.0027979
0.000304395
0.00196637
0.000574781
0.0886378
0.000468885
0.0275628
0.00529329
0.00423284
0.00201565
0.130221
0.00216214
0.0226326
0.000229392
0.00295635
0.0519049
0.00262785
0.000819304
0.00521438
8.61864e-05
7.95607e-05
6.84993e-05
0.00114732
0.00342988
0.000883586
0.00146893
0.000209659
0.000207426
0.000325603
9.23828e-05
6.82342e-05
0.00181128
0.0559689
9.47068e-05
6.28683e-05
6.72499e-05
0.00245067
6.66566e-05
0.000414454
7.62007e-05
0.00305474
0.00543899
0.000803228
7.94756e-05
0.022129
0.000693501
0.00145471
0.000530409
0.000150424
0.00016199
0.000434883
0.00446658
0.000195263
0.000761314
7.76249e-05
0.000628977
0.000122539
0.00159259
0.000320372
0.000124622
0.000114594
0.000886267
0.00408443
0.00459743
9.23432e-05
0.00164693
0.0329263
0.00261725
9.42986e-05
0.000189251
0.000110677
0.00551028
0.00610749
0.00149527
0.00348892
0.0181024
0.00435293
7.471e-05
6.37373e-05
0.000186557
0.0319165
0.000262801
0.010335
0.00899794
0.0170752
0.000350878
0.000276559
0.00010422
0.000972583
0.000211463
0.000430635
0.113771
0.000690731
0.00270703
0.0144701
0.470862
0.00170283
0.000266028
0.0170257
0.0040963
0.00233296
0.000106465
6.52031e-05
0.00570982
7.69562e-05
6.99041e-05
0.00604215
0.032793
0.000799802
0.000108013
0.000160055
6.40401e-05
0.00033708
0.000109285
0.000635443
0.000321333
0.00234543
0.00348984
0.000153526
0.00659087
0.00010295
0.00550805
9.91201e-05
0.000202576
0.209028
0.000173028
0.416693
0.139273
0.000165378
6.72632e-05
7.83135e-05
0.0028036
8.85987e-05
0.00201463
7.80487e-05
0.124205
7.68765e-05
0.0810532
0.00194994
0.0676886
0.00130137
8.88777e-05
0.00270305
0.000743625
0.000896355
0.00253714
0.00144664
0.00166007
0.258704
0.000396603
0.0934229
0.000124271
0.000400308
0.00111465
0.00551206
0.562426
6.969e-05
0.00394697
0.0159306
6.64047e-05
0.00229456
0.915979
0.00023386
0.00281419
0.000102116
0.0191625
0.00616608
0.00464151
0.0065057
0.00123451
0.00176126
0.00440816
0.000110288
0.00376427
0.00382694
0.00109121
0.00553151
9.96992e-05
0.00657065
0.00193158
0.0015155
0.000214368
0.000315611
7.15183e-05
0.0023962
8.36426e-05
0.000240605
9.91255e-05
0.000490953
0.000111909
0.00881226
0.0005735
0.00299236
0.00112112
0.00246673
0.00144844
0.122836
7.59392e-05
0.000183088
0.000106602
0.00154001
0.000876984
0.0217951
6.41733e-05
0.00571172
9.05601e-05
7.34128e-05
0.00332056
9.79142e-05
0.000194968
0.00012154
8.07499e-05
6.78514e-05
0.0115949
0.000111967
0.000102714
0.000597876
0.000461933
8.2163e-05
7.48527e-05
0.00139174
0.000767928
0.000161648
0.00388689
0.000619445
8.65506e-05
0.000623844
0.000144017
7.76025e-05
8.90696e-05
6.85148e-05
0.00134225
7.0599e-05
6.6691e-05
0.000371541
0.000126274
0.00737257
8.19057e-05
0.0117929
9.62232e-05
0.000124858
8.46837e-05
0.000444636
0.000356029
0.000737713
0.000532771
0.000195847
0.000778318
0.00414072
0.000842295
0.000584783
0.00151514
0.00348772
0.000251201
0.00705907
8.96128e-05
0.00186166
8.08741e-05
0.00898044
0.000107704
7.13659e-05
0.000129863
0.000125841
0.00207957
0.0159911
0.000224076
0.0135285
0.283351
0.055925
0.221746
0.0279398
0.536183
0.000188767
0.000316352
0.00037772
0.00507805
0.00063676
0.129558
0.000117779
0.00013963
0.00221034
0.00818817
0.000288278
0.00296665
0.00225651
0.000707116
0.000273924
0.00153163
6.97235e-05
0.000212917
0.0417564
6.52957e-05
0.00767407
0.0937873
0.00284932
0.000978095
6.87701e-05
0.000309555
0.000363737
0.0065114
8.48393e-05
0.00553838
0.00135957
0.0258751
0.140231
0.000290255
0.000204029
8.20065e-05
0.00382044
0.000119071
0.000934826
9.06114e-05
0.00076989
0.0404531
0.000131662
7.69118e-05
0.000869393
0.000330234
0.000201963
0.00169603
0.000157701
0.00257248
0.001775
7.71584e-05
0.00094525
0.00233553
0.411307
0.00082502
8.43873e-05
0.000139006
0.00342604
0.0584245
0.00583657
0.000828346
0.000128073
0.00111404
0.00183493
0.000645131
0.00604009
0.00082692
0.000281656
0.00768133
0.00014816
0.000121582
0.000106001
0.000179891
0.00268753
0.00142218
0.000306791
0.000120542
0.00407214
0.00263161
0.000119517
0.0102932
0.138989
0.0027881
0.240823
0.00148932
0.000131952
0.00147077
0.190045
0.00428545
0.00112107
0.004467
8.60592e-05
0.185588
0.000994215
8.62396e-05
8.01555e-05
0.000817361
0.000125202
0.00178202
0.00324041
0.00116792
0.000489847
0.000595421
0.00747291
0.00693855
7.25037e-05
0.00309718
0.000901396
7.80248e-05
7.36671e-05
0.000518386
0.00580587
0.000388692
6.58731e-05
7.68908e-05
0.202321
8.6913e-05
9.71839e-05
8.97032e-05
0.00265393
0.567835
7.02765e-05
0.170258
0.000238678
7.73856e-05
0.0894783
0.000874535
0.27539
0.32207
0.00138223
0.00190176
0.503747
0.00524232
0.416337
0.00256507
0.000941598
7.46547e-05
6.85676e-05
0.000551472
0.0269446
6.58001e-05
0.00467123
7.04855e-05
9.50641e-05
0.00388803
0.000156057
0.000638961
7.9003e-05
0.00293504
0.844732
0.0005424
0.00451116
0.00388372
0.000851102
0.00587296
0.000835489
0.00173527
0.00552838
0.00202045
0.000167069
0.0343923
0.000129021
0.00128106
0.000131867
0.000254665
0.000398762
0.000522895
7.70608e-05
6.8527e-05
0.000519796
0.000232915
0.000164234
0.000113874
6.79764e-05
0.000478552
0.45362
0.00235731
6.62368e-05
0.000513731
0.112734
0.000192211
0.239258
0.00724313
0.000104559
0.000159758
0.000235649
8.66235e-05
0.324493
0.000224848
0.00132619
0.000554092
0.00657594
0.000340481
8.24761e-05
0.000196876
0.153279
6.69374e-05
0.376658
0.00671084
0.00664568
0.00530206
8.5261e-05
0.000160138
0.000477627
0.0113773
0.00334591
0.00840091
0.0039576
7.54386e-05
7.60325e-05
7.09558e-05
0.000645094
0.000440337
0.00318777
9.58462e-05
0.00268423
0.000246107
0.00078661
0.000413347
0.000692152
0.000602063
0.000341065
7.52453e-05
9.86429e-05
0.000592556
0.000169389
0.000346333
0.000335634
0.000221976
0.000509982
0.000116383
0.000477079
0.000795285
0.00191137
0.00390184
0.00150037
0.000527747
0.00314037
0.563797
0.000134588
0.00022769
0.209449
7.76619e-05
0.002074
7.21415e-05
0.000213381
6.8473e-05
6.9006e-05
0.000141613
0.000648982
0.445986
0.000648871
0.000776259
0.000435821
0.000510573
0.00631246
7.72584e-05
0.00453677
0.00118041
0.00963868
0.161141
0.000332073
0.000401523
0.000176668
0.000607105
0.0167303
0.000113867
7.48203e-05
0.00565773
8.14791e-05
0.275683
0.0132478
0.000999915
6.34966e-05
0.00253202
0.000141748
0.452035
0.000290237
0.000154999
0.00746071
0.335301
0.000303898
0.575672
0.00338202
0.00379011
0.00726614
0.00372365
0.000340409
0.462894
0.00768863
0.00029045
0.00296095
0.000312183
0.00654907
0.196392
0.00358038
9.86335e-05
9.19875e-05
0.0143476
0.00550092
9.82582e-05
0.000162639
0.00638036
0.00334648
9.16505e-05
0.000150611
0.00046765
0.159195
9.18511e-05
0.00439538
0.000139195
0.000490187
0.000113768
8.86378e-05
7.9947e-05
8.7629e-05
0.000320446
0.00396866
0.000413341
0.000802335
0.423134
0.000148834
8.0951e-05
0.00133418
0.0182856
0.000406623
0.0107937
0.000783772
0.00583364
0.00160445
0.000134946
0.000419083
0.000325727
7.10475e-05
0.000283859
0.000311838
0.000484467
0.00136777
0.00699222
9.9286e-05
6.50906e-05
0.0541106
0.0972163
7.97547e-05
0.00231799
0.137331
0.0864109
0.000797942
0.10596
0.000100186
0.00261903
0.000444016
0.170133
0.000256811
0.000622672
0.000154622
0.000191178
0.000508235
8.59887e-05
0.000703378
0.000138356
0.0971604
0.000590712
0.000452133
0.000134112
9.6929e-05
0.00404631
0.000280006
0.000229797
0.000221393
0.000581963
0.000135017
6.82437e-05
0.196803
0.00530018
0.330434
0.00328076
8.67733e-05
0.170927
0.0035538
9.50692e-05
6.55905e-05
0.000456233
0.000749852
0.00030149
0.00137915
0.0015432
0.00314118
0.29944
8.88599e-05
7.15557e-05
0.00189629
0.221359
0.487615
0.000121352
0.437516
0.216473
0.0206125
0.441376
9.22732e-05
0.594719
0.000222135
0.000129671
0.517114
0.00353282
0.00297485
0.0457582
0.0110448
0.511679
0.234234
0.000172565
0.000706558
0.000134355
0.000165046
0.0102949
0.000168295
0.00975934
7.85728e-05
0.000153376
0.000174977
0.499423
0.755641
8.70075e-05
9.06014e-05
0.000153787
0.000107694
0.177819
0.565112
0.000644414
0.000498402
6.54692e-05
0.00239342
0.000131597
0.000592161
0.000102237
8.43171e-05
0.000453859
9.79312e-05
0.00135473
7.71563e-05
0.000356069
0.000107532
0.00122752
0.000602251
0.0243491
6.85741e-05
0.00104081
0.000100732
0.00142869
0.00178194
0.00131424
0.000222691
0.00563408
0.0290711
0.057993
0.00205465
0.00114812
0.021032
0.00384393
0.00239339
0.0063421
0.0015564
0.132922
0.0881375
0.000339236
0.00244254
0.000626948
0.0653989
0.00466477
0.166772
0.000100383
0.000609683
0.00462441
0.00143644
0.00238484
8.74208e-05
0.000152533
0.000513736
0.000179764
0.000210499
0.00572725
0.00157793
0.000426509
0.00071164
0.000900485
0.000118114
0.00761674
0.00841797
9.25432e-05
6.64795e-05
0.000189064
0.00310559
0.000906692
0.000518806
8.54888e-05
7.85476e-05
0.00012083
8.02555e-05
0.0158591
8.35316e-05
0.00012564
9.16982e-05
0.000968246
0.00132948
0.00141788
0.00273789
0.00133253
7.02641e-05
0.000147208
9.28239e-05
8.29934e-05
0.000210596
0.130172
0.000136715
8.29795e-05
0.000819503
7.67567e-05
9.36097e-05
0.045349
0.0968274
7.08001e-05
6.73041e-05
0.000184531
0.00975834
0.213272
0.00123531
0.00365185
0.000192221
0.00495222
0.000585762
9.39158e-05
6.46526e-05
0.00591435
0.000489767
0.000137948
6.61575e-05
7.51173e-05
0.000176604
0.182826
0.0026239
7.05744e-05
0.000130192
0.724336
6.52805e-05
0.000460463
6.63432e-05
0.000308742
7.5583e-05
0.000563625
0.000118086
0.000132551
1.67718
0.000732295
0.00178517
0.000416914
8.26041e-05
0.0073915
0.146947
0.000202812
8.13179e-05
1.28416
0.00367167
0.000514699
0.000180798
0.00105708
6.56967e-05
9.3981e-05
0.000105813
8.11661e-05
0.0194401
9.56011e-05
0.000902054
0.285272
8.55022e-05
0.000125644
0.00110024
0.700453
7.09037e-05
0.195302
7.34767e-05
0.229269
0.000836905
0.000370346
0.00011186
0.00346052
0.00132404
0.000119968
0.00102573
0.000232392
8.7134e-05
0.000127479
0.000258138
6.72177e-05
0.000766782
0.000705908
7.67433e-05
0.00050897
0.00422569
0.000402709
9.67275e-05
0.298235
0.000226866
0.00165751
0.00148174
8.11006e-05
9.37886e-05
0.000341894
0.00151251
0.0966375
0.000488058
0.000193452
0.0327247
0.0328922
7.05929e-05
0.000608456
8.13067e-05
0.00016645
7.4482e-05
0.000613729
7.57037e-05
0.000812653
0.000134642
0.631815
0.000656185
0.00018425
0.00117774
7.46609e-05
0.000245956
0.000129383
0.132726
0.533979
0.000269621
0.000195687
0.000542556
0.000180003
8.66051e-05
0.00142198
0.0516452
7.84582e-05
0.195515
9.17599e-05
0.000110479
0.000843539
0.000167106
0.00186914
0.0716344
0.00120126
0.00770748
0.000190508
0.00391911
0.000903725
0.000187452
0.00631049
0.000610602
6.53682e-05
0.205819
0.00180421
0.000193514
0.000526132
7.46717e-05
8.46867e-05
0.00241747
6.93137e-05
0.00014274
0.000465954
0.0049973
6.7063e-05
0.000121205
0.117737
0.00239487
0.0901985
0.0207676
0.00129566
0.00212176
0.0122649
0.00112875
0.000881312
0.000851201
0.0141237
0.00162041
7.23335e-05
0.000231786
8.89527e-05
0.00154426
0.00105028
0.00201469
0.339938
0.000211608
0.00609095
0.0776694
9.03407e-05
8.37391e-05
0.00120417
0.00664941
0.205812
7.06363e-05
0.000130094
0.000983211
6.75331e-05
0.0030491
0.605062
0.000841141
0.000395542
0.767113
0.000318812
0.000306637
9.16248e-05
6.71283e-05
0.035166
0.00526703
0.00155119
0.0038122
0.000118219
0.000188529
0.00020479
0.237795
6.52304e-05
6.54013e-05
0.161462
0.000220039
0.000128289
0.000110173
0.205348
0.000398359
0.130846
8.63499e-05
8.1526e-05
0.00494779
0.0184833
0.00280738
0.00101125
0.00107128
0.000103516
6.70817e-05
0.115708
0.115112
0.0955536
0.000122317
0.105393
0.119492
0.000112352
0.000121626
0.000145049
0.002308
0.00108406
0.000143412
0.0029578
0.000162132
0.109418
0.0846968
0.044421
0.0121329
0.000125715
0.00360438
0.000470017
0.00272663
0.192839
6.97069e-05
8.07289e-05
0.000544238
0.00415718
7.37934e-05
0.0109202
0.0088284
0.00426835
0.000120848
0.00119175
0.00166774
6.85078e-05
0.00613753
0.000589204
0.00676768
0.00100409
0.0566473
0.000862225
8.82483e-05
9.26445e-05
0.000493216
0.0319707
8.38757e-05
0.000504612
0.0160529
0.0205721
0.00578757
0.042979
7.40149e-05
0.000271471
0.000169383
0.00769081
0.000347488
0.00231877
7.01976e-05
0.00402961
0.000195262
0.0363595
0.000335789
0.000141892
7.01621e-05
0.0985746
0.0262016
9.78235e-05
0.0265654
6.67643e-05
0.000117107
0.000857719
0.0018144
0.000721941
0.000460536
7.87254e-05
0.0115532
0.00221881
0.000245083
0.24409
0.296048
0.00193073
0.000416473
0.00109895
0.000948901
0.0019237
0.000467535
0.0150254
0.000774104
8.83035e-05
0.00139856
0.000720705
0.000233944
0.000204775
7.30513e-05
0.00190385
8.04798e-05
8.47186e-05
8.62333e-05
0.00240433
0.000149618
0.00181164
0.00221323
0.00131068
8.21692e-05
0.00019321
0.00168335
0.0158033
0.000221848
8.98525e-05
0.00043495
6.49006e-05
8.12529e-05
0.00273733
8.73457e-05
7.80822e-05
6.70166e-05
0.000354837
6.42007e-05
7.16455e-05
7.65148e-05
0.00147058
0.00439801
0.00234284
0.0527855
0.00392783
0.000222579
7.24228e-05
9.5768e-05
0.139173
0.00645339
0.001757
6.48109e-05
6.52285e-05
0.000311742
7.06697e-05
0.0514575
0.00279944
0.00128645
0.084548
0.000111873
0.00027209
8.15895e-05
0.0902628
0.00428039
0.0691054
0.000222256
0.0727304
0.00223625
0.00253593
0.000101978
0.0707839
0.00222657
0.00932307
0.00244523
0.00313398
0.00274054
0.000107703
0.0348718
9.29223e-05
0.269799
0.515596
0.53038
0.000426966
0.0074228
0.00753648
0.00211363
9.37148e-05
0.207237
0.673086
7.40505e-05
0.00214142
9.26403e-05
0.000176767
0.000121864
0.687217
0.193319
0.00025559
0.000783924
0.00783134
0.349111
0.00108233
7.5319e-05
0.169245
0.0100463
0.000595151
0.248039
0.0952578
0.00209795
0.000151726
0.00412395
0.000715698
7.20943e-05
0.000467967
0.000141972
8.46079e-05
0.000999283
0.000184671
0.000529155
0.000347816
0.00023899
0.00896181
0.000439329
0.0891839
0.172216
0.000100225
0.00050055
0.000639158
0.000911351
0.000115673
0.00207902
0.000610482
0.100976
0.00262672
0.00118556
0.0010037
0.00232841
0.000137004
0.000333991
8.40909e-05
0.0466594
0.00723712
0.00424263
0.153309
0.00101581
0.00165069
0.000144541
0.00309927
7.73724e-05
0.000149245
0.00242587
0.0016916
0.000588493
0.000176592
0.00036855
8.46603e-05
0.000691144
0.00511118
8.90112e-05
0.00260029
0.00472999
0.0070605
0.00047907
0.0281677
0.000610176
0.00021733
0.000164535
0.000145924
7.29654e-05
0.00337421
0.00394111
0.000759897
0.000614789
0.000719083
0.000359143
0.000166136
0.00678677
0.000151962
0.000338882
0.00266988
0.000848922
0.438726
0.00241086
0.00248633
6.85292e-05
0.401977
0.0766361
0.000112492
0.0013447
8.88838e-05
0.000264286
0.00293461
7.70439e-05
0.00364575
6.58101e-05
0.0235535
0.000636931
0.000281155
9.90879e-05
0.000619945
0.0011384
0.000109907
0.000713207
0.000179046
0.000184144
7.51748e-05
6.43411e-05
0.00844935
0.0003413
0.000134514
0.0006879
0.0672701
0.000109212
8.21169e-05
0.000171275
9.65894e-05
0.0051835
0.000853814
0.0029381
0.00177099
0.000121874
0.0119108
0.0720629
0.000691304
0.000271595
0.0556298
0.000449548
0.00542548
0.000742413
7.63216e-05
0.000605492
0.000300683
0.258186
0.000591863
8.9233e-05
8.44029e-05
0.000131133
0.505631
0.00271169
0.025261
0.000421329
0.00142357
0.0149434
0.000119671
7.18788e-05
0.383173
0.00269985
0.266722
0.000168187
0.000424736
0.152137
0.0156068
0.00134844
0.000325535
0.000207349
0.00111661
6.51868e-05
0.00163333
0.000851176
0.00100028
0.000480798
0.00186794
0.000137807
0.101576
0.394307
0.00157211
0.00116937
6.68081e-05
0.000423587
0.183951
0.00505629
0.000132127
0.00052541
0.000242523
0.154356
0.00133466
0.0574399
0.000287679
0.00010029
0.000107316
0.00881966
0.0448264
6.87246e-05
6.80711e-05
9.92877e-05
0.00182835
0.000199819
0.000735035
0.0203561
0.0012435
0.000729554
0.00619063
0.116918
0.0011171
6.5476e-05
0.00348014
0.000207235
7.53542e-05
0.00742489
8.21182e-05
0.00685532
7.919e-05
0.000541142
0.000339998
0.00699908
0.000947153
6.93243e-05
0.00302632
0.000198176
6.88328e-05
0.000565452
0.000127046
9.45697e-05
0.00103174
0.000303979
0.000162135
0.00203731
0.000664083
0.000154685
0.539772
0.00156216
0.000936923
0.0157691
0.146755
0.000142765
0.000823506
7.2953e-05
0.00108007
0.000646899
0.001799
0.00306777
0.199799
0.00217161
0.000273501
0.000128562
0.00486352
0.00020641
0.000659603
0.000135719
0.000128054
0.00096039
0.281559
0.00118214
0.000100537
7.52495e-05
9.32967e-05
0.000106618
0.00135081
0.319975
0.00103015
0.969956
8.30035e-05
0.595859
0.00104251
0.237412
0.00587683
0.00272602
0.839322
0.0930855
0.000525962
0.00522645
7.01337e-05
0.0043476
0.000193846
0.00287528
0.000474304
0.00798678
0.108476
0.000909135
0.00351868
9.22125e-05
0.119059
0.000168733
6.62844e-05
7.7064e-05
0.00230195
8.42936e-05
7.18854e-05
0.0285657
0.00398002
0.000229649
0.000191272
0.000178681
6.88245e-05
0.000475143
0.000230406
8.06643e-05
6.65067e-05
0.000186131
0.000116532
0.00121173
0.499
9.08438e-05
0.0225931
0.0174675
0.00313077
0.00353164
0.219286
0.000447993
0.00556165
0.000671966
0.00524372
0.00519055
0.000245495
7.51049e-05
0.000290895
0.0100903
8.26473e-05
0.0370741
0.000470258
0.00105989
6.83691e-05
8.23414e-05
0.000620015
0.00351073
0.00022621
0.00105586
0.000187324
0.00110331
0.000685108
9.91582e-05
0.000509968
0.0282196
0.00911589
0.04716
0.00204443
0.244934
0.000630483
0.00493592
0.00511003
0.0127305
0.000112381
0.00284616
0.000119761
0.0396944
0.00323082
0.00727237
0.00452022
0.0023224
0.000429007
0.00313343
0.000164374
0.000109843
0.00109648
0.0260218
8.61131e-05
0.04838
0.00100093
0.000833652
0.000102146
0.000124414
0.000697988
0.000891374
0.000811685
0.00951806
6.71664e-05
0.0251911
0.00116805
0.000169872
0.000258388
0.00111017
0.00164777
0.00121832
0.00815107
0.000575031
0.00274464
0.00118732
0.000414901
0.00019384
0.000724595
0.00208491
0.0001657
0.714672
9.63647e-05
0.00103863
0.000111524
0.00122088
0.000175348
0.00507835
0.00303326
0.00772292
7.75302e-05
6.87634e-05
0.000161426
0.011438
0.00225073
0.114383
0.00220893
0.0230568
0.140061
0.000164764
0.0291121
0.00010733
0.00014161
9.36751e-05
0.000614301
0.000147071
0.00211461
0.00280086
0.00031773
0.00105242
0.00153511
0.0191633
0.000120404
0.000164772
0.000208285
0.000857729
0.000599964
0.00523275
0.000122692
0.00127169
0.0447023
0.00626612
7.86049e-05
0.0154379
6.5727e-05
0.000167718
0.00027152
0.000584962
0.0030701
0.0018457
0.00292988
0.000643319
0.000291658
0.000106253
0.00065214
0.00149261
6.49802e-05
0.00215619
0.00100812
0.000200657
7.13142e-05
0.000140472
0.00853311
0.000985147
0.0169935
0.0001651
0.000927804
0.00348996
0.000182415
0.000954463
0.000515203
6.65545e-05
9.41431e-05
0.0296876
0.000463078
0.000658038
0.000110649
7.7077e-05
0.000321588
0.000113625
6.50182e-05
8.84393e-05
0.00010163
6.63113e-05
0.000133049
0.00238892
0.00059114
8.88803e-05
0.00750924
0.000771251
6.68261e-05
0.000133651
0.000586268
0.0140049
0.00933208
0.0760651
0.0014092
0.000311577
0.0684518
0.0020464
0.00434166
0.00245714
0.00737559
0.000146515
6.45792e-05
0.0836032
0.000160006
0.00053438
0.000343421
6.3811e-05
0.0110889
6.55633e-05
0.000119231
8.7415e-05
0.00120139
7.50516e-05
6.73915e-05
0.000145488
0.00279179
0.000100506
0.000174361
0.000512752
0.136296
0.00205457
0.0388095
0.0836803
0.000156178
0.0494852
9.29764e-05
0.00160639