/*--------------------------------*- C++ -*----------------------------------*\
| =========                 |                                                 |
| \\      /  F ield         | OpenFOAM: The Open Source CFD Toolbox           |
|  \\    /   O peration     | Version:  v2012                                 |
|   \\  /    A nd           | Website:  www.openfoam.com                      |
|    \\/     M anipulation  |                                                 |
\*---------------------------------------------------------------------------*/
FoamFile
{
    version     2.0;
    format      ascii;
    class       volScalarField;
    location    "1.1917995";
    object      nut;
}
// * * * * * * * * * * * * * * * * * * * * * * * * * * * * * * * * * * * * * //

dimensions      [0 2 -1 0 0 0 0];


internalField   nonuniform List<scalar> 
83563
(
1.69203e-05
2.96252e-05
3.09644e-05
2.54372e-05
5.11927e-05
4.09649e-05
9.54752e-05
0.000255114
7.39784e-05
0.00055007
5.41583e-05
0.000340084
0.0018712
1.7847e-05
0.00025534
0.00312966
1.9473e-05
1.7846e-05
0.000334932
1.77855e-05
1.77171e-05
1.77474e-05
0.000340042
0.00100991
1.9234e-05
3.14861e-05
2.28264e-05
0.00062983
3.34915e-05
2.14848e-05
3.24857e-05
1.14757e-05
0.000235908
1.94153e-05
1.78412e-05
7.66412e-05
2.57543e-05
3.21269e-05
3.08547e-05
0.000106912
2.18807e-05
7.14461e-05
3.67196e-05
5.47624e-05
2.89286e-05
0.000204159
0.00188218
0.000140619
7.06969e-05
0.00737906
0.00661197
8.05091e-05
0.00155369
0.00198135
6.68024e-05
0.00298216
2.74451e-05
0.00144637
0.00192157
0.000106382
0.00185311
0.000857378
5.12428e-05
3.02725e-05
0.0028539
0.00158328
0.00284177
4.10417e-05
8.30986e-06
0.00545683
0.000107411
0.00397957
2.31729e-05
0.00430066
2.97106e-05
0.011989
0.00191167
2.25006e-05
2.10381e-05
0.00174501
1.80035e-05
1.38726e-05
1.89392e-05
0.00180858
0.000128178
1.74574e-05
2.08476e-05
0.00127809
1.97507e-05
3.84035e-05
0.000159174
1.303e-05
0.000258069
0.000182866
0.000624575
0.000226661
0.00129503
0.000251398
4.82215e-05
0.000130219
6.43931e-05
2.3472e-05
8.13498e-05
2.30734e-05
5.48452e-05
3.16876e-05
3.47329e-05
1.664e-05
0.000434756
1.81013e-05
0.00018676
6.87757e-05
0.000468265
7.31857e-05
2.57722e-05
1.45294e-05
0.00679066
0.000280351
5.25403e-05
1.26743e-05
5.35242e-05
7.72028e-05
0.000100267
0.00106729
0.00015095
2.0765e-05
0.00144044
0.000105361
0.000172325
4.95302e-05
0.00605934
0.00175163
8.24498e-05
0.00233278
4.2406e-05
1.79439e-05
9.5812e-05
3.23417e-05
3.09121e-05
0.00392964
9.61132e-05
0.00149854
5.69467e-05
9.01424e-05
0.00673671
0.00187202
6.92211e-05
2.25854e-05
6.50205e-05
2.76271e-05
0.00174594
2.10132e-05
2.89375e-05
0.00012003
1.68609e-05
1.41951e-05
1.54884e-05
4.35102e-05
6.60804e-05
0.000100616
0.000126017
1.80549e-05
2.567e-05
1.77347e-05
0.000200055
0.000691779
1.21482e-05
0.00912758
1.54095e-05
0.000220295
1.65288e-05
1.66062e-05
0.00978925
0.000290778
0.00886835
4.64816e-05
4.75335e-05
6.19634e-05
7.86933e-05
1.31993e-05
5.47751e-05
1.90136e-05
0.000114407
0.000207766
0.00033659
0.000599588
0.00028654
0.000101175
5.65987e-05
1.66108e-05
1.7506e-05
0.000412585
0.0010005
0.000926179
6.9944e-05
0.0016425
4.96548e-05
0.00020952
1.7735e-05
0.000118084
0.000110357
6.25958e-05
0.000202952
1.34994e-05
0.000267155
0.000265809
3.70912e-05
0.00886382
1.77713e-05
5.08115e-05
0.000154157
0.000422035
1.59267e-05
1.25657e-05
8.00973e-05
0.000168506
8.10465e-05
1.23837e-05
2.53832e-05
7.00118e-05
2.46465e-05
4.60535e-05
5.79832e-05
6.08111e-05
0.000169864
1.35825e-05
0.000345692
1.8831e-05
3.06019e-05
0.000194632
1.9605e-05
3.95693e-05
1.40547e-05
3.58705e-05
0.00424509
1.79318e-05
0.000133062
1.60765e-05
1.88265e-05
2.18617e-05
0.000148954
9.29315e-05
6.00398e-05
1.34668e-05
7.45864e-05
2.28808e-05
0.000426059
1.45849e-05
0.00227234
4.8331e-05
8.88555e-05
3.64473e-05
2.97366e-05
0.000555437
4.41122e-05
4.33107e-05
1.61404e-05
0.000206844
2.08985e-05
3.34432e-05
3.16074e-05
7.477e-05
0.00317629
0.000135996
4.15088e-05
7.21733e-05
0.000116984
6.20083e-05
1.3161e-05
1.30399e-05
6.53936e-05
0.000100056
0.000328807
5.31851e-05
9.50779e-05
4.54315e-05
0.000211848
0.000187277
2.17057e-05
3.96263e-05
0.000252807
1.75552e-05
1.6883e-05
0.000222184
0.000496337
2.28235e-05
0.00142364
1.96734e-05
1.51833e-05
3.3249e-05
0.000699989
1.28272e-05
0.000217801
1.90096e-05
2.47407e-05
6.01118e-05
8.26307e-05
0.000181804
3.76691e-05
3.1675e-05
2.9741e-05
4.75329e-05
6.58898e-05
2.02758e-05
1.83564e-05
0.000165116
0.000209946
0.00343516
0.000125929
0.000449357
6.57901e-05
0.000140317
0.00127958
0.000754107
0.00051281
9.03758e-05
0.00689576
8.31993e-05
1.44608e-05
4.87846e-05
0.000418321
8.24173e-05
2.02278e-05
3.28129e-05
5.05009e-05
1.48156e-05
0.00029375
0.00325711
7.32476e-05
0.00265379
6.43759e-05
3.14971e-05
1.27126e-05
0.00248584
1.58153e-05
1.96537e-05
6.00989e-05
0.00278371
0.000160911
2.37199e-05
0.00441405
0.00124796
1.8759e-05
2.22638e-05
5.29795e-05
4.29138e-05
0.000177409
4.16743e-05
0.000218246
2.10616e-05
1.53538e-05
0.000118752
3.00464e-05
0.000606815
0.00137001
1.77052e-05
0.000166627
9.88259e-05
6.03408e-05
0.000598476
0.00683415
0.000524876
0.0013297
0.00889008
0.00192705
0.000411019
0.000482143
0.000168124
0.0102379
1.79179e-05
4.09562e-05
7.97288e-05
0.000198278
0.000259881
0.000312267
9.949e-05
0.00374024
5.1439e-05
2.41102e-05
3.89321e-05
3.54129e-05
0.000167929
2.41425e-05
0.000300419
0.0034018
0.00163804
5.48788e-05
6.04188e-05
0.00412735
6.90347e-05
0.000240378
2.10768e-05
3.37103e-05
0.00277006
0.000212139
0.000218762
0.000106126
0.000153252
3.81017e-05
1.5196e-05
0.000905272
1.52255e-05
2.37814e-05
0.0134906
0.000509312
4.08276e-05
0.00030432
6.24049e-05
1.84424e-05
8.82903e-05
0.00320511
0.000196544
1.62043e-05
2.63632e-05
0.00184177
1.81446e-05
3.89608e-05
7.22423e-05
0.00287914
4.59363e-05
2.08002e-05
2.78149e-05
0.00283829
1.92981e-05
0.000222395
0.00347672
6.39584e-05
0.000233175
0.000160675
6.64152e-05
4.49796e-05
0.000456435
8.5335e-05
3.68575e-05
0.00285141
0.000189272
0.0135654
1.90057e-05
0.000118245
0.000685759
0.000288498
9.66853e-05
0.0104167
2.10305e-05
0.00125468
8.89562e-05
8.53104e-05
0.00188559
0.00300614
0.00714394
0.00139759
2.62759e-05
6.21396e-05
3.41652e-05
0.00017124
0.000250612
0.00277397
1.86624e-05
2.60287e-05
0.00020918
1.51563e-05
0.0013976
2.95133e-05
2.13162e-05
2.87184e-05
3.662e-05
1.84596e-05
3.92747e-05
5.02822e-05
8.8295e-05
0.000101119
7.8946e-05
2.66506e-05
0.000167781
7.04568e-05
0.000205538
6.19125e-05
5.80008e-05
6.83708e-05
5.16478e-05
6.61914e-05
2.38611e-05
6.0816e-05
6.06942e-05
1.44752e-05
0.000150832
7.58563e-05
0.000183288
0.00770564
1.46378e-05
1.3533e-05
4.17538e-05
6.04762e-05
0.00175953
0.000340258
6.60486e-05
3.74691e-05
4.1041e-05
3.46373e-05
2.56845e-05
1.60599e-05
7.67042e-05
3.82029e-05
2.00188e-05
5.65808e-05
1.53053e-05
4.54893e-05
6.68842e-05
4.49237e-05
6.31572e-05
1.63977e-05
2.27669e-05
1.86563e-05
1.81144e-05
2.49615e-05
2.07461e-05
4.90013e-05
0.00348853
0.00375654
2.61849e-05
4.88815e-05
0.000160552
9.29188e-05
8.85031e-05
0.000129927
2.45249e-05
7.72343e-05
0.00312655
2.09092e-05
2.35996e-05
2.34321e-05
1.81118e-05
5.11698e-05
2.77967e-05
2.77121e-05
2.97519e-05
0.00292628
0.000443246
0.000114524
0.00275568
5.86155e-05
1.4077e-05
0.0010288
0.000116236
0.000762462
0.000643889
2.82455e-05
0.000926431
0.000693001
5.86048e-05
5.93703e-05
7.19071e-05
9.56656e-05
5.78129e-05
1.2902e-05
0.000100091
0.0011127
0.00341705
0.000751724
1.81637e-05
0.000102194
0.0032039
3.34787e-05
0.000146413
0.000536178
2.39313e-05
0.000573711
2.09128e-05
1.35053e-05
0.000150011
0.00473774
9.19833e-05
2.66431e-05
6.5372e-05
0.000720131
0.000131184
2.51844e-05
2.18295e-05
2.35967e-05
2.79297e-05
2.52335e-05
7.66956e-05
0.0107956
7.19159e-05
2.14054e-05
3.17446e-05
1.94873e-05
5.43536e-05
1.77619e-05
0.00011516
1.84111e-05
2.1591e-05
1.84726e-05
2.57387e-05
5.20533e-05
1.89513e-05
2.13838e-05
2.31399e-05
1.7876e-05
1.34425e-05
4.84241e-05
1.85393e-05
2.02031e-05
1.83953e-05
3.73475e-05
3.76295e-05
0.000663866
2.60572e-05
2.44464e-05
2.30091e-05
2.86806e-05
1.97521e-05
1.60129e-05
4.40496e-05
0.00188777
3.17579e-05
5.7802e-05
8.47917e-05
0.000128228
0.000146767
0.000241995
0.00355452
5.04467e-05
3.3427e-05
1.51943e-05
4.56937e-05
8.23464e-05
2.32804e-05
3.95512e-05
1.80614e-05
0.000101241
4.16671e-05
3.5174e-05
0.000118714
2.09696e-05
0.00110208
7.49024e-05
7.28914e-05
1.82564e-05
2.57531e-05
3.76928e-05
0.000310899
0.000365438
4.62396e-05
6.0149e-05
1.85656e-05
1.97802e-05
0.000393244
0.00219287
5.55515e-05
4.73361e-05
7.14258e-05
0.000175204
0.000109639
0.000243377
4.79706e-05
0.000390872
1.43781e-05
4.48736e-05
6.03078e-05
2.24687e-05
0.00229387
8.15168e-05
0.000139773
0.00132491
1.78011e-05
6.8628e-05
2.0866e-05
1.93426e-05
0.000367959
9.49885e-05
6.88265e-05
7.89229e-05
0.000449108
0.000214009
5.30882e-05
0.000992536
4.74532e-05
5.63921e-05
0.000729963
0.00160446
7.85375e-05
0.000248861
0.00132266
1.56912e-05
0.000258044
0.00164503
0.00116272
0.000609397
3.26106e-05
4.5479e-05
0.000127366
2.7796e-05
0.000303511
0.000149884
0.00135321
8.41078e-05
0.000457382
5.47051e-05
3.09344e-05
6.36242e-05
4.15741e-05
1.84198e-05
0.000112562
0.000976859
0.000166568
1.14911e-05
5.16636e-05
5.79123e-05
0.000130138
1.7924e-05
0.000114722
1.78072e-05
3.02032e-05
0.000134127
1.35439e-05
2.16545e-05
2.88833e-05
0.000112353
0.0121337
1.90176e-05
0.00107657
2.72574e-05
0.000106174
1.99514e-05
8.33464e-05
0.00237855
0.00084126
3.35741e-05
0.00389624
1.24269e-05
1.87158e-05
2.11802e-05
0.00478076
0.00152221
0.000172836
2.46854e-05
3.82256e-05
0.00130968
1.27125e-05
3.35852e-05
6.85981e-05
1.49471e-05
0.000115926
6.47903e-05
3.65802e-05
0.000110258
0.00092122
0.00166072
2.85324e-05
3.79934e-05
4.57296e-05
1.76609e-05
0.00383812
9.77452e-05
0.000229793
1.7662e-05
2.07403e-05
0.000258484
6.00118e-05
3.4254e-05
2.31615e-05
4.32657e-06
1.4198e-05
9.58573e-05
3.84169e-05
1.77619e-05
2.96268e-05
9.39805e-05
0.00181192
3.83925e-05
1.94066e-05
1.16759e-05
0.000120517
2.55828e-05
7.60445e-05
2.44991e-05
0.000581843
2.0713e-05
4.01059e-05
6.05316e-05
0.00641622
0.00330533
0.00264909
2.31469e-05
0.0016222
3.64468e-05
0.000190999
2.72701e-05
5.34075e-05
8.8864e-05
0.00104801
3.45058e-05
0.00288335
9.56376e-05
7.62185e-05
0.000264774
8.19162e-05
2.4331e-05
2.98033e-05
0.000143632
2.25706e-05
0.000137552
1.59144e-05
1.55566e-05
2.25026e-05
0.000101041
0.00115667
0.000745614
0.000140516
2.09627e-05
5.72606e-05
0.00126089
0.000742941
0.000659938
0.000573669
2.02096e-05
0.000456701
1.72838e-05
1.59377e-05
0.000316335
2.87921e-05
0.00101385
0.000585423
5.07298e-05
0.000122392
0.000127785
0.00014403
2.02847e-06
3.23929e-05
1.48799e-05
0.0109497
5.11738e-05
0.00184105
4.57904e-05
1.78981e-05
1.80127e-05
4.64975e-05
3.20705e-05
8.90203e-05
2.81111e-06
2.0924e-05
2.57072e-05
1.82506e-05
5.34829e-05
2.58289e-06
0.000938866
0.00013484
0.000440787
0.00351363
0.000752336
1.4737e-05
1.25672e-05
1.98207e-05
2.52768e-05
1.40361e-05
2.89903e-05
0.000431925
0.000124636
6.90858e-05
1.77101e-05
4.11145e-05
2.42726e-05
1.433e-05
0.000200466
4.42663e-05
0.00047457
4.7531e-05
5.17572e-05
1.41143e-05
9.51078e-05
0.000363021
0.000409314
3.86825e-05
3.92722e-05
0.000130493
0.00105429
1.50792e-05
2.43885e-05
2.53079e-05
1.79217e-05
4.21527e-05
4.35291e-05
1.23904e-05
1.53516e-05
0.00376081
0.00016556
3.73861e-05
0.00122819
0.0017081
2.20779e-05
0.000373671
1.65345e-05
2.44438e-05
1.89764e-05
1.75701e-05
0.000139978
1.49466e-05
0.00019938
0.000210397
3.0032e-05
1.1906e-05
4.21117e-05
0.000175774
1.65701e-05
5.30745e-05
4.97658e-05
1.5392e-05
3.22537e-05
0.000214605
1.51376e-05
2.40912e-05
1.27489e-05
3.55415e-05
4.28734e-05
0.00259683
0.00123585
1.35925e-05
0.00132184
1.80431e-05
8.66229e-05
0.000216758
9.43263e-05
0.00024864
0.000171029
2.93914e-05
0.000104923
4.18208e-05
0.000817442
4.18803e-05
0.00130895
0.000274042
0.000170473
0.00011109
0.00147423
9.84219e-05
0.000898774
3.57693e-05
0.000128879
0.0012117
0.000129658
4.95325e-05
0.000166513
4.52652e-05
1.96193e-05
1.79987e-05
6.78637e-05
0.000193944
5.74194e-05
9.42783e-05
1.82022e-05
1.87571e-05
2.40294e-05
2.0589e-05
1.83063e-05
0.000113556
0.00108484
1.58288e-05
1.74572e-05
1.79585e-05
0.0001164
1.80651e-05
3.92419e-05
1.77301e-05
0.000128899
0.000190473
6.22767e-05
1.56977e-05
0.000673536
4.69147e-05
0.000188576
4.8317e-05
3.13716e-05
2.96506e-05
4.22104e-05
0.000167657
1.35095e-05
4.97604e-05
1.95547e-05
5.21532e-05
2.57644e-05
7.18863e-05
3.88216e-05
2.08709e-05
2.70828e-05
6.72265e-05
0.00017446
0.000189408
2.82871e-05
9.90697e-05
0.000742064
0.000106068
1.49295e-05
2.74439e-05
2.31973e-05
0.000406049
0.000224038
8.6928e-05
0.000132759
0.000848707
0.000229957
1.75091e-05
1.75978e-05
2.84788e-05
0.000992157
3.06242e-05
0.000370856
0.000295703
0.000492019
4.1134e-05
3.56563e-05
2.328e-05
6.0472e-05
1.54901e-05
4.05869e-05
0.00602204
4.42417e-05
0.000128304
0.000473182
0.0147348
0.000131596
3.11514e-05
0.000505134
0.000162203
0.00016307
1.90467e-05
1.77694e-05
0.000204862
2.8868e-05
1.55777e-05
0.000183104
0.00105054
4.36854e-05
4.65805e-05
4.61017e-05
1.7645e-05
5.51712e-05
2.23554e-05
4.21514e-05
2.77881e-05
0.000120921
0.000141157
1.76261e-05
0.000218395
2.09027e-05
0.000177618
4.93914e-05
3.00455e-05
0.00404515
2.91047e-05
0.00456423
0.00170717
1.33244e-05
1.92724e-05
1.99349e-05
0.000125562
1.56797e-05
8.64842e-05
1.76174e-05
0.00268293
1.99311e-05
0.00115575
0.000206419
0.00183015
6.57996e-05
1.27776e-05
0.000146925
4.83254e-05
6.44499e-05
0.000136348
6.57621e-05
9.26524e-05
0.00262714
2.83929e-05
0.0026936
5.90476e-05
3.0503e-05
5.95534e-05
0.000237629
0.00791966
1.85122e-05
0.000177173
0.00078859
1.77279e-05
9.77238e-05
0.00739336
2.88284e-05
0.000178387
3.94222e-05
0.000677076
9.45815e-05
0.000179741
0.000240357
8.7631e-05
9.74687e-05
0.000196246
2.0655e-05
0.00013671
0.000139296
7.31181e-05
0.000183597
2.13896e-05
0.000186242
7.32565e-05
7.65493e-05
1.91851e-05
6.07954e-05
1.66256e-05
9.62815e-05
2.03031e-05
1.74794e-05
2.27805e-05
4.4205e-05
1.79235e-05
0.000384935
3.44716e-05
0.000112967
8.32246e-05
0.000125781
7.58468e-05
0.00223582
1.90197e-05
3.08799e-05
1.27289e-05
0.000135265
4.91807e-05
0.000542912
1.76736e-05
0.000235667
2.83091e-05
1.72963e-05
0.000152142
4.62789e-05
2.96763e-05
1.55398e-05
1.95709e-05
1.77744e-05
0.000407056
3.03104e-05
4.77429e-05
3.07694e-05
3.56751e-05
1.39115e-05
1.92197e-05
7.56743e-05
5.231e-05
6.11527e-05
0.000157443
4.26225e-05
1.88938e-05
4.78599e-05
2.52574e-05
2.34992e-05
2.1404e-05
1.77866e-05
9.25977e-05
1.54106e-05
1.80315e-05
3.09016e-05
3.39205e-05
0.000251941
2.50674e-05
0.000765063
2.41878e-05
2.26057e-05
2.07769e-05
3.39657e-05
4.08134e-05
4.93211e-05
3.26927e-05
1.90349e-05
4.53627e-05
0.000149802
4.63203e-05
5.48085e-05
7.36559e-05
0.000136918
3.62703e-05
0.000217163
1.35724e-05
0.000120141
3.07537e-05
0.000332114
1.68187e-05
1.97022e-05
1.58913e-05
1.59784e-05
8.75583e-05
0.000475829
3.48235e-05
0.00041983
0.0108505
0.00200545
0.00651122
0.00054549
0.0130125
1.8689e-05
1.86842e-05
3.01613e-05
0.000176264
4.16274e-05
0.00276904
4.43073e-05
1.32304e-05
0.000127578
0.000232991
2.53154e-05
0.000141239
0.000122609
5.40991e-05
3.2801e-05
8.43201e-05
1.48572e-05
2.37815e-05
0.000153212
1.77815e-05
7.06527e-05
0.00178147
0.000137728
6.76802e-05
1.79718e-05
3.10925e-05
3.52619e-05
0.000241104
1.51007e-05
0.000238268
8.05194e-05
0.000118148
0.00416556
2.70537e-05
1.49527e-05
1.96587e-05
0.000192136
3.3283e-05
5.90123e-05
1.29466e-05
5.94063e-06
0.000388298
2.5677e-05
1.93433e-05
5.85456e-06
2.7338e-05
1.63735e-05
8.22683e-05
1.52138e-05
0.000175054
1.26865e-05
2.02872e-05
4.39589e-05
0.000287034
0.0126537
4.70134e-05
1.48838e-05
1.49651e-05
0.000196121
0.00116643
0.000301662
6.48696e-05
1.79401e-05
6.82994e-05
0.000153545
5.48535e-05
0.000274478
5.14516e-05
2.16853e-05
0.000244105
1.65586e-05
4.29465e-05
5.01376e-05
2.06477e-05
0.000120341
0.000105115
3.47488e-05
2.504e-05
0.000332842
0.000104426
2.39403e-05
0.000442584
0.00522286
0.000123736
0.00449234
0.000156466
1.62523e-05
7.12567e-05
0.00323788
0.000169801
6.31038e-05
0.000191053
2.04108e-05
0.00326894
6.58987e-05
1.46317e-05
1.9184e-05
4.30933e-05
1.68431e-05
0.000130808
0.000132964
6.39031e-05
5.64524e-05
4.41533e-05
0.000274787
0.000299912
1.71021e-05
0.000116302
5.78133e-05
1.81095e-05
2.39932e-05
3.25276e-05
0.000229101
3.68584e-05
1.79189e-05
1.95958e-05
0.00152611
1.46683e-05
1.23468e-05
1.43377e-05
0.000114639
0.0079269
1.79963e-05
0.00140062
3.0687e-05
2.16643e-05
0.00312226
4.54408e-05
0.00276339
0.00697931
7.25445e-05
5.82665e-05
0.0103274
3.65293e-05
0.00864631
9.60573e-05
5.07455e-05
1.6543e-05
1.72409e-05
5.03672e-05
0.000911703
1.76275e-05
0.000169697
1.5451e-05
2.19994e-05
0.000156732
2.4064e-05
6.10528e-05
1.37603e-05
0.000156596
0.0144132
4.0467e-05
0.000210924
0.000185448
5.24656e-05
0.000185543
5.5886e-05
9.07762e-05
0.00020248
8.17277e-05
3.07129e-05
0.00275399
2.58493e-05
6.41968e-05
2.06302e-05
3.05048e-05
2.91536e-05
3.87542e-05
2.00777e-05
1.67218e-05
4.47839e-05
3.18711e-05
3.27979e-05
2.57875e-05
1.77291e-05
4.41296e-05
0.0141662
0.000149965
1.77305e-05
3.74902e-05
0.00215778
3.82611e-05
0.011249
0.000244302
1.91551e-05
2.29981e-05
1.83156e-05
2.12224e-05
0.00553526
2.88435e-05
6.44254e-05
5.61258e-05
0.00022548
3.38415e-05
1.38114e-05
5.53978e-05
0.00262374
1.83001e-05
0.0130102
0.000338039
0.000225062
0.000187335
2.44193e-05
2.84332e-05
3.63017e-05
0.000326491
0.000153904
0.000183231
0.000164336
2.05877e-05
1.66847e-05
1.96353e-05
4.43321e-05
4.98773e-05
0.000150403
2.03612e-05
0.000116548
3.06808e-05
7.75644e-05
4.42185e-05
6.36304e-05
4.30459e-05
3.14542e-05
1.91402e-05
2.92124e-05
6.73447e-05
1.84189e-05
4.54079e-05
2.9819e-05
1.68901e-06
5.78277e-05
1.32251e-05
3.87512e-05
4.38231e-05
9.38219e-05
0.000157147
5.42772e-05
3.59204e-05
0.000136994
0.0135652
1.48737e-05
3.44603e-05
0.00267969
1.97041e-05
0.000112168
1.78335e-05
2.67137e-05
1.97827e-05
1.73851e-05
2.41481e-05
4.16473e-05
0.00443881
4.22618e-05
5.67701e-05
3.07657e-05
3.48968e-05
0.000253226
1.73419e-05
0.00016158
6.06286e-05
0.000181644
0.00239523
3.52302e-05
4.52043e-05
1.73516e-05
5.38561e-05
0.000291145
1.18907e-05
1.76516e-05
0.000202282
5.53915e-05
0.0044198
0.000411919
5.76799e-05
1.75591e-05
0.000117564
3.35193e-05
0.00433092
1.98517e-05
2.74241e-05
0.000236223
0.00239876
2.22156e-05
0.00519777
0.000130037
0.000167963
0.000407286
0.000158254
3.06674e-05
0.00479455
0.000281036
4.17097e-05
0.000123323
2.55693e-05
0.000167604
0.0029228
0.000138462
2.14032e-05
1.44721e-05
0.000420315
0.000185259
4.29275e-05
2.36385e-05
0.000209792
0.000114123
4.14703e-05
1.35291e-05
4.0456e-05
0.00260546
1.35626e-05
0.000108694
2.41044e-05
3.76527e-05
1.38466e-05
2.10312e-05
2.17822e-05
2.10941e-05
3.45398e-05
0.00015936
4.7874e-05
6.93082e-05
0.0130158
1.61945e-05
1.59418e-05
8.49601e-05
0.000656229
4.14145e-05
0.000894613
4.89781e-05
0.000192087
8.99771e-05
2.37485e-05
4.34283e-05
3.92274e-05
1.54573e-05
4.122e-05
2.25221e-05
4.67096e-05
7.14253e-05
0.000248377
1.59597e-05
1.778e-05
0.00139499
0.00205313
1.78845e-05
0.000101698
0.00239911
0.00219006
5.29404e-05
0.00201936
2.28578e-05
0.000103054
3.41754e-05
0.00178092
1.66139e-05
6.13168e-05
2.33758e-05
3.27327e-05
8.1996e-05
2.01978e-05
9.65337e-05
1.37568e-05
0.00391648
4.52807e-05
2.75066e-05
1.26732e-05
3.79358e-05
0.000139245
3.99893e-05
2.19829e-05
3.40321e-05
7.93115e-05
3.21737e-05
1.78838e-05
0.00724052
0.000201957
0.0116962
0.000121353
1.67698e-05
0.00715062
0.000130387
1.95584e-05
1.78888e-05
2.84262e-05
4.77139e-05
2.23311e-05
7.01157e-05
7.29763e-05
0.000121327
0.00342904
2.0817e-05
1.88224e-05
6.04457e-05
0.0113134
0.0148109
2.26291e-05
0.013835
0.00750753
0.000792676
0.0140948
2.16897e-05
0.0161753
3.11379e-05
2.53884e-05
0.0151336
0.000147979
0.000126485
0.00352664
0.000274388
0.00491889
0.00405116
3.06161e-05
4.77242e-05
1.56391e-05
1.66149e-05
0.000241867
2.64465e-05
0.000436406
1.47732e-05
1.40191e-05
1.43063e-05
0.00443517
0.00612087
1.45126e-05
2.21397e-05
1.3486e-05
4.3758e-05
0.00389387
0.00537801
5.84868e-05
6.94608e-05
1.76634e-05
0.000133317
2.33898e-05
7.57185e-05
3.96801e-05
1.85304e-05
4.61619e-05
3.42395e-05
6.97585e-05
2.45742e-05
2.98321e-05
3.76542e-05
5.81363e-05
4.61255e-05
0.000694675
1.83849e-05
6.65706e-05
4.83608e-05
7.72499e-05
0.000110424
7.3533e-05
1.87787e-05
0.000215159
0.000996001
0.00129689
0.000105513
8.29293e-05
0.000552773
0.000162958
0.000120193
0.000250113
9.07511e-05
0.00235121
0.00138905
3.2316e-05
0.000116376
4.47131e-05
0.00113603
0.000173573
0.0019326
1.2273e-05
4.28157e-05
0.000247207
7.57505e-05
0.000107926
1.95949e-05
4.45937e-05
3.6349e-05
6.36466e-05
2.67076e-05
0.000239159
7.83836e-05
3.22995e-05
4.09692e-05
6.15617e-05
3.10973e-05
0.000227248
0.0002135
4.33895e-05
1.75746e-05
2.02941e-05
0.00022078
5.28127e-05
5.44467e-05
1.72273e-05
1.99757e-05
3.02402e-05
2.01231e-05
0.000368045
1.8507e-05
2.61878e-05
1.32969e-05
5.78723e-05
7.60516e-05
6.76875e-05
1.66905e-05
8.4936e-05
1.76937e-05
2.6208e-05
3.56063e-05
1.37239e-05
1.68634e-05
0.00613966
2.45278e-05
2.03681e-05
5.41999e-05
2.56222e-05
2.37755e-05
0.00278961
0.00253161
1.98768e-05
1.83482e-05
3.1362e-05
0.00027674
0.00580845
6.46434e-05
0.000169421
3.22664e-05
0.000244509
4.44115e-05
1.98558e-05
1.77454e-05
0.000244741
3.30658e-05
1.31717e-05
1.79779e-05
1.73135e-05
2.10204e-05
0.00233316
0.000240183
1.85452e-05
6.04423e-05
0.00457875
1.78364e-05
5.03486e-05
1.80045e-05
3.29662e-05
1.4179e-05
5.61346e-05
2.3879e-05
1.48499e-05
0.0084776
6.01007e-05
0.000109258
4.80244e-05
2.03686e-05
0.000345771
0.0076903
3.06379e-05
2.01087e-05
0.00704649
0.000125729
4.22949e-05
2.53519e-05
6.90077e-05
1.7673e-05
1.54917e-05
6.84448e-05
2.03709e-05
0.000553973
2.11389e-05
6.12599e-05
0.00318591
4.23835e-05
3.86992e-05
7.25193e-05
0.00576821
1.86722e-05
0.0026516
1.90938e-05
0.00354951
5.11857e-05
2.85001e-05
1.47975e-05
0.00014112
7.49889e-05
3.49533e-05
6.67153e-05
2.61935e-05
2.02269e-05
1.54548e-05
2.75562e-05
1.81633e-05
5.42056e-05
5.30894e-05
2.26362e-05
4.49674e-05
0.000149938
3.89274e-05
1.96459e-05
0.0036424
2.47107e-05
9.57291e-05
0.000217325
2.02899e-05
1.89247e-05
3.92243e-05
0.000101646
0.0017886
4.43762e-05
3.12454e-05
0.000933686
0.000967692
1.73516e-05
5.71203e-05
4.34483e-05
2.35627e-05
1.67447e-05
5.01365e-05
2.84853e-05
5.70767e-05
2.67871e-05
0.00426247
5.83595e-05
2.21449e-05
7.59894e-05
1.76284e-05
2.84978e-05
2.08956e-05
0.00243774
0.0141138
3.12583e-05
2.53643e-05
4.9938e-05
1.69346e-05
1.56763e-05
8.13203e-05
0.0013766
1.55042e-05
0.0025212
2.17364e-05
2.40714e-05
6.15855e-05
3.05905e-05
9.06357e-05
0.00238062
7.02131e-05
0.000287543
1.5296e-05
0.000192431
7.72873e-05
2.88487e-05
0.00035774
5.15617e-05
1.78371e-05
0.00274057
8.36855e-05
4.57649e-05
3.78389e-05
1.76709e-05
1.74548e-05
0.00011139
1.80814e-05
2.15644e-05
4.73855e-05
0.000211311
1.89053e-05
2.80932e-05
0.00217901
0.000123559
0.00155179
0.000419099
5.24307e-05
0.000105169
0.000616663
4.99074e-05
5.20445e-05
5.56652e-05
0.000308897
7.82818e-05
1.7128e-05
3.35547e-05
3.25242e-05
8.883e-05
4.21101e-05
0.000104184
0.00165202
2.78245e-05
0.000207089
0.00264407
2.07239e-05
1.97582e-05
6.88709e-05
0.000219026
0.00276677
1.83376e-05
1.55016e-05
5.92376e-05
1.82089e-05
0.000131571
0.00264619
5.34824e-05
4.57988e-05
0.00370489
3.2319e-05
4.02752e-05
2.17033e-05
1.7228e-05
0.00167927
0.000198321
9.0997e-05
0.000179294
5.03451e-05
1.57852e-05
2.51761e-05
0.00942134
1.78277e-05
1.78444e-05
0.00199495
2.92611e-05
4.70393e-05
2.10576e-05
0.00170197
2.55069e-05
0.0025481
2.0446e-05
1.3747e-05
0.000174282
0.000900488
0.000151384
5.92902e-05
9.18032e-05
2.31944e-05
1.77402e-05
0.00209549
0.00190494
0.000704955
2.0702e-05
0.00116576
0.000788932
2.3564e-05
1.49726e-05
1.81538e-05
9.02495e-05
6.32131e-05
1.64933e-05
0.000136861
6.30799e-05
0.00141476
0.00107138
0.000966778
0.000339977
1.60752e-05
0.000178767
2.58064e-05
0.00011321
0.00635537
1.5709e-05
1.8596e-05
3.79951e-05
0.000135969
1.65433e-05
0.000488635
0.00046537
0.00017368
2.14043e-05
7.22152e-05
8.48626e-05
1.85444e-05
0.000205604
5.44421e-05
0.00025283
6.02254e-05
0.00101247
4.6793e-05
1.38114e-05
1.45803e-05
2.87752e-05
0.0004272
1.342e-05
3.24014e-05
0.00107118
0.000713192
0.000233785
0.00116833
1.85805e-05
3.87814e-05
1.5412e-05
0.000229152
3.08056e-05
0.000123114
2.08137e-05
0.000130723
1.74832e-05
0.00104605
3.67831e-05
1.55567e-05
1.85932e-05
0.00251433
0.000474942
1.29092e-05
0.00044242
1.78375e-05
1.93562e-05
4.18085e-05
9.5934e-05
5.70991e-05
4.13557e-05
1.8783e-05
0.00040365
9.86415e-05
2.54106e-05
0.00937689
0.0104868
9.38056e-05
3.93829e-05
9.1615e-05
6.42233e-05
9.06546e-05
5.16102e-05
0.00034512
6.4059e-05
1.47232e-05
8.08491e-05
4.53381e-05
2.61732e-05
2.81884e-05
1.58622e-05
9.37639e-05
1.37297e-05
4.41185e-05
3.24106e-05
0.000125016
1.54308e-05
9.15687e-05
9.90091e-05
5.25468e-05
1.45413e-05
1.70229e-05
8.15425e-05
0.0003646
2.00113e-05
3.7695e-05
2.93334e-05
1.81498e-05
2.45964e-05
0.000109526
3.71676e-05
2.4523e-05
1.81406e-05
3.29154e-05
1.77007e-05
1.89875e-05
1.95266e-05
7.46423e-05
0.000150766
0.000111199
0.000845576
0.000170655
3.32951e-05
1.89313e-05
3.86168e-05
0.00168614
6.10867e-05
9.29532e-05
1.77687e-05
1.78078e-05
3.19821e-05
1.64856e-05
0.00116436
0.000120984
7.78165e-05
0.00232501
7.00992e-05
4.15503e-05
1.63329e-05
0.00233251
0.000157732
0.00105771
1.78635e-05
0.000961367
9.62724e-05
0.000119445
1.28999e-05
0.00117112
0.00010414
0.000318859
0.000111387
0.000160868
0.000113501
2.23035e-05
0.000930422
1.60525e-05
0.00449228
0.00600535
0.00600115
2.67036e-05
0.000299719
0.000292816
0.000100683
1.61022e-05
0.00396787
0.00670181
1.91711e-05
9.20598e-05
1.56921e-05
1.56038e-05
1.35951e-05
0.00707343
0.00815153
3.05162e-05
5.58694e-05
0.000484916
0.0099761
9.33584e-05
2.12791e-05
0.00719111
0.000232667
6.11032e-05
0.00941438
0.00287618
9.78796e-05
2.491e-05
0.000144511
4.41062e-05
1.55393e-05
2.93865e-05
2.76939e-05
1.53125e-05
8.81891e-05
2.60188e-05
4.63823e-05
3.97422e-05
3.53606e-05
0.000305342
2.50813e-06
0.00167782
0.00334499
1.31116e-05
3.70579e-05
4.10605e-06
7.30053e-05
1.40734e-05
0.000130479
3.00979e-05
0.00167946
0.000127863
9.20061e-06
6.12333e-05
0.00011919
7.0429e-05
2.43784e-06
1.6627e-05
0.00113579
0.000200662
0.000173872
0.00538367
6.80422e-05
9.0962e-05
1.35183e-05
0.000145943
1.97439e-05
1.38744e-05
0.00011535
0.000106622
4.77894e-05
2.80688e-05
3.58888e-05
1.42707e-05
5.35532e-05
0.000230585
1.52583e-05
0.000103367
0.000191386
0.000245588
4.29277e-05
0.000861022
4.6695e-06
3.64792e-05
1.42825e-05
2.61546e-05
1.90437e-05
0.000147814
0.000162258
4.96157e-05
4.34723e-05
4.74014e-05
5.43637e-05
2.45566e-05
0.000261297
1.55454e-05
4.65731e-05
0.000119208
5.28448e-05
0.0114787
0.000109602
0.000128178
1.80281e-05
0.0103536
0.00200729
2.31294e-05
8.69351e-05
4.58693e-05
4.65708e-05
0.00013237
1.67469e-05
0.000195931
1.78799e-05
0.00109468
3.27105e-05
3.78971e-05
1.397e-05
5.57512e-05
7.20485e-05
1.93064e-05
5.18891e-05
1.81893e-05
2.62465e-05
1.93492e-05
1.77004e-05
0.000272268
2.71011e-05
2.36924e-05
3.65089e-05
0.00137746
4.04983e-05
1.62071e-05
3.10366e-05
1.58225e-05
0.000180625
7.4199e-05
0.000120481
0.000114633
2.54791e-05
0.000489905
0.000722623
4.98159e-05
3.47778e-05
0.0014618
2.86013e-05
0.000353136
5.13374e-05
1.94182e-05
3.29483e-05
1.92465e-05
0.0053738
4.68944e-05
1.344e-05
1.26748e-05
1.823e-05
0.00386159
0.000119431
0.000419616
3.46458e-05
8.62651e-05
0.000342547
1.44039e-05
1.8763e-05
0.00337155
0.000120109
0.00309083
2.85167e-05
2.25364e-05
0.0017313
0.000313721
7.30134e-05
4.41466e-05
1.7274e-05
6.08441e-05
1.77926e-05
9.01549e-05
5.98317e-05
6.60042e-05
5.16365e-05
0.000112386
2.19858e-05
0.00257753
0.00812803
0.000103266
6.2703e-05
1.8074e-05
4.86739e-05
0.00706418
0.00015646
2.11588e-05
4.5038e-05
3.42141e-05
0.00191045
8.75738e-05
0.00096975
3.67485e-05
1.9216e-05
2.00822e-05
0.000308683
0.000430503
1.79117e-05
1.82825e-05
5.04443e-05
6.99293e-05
2.63874e-05
5.10861e-05
0.000533021
6.65512e-05
5.00283e-05
0.000208372
0.00235363
6.70519e-05
1.788e-05
0.000141083
2.63149e-05
1.46329e-05
0.000280848
2.04627e-05
0.000236653
1.40647e-05
3.71967e-05
2.73634e-05
0.000267722
5.82945e-05
1.8455e-05
0.000142011
2.66515e-05
1.83879e-05
3.89465e-05
2.18278e-05
2.06303e-05
8.60783e-05
3.68319e-05
2.63004e-05
0.000121858
5.40761e-05
2.62575e-05
0.00633504
0.000119048
6.0025e-05
0.000440443
0.00271303
2.37296e-05
6.37814e-05
1.8093e-05
7.88178e-05
3.88455e-05
0.000119368
0.000120588
0.00998078
0.000140345
3.32353e-05
5.16406e-05
0.000185395
2.23746e-05
4.93695e-05
1.9557e-05
2.56153e-05
6.0312e-05
0.00415019
6.40075e-05
2.18653e-05
1.94031e-05
6.83627e-05
2.38173e-05
7.67707e-05
0.0044762
5.91394e-05
0.00823186
2.0459e-05
0.00637999
7.52432e-05
0.0038596
0.000214766
0.000112952
0.00772578
0.00300857
4.18214e-05
0.000247025
1.85057e-05
0.000204931
1.82491e-05
0.000117304
3.04558e-05
0.000321554
0.00680453
5.34331e-05
0.000139535
1.24868e-05
0.00227759
1.6763e-05
1.79615e-05
2.74878e-05
0.00010071
1.96101e-05
1.71826e-05
0.000911533
0.000192436
1.76497e-05
1.93093e-05
5.97017e-05
1.78372e-05
4.62402e-05
2.10267e-05
2.03339e-05
1.79525e-05
4.33178e-05
1.22771e-05
6.78823e-05
0.0133235
1.658e-05
0.000569299
0.000320058
0.000149814
0.000149578
0.00272667
4.40168e-05
3.53011e-05
3.69056e-05
0.000195223
0.000179676
2.16212e-05
1.52237e-05
2.27369e-05
0.000260487
1.9811e-05
0.00164915
3.09947e-05
5.49665e-05
1.77293e-05
2.63587e-05
6.15601e-05
0.000141073
2.5893e-05
7.6575e-05
2.05027e-05
8.98576e-05
7.81924e-05
1.55203e-05
4.51543e-05
0.000457531
0.000242888
0.00160791
9.3322e-05
0.00958106
7.50141e-05
0.000188041
0.000201882
0.000305671
2.2187e-05
0.000117969
2.57013e-05
0.000646123
0.000144223
0.000185442
0.00020095
8.90067e-05
5.85587e-05
0.000124192
3.63925e-05
1.21946e-05
7.20855e-05
0.000597521
2.09223e-05
0.00175561
7.61658e-05
4.18513e-05
3.55561e-05
4.70676e-05
4.0691e-05
0.000107324
5.47388e-05
0.000417844
1.8132e-05
0.00115126
6.45807e-05
1.51524e-05
1.84074e-05
0.000112314
0.000102279
0.000125537
0.000292442
3.91595e-05
0.000120758
6.78434e-05
3.28547e-05
1.51148e-05
5.26327e-05