/*--------------------------------*- C++ -*----------------------------------*\
| =========                 |                                                 |
| \\      /  F ield         | OpenFOAM: The Open Source CFD Toolbox           |
|  \\    /   O peration     | Version:  v2012                                 |
|   \\  /    A nd           | Website:  www.openfoam.com                      |
|    \\/     M anipulation  |                                                 |
\*---------------------------------------------------------------------------*/
FoamFile
{
    version     2.0;
    format      ascii;
    class       surfaceScalarField;
    location    "1.1917995";
    object      phi;
}
// * * * * * * * * * * * * * * * * * * * * * * * * * * * * * * * * * * * * * //

dimensions      [0 3 -1 0 0 0 0];
oriented        oriented;


internalField   nonuniform List<scalar> 
156950
(
-0.00225851
0.00105539
0.000868189
0.000334925
0.000522573
-0.00139786
0.000187806
0.00068748
-0.000363393
0.000691649
-0.000328256
-0.000212796
9.7335e-05
0.000334371
-0.00021891
0.000511667
-0.000613434
6.64434e-05
3.53243e-05
-2.1462e-05
-0.000191335
0.000650632
0.00120282
-0.00215136
0.000297912
0.00148055
-0.00146686
-1.36896e-05
-0.000145941
-0.000655635
0.000801577
2.74915e-05
5.27963e-05
-4.39267e-06
-7.58952e-05
6.67106e-05
-0.000423511
0.0003568
-0.00248424
0.00112868
0.00200619
0.00421673
-0.0054011
-0.00332995
0.00451432
0.000675989
0.000359166
-0.00105308
1.79283e-05
-3.6055e-05
-0.00138252
0.00141857
-0.00147635
-0.00132765
0.00117012
0.00163387
0.000171881
-8.13735e-05
-0.00013368
4.3173e-05
4.40042e-05
0.00096682
-0.000334835
0.00085758
0.00156287
-0.00242045
0.000748085
-0.000726411
0.000337493
-9.97309e-07
-6.86139e-05
-0.000767484
0.000837095
0.000541848
7.34237e-05
0.000132813
-0.00116594
0.000998894
0.00188822
-0.00172117
-0.000524218
0.000397585
0.000126633
0.00039395
-0.000200356
0.000102424
-0.000296017
0.00181327
-0.00132213
-0.000721518
0.000230378
0.000249031
4.69221e-06
-0.000281714
2.79903e-05
-0.000510318
0.000368299
-3.28337e-05
0.000174853
-0.000399505
0.00200606
0.000206716
-0.000667406
-0.000232619
0.000621213
0.000278811
-0.000592376
0.000401867
-1.11811e-05
0.00020169
-0.00062975
-3.14118e-05
0.000116631
0.000544531
-0.00117962
0.000102349
0.000248116
0.000829157
-0.000975716
-4.15205e-05
-8.24252e-05
0.00109966
0.000156875
-8.15516e-05
-0.000860478
0.000785155
0.000135701
-0.000223117
8.74167e-05
8.70686e-05
-2.05604e-05
-9.73954e-05
3.08872e-05
0.000358951
0.000228953
-0.000483532
-0.000104372
0.000459351
-0.000554495
9.51446e-05
-0.00227956
0.00380199
-0.0039191
0.00239667
9.43964e-05
-0.000639727
0.000668642
-0.000123312
-0.00132717
0.00116036
-0.000232691
-0.000385064
-0.00011126
0.000339314
0.000157009
0.00031693
-0.0013409
-0.000298163
0.000703166
0.00728505
-0.0056115
-0.00237671
0.00291315
-0.00135367
-0.00155948
-0.00141884
0.00176986
-8.82424e-05
-0.000262772
-0.00016021
0.000504615
-0.000167419
-0.000176986
0.000149854
0.00114729
0.000480458
-0.0017776
-0.000470346
0.000746847
0.000544957
-0.000821458
0.000895097
-0.000500804
-0.000671089
0.000276795
-0.00101024
-0.000645836
0.000207772
0.00122679
-0.000788729
-0.00125448
-0.00017709
0.000785729
-0.00155639
0.00139709
-0.00109673
0.00125603
-5.39679e-05
9.07761e-05
-0.00117561
0.0011388
0.000487031
0.000208384
0.000317619
-0.00101303
0.00102974
0.000392368
-0.000986901
-0.00043521
0.00026952
0.000760224
-0.00149984
-0.00170926
0.00141379
0.00179531
-0.000984955
7.23645e-05
0.000761871
-0.000659372
-0.000174864
-0.000586356
0.000580537
5.81829e-06
1.96769e-05
5.34448e-05
-0.000259663
0.000186542
0.00144657
0.00114125
-0.00329856
0.000710744
0.00171582
0.000185391
0.00143238
0.000368412
-0.000659546
-0.00226101
0.00052547
0.000235696
0.00294417
-0.00244701
-0.00254801
0.00205085
0.000211137
-0.000456342
0.000434309
-0.000189104
-0.000531518
-0.000328238
0.000774211
8.55454e-05
-0.00162964
-0.00398839
0.0045148
0.00110323
-0.000317862
0.000177125
-0.000174004
0.000314741
-0.000952667
0.00219696
-0.00121947
-2.48191e-05
-0.000135792
-0.000307727
0.000443519
0.00153078
0.000878644
-0.00125534
-0.00115408
-4.479e-05
-0.00028977
0.000177081
0.00033898
9.84525e-05
0.000148962
-0.000586395
-0.000162505
0.000262253
0.000325382
-0.000425131
-6.58428e-06
0.000833706
-0.00132262
0.000495499
-0.000270717
0.000314751
0.00205064
-0.00209468
-0.00108465
0.00111842
0.00275573
-0.00278949
-0.000554717
-0.000534005
0.000632335
0.000456386
0.00158374
0.000435784
-0.00330528
0.00128576
0.000397446
0.000187752
-0.000735967
0.000150769
0.000988982
-0.00118097
-5.99284e-06
0.000197978
-7.55142e-05
5.41643e-05
1.2024e-05
9.32585e-06
-0.000965818
0.000255134
0.000710684
-0.000141549
0.000702457
-0.000806162
0.000245254
-0.000524903
0.000817176
-0.00033964
4.73665e-05
2.77996e-05
0.00144257
-0.00147037
0.000165226
-4.97985e-05
0.0016042
-0.00171963
-0.000602526
-0.00114336
0.00426284
-0.00251696
0.000793444
-0.0013405
-0.00124758
0.00179464
0.000154112
0.00036971
0.000242909
-0.000766731
0.00145631
-0.00165398
0.000197668
0.000188227
-6.18392e-05
2.77242e-05
-0.00108286
-0.002995
0.00347533
9.96951e-05
-2.60947e-05
-7.36004e-05
0.00165663
-0.00132146
-0.00033517
-0.00235926
-0.000894495
0.00133638
0.00191737
-0.000114822
-0.000168831
0.000283653
-5.03704e-05
0.000947519
-0.000897149
0.000207981
-0.000139658
-3.49552e-05
-3.3368e-05
-0.000291242
-0.000396155
0.000687396
-0.000112366
-0.000148328
0.000148108
0.000112586
-0.00032599
0.000105045
-7.0297e-05
0.000581347
-0.00150691
0.000610243
0.000315319
0.000621498
-9.15939e-05
0.000246069
-0.000674273
0.000118655
0.00030955
-0.00158914
-0.000120127
-0.000947199
-0.00176342
0.0015175
0.00119311
-0.00192254
0.0042586
-0.000473843
-0.00186222
-0.000223011
0.000291308
0.000409745
-0.000478042
0.000152427
-4.16646e-05
-0.000110762
-0.0018928
-0.000128694
0.00210955
-8.80598e-05
-0.00112681
0.00221941
0.00210388
-0.00319648
0.00100557
-0.000985264
-2.03013e-05
-0.000650574
0.000469252
0.000181322
0.00116443
0.00119359
-0.000153263
-0.00220476
-0.000438356
-0.00314652
0.00521133
-0.00619738
0.00413256
-0.00114795
0.00150956
0.00070354
-0.00106516
2.54249e-07
0.000194521
-6.54897e-06
-0.00250844
0.00035428
0.00215416
-0.000228413
0.00195767
-1.96904e-05
-0.00170957
-0.00112311
-0.00156435
-0.000632364
0.00331982
-0.00096622
0.00226561
-0.00126304
-3.63519e-05
-0.00170776
0.00137133
0.000336428
0.000488387
-0.000179698
-0.000308689
-0.00235834
0.00210361
-0.00221838
0.00247311
-0.000801933
-0.00405524
0.00466323
-0.000488443
0.000735174
0.00117395
-0.00142068
0.000658749
-0.000646871
-0.000678083
0.000666206
-0.00181282
0.0019217
0.000238505
-0.000347388
0.000909193
-7.0847e-05
-0.000839344
0.000896889
-0.00066564
-0.000693667
0.000462418
-2.06889e-05
2.00043e-05
-0.000361568
0.000362253
-0.0018197
-4.84359e-05
0.00193164
-6.35096e-05
0.000517702
-0.00254515
0.00223858
0.00143321
-0.00127163
0.000281244
-0.000442832
-0.00569222
-5.61974e-05
0.00127493
0.00447348
0.00149156
-1.88846e-06
-0.00148967
0.000676687
0.00108888
-0.000332354
0.00083062
0.00207318
-0.0022092
-0.000694599
0.00280512
-0.000986545
-0.00154058
-0.00114929
0.00187876
0.000112635
-0.00084211
0.000115279
0.000127909
-7.9323e-05
-0.000163865
-0.0012636
-0.000916617
0.00353828
-0.00135807
-0.000105334
-0.000173343
0.000278678
-0.000117594
0.00112568
-0.00114228
0.000134202
-0.000353755
0.000395349
-3.6606e-05
-4.98823e-06
0.000289933
-0.000157662
-0.000149025
1.6754e-05
-0.00165096
0.00164627
0.00160635
-0.00160165
-0.000711909
0.000886983
0.00148932
-0.0016644
0.000266542
-0.00040297
0.00195671
-0.00182028
0.00109132
7.59722e-05
0.000477919
-0.00164521
2.26102e-05
-2.1383e-05
-1.22716e-06
0.00158965
-0.00158934
-3.17198e-07
-0.00398882
-0.00108644
-0.00315584
0.0082311
-0.00166794
0.00177664
-0.0001087
-0.000211763
-0.000282558
0.00100799
-0.000513672
0.000108291
0.000785214
-0.000146637
-0.000746868
0.0025804
-0.00081569
-0.000449833
-0.00131488
0.00138914
0.00034271
-0.00111485
-0.000617007
0.00170753
-0.000507831
-0.000336302
-0.000863402
-0.000231759
0.0023034
-0.00025131
-0.00182033
-0.00429429
0.00250295
1.50307e-05
0.0017763
0.00233623
-0.000691443
6.77471e-06
-0.00165157
0.00169142
-0.000235802
-0.00145562
0.000291014
0.0012953
-0.000887927
-0.000698388
-0.00120979
0.000592308
0.00140744
-0.000789959
0.00214292
-0.0024787
0.000335778
-5.28385e-05
-0.00219897
0.00225181
-0.000258588
0.00240151
0.000269658
0.000140802
7.79269e-05
-0.000595262
0.000536067
5.91954e-05
0.000148073
0.00202565
0.000534088
-0.00270782
-0.00011445
-0.00126418
0.00137863
0.00307443
2.04278e-05
-0.00335125
0.000256398
-0.00227105
-0.000377263
0.000352431
0.00229588
-2.67617e-06
0.000916442
-0.000888619
-2.51467e-05
-0.000867503
0.000887992
0.0025018
-0.00252229
-9.3054e-05
0.000329836
0.000174504
-0.000411286
0.000437186
0.00013289
-0.000447052
-0.000123025
-0.000629251
0.000118933
1.95038e-05
-0.000148797
-8.76774e-05
0.000216971
0.000435817
-0.000649154
-0.000150174
0.000363511
-0.00198237
-0.00725741
0.00619887
0.00304091
0.000186139
-0.000735224
0.00200145
-0.00145236
-0.00134851
-6.95828e-05
0.00114737
-0.000192065
0.00141786
-0.00140942
-8.4426e-06
-1.97309e-05
0.000524945
-0.000197185
-0.000308029
-0.00214209
-7.93202e-06
0.00215002
0.000711935
-0.000148304
-0.000209149
-0.000354482
0.000588439
0.00161402
-0.000569782
-0.00163268
0.00135511
-0.00126794
-8.71627e-05
-9.70385e-05
-0.00123057
0.000605945
0.000721666
0.00114341
-2.35128e-05
-0.00136006
0.000240171
-0.00168634
0.00146437
0.00124319
-0.00102121
0.00015397
0.000683033
-0.000529952
-0.00030705
0.0014583
-0.0012621
-0.0001962
0.00206616
0.000580581
-0.00228296
-0.000363782
0.00126663
0.000191669
0.000326414
-0.000187978
-8.7696e-05
-0.00138108
0.00133666
0.000132117
0.00133692
-0.00346163
-0.0024895
0.00461421
-0.000567292
-0.000800378
0.000976774
0.000390896
-9.10633e-05
-0.000189707
2.71039e-06
0.00027806
0.00105571
0.003753
0.000135219
0.000501125
-0.00438934
-0.000289005
0.00172401
-0.00136492
-7.00836e-05
0.00219453
0.000154778
-0.00129692
-0.00105239
0.00044987
-0.00198379
-0.000297571
0.00183149
-0.000410685
0.000313954
5.66692e-06
-0.00158767
0.00151922
6.84436e-05
0.000357756
0.00175071
-0.00211897
1.05074e-05
-0.000295803
-7.12671e-05
0.000177363
0.000315043
-0.000177817
-0.000137226
0.00211023
-0.00162081
-0.00213557
0.00164615
2.08825e-06
-0.00030427
0.000302182
8.14288e-05
-8.77116e-05
0.00160816
-0.00160188
0.000715493
-0.000169723
-0.000230727
-0.00346055
0.00483012
-0.00469857
0.003329
-0.000138364
0.000280384
-0.00216519
0.00202317
-0.00186572
0.00197399
-0.000108266
5.23988e-05
3.77125e-05
-0.000131426
4.13144e-05
0.000273835
0.00117011
-0.0025999
0.00115596
-0.00268224
0.00348701
-0.000571872
-0.000232898
-4.92794e-05
0.000111463
-6.22525e-06
-5.59583e-05
0.00155946
7.84906e-05
-2.69719e-05
-0.00161098
-0.00172908
0.0016735
-0.00251026
0.00256584
-0.00165811
0.000253511
0.00284751
0.00101083
-0.00760439
0.00374605
-0.00071295
5.91889e-05
-6.20787e-05
0.00071584
-0.000771625
0.00105123
-0.000660483
-0.000427824
3.70776e-05
-0.000483308
-8.14738e-05
-0.000302906
0.000867687
-0.00018989
0.000361834
0.000160929
-0.000332873
-0.001501
0.000160555
0.00134044
-0.000838362
0.000746531
9.18316e-05
-0.00169225
-0.000298082
0.00053137
0.00145896
0.00255959
0.000228919
-6.87428e-06
-0.00278164
0.00275211
-2.31928e-05
0.000289085
-0.003018
-2.69818e-05
-0.000162023
0.000166005
2.30001e-05
0.0076028
9.42253e-05
-0.000894846
-0.00680218
-0.00215912
-3.74401e-05
0.00267216
-0.000475596
0.000187922
0.00126902
-0.000335409
-0.00112153
0.000272866
3.64956e-05
-0.000309362
0.000847327
0.00105009
-0.00105485
-0.000842567
-0.000367588
-4.43704e-06
0.000345044
-0.00114741
-8.57517e-05
7.77444e-05
0.00115542
-0.00116313
0.0011526
1.05274e-05
0.00125391
-0.00018773
0.000461351
-0.00152753
0.000140948
0.00067197
-0.000812918
-3.33318e-05
-0.00178046
0.00093517
0.000878621
0.00134363
0.000361851
-0.001369
-0.000336485
0.000592133
5.5758e-05
0.00176063
-0.00240852
-0.00107409
-0.000226792
0.00130087
1.44294e-08
-7.47205e-05
6.44221e-05
-0.00106379
-0.000652269
-0.000186093
0.000575498
-0.00121914
-0.00382703
0.00447067
-0.00096348
0.000791706
-0.00166038
0.00183215
0.000387108
-4.28497e-06
-0.000341236
-4.15869e-05
2.72304e-05
-0.000637958
0.000752378
-0.00014165
-0.00167047
0.00100712
-0.000837637
-0.00286168
0.00103397
0.000460659
0.00136705
-0.00241117
0.000596007
0.000330162
0.001485
0.00194171
-0.00216435
-0.000582974
0.000805615
0.00156422
-0.00316054
-0.00126536
0.00129493
-0.00207547
0.000780538
-0.0001475
0.000207813
-0.00123455
0.00117424
0.000818949
-0.000737601
-8.13481e-05
0.00108401
0.00127203
-0.00132207
0.000262334
-0.000657473
0.000404742
-9.60342e-06
-0.000710953
-0.00151143
0.00222238
-0.000233994
-0.00114716
0.00157128
-0.000190123
0.00120829
-0.00277024
0.00245552
-0.000893572
0.000377801
9.30719e-06
-0.00174216
0.000548398
0.0013481
-0.000154336
0.00187795
-0.00263947
-0.00063979
0.00140131
-0.00202493
-0.000824659
0.00150109
3.26352e-05
-0.00105811
0.00102548
-0.000288726
-1.88807e-05
0.000307607
-0.000180442
3.29058e-05
-1.44869e-05
-0.000574876
-0.000815576
0.00118806
0.00324624
-0.00250692
-0.000212924
-0.0005264
8.12777e-05
-7.52127e-05
0.00104516
-4.94917e-05
-7.13465e-05
-9.32788e-05
0.000214117
0.000220739
-0.000509465
0.000891023
-0.000731871
-7.78744e-05
0.00209221
-0.000762422
-0.00132979
0.000304605
0.000637167
-0.00214135
0.00119958
-0.000283981
0.000358843
-0.000301612
0.000226751
-0.000962916
0.00241192
-0.000934765
-0.000514239
0.000462285
-0.00037266
0.00116998
-0.0012596
0.00211162
7.95147e-05
-0.00244738
0.000256243
1.02123e-05
-0.000697126
0.000389331
0.00210195
-0.00179416
-7.31307e-05
0.000276473
-0.000200175
-3.16713e-06
-7.29789e-06
0.00166679
-0.00166503
5.5417e-06
0.00266464
5.31729e-06
-0.00265046
-1.94933e-05
9.79372e-05
-5.83569e-05
1.46935e-05
-5.42738e-05
-9.40727e-06
-3.50453e-05
0.00014239
0.00226141
0.000928744
-0.00109795
0.00155046
-0.000944301
0.000544085
0.00248515
-0.00208493
-0.00236074
0.00248709
-0.000126348
5.87174e-05
0.00166778
-0.0017265
0.00120038
-0.00106489
-0.000113511
-2.19745e-05
3.03877e-06
-0.00108095
0.00107791
-0.00147693
0.00175862
-0.00177003
0.00148834
-0.000322779
0.000334622
-0.000482677
0.000470835
0.0030979
-0.00317401
0.00386357
-0.00378746
-0.000329196
0.000100929
4.81386e-06
0.000223452
-0.00294003
-0.00119518
0.00135933
0.00277588
-0.000402078
0.00182085
0.000127253
-0.00154602
0.000668812
-0.0027044
0.000653627
0.00138196
0.00127928
-0.00128653
7.24306e-06
0.00150728
0.000194173
-0.00170145
0.00138596
-0.00102121
-0.00166567
0.00130092
0.000227603
-0.000250311
0.000180421
-0.000157712
-4.8742e-05
-0.000396235
0.000845033
-0.000400056
9.76182e-07
0.00127831
0.00223845
0.00145937
-0.00302901
0.00213315
-0.00128227
-0.000850876
-0.000330525
-4.68961e-05
7.43968e-06
0.000369982
0.00204035
0.000284859
-0.00176019
-0.000565015
0.000585226
-0.000412229
0.00106108
-0.00123408
0.00135006
-0.00135024
8.21425e-05
-8.19656e-05
-8.99862e-05
0.000157001
-0.000113703
4.66881e-05
-6.25289e-05
0.000394373
0.00114591
-0.00147776
0.00299563
-0.00141805
-0.00171016
0.000132578
0.00204335
-0.00286895
-0.000522802
0.00134841
-0.000576351
0.000384136
-0.000418644
0.00061086
-0.00019591
0.00101486
-0.000333816
-0.00121821
0.00123211
0.000104334
-0.00170405
0.00159972
-0.000136388
-0.000114619
0.000177876
-0.000529957
0.00110795
-0.00116003
0.000582041
0.00291431
-0.00284084
-0.00188643
0.00181295
-8.95578e-05
0.000508542
-0.00164499
0.001226
0.000159979
3.35871e-06
-1.88e-05
-0.000144538
-0.00178371
0.00182426
6.37863e-05
0.000793175
-0.000231791
-0.00104469
2.95828e-05
-0.00163215
0.00160257
4.49044e-05
-0.000193713
0.000148809
0.00113894
-0.00118448
4.55477e-05
0.000161533
-6.89806e-08
-1.48545e-06
0.000938747
-0.00182309
0.000284278
0.000600067
-3.52527e-06
2.55916e-05
0.00175841
-0.00178047
6.14289e-05
9.02499e-05
-0.000151679
0.00151261
-1.5654e-05
-0.00162859
0.00415621
-0.000974747
-0.00318147
-0.000428006
-0.000800244
0.000318917
0.000909332
0.000425031
-5.88684e-05
-0.000160402
-0.000205761
0.000126455
0.00252123
-0.00264768
-0.00052405
0.00172135
-0.00146496
0.000267654
-0.000174919
-0.000142957
0.00140357
-0.00108569
-0.000505672
0.000461815
-0.00240921
0.00245307
-0.000132357
0.0012667
-0.00106042
-7.39233e-05
0.00326529
-0.00397388
-0.00199186
0.00270045
0.00167107
-0.000462665
0.000128522
0.000526195
-0.00143564
0.00417474
-0.000360717
0.00024396
-1.55999e-05
0.000299192
-4.90798e-05
-0.00129841
0.00119858
0.00163213
-0.0015323
0.000909866
0.00148303
0.000226963
-0.00261986
-0.000137958
-0.00014108
0.00101962
-0.000740582
0.00270787
-0.00266624
8.33678e-05
-0.000125004
-0.00119417
0.000458153
0.000736016
-0.00129061
5.07899e-05
0.00123982
-1.58193e-05
-0.000192301
0.00231405
-0.00210593
-0.00198079
-0.000341507
0.00230648
-0.00228918
0.00134625
-2.52621e-05
0.0009682
-0.00476541
0.00718393
0.000235401
-0.00265392
-0.000138489
0.000144231
0.00178255
-0.00178829
-0.000470607
0.000494422
-0.00047418
0.000450365
0.000752475
0.00166182
-0.00230862
-0.000105669
0.00020388
0.000323397
-0.000527277
-0.000441364
0.000192651
-0.00151636
0.00176508
-0.00168871
0.000691546
0.00155311
-0.000555948
0.00124881
-0.00123797
0.00106786
-0.00107869
0.00633043
-0.00107788
-0.00301104
-0.00224151
0.00264512
0.00239209
-0.0012378
-0.00379941
-0.000637762
0.000476163
0.000161599
-0.000259155
-0.000589295
0.00084845
-0.00480369
0.00109502
-0.000535256
0.00424393
-0.00071592
-0.000747325
0.00186769
-0.00040445
0.000626398
3.29043e-05
-0.000659303
0.000884927
-0.000110165
-0.0011407
0.000365935
-0.000247717
-1.10024e-06
0.000248817
0.000394452
-0.00255302
0.00152422
-0.00151235
-1.18704e-05
0.00112554
-0.00126533
0.000139786
-0.00150785
0.00192696
-0.000325311
-9.38022e-05
-0.000560476
-0.00108885
0.00155591
9.34231e-05
-6.74308e-05
0.00158463
4.22628e-05
-0.00190287
0.00139525
0.00060968
-0.000102062
-0.000244337
0.000515344
-0.000343602
0.00186255
-0.0018215
0.000419926
-0.000460973
7.97828e-05
-9.09587e-05
0.000511221
-0.000500045
0.00502462
-0.000360267
-0.00224922
-0.00241513
0.00236582
-0.00234417
-0.000183987
0.000162332
-0.000677926
0.000589601
8.47955e-05
3.53015e-06
-0.00105472
-0.000225757
0.00108818
-0.000101577
-0.000538857
0.000640434
-0.000701804
0.00148934
0.000142129
-0.000929661
-0.000790829
0.00164605
-0.000387602
-0.00046762
-0.00202889
0.00205918
0.000159923
-0.000190218
-0.00179918
4.32868e-05
0.00175589
0.000369304
0.0010503
-0.00174836
0.000328758
-3.60991e-05
0.000283078
-0.00011691
-0.000130069
0.00186468
-0.000129398
-0.00151506
-0.000220218
-0.00151441
-0.00342462
0.000439406
0.00449962
0.000356403
0.000201798
-0.000558201
-0.00110796
0.00110794
1.60487e-08
-0.000745173
0.00366345
7.7454e-06
0.000199688
-0.000207433
4.35672e-05
0.000232639
-0.000312305
-3.02846e-05
0.000231324
8.20381e-05
0.00195908
-9.44087e-05
-0.00114488
0.00165284
-0.000215498
-0.000292468
-0.000896311
-0.0010339
0.00193021
-6.98035e-05
-0.0016647
0.00226411
-0.00266785
0.00206843
-0.000146893
0.000768819
0.000375901
-0.000997827
0.00154227
0.00241487
-0.00287604
-0.0010811
-0.00278502
-0.00116752
0.00276864
0.00118389
0.00285727
0.000101971
-0.00287859
-8.06522e-05
-0.00126532
-0.000213668
0.00131933
0.000159663
-8.58319e-05
5.33814e-05
-0.00232714
0.00235959
0.00206269
-0.00235005
0.00013507
0.000152288
-0.00231166
0.00295348
0.000644873
-0.0012867
3.34438e-05
0.00119425
-0.0012277
-0.0024082
0.0028657
-0.000457501
0.000463714
0.000591952
-0.000772837
-0.000282829
0.00099494
0.000589446
-0.000298949
-0.00128544
-0.000657808
0.000381517
0.000149389
-0.00138333
0.00123395
0.000154346
-4.32402e-05
-0.000138796
2.76902e-05
0.00167207
-0.00159471
-0.00211832
0.00204096
-0.00193126
0.00115982
5.9041e-05
0.000712405
-0.000415721
-0.00145831
0.00147423
0.000399801
0.00138887
-0.00143692
-0.00109138
0.00113942
0.000192389
-3.80428e-05
0.00121128
-0.001627
-0.000653763
0.00754086
-0.00128896
-0.00559814
-0.00274527
-0.000666353
-0.000663607
0.00407523
0.00153609
-0.000324808
-0.00020512
0.000183703
2.14176e-05
-0.0029143
0.000448685
0.000918528
0.00154708
0.000213115
0.000257572
-0.000470687
0.000109922
0.00114895
3.85777e-05
-0.00129745
8.09086e-05
0.0012742
0.000415215
0.0031902
-0.000994992
-0.00261042
0.00014575
-0.000160482
-2.85079e-05
-0.000219042
0.000226232
0.000205925
0.00262927
-0.00248301
0.00056562
-0.000711881
0.00115134
0.000341044
-0.00177763
0.000285244
0.00310723
-0.0021136
0.000522593
-0.00151622
0.000702104
-0.000439974
0.00058582
-0.000847949
0.000270945
0.000283285
-0.000494038
-6.01917e-05
1.73825e-05
-1.27203e-05
0.000323325
-0.000327987
-0.000135572
-0.00100983
0.000204961
0.000940436
-0.00146695
-0.0015079
0.00207568
0.000899165
-3.17243e-05
-0.00306491
0.00305764
3.90017e-05
1.74833e-05
-0.000660823
0.00064334
-0.00144916
-0.000147492
0.00115918
0.00043747
-0.00151659
-0.000576709
-0.000294754
-0.00106796
0.00193942
7.87324e-05
-0.000339251
0.000260518
0.00168067
-0.00168861
7.93299e-06
-0.00144406
7.06978e-05
-5.8761e-05
0.00143212
-0.00182982
0.000585032
0.00124479
0.00156912
0.000318194
-0.0024175
0.000530182
-0.000394777
-2.00843e-05
0.000432244
-0.000395346
5.6969e-07
-0.00115088
0.000221379
0.000484548
0.000444956
2.09987e-06
0.00032226
9.76922e-05
-0.00033554
-8.44112e-05
0.00126721
-0.000176363
9.1463e-06
-0.00109999
0.000403688
-0.000740839
-0.000389637
0.000258912
-0.00196042
0.00209115
0.000171856
-0.000319526
-0.000422453
0.000570123
0.000266853
-0.000101312
-0.00184015
0.00167461
0.00162282
0.000269237
-0.00189205
0.00365247
-0.00282185
-0.00160904
0.000221081
0.00164986
-0.0002619
0.00227276
-0.00143039
0.00166669
-0.00250905
0.000810501
-0.000553276
0.00186249
-0.00211971
0.00100796
-0.00244253
5.70505e-05
0.00137751
0.00278922
-0.00237356
0.00110206
-0.00151772
0.00139574
-6.5707e-05
-0.00133004
-9.25602e-07
-0.00179822
0.00179914
-0.00238148
0.00220199
0.00118746
-5.75525e-05
0.000102691
-4.5139e-05
-0.000532718
0.000486213
0.000679203
-0.000632697
0.00107253
-0.00140497
-0.000451483
0.000783916
0.000704762
0.000158003
0.00150089
-0.00236365
-0.00233965
0.00154629
-0.00105788
0.00185124
0.00108052
-0.00179519
0.00178832
-0.00107364
0.000704481
-0.000603767
-0.000363079
0.000262365
-0.000555073
-0.000510596
0.00106567
0.00127277
-0.00256429
0.00249312
-0.0012016
-0.000139014
1.53227e-05
5.28944e-05
7.07969e-05
-0.0011913
-0.000741853
0.00193315
2.26127e-05
0.000925803
-0.000578398
-0.000370018
-0.000698631
0.000280992
0.00041764
-0.00199469
0.00165377
-0.00217358
0.0025145
-5.09536e-05
0.000135017
-2.61205e-05
-5.79429e-05
-7.9216e-05
-0.000186346
0.000192241
7.33205e-05
-3.97623e-05
-9.73269e-05
0.000143233
-6.14343e-06
0.0008347
0.000254276
-0.000858674
-0.000230302
-0.00121527
0.00366114
-0.000389428
-0.00205644
-0.000138323
-6.90572e-07
0.00035895
3.5448e-05
-5.46076e-05
-0.00033979
-9.23737e-05
0.000120798
-0.000141383
7.55298e-05
0.000900553
-0.000397306
-0.000301326
-0.00347654
0.00334193
-0.000439262
0.000573874
0.00129369
-0.00022053
-0.00124518
0.000172015
0.00102251
0.000490598
-0.00285663
0.00134352
-0.00179032
0.00162916
0.000161165
0.000652839
-0.000665451
-0.000331687
0.000344298
-0.000463058
0.00307251
-0.000350112
-0.00225934
-0.000404644
0.000750782
-0.000393033
-0.000960297
0.000184117
0.000667734
0.000108445
-5.82102e-05
5.33938e-05
4.81634e-06
-0.000892293
-0.00242531
0.00303945
0.000278154
-0.000537068
-0.00128383
0.00181685
4.05666e-06
0.00094148
-0.000980732
-0.000284828
0.00032408
-0.000275575
0.000277556
-0.000235529
0.000233549
0.000793418
-0.000313401
-3.04556e-05
-0.000449562
4.84314e-05
-0.00274583
0.00280664
-0.000109237
-0.000104257
-0.00026494
0.00101388
-0.000999209
-1.46709e-05
0.0021321
-0.000822935
-0.00168667
0.000377513
-0.00101675
0.000608252
0.000316127
0.000747263
0.0001547
-0.000901963
-0.00165542
0.00176796
0.00309722
-0.00320976
0.000732565
-0.000297197
-0.000373588
-6.17809e-05
0.000481662
0.000221766
-0.00281387
0.00211044
0.00115841
0.000719616
-0.00140002
-0.000478006
-0.000980183
-0.000348983
0.00132917
0.000895595
7.92332e-05
0.00107503
-0.00204986
-0.00103618
5.60003e-05
0.0010894
-0.000125516
0.000771385
-0.00196268
-0.00151907
0.00145857
0.000292675
-0.000232172
0.0015333
0.00208809
-0.000122911
-0.00349848
-0.00158504
0.00206722
-0.00194699
0.0014648
0.000469105
0.00803661
-0.0075465
-0.000959212
0.00290223
0.000382908
-0.00155939
-0.00172575
-0.00145171
0.000423404
0.00136503
-0.000336723
0.000672652
0.000681249
-0.000417751
-0.000936149
-0.00320991
0.00270813
0.000501771
-0.00108864
0.00282323
-0.000645186
-0.000647408
0.00022509
-0.000205392
0.00062771
0.000670802
0.00206156
-0.00046285
-0.00226951
0.00152569
-0.000722642
-0.000803051
-0.000186167
0.00220292
4.01288e-05
-0.00205688
0.00147127
-1.31794e-05
-0.00145809
-0.000750579
-0.000387601
0.000836754
0.000301427
-0.000605606
0.00118249
-0.000827278
0.00025039
-0.000998548
-0.000661143
0.000571047
-0.000508864
9.51777e-05
0.000223796
0.00420762
0.000560925
-0.00262147
-0.00214707
-0.000105313
-0.00124852
0.00116767
-8.93552e-05
0.000850074
-0.000760719
-0.000991051
0.00116983
-0.000178774
-0.000463637
0.000130421
-0.000225325
0.000558541
0.000521331
-0.00215336
-0.000452154
-0.00084359
3.9424e-05
-0.00177051
0.00173108
9.38751e-05
0.000105582
-0.000199457
0.000229781
-0.000247897
5.52319e-05
-3.71163e-05
-0.00242694
0.000238648
-0.00224358
0.00443188
1.40398e-05
0.000620414
-0.000693411
5.89573e-05
0.000361227
3.95909e-05
-0.000171037
-0.00610323
0.00288531
0.0102461
-0.00702813
0.00349859
0.000611857
-0.00114599
-0.00296446
-0.000126685
-0.00139488
-0.00139273
-3.54161e-05
1.98882e-05
1.55278e-05
-0.00170075
-0.000159399
-0.000127609
-0.000499544
0.00053524
9.19142e-05
0.000314007
-0.0003671
5.30937e-05
0.000660255
-0.000529003
-0.000105422
-2.58299e-05
0.0011801
-0.00567055
-0.00161278
-0.000430229
-8.89163e-05
-0.000264305
0.000783451
-0.00119212
0.00180408
0.00016428
-0.000776235
0.000353805
0.000157498
-0.000191929
-0.000319374
-0.000159279
-0.000695588
-0.000218724
0.00107359
-0.00105587
-3.90869e-05
-5.90353e-05
0.00115399
-6.32985e-05
0.000156594
-0.000251371
0.000158076
0.000451411
-0.000119959
0.00014739
-0.000478842
-2.58526e-05
-4.36509e-05
2.46642e-05
4.48393e-05
-0.00104842
0.000908043
-0.00129706
0.00143744
-0.0026311
0.000315495
0.00262055
-0.00030494
-0.00034937
-0.000130302
0.000479672
-0.000863816
0.000592292
-0.000121192
0.000392716
9.14558e-05
5.46372e-05
-0.000171946
0.000409008
-0.000427691
0.000514077
-0.000495394
0.00035408
-0.000465736
-0.000673835
0.00078549
-0.000123931
0.000377657
-0.000253726
-0.000104812
-0.000912094
0.00181035
-0.000755811
-0.000573877
0.000450252
0.000879436
3.51547e-05
-2.71194e-06
-5.73367e-05
2.4894e-05
2.1491e-05
0.000591772
-0.000345647
-0.000267615
-0.000379171
-0.000524115
0.000411302
0.000491983
-0.00046339
0.000116432
-0.00138179
0.00172875
0.000708764
0.00142059
-0.00160109
-0.00052827
1.536e-05
-0.000677889
0.000584178
7.83514e-05
0.002388
-0.00172249
0.00169896
-0.00236447
0.000283889
-0.000312477
-0.000849446
0.000878034
-0.000314526
-0.000621244
0.000935771
-0.000339603
-1.15874e-05
0.000351191
-0.000599915
-0.000887573
0.00148749
0.00121675
-0.00111488
-0.000357098
0.000255223
0.000488273
-0.000121643
-0.000296852
-6.97784e-05
0.000903508
-0.00214939
0.00124588
-0.000375813
0.00031944
0.000489265
-0.000432892
0.000475063
0.000567479
-0.000469272
-0.00057327
0.000304542
-0.0024631
0.00247481
-0.000316246
-0.000349098
0.00136035
-0.00130134
0.000290088
0.00024377
-0.000261221
0.00196692
-0.00194947
-0.000237749
-0.000348171
0.000211574
0.000374345
-0.000503283
-0.00025087
0.000439627
0.000148661
0.000544888
-5.54119e-05
-0.000638136
0.000345524
0.00112594
-0.00139794
-7.35301e-05
0.00077036
-0.00146931
0.000171554
0.000527397
0.000646185
-0.000692357
0.000643868
-0.000597696
0.00192393
-0.00182555
-0.000285621
0.000187235
7.31501e-06
7.60234e-05
8.11735e-06
0.00283589
0.000125343
-0.00241869
-0.000542543
-0.000163249
0.00132398
0.00012322
-0.00128395
-0.00121914
0.00061923
-8.30993e-07
-0.000828834
0.000577161
0.000252504
-8.49618e-06
6.70437e-06
-0.00111984
-1.7174e-05
0.00113031
0.000804972
-0.000798268
1.45505e-05
0.000790422
0.00213601
0.000808556
-0.000770409
-0.00217416
-1.58696e-08
-0.00144003
0.00144005
4.66186e-06
5.31459e-05
-2.56784e-05
-3.21294e-05
-2.01975e-06
6.62282e-06
-0.000198223
0.00159414
0.000135666
-0.00153158
-0.00499299
0.00210675
-0.000879917
-0.00156438
0.00122515
-0.00181103
0.000626981
0.000304135
0.000814647
-0.00207519
0.00157939
-0.000318846
0.000536329
0.00259078
-0.000560605
-0.0025665
-0.00161123
0.00314176
-0.00586826
0.00433773
-0.00151664
0.00205297
-0.00226288
0.00124996
-0.000100893
0.00111381
0.000253029
-0.00106617
0.00115866
-0.0024493
-0.000143452
0.00259713
-4.37731e-06
0.000185258
-0.00223818
0.000544571
0.00150835
-0.00170087
0.00170295
-4.08465e-05
3.87645e-05
0.000829643
0.00291626
-0.00253761
0.00176061
-0.00114792
0.000414749
-0.00102744
-0.00170396
0.000658894
0.00123032
0.000308076
-0.00149223
-0.000519807
0.000323175
0.000149399
-0.000517673
4.50988e-05
0.000194287
0.00045102
-0.000365565
-0.000279741
0.000290688
-0.00051727
-0.000123238
0.00034982
0.000289259
-0.000577814
-0.000162604
0.000451159
-7.43313e-05
0.000615294
-0.000996952
0.000455989
-0.000884566
0.000899117
-0.00113315
0.000474511
0.00131754
0.00176973
-0.00203871
0.0016676
-0.00139862
-0.000235311
-0.0016948
0.00076672
0.000947923
-0.00171464
0.00167421
-0.00181212
0.000137912
0.00139338
-4.10167e-05
4.42856e-05
-0.00139665
4.36982e-05
-0.000819589
0.00075701
-0.000242928
-0.000624694
0.000120651
-0.000194738
0.00183634
-0.00176225
0.000147234
3.27243e-05
-0.00050566
0.000325703
-4.28998e-05
0.000366075
-0.00146968
0.00120462
5.73058e-06
0.000259326
-0.00107432
0.00119497
0.000466903
-0.000509803
0.00242029
-0.000405107
-0.000356503
-0.00165868
-0.000317945
0.000426729
0.000552975
-0.000661759
0.00114397
0.000481755
-0.00162572
-0.00155926
0.000225049
0.00162697
-0.000292754
-0.000387431
-0.000214596
-8.56005e-05
0.000687627
-0.000186874
0.000234387