/*--------------------------------*- C++ -*----------------------------------*\
| =========                 |                                                 |
| \\      /  F ield         | OpenFOAM: The Open Source CFD Toolbox           |
|  \\    /   O peration     | Version:  v2012                                 |
|   \\  /    A nd           | Website:  www.openfoam.com                      |
|    \\/     M anipulation  |                                                 |
\*---------------------------------------------------------------------------*/
FoamFile
{
    version     2.0;
    format      ascii;
    class       volScalarField;
    location    "1.1917995";
    object      T;
}
// * * * * * * * * * * * * * * * * * * * * * * * * * * * * * * * * * * * * * //

dimensions      [0 0 0 1 0 0 0];


internalField   nonuniform List<scalar> 
83563
(
300
300
300
300.045
300.008
300.003
300.864
300
300
302.937
300
302.683
300.003
300
300
301.566
300
300
300.932
300
300
300
300.93
302.618
300
300
300
306.507
300
300.002
300.071
300.004
300.159
300
300
300.019
300
300
300
300
300
300
300
300
300
300
302.227
300.651
300
305.637
305.559
300
321.309
330.619
300
302.048
300
324.481
324.653
300
330.659
309.653
300
300
329.795
334.633
326.872
300
300
305.273
300.566
300.029
300
305.807
300
304.412
303.062
300
300
300.118
300
300
300.027
307.073
300
300
300
308.096
300
300
300
300
300
303.304
323.279
300
314.549
300
300
300
300
300
300
300
300
300
300
300
331.724
300
300
300.006
301.771
300.399
300
300
304.836
300
300
300
300
300
300
312.963
300
300
311.375
301.432
300
300
304.093
304.117
300.606
308.782
300
300
300
300
300
304.557
300.012
301.265
300
300.006
303.639
337.368
300
300
300
300
301.395
300
300
300
300
300
300
300
300
300
300
300
300
300
300
305.551
300
304.938
300
300
300
300
303.559
300.013
302.97
300
300
300
300
300
300
300.006
300
300.069
303.546
306.549
302.911
300.924
300
300
300
307.017
300
308.845
300
310.696
300
300
300
300
300
300.101
300
300
300
302.586
300
304.461
300
300
300
300
300
300
300
300
300
300
300
300.143
300
300
300
300.748
300
300
300
300
300
300
300
300
300
300
307.156
300
300
300.039
300.136
300.02
300
300
300
300
300
300
300.138
300
321.82
300
300
300
300
300
300
300
300
300
300
300
300
300
302.42
300
300
300.593
300
300
300
300
300
300
300.146
300
300
300.001
300
300
300
300
300
300
300
300
305.029
300
303.396
300
300.012
300
305.111
300.029
300
300
300
300
300
300
300
300
300
300
300
300
300
300
300
314.812
300
300
300
300
338.63
308.317
300.43
300.974
302.477
300
300
300
300
300
300
300
300
300
300
331.908
300
307.953
300
300
300
316.596
300
300
300
307.499
300
300
327.568
335.118
300
300
300
300.418
300
300
300
300
300
300
300
304.643
300.116
300
302.514
300
300
317.054
302.133
316.123
300.581
305.119
300.882
305.398
303.856
300
304.845
300
300
300
300
300.022
300.164
300
302.175
300
300
300
300
301.967
300
300.235
301.663
301.106
300
300
302.99
300
300
300.04
300
302.014
300
300
300
300
300
300
301.262
300
300
305.844
300
300
300.149
300.273
300
300
313.81
300
300
300
309.569
300
300
300
301.687
300
300
300
311.734
300
300.47
311.175
300
301.283
300.104
300
300
303.603
300
300
301.37
300
306.791
300
300
303.143
300
300
306.893
300
304.784
300
300
305.198
304.019
308.718
303.596
300
300
300
300
300
301.841
300
300
300.045
300
306.755
300
300
300
300
300
300
300
300
300
300
300
300
300
300
300
300
300
300.125
300
300.001
300
300
300
301.533
300
300
304.14
300
300
300
300
322.285
300
300
300
300
300
300
300
300.007
300.001
300
300.045
300.003
300
300
300.909
300
300
300
300
300
300
300
300
328.966
328.337
300
300
300
300
300
300
300
300
333.965
300
300
300
300
300
300
300
300
332.86
300
300
326.642
300
300
331.26
300.492
309.956
305.577
300
307.933
333.903
300
300
300.697
300
300
300
300
303.993
300.744
321.802
300
300
302.017
300
300
305.421
300
316.179
300.004
300
300
317.937
300
300
300
323.051
300
300
300
300
300
300
300.002
306.508
300
300
300
300
300
300
300
300
300
300
300
300
300
300
300
300
300
300
300
300
300
300
300
306.791
300.022
300
300
300
300
300
300
311.732
300
300
300
300
300
302.838
315.171
300
300.496
300
300
300
300
300
300
300
300
300.014
300
300
308.56
300
300
300
300
300
300
300
300.032
300
300
300
300.32
331.164
300
300
300
300
300
300
300
300
300
300.017
300
300
328.226
300.017
300.043
325.582
300
300.008
300
300
300
300.011
300
300.04
300.153
300
300
309.977
300
300
305.281
324.694
300
300
328.977
300
301.482
300.464
300.583
306.182
300
300
300.006
300
300
300
309.927
300
300
300.434
300.186
300
300
300
300
306.823
300
300
300
300
300
300
300
300
300
300
300
300
300
300
307.496
300
310.255
300
300.001
300
300
323.31
302.412
300
316.839
300
300
300
301.185
333.059
300
300
300
337.659
300
300
300
300
300
300
300
300
302.219
323.154
300
300
300
300
325.474
300
300
300
300
300
300
300
300
300
300
300
300.001
300
300
300
300.835
300
300
300
300
300
300
300
311.146
300
300
300
304.284
328.597
334.841
300
336.502
300
300
300
300
300.184
308.107
300
328.758
300
300
300.948
300.395
300
300
300
300
300
300
300
300
300
339.963
315.204
300
300
300
315.523
306.374
306.598
305.013
300
303.454
300
300
300
300
305.993
302.087
300
300
300.857
300.519
300
300
300
304.486
300
310.621
300
300
300
300
300
300
300
300.001
300
300
300
300
304.505
301.433
301.691
304.147
306.957
300.001
300
300
300
300.001
300
302.127
300
300
300
300
300
300
300
300
300
300
300
300
300
317.347
300
300
300
300.014
300.731
300
300
300
300
300
300
300
300
314.686
300
300
314.995
333.791
300.107
300
300
300
300
300
300
300
300
300
300
300
300.039
300
300
300
300
300.018
300
300
300.109
300.005
300
300.093
300
326.123
329.399
300
318.807
300
300
300
300
300
303.199
300
300
300
335.575
300
304.795
301.982
300
300
330.33
300
310.334
300
300
318.928
300
300
300
300
300
300
300
300.998
300
301.411
300.207
300.207
300
300
300
300
319.841
300
300
300
300
300
300
300
300
300
300
300
300
300
300
300
300
300
300
300
300
300
300
300
300
300
300
300
300
300
300
300
300
300.533
300
300
300
300
300
300
301.516
300
300
310.256
300.979
300
300
300
311.447
300
303.837
300
305.699
300
300
300
300
300
300
303.782
300
300
304.986
307.36
300
300
300
300
301.949
300
300
300
300
300
300
301.724
300
300
300
300
300.01
300.002
300
300
301.583
300
300
310.016
300
300
300
300
302.819
300
303.807
302.224
300
300
300
300
300
300
300
301.964
300
301.523
301.075
328.615
300
300
300.447
300
300.001
300.006
300
300
303.705
300
317.436
300
300
300
301.082
304.679
300
300.582
303.72
300
300
304.452
300
302.171
300
300
300.037
300
300.927
300.654
300
300
300
300
300
300.808
300
300
300
300
300
300
300.192
300
300
300
300
300
300
300
306.583
300
300
301.039
300
300
320.279
300
300
300
301.568
300
300
300
303.1
300
300
300
300
300
300
300
300
306.51
300
300
300.084
300
300
300
300
300
300
300
300
300
300
300
300
300
300
300
300
300
300.015
300
300
300
306.21
300
300
300
300
300
300
300.004
300.003
300
300.075
300.007
300
300.018
300.083
300
300.004
300.009
301.45
300
300
300
300
300
300.018
300
301.556
300
300.074
305.67
301.263
303.208
306.446
304.569
300
300
300
300
300
323.11
300
300
300
307.298
300.1
300.4
303.16
300.768
300
300
300
300.014
300
300
300
303.638
300
300
300
300
300.003
300
300
300
300
300.003
301.071
300
300
300
300.981
300
300
300
300
300
300
300
300
300
300
300
300
300
300
300
300.279
300.199
305.749
300
300
300
300.049
319.391
301.313
300
300.002
300.005
300.001
300
300.09
300
300.037
307.994
300
300
300
300
300.002
303.925
300.001
300
300
300.011
300
300.162
302.091
300
304.609
300.049
300
300
330.833
300.013
300
300
300
331.521
300
300
300
300
300
300.074
300
300
300
300
300
302.036
300
300
300
300
300
300
300
300
300
300
340.247
300
300
300
300
300.779
300
341.742
300
300
315.373
300
334.724
301.207
300
300
302.194
300.007
301.588
300
300
300
300
300
303.625
300
300
300
300
300
300.001
300
300
300
303.859
300
300
300
300
300.082
300
300
300.708
300
300
302.115
300
300
300
300.002
300.042
300
300
300
300
300
300.033
300
300
300
306.284
300
300
300
328.786
300
307.292
300
300
300
300
300
302.047
300
300
300
300
300.001
300
300
328.138
300
307.243
301.453
300
300
300
300
300
300.01
300
300
300
300
300
300
300
300
300
300
300
300
300
300
300
300
300
300
300
300
300
300
300
300
300
300
300
300
300
300
300
300
300
305.586
300
300
312.637
300
300.614
300
300
300
300
300
300
319.475
300
300
300
300
300
300
300.016
300
301.394
312.92
300
300
300
300
300.03
300
300
300
300
327.972
300
300
300
300
300
305.086
300
300.001
300
304.343
300.001
322.595
300
300
301.824
300
300
322.745
300
300
300
300.009
300
315.785
300
300
300
300
300
300
300
300
300
300
300
300
316.799
300
300
300
300
300
300
300
300
300
300
300
300
306.016
300
300.001
300
305.31
300
300.747
300
300
300
300
300.001
300
300
300
300
300
300
300
300
300
312.479
311.118
300
300
312.973
324.85
300
326.796
300
300
300.227
330.313
300.078
300
300
300
300
300
300
300
304.502
300
300
300.043
300
300
300
300
300
300
300
300
304.668
300
306.609
300.133
300
305.632
300
300
300
300
300
300
300
300
300
301.119
300
300
300
307.56
307.681
300
306.6
302.49
307.359
306.672
300
307.037
300
300
307.24
300
300
302.728
300
301.614
303.26
300
300
300
300
300
300
300.201
300
300
300
302.679
301.927
300
300
300
300
303.117
302.438
300
300
300
300
300
300
300
300
300
300
300
300
300
300
300
300
301.548
300
300
300
300
300.752
300
300
300
307.645
302.441
300
300
301.491
300
300
300
300
319.848
302.746
300
300
300.062
302.431
300
328.425
300
300
301.157
300
300
300
300
300
300
300
300
300
300
300
300
300
300
300
300
300
300
300.117
300
300
300
300
300
300
305.236
300
300
300
300
300.071
300
300
300.017
300
300.001
300
300
300
303.439
300
300
300
300
300
301.432
321.43
300
300
300
307.456
301.834
300
303.259
300
300.747
300
300
300
300
300
300
300
300
300
311.865
300.666
300
300
329.583
300
300
300
300
300
300
300
300
327.319
300
300.008
300
300
300.092
304.92
300.003
300
328.696
300
300
300
300
300
300
300
300
300
300
300
317.174
300
300
300
326.917
300
333.833
300
331.588
300
300
300
300
300
300
300
300
300
300
300
300
300
300
300
300
300
300
300
320.528
300
300
300
300
300
300
300.048
301.062
300
300
300.443
300.355
300
300
300
300
300
300
300
300
300
303.126
300
300
300
300
300
300
300.56
306.791
300
300
300
300
300
300
309.668
300
330.645
300
300
300
300
300
314.67
300
300
300
302.006
300
300
304.559
300
300
313.461
300
300
300
300
300
300
300
300
300
300
300
300
312.298
300
317.69
300.4
300.151
300
305.506
300
300
300
300.566
300
300
300
300
300
300.032
300
300.001
300
300
315.041
300
300
300.045
300
332.611
300
300
300
300
300
300.001
300
300
300.003
300
300
300
300
300.701
300
300
300
300
300
300
305.818
300
300
332.519
300
300
300
336.825
300
325.551
300
300
300.396
310.097
300
300
300.342
300
300
336.847
323.034
344.87
300
342.269
341.354
300
300
300.088
300.074
300
300
300
300
337.086
331.784
321.589
300.585
300
303.31
300
300
302.389
300
300
300
300
300
305.965
300.381
300
300
300
300
300
300
300
300
300
323.157
300
300.016
300
300
336.597
300
300
310.004
314.452
300
324.156
300
300
300
300
300
300
300
300
300
324.367
300
300
300
315.437
300
300
300.063
300
300
300
300
300
300
300
300
300
300
305.396
305.981
300
300
300
300
300
300
324.619
300
300
300
300
300
300
300
300
300
300
300
300
300
300
300
300.337
300
300
300
300
300
300
300
300
300
300
300
300
300
300
300
300
300
300
300
300
312.829
300
300
300
300
323.829
300
300
300
300
300.004
300
319.705
300
300
312.035
300
300
300.002
306.873
300
328.59
300
300.11
300
300
300
314.382
300
301.727
300.003
300
300
300
313.361
300
303.358
304.035
304.046
300
300.127
300
300
300
303.021
304.184
300
300
300
300
300
303.992
304.772
300
300
301.706
304.423
300
300
304.17
300
300
304.324
315.778
300
300
300
300.138
300
300
300
300
300
300
300
300
300
300
300
301.593
317.122
300
300.531
300
300
300
301.025
300
304.029
300
300
300
300
300
300
300
318.258
300
300
302.52
300
300
300.014
300
300
300
300
300.221
300
300
300
300
300
300
300.001
300
300
300
300
300.194
300
300
300
300
300
300
300
300
300
300
300
300
300
300
300
300
300
304.833
300
300
300
304.714
328.554
300
300
300
300
300
300
300
300
311.328
300
300
300
300
300
300
300
300
300
300
300
300
300
300
300
306.801
300
300
300
300
300
300
300
300.362
300
301.956
312.516
300.092
300
305.452
300
300
300
300
300
300
302.456
300
300
300
300
315.981
300.011
300
300
300
300
300
300
322.297
300.004
331.471
300
300
308.599
301.195
300
300
300.001
300.008
300
300
300.002
300
300
300
300
317.482
302.113
300
300.004
300
300
303.569
300
300
300
300
307.375
300
306.779
300
300
300
300
300
300
300
300
300.425
300
300
302.757
300
300
300
331.992
300
300
300
300
300
300
300
300
300
300
300
300
300
300
300
300
300
300
300
300.001
300
300
300
300
300
300
309.403
300
300
300
300.23
300
300
300
300
300
300
300
306.242
300
300
300
300
300
300
300
300
300
303.902
300
300
300
300
300
300
303.813
300
304.358
300
304.213
300
303.545
300
300
304.208
315.134
300
300
300
300
300.033
300
300
300
305.384
300
300
300
319.308
300
300
300
300
300
300
310.186
300.025
300
300
300
300
300
300
300
300
300
300
300.054
305.346
300
306.548
306.034
300
300
302.805
300
300
300
300
300
300
300
300
300
300
311.575
300
300
300
300
300
300
300
300
300
300
300
300
300
300
300
300.66
300
305.195
300
300
300
300
300
300
300
300
300
300
300
300
300
300.007
300
300
300
307.024
300
318.728
300
300
300
300
300
300
300
306.728
300
309.407
300
300
300
300
300
300
300
300
300
300.434
300
300
300.002
300
300
304.79
300
300
300
300
300
300
300
308.147
300
300
300
301.589
300
328.52
300
306.505
304.6
300
305.941
300
300
300
300
300
300
300
300
300
300
300.702
300
300
300
300
300
300
300
300
300.906
300
300
300
300
300
300
300
300
300.095
300
300
300.003
300
300
300
300
300
300
300
300
300
300
300
300.12
300
300
300
300
300
300
300
300
312.268
300
300
300
300
300
300
300
300
300
300
300
300
300
300
307.33
300.414
300
300
300
300
303.673
322.514
300
300
305.143
300
300
300
300
300
300
313.635
300
300
300
300
300
300
300
300
300
300
300
300
300
300
300
300
326.917
300
306.913
314.667
300
310.851
300
300
300
300
300
300.042
331.799
333.603
300
300.001
329.361
300
300
300
300
300
300
318.681
300
300
300
300
300.001
337.157
300.024
300
331.55
300
300
300
300
300
300
300
300
300
300
300
300
300
300
300
300
300
300
300
300
300
300.801
320.074
300
300
300.023
300
300
300
300
300
300.002
300
300
300
300
300
300
300.567
300
300
300.014
300
300
300.547
300
300
320.308
300
300.354
300
306.601
300
300
300
300
300
300
300
300
300
300
300.276
300
300
300
300
300
300.387
300
300.246
300
300.009
305.771
300.124
301.069
300
300
303.419
302.354
301.922
300.63
300
300
300
300.17
304.281
300
302.212
300
300
300
320.652
300
300
300.004
300
305.909
300.026
300
300.017
300
300.018
300
301.748
300.051
300
300
300
300
300
300
300
300
300
300
300
300
300
300
300
300
300.009
300
300
300
300
300
300
300
300
300
300
333.821
300
300
300
302.821
300
314.45
300
300
300
300
300
300
300
300.023
300
300
300
300
300
306.064
300
314.399
300
300
300
300
308.136
300
300
300
322.027
300
300.236
300
300
300
300
300
300.085
300
300
300
301.201
300
300.892
300
300
300
300
300.033
300
300
300
300.018
300.068
300.621
300
300
300
300
300
300
300
300.001
300
308.584
300.605
300
300
300
300
300.857
306.311
309.582
300
300
300
300
324.35
300
300
300
300
315.611
300
304.99
309.982
300
300
300
300
300
300
300
300
300
300
300
300
300
300
300
300
300
300
300
300.002
300
300
300
300
300
300
306.069
300
300
300.001
300
300
300
300
300
300
306.59
325.149
300
304.43
300
300
300
300
300
300
300
305.704
303.812
300
303.762
304.403
302.297
305.412
306.132
300
300.218
306.397
300.11
307.836
300
301.176
305.89
300
337.455
306.946
300
332.788
300
300
300
300
300.022
300
300
300
300
300
300
300
300
300
300
300
300
300
332.204
300
300
300
300
300
300
300
300
328.67
300
300.044
304.852
300
300
300
300
300
300
300
321.934
300
300.528
300
306.146
300
300
300
300
322.515
336.915
300
300
300
300
300
300
301.319
313.39
300
300
300
300
300.057
300
300
300
300
320.391
322.612
315.118
311.261
317.153
300
300
312.549
321.11
300
300
300
300
303.639
300
300
300
302.897
300
300
300.004
300
300
300
300
300
300
300
300
300.001
300
307.561
304.399
300
300
300.009
308.515
300
300
315.792
300.002
300
300
300
300
300
300
300
300
300
300
300
300
300
300
300
300
300
331.696
300
300
302.417
300
300
300
300
300
304.813
300
300
300
300
326.914
300
315.066
324.189
321.972
300
300
300
303.588
300
300
300
300
300
300
300
300
300
300
300
300.02
328.842
300
300
300
300
300.067
300
300
300
329.459
300
300
300
300
325.74
300
300
300
300
300.003
300
300
300
300
300
300
325.878
323.255
300
300
300.001
300
300.113
300
300
300
300
300
300
300
300
300
300
328.334
300
300
327.489
300
300
330.038
300
300
300
300
300
333.946
300
300
300
300
328.472
300
300
300
300
300
300
300
300
300
300
300.027
301.23
300
322.974
300
316.846
300
300
300.054
300
300
314.845
300
300
300
300
300
300
300
300.007
300
301.479
300
300
300.996
300
300
308.916
300.206
305.396
300.449
300.009
301.52
301.187
318.191
300
300
300.313
300
300
300
300
323.008
300
300
329.508
315.301
310.36
300
300
303.502
303.939
300
300
300
300
300
300
325.732
300
300
300.002
300
300
312.071
300
300
300
300
320.225
300
300
300
300
311.157
300
300
300.171
313.094
307.499
300
300
300
300
300
300
300
300
300
315.898
300
300.003
300
300
300
306.497
300
300
300
300
300
300
300
300
302.153
300
300
300.012
300
300
317.78
300
325.421
300
300.724
300
300
300
300
301.192
300.989
300
300
300
300.465
300
300
324.509
300
300
300
300
300
300
300
300
300
324.917
300
300
300
300
300
300
300
300
300
300
300
300
306.286
300
300
300.003
300
300
318.006
300
300
300
300.024
309.06
300
300
300
300
300
302.496
300
300
300.002
300
300
300
300
303.624
300
300
300
300
312.43
300
300
300
300
300
300
300.1
300
300
300
301.728
300
300
300
300.099
300
300
300
300
300.057
316.393
300.386
300
300
300
300
300
300
300
300
300
300
300
300.001
300
300
300
300.024
312.971
300
300
300
300
300
300
300
300
300
300
300
300
307.511
320.589
300
300
300
300
300
300
300
308.371
300
300
300
316.385
300
300
300.167
300
300
300
300
300
300.001
300
304.301
300
300
328.091
300.388
304.98
300
300
305.062
302.47
300
300
300
300
300
300
300
304.856
300
300
300
300
300
300
300
307.666
300
300
300
300
300
300
300
300
300
300
300
300
300
315.423
300
300
302.174
320.019
300
325.259
300
300
300
300
300
300.584
303.304
300
300
300
300
300
300
300
300
300
310.361
300
300
300
300
300
300
300
300
300
300
300
300
300
300.166
300
300
308.086
300
300
300
300
300
300
300.001
300
300.59
304.233
305.789
300
300
300
300
300
300
300
300
327.511
300
300
300
300
300
300
300
300
300
300
300
300
326.808
300
322.475
300
300
300
300
300
300
300
300.149
300.007
300
301.793
300
300
316.995
300
300
307.187
300
320.737
300
300
300
302.484
317.862
300.003
300
300
300
300
300
300
300
300
300
300
300
300
300
300
300
300
300
300
300
300
300
300
300
300
300
306.243
300
300
304.899
300
304.875
300
300
305.511
300
300
300
300
300
300
300
300
300.733
300
316.634
300
300
300
300
300
300
300.092
300
300
300
300
300
324.901
300
300
300
317.23
300
320.578
300
300
300.001
300
300
300
300
300
300
300
300
300.927
300.002
300
300
300
311.368
300.604
300
300
300
300
334.257
300
300
302.854
300
330.029
300
301.145
301.479
301.398
300.123
300
300
300
300
300
300
300
300
300
300
300
300
300
300
300
300.003
300
300
300
300
300.001
300
300
300.948
300
300
300
331.502
300
300
300
300
300
301.586
300
300
300
300
302.72
300
300
303.38
300.011
300
300
300
300
300
301.459
300
330.752
300
300
300
300
300
300
300
300.068
300
300
300
300
300
300
300
300
300
300
300
300
300
302.966
300
324.385
300
300
300
300
300
300
309.425
300
300
305.768
300
300
300
300
300
300
300
300
300
300
300
300
300
300
300
303.741
300.01
300
300
300
300
300
300
300
300
300
300
300
300
300
300
300
300
300
300
300
300
300
300.541
300
300.018
300
324.204
300
300
300.072
300.155
300.133
300
300.022
300.139
300
300
300
300
306.738
300
300
300
315.53
300
318.948
300
300
300
300
300.209
300
300.014
300
307.416
300
329.484
300
306.317
300
300
300
318.156
300
300
331.739
321.349
300
300
300
300
300
327.47
300
300
300.26
300
300
301.153
300
300.077
300.057
300
300
300
300
300
300
301.455
300
300.008
300
300
319.097
300.031
312.271
300
300
329.221
300
329.269
300
300
303.042
300
300
300
300
300
300
300
300
300
300
300
300
300
300
300
300
300
300
306.49
313.322
300
300
300
300
300
300
300
300
300
303.41
300.099
310.791
334.256
327.443
300
300
300
300
300
300
300
300
300
300
300
300
307.589
300
300
300.006
328.401
302.134
300
301.653
300
300
300
300.02
303.47
300.591
300
300
312.802
300
300
300
300
300
300
300.006
300
300
300
300
300
300
300
300
300
300
300
300
300
300
300
300
300
300
300
300
300
300
300
300
300
300
300
300
300.071
300
300
300
300
300
300
300
300
300
300
300
300
300
300
300
300
300
300.037
300
300
300.039
300
300.058
300
300
300
300
300
300
300
300
300
301.192
300
300.697
322.34
300
300.652
300
300.589
300
300.969
304.416
300
300
300
300
300
300
300.016
300
301.478
300
300
300
300.003
300
300
300.631
300
302.167
300
302.892
303.53
303.345
304.226
300
300
326.558
300
304.206
300
300
300
300
300
300
300
300
300
300
300
300
300
300
323.035
300
300
300
300
300
300
300
300
300
300
300
300
300
306.293
300
300
300
300
300
300
300
300
300.108
300
300
300
300
300
300
300
300
304.025
300
300
308.476
300
300
300
300
300
300
300
300
300
303.466
304.419
306.899
300
300
300
300
305.908
300
300
300
300
300
300
300
300
300
300
300
300
300
300
300
300
300
300.037
300
300.007
300
300
300
300
300
300
300
300
300
309.015
300
318.762
300
300
300
300
300
300
300
300
300
300
300
300
300
300.018
300
300
300
314.053
300
300
300
300
300
300
300
300
300
300
304.784
313.352
300
300
300
317.858
300
300
300
304.357
300
300
300
300
300
300
300
300
300
300
300
300
300
300
300
305.131
300
300
300
300
300
300
300
300
300
300
300
300
300
300
300
300
300
300
300
306.431
300
300
300
300
300
300
300
300
300
300
300
300
300
300
300
300
300
300
300
300
300
300
300
300
300
300
300
300
300
300
300
300
300
300
300
300
300
300
300
300
300
300
300
300
300
300
300
300
300
300.08
300
300
300
300
300
300
300
300
300
300
300
300
300
300
300.55
300
300
300
306.119
300
300
300
300
300
300
300
300
315.108
300
300
325.765
300
303.579
303.822
300
303.48
303.88
302.882
300
300
300
300
303.148
300
300
300
300
300
300
300
300
300
300
300
300
300
300
300
300
300
300
300
300
300
300
300
300
300
300
300
300
300
300
300
307.365
300
301.413
300
300
304.125
334.777
300
342.279
300
300
300
330.472
300
300
300
300.396
300
300
300
300
300
330.578
326.658
300
300
300
300
300
317.715
300
300
300
300.002
300
300
321.348
319.427
334.507
332.359
300
300
305.969
300
300
300
300
327.029
300
300
300
300
300
318.114
300
300
300
325.401
300
310.423
300
300
300
301.209
300
300
300
300.005
300
300
300
300
300
300
325.451
300
300
300
300
300
300
300.69
300
300
300
300
300
300
300
300
300
300
300
300
300
300
300
300
300
300
300.363
300
300
300
300
300
300.045
304.338
300
300
300
300
300
300
300
300
300
300
300
300
300
300
300
300
300
300
300
300
300
300
319.768
300
325.968
335.514
300
300
300
300
342.549
300
300
300
300
300
333.504
300
300
300
300
300
300
300
300
300
338.628
300
300
300
300
300
300
300
300.085
300
300
300
300
300
300
301.832
300
300
300
300
300
300
300
300
300
300
300
300
300
300
305.598
331.891
300
300
300
300
300
300
300
300
300
300
300
300
300
300
300
300
300
300
300
300
300
300
300
300
300
300
300
300
300
300
300
300
300
300
300
300.001
304.911
300
300
300
300
300
300
300.731
305.94
300
300
300
300.28
300
300
300
300
300
300
300
300
300
300
300
300
300
300
300
300
300
300
300
300
300
300
300
300
300
300
300
300
300
300
300
300
300
300
300
300
300
300
300
300
300
300
300
300
300
300
300.006
300
300
300
300
300
300
300
300
300
300
300
300
300
300
300
300
300
300
300
300
300
300
300
300
303.261
300
300
300
300
300
300
300
300.111
300
300
300
300
300
301.898
300
300
300
302.525
300
300
311.561
300
300
300
300
306.658
300
300
300
300
300
301.738
300
300
300
300
300
300
300
300
300
300
300
300
300
300
301.97
300.492
300
300
300
300.422
300
305.867
300
300
300
300
300
300
300
300
300
329.786
300.139
300
300
300
300
336.811
331.337
304.077
300.009
300
302.568
300
300
300
300
300
305.849
300
306.195
300
303.426
300
300
333.174
314.499
300
300
303.741
300
300.32
303.519
300
303.392
300
300
304.177
308.705
300.545
300
314.939
300
300
300
300
300
300
304.336
304.317
300.1
304.256
300
300
300
300
300
302.555
301.479
300
300
300
300
300
300
300.083
300
300
300.774
300
300
300
300
308.147
300
314.093
322.864
316.809
315.214
300
300
300.067
300
300
305.213
309.535
300
300
300
300.054
300.485
302.94
300
308.579
300
307.187
302.342
300
300
300
300
300
320.992
300
300
311.322
300
300.007
300
300
300
300.008
305.014
300
300
300
300
300
300
300.011
300
300
300
300
300
300
300
300
300
300
300
311.785
300
300
300
300
300
300.016
300
300
300
300
300
300
326.468
300
300.097
300
323.621
300
300
300
300
300
300
300.011
300
300
322.236
308.506
300
304.908
300
300
300
300
300
300.347
306.872
300.584
300
329.17
300
300
300
300
300
300
300
300
300
300
300
316.596
300
300
305.605
300
300
300
300
300
300.001
300
300.263
300
306.574
317.873
300
300
300
300
301.798
300
303.477
305.901
320.183
300
300
305.136
300
307.196
300.571
300
300
300
300
300
300
300.006
300
300
300.43
300
300
330.125
300
326.144
300.063
300
300.014
300
300
300
300
300
300
300
300
300
300.126
300
300.044
300
300
300.397
300
300
302.625
300.019
303.249
300
302.918
300
300
300.015
300
300.267
300
300
300
300
300
300
300
300
300
300
300
300
300
300
300
300
300
300
300
300.856
300
300
300
300
300
300
300
300
300
300
300
329.385
300
300
300
320.752
300
336.594
323.685
331.929
300
300
300
311.542
300.079
300
301.871
300.013
302.748
300.156
300
301.107
306.931
300
300
329.657
324.015
300
300
300
322.608
300
300
326.315
300
317.104
300
318.823
300
300
300
300.189
300
300
300.001
300
300
300.044
302.062
300
301.757
300
300.635
300.624
305.044
303.494
300
302.149
300.052
300.071
300.002
300
300
300
300
300
300
300.035
300
300
300
300
300.005
300
300
300.002
300.425
300
300
300
321.749
327.92
300
300
300.02
300
302.998
301.432
300.002
300.004
300.003
306.8
302.51
300
300.272
300.004
300
300
307.443
300.004
302.649
306.205
300.002
300
300
300
300
300
300
300
300
300
300
300
300
300
311.098
305.72
300.658
318.422
301.364
300
300
300
300
300
300
300
300
300
300
300
307.572
306.495
304.435
303.223
300.299
306.222
306.578
300
300.048
300.36
301.6
303.51
300.204
300
300
304.115
300
300
300
311.582
300
300
300.412
300
305.479
300
300
300
300
300
303.851
300.002
300.108
300.382
300.006
300
300
305.375
300
300.012
300
300.044
305.468
300
304.032
300.001
300
308.832
300
300.001
300
300
300
300
300
300
300
300.011
300
300
300
300
300
300
300
300
300
300.04
300
300.004
300
300
300
300.001
300
300
300
300
300
300
300
300
300.003
300
300
300
300.001
300
300
300
300
300
302.586
300
300
300
300
300
300
300
300
300
300
300
300
300
300
301.06
300
300
325.757
300
300
300
300
300
300
300
300
300
300
300
300
300
300.26
300
300
300
300
300
300
300
302.238
300
300
300
300
301.575
300
300
300
300
300
300
300
302.275
315.342
300
300.02
300
300
300
300
300.034
300
300
300
300
310.683
320.697
300
323.908
300
300
300
300
324.871
311.53
302.278
300
300
319.581
300.684
317.944
300
335.033
301.685
300
300.933
300
300
300
300
300
301.167
317.078
300
311.24
300
300
305.758
300
300
300
305.318
300
300
331.069
304.788
300
300
300
300
300
300
300
300
300
300
300
300
300
300
300
300
300
300
300.02
300
300
300
300.003
302.585
313.736
313.058
300
300.038
300
300
300
300
300
305.858
300.002
300
300
300
300
300
300
311.147
300
300
302.807
300
300.08
326.713
300
305.051
326.085
300
300
300
305.308
300
300
300
300.001
313.416
300
300
322.751
300
327.054
301.04
300
300
300
300
300.152
300
300
300
300
300
300
304.292
300
300
300
300
300
305.418
302.998
306.841
300
300.456
300.146
319.486
305.285
300
305.479
300.179
300
308.444
300
300
300.691
318.395
319.58
300
300.366
300
304.11
300.02
306.528
300
301.186
300
300
305.433
323.61
318.956
300
300
300.004
304.706
330.329
300.001
322.541
309.54
300.01
300
300
300.001
311.449
304.043
309.149
307.696
300
302.119
302.8
304.095
304.304
305.3
300
301.518
305.432
303.019
300.024
300.003
300.905
300
300.443
304.117
341.192
300
300
300
300
300
321.766
300
324.594
315.776
317.527
300
300
300.242
300
300
338.602
300
327.353
300
300
300
300
300
300
300.569
300
300
300
300
300
300
300
300
300
300
300
300
300.005
300
300
300
300
300
300
300
300
300
300
300
300
300
300
300
300
300
300
300
300
300
300
300
300
300
300
300
300
300
300
300
300
300
300
300
300
300
300
300
300
300
300
300
300
300.004
300
300
300
300
300
300
300
300
300
300
300
300
300
300.136
300.003
300
300
300
300.178
300.555
300
300
300
300
300
302.911
300
300
304.186
300
302.059
300
303.526
300
300
300
300
300
300
315.095
300
300
300
316.749
300
300
300
312.509
300
300
300
300
300
300
300
300
300
300
300
300
300
300
300
300
300
300
300
300.006
300.021
300
314.388
300
300
300
300
300
300
300
300
312.438
300
300
333.94
300
300
300.058
300
300
300
307.15
300.062
325.233
300
300
300
300
300
312.155
300
311.308
300
304.7
300
303.975
300
307.187
300
308.434
306.896
300
300
300.001
300
300
300
300
300
300
300
300
300
300
300
300.145
300
300.081
300
300
300
300
300
300.49
300
300
300
300
300
300.006
300
300
300
300
300
300
302.589
300
300
300
300
300
300
301.414
300
300.737
300.609
306.421
300
304.48
305.021
300
300.499
328.84
300
318.813
333.296
300.001
300
300.016
300
300
320.935
300
300
300
300
304.606
301.558
320.652
300
300
300
300
300
300
300
300
315.724
300
311.921
300
300
300
300
300
300
300
300
300
300
305.298
300.022
312.751
300
300.026
300
300.824
300
300
300
300
300
315.45
300
300
300
300
300
300
303.132
304.195
317.293
300.821
315.557
314.907
300.376
300
300
300
300.512
303.378
303.243
300
300
300
300
300
300
300
300
300
300
303.189
300
300
300
300
300
300
300
300
303.334
300
300
300
300
300
300
300
300
300
300
300
300
300
300
300.007
300
300
300
300
300
300
300
300.145
301.539
309.621
300
300
300