/*--------------------------------*- C++ -*----------------------------------*\
| =========                 |                                                 |
| \\      /  F ield         | OpenFOAM: The Open Source CFD Toolbox           |
|  \\    /   O peration     | Version:  v2012                                 |
|   \\  /    A nd           | Website:  www.openfoam.com                      |
|    \\/     M anipulation  |                                                 |
\*---------------------------------------------------------------------------*/
FoamFile
{
    version     2.0;
    format      ascii;
    class       volVectorField;
    location    "1.1917995";
    object      U;
}
// * * * * * * * * * * * * * * * * * * * * * * * * * * * * * * * * * * * * * //

dimensions      [0 1 -1 0 0 0 0];


internalField   nonuniform List<vector> 
83563
(
(0.0160015 0.327823 -0.000143868)
(-0.0593035 0.0716494 0.000223693)
(-0.0974075 0.0645647 -0.000185237)
(0.0542187 0.0536645 0.000237694)
(0.00782682 -0.230034 -0.000203015)
(-0.00766997 0.0570924 0.000509754)
(0.461892 -0.0181919 -0.000144783)
(0.376755 -0.00406145 -7.26853e-05)
(-0.205005 -0.0610438 -0.00137894)
(0.119034 -0.0152255 0.00301371)
(0.0864017 -0.0825922 -0.000845756)
(0.430881 -0.0251724 0.000115403)
(1.12413 0.295689 -0.00304311)
(0.122416 0.0176473 -0.000718662)
(0.335134 -0.0134833 -0.000500053)
(-0.0236731 -0.361183 0.000438168)
(0.0317263 -0.0244484 -0.000779468)
(0.111415 0.00527639 -0.000802004)
(0.339001 0.0511754 -0.00049465)
(0.116719 0.00891611 -0.000861733)
(0.138266 -0.00822406 -0.00045165)
(0.119653 0.0227825 -0.000612608)
(0.343374 0.166379 0.00111878)
(0.122456 -0.0424021 0.00278758)
(0.100812 -0.0126171 -0.000911053)
(0.263191 0.0117027 -0.000339271)
(-0.0168598 0.0307622 -0.000158254)
(-0.059468 -0.195652 0.00732419)
(0.258667 0.0196699 -0.000448302)
(-0.0148946 -0.128959 0.000479338)
(-0.127832 -0.0150365 0.00135381)
(-0.104938 -0.0202138 0.000403798)
(-0.176036 0.113003 0.000486107)
(0.104746 -0.104371 -0.000233556)
(0.140967 0.101909 0.000135219)
(0.0217732 -0.0932653 0.00389104)
(0.00631144 -0.0218421 -0.000462748)
(0.0975329 -0.0331019 -0.00115188)
(0.0707567 -0.0843318 -0.00152142)
(-0.366123 0.337894 -0.000354381)
(0.136209 -0.0154699 -0.00058679)
(0.245733 0.0220318 -0.000553199)
(0.00882164 -0.0883995 -0.00166099)
(0.24468 -0.00024306 -0.000675758)
(1.18882 0.0548662 -0.00651753)
(0.447622 0.239214 -0.000388781)
(0.0252082 -0.355118 -0.00162742)
(0.145952 -0.0494454 -0.00137547)
(0.316766 -0.00296311 -0.000253553)
(-0.11644 -0.109961 -0.00120599)
(-0.0328005 0.196665 -0.00694284)
(0.239531 0.0109665 -0.00078561)
(-0.0787871 0.396723 0.000422891)
(-0.291221 0.404837 0.0256181)
(0.281254 0.16359 -0.000268991)
(-0.102986 -0.612785 -0.00560778)
(0.144149 -0.0870353 -0.00054232)
(0.000241742 0.426952 0.0169267)
(-0.207319 0.561754 0.0280456)
(0.325059 0.191932 -0.000296015)
(-0.450158 0.426465 0.0708574)
(0.0291441 0.206376 2.42716e-05)
(0.17521 0.0066974 -0.000814695)
(-0.0476822 -0.0775422 0.00128957)
(0.255706 0.464025 0.00863168)
(0.598405 0.944101 -0.0257591)
(0.143407 0.415716 0.00987292)
(0.324087 0.190992 -0.000279898)
(1.90882 -0.345705 0.070167)
(0.136261 0.0549056 -0.00518227)
(-0.0405107 -0.0981561 0.00153862)
(1.08527 0.506118 -0.00671422)
(0.0735332 -0.0531608 -0.000188581)
(-0.514291 0.384645 0.0158183)
(0.0861249 0.0269591 1.37625e-05)
(-0.238413 0.334696 -0.00983174)
(0.195328 0.710162 0.0405617)
(0.0736997 -0.0213678 -0.00065915)
(0.0179332 -0.0552604 -0.000395809)
(-0.0273894 0.133735 0.0134013)
(-0.0737759 0.301601 0.000117916)
(0.485399 -0.100097 0.000284576)
(0.144851 0.00108929 -8.70136e-05)
(-0.522134 0.104176 -1.58345e-05)
(-0.000189586 0.209855 -0.000320918)
(-0.0423538 -0.143207 -0.000431357)
(-0.0172392 0.00886948 0.000318597)
(-0.212352 0.12645 0.00328824)
(0.047143 -0.114107 -0.000648724)
(-0.000773979 0.204179 -0.000328488)
(0.353419 0.00333184 -0.000317121)
(0.360152 0.00289608 -0.000298951)
(0.773856 0.515138 0.00208537)
(0.15314 0.0269794 0.00344415)
(-0.121754 0.184767 0.00621579)
(0.386625 0.0449154 -1.75021e-05)
(0.0217231 0.262221 -0.00427442)
(0.773685 0.458213 0.00209935)
(-0.0193882 -0.0264163 -0.000856176)
(0.355554 -0.0682392 0.000170642)
(0.435303 0.227877 -0.000302321)
(0.0210554 -0.0479401 -0.000987594)
(0.180489 -0.121171 -0.000550906)
(0.0188716 0.00424465 -0.00114973)
(-0.0549709 0.0977273 -0.00334257)
(-0.0140956 0.0895808 -0.003656)
(0.000585908 0.067918 -0.00275512)
(0.298862 0.0212722 -0.000303144)
(-0.478247 0.647006 0.0246137)
(0.0658374 -0.050846 0.000324008)
(0.326099 0.184024 -0.000265812)
(0.326975 0.197716 -0.000271881)
(0.541512 -0.0111807 -0.000547712)
(0.0600727 0.0981552 0.00259871)
(-0.00144472 -0.0488521 -0.00151376)
(0.368749 0.0191275 -0.000400838)
(0.508754 0.384788 0.00156274)
(0.341616 -0.00400047 -0.000142143)
(0.105859 -0.0951534 -0.00106791)
(0.438463 0.0351185 -0.000103191)
(-0.0677316 0.207069 -0.00637858)
(0.909896 0.0498764 0.00191474)
(0.323026 0.174154 -0.000318311)
(-0.121837 -0.0907624 0.00296362)
(0.555767 0.0798133 -0.000495063)
(0.343822 0.00706518 -0.00012788)
(0.374127 0.235053 0.000191757)
(0.222819 -0.168158 0.000116409)
(0.393718 0.0754833 -0.000291469)
(-0.00440061 0.0902341 0.000700692)
(0.426153 -0.26992 -0.00259706)
(0.684826 0.604017 -0.0701938)
(0.100294 -0.214865 -0.00023464)
(-0.152312 0.00559794 -0.0248122)
(0.342119 0.0325611 -8.96554e-05)
(0.165775 -0.0225972 -0.000433328)
(-0.0530805 0.414074 -0.00173861)
(-0.0543586 0.0217 0.000869939)
(0.32464 0.0185926 -0.000649088)
(0.537847 0.0720922 -0.00108667)
(0.0975862 -0.274808 -0.000724037)
(0.933662 0.0961857 0.00131177)
(0.33538 -0.00102486 -0.000182269)
(0.109127 -0.260521 -0.00111686)
(0.417344 0.214548 0.021821)
(0.0519353 0.9357 0.0452294)
(0.371854 0.0485858 -0.000796627)
(0.0518204 0.0219501 0.000428334)
(0.347323 0.0613431 -0.000577271)
(0.042567 0.0463426 -0.00224219)
(0.0270586 -0.197031 -0.00169698)
(0.0851833 0.0440328 -0.000821067)
(0.0252305 -0.0454998 -0.000417309)
(0.407225 0.0276934 2.39264e-05)
(0.26754 0.0427112 -0.000509359)
(0.313657 0.0177367 -0.000261661)
(0.365 -0.00857456 -0.000250123)
(0.00734602 -0.00559303 0.000306067)
(0.443571 0.00102975 -0.000214543)
(1.48875 0.715682 0.00897157)
(0.405852 0.0185182 0.00011454)
(0.126948 0.00252109 -0.000433383)
(0.162931 0.0121813 -0.000698998)
(0.369761 -0.00851709 -0.000101612)
(0.391885 0.0283473 -4.11e-05)
(0.0274916 0.258747 -0.00136557)
(0.379137 0.135887 -6.42693e-05)
(0.0948209 0.518743 0.0064535)
(0.398823 0.0139535 -0.00010631)
(0.394421 0.0519206 2.924e-05)
(0.343723 -0.0107893 -0.000288224)
(0.35678 -0.0142022 -0.000122612)
(0.545558 0.0810137 0.000643417)
(0.543752 -0.0136472 0.00111753)
(0.559425 0.0483859 -3.88097e-05)
(0.00819316 0.0815701 0.00109951)
(0.139889 0.0128826 -0.0010172)
(0.409398 0.0583279 -0.000503766)
(0.229047 0.127616 -0.000152001)
(0.392247 0.0655724 -0.000102182)
(0.343184 -0.0779506 9.15949e-05)
(0.0361251 -0.121489 -0.000372338)
(0.417054 0.0979821 -0.000320893)
(0.0678497 -0.0883425 0.00244084)
(0.00358965 -0.105181 0.00542676)
(-0.0204043 -0.340302 0.00815715)
(0.0129376 0.0845104 0.00275334)
(0.0691802 -0.127613 -0.000536045)
(-0.0736071 1.18049 -0.00280201)
(-0.115321 0.359177 -0.000106526)
(-0.0441656 0.261392 -0.000240016)
(0.0354586 -0.437664 0.0190286)
(0.45252 -0.00166699 9.9537e-05)
(0.0258255 -0.036633 -0.00162404)
(0.514225 -0.0165518 -0.000549444)
(0.151781 -0.0179882 -0.000533785)
(0.299967 0.023654 -0.000849923)
(0.363949 0.0208855 -0.00019626)
(0.162389 -0.00488647 -0.000621647)
(0.29725 0.0468194 -0.000673846)
(-0.263288 0.269949 0.00057853)
(0.152765 0.03109 0.00224615)
(-0.218684 0.332527 0.0012731)
(0.356987 0.0261094 -0.000229514)
(-0.241706 0.340073 0.000743508)
(-0.129201 -0.0879271 0.00379957)
(0.265515 0.046473 -0.000752815)
(0.394757 0.397749 0.00482874)
(0.173199 -0.0528509 -0.000553923)
(0.123942 0.0100049 -0.0005614)
(0.295247 0.0507122 -0.000800016)
(0.111446 0.96412 0.00571633)
(0.243304 0.137719 -0.000846077)
(0.353455 -0.000908064 -0.000274949)
(0.391701 0.0516299 -0.00033562)
(0.180554 0.0106347 -0.000482593)
(0.350195 0.0122475 -0.000116045)
(0.407819 -0.0259817 0.00011216)
(0.113932 0.00540642 -0.000836514)
(-0.142865 -0.0292835 -0.00195486)
(0.3569 0.00130593 -0.000509738)
(-0.0239053 0.0688316 -0.0012129)
(0.327079 0.0233146 -0.000378878)
(-0.152213 -0.0455245 -0.000835519)
(-0.369032 0.871058 0.00792942)
(0.360678 -0.00507887 -0.000153623)
(-0.295865 0.556898 -0.000396165)
(0.0128132 0.0147686 -0.000428923)
(0.344444 0.0548196 -0.000472985)
(0.0448371 0.760606 0.00183662)
(0.00331566 -0.0276 -0.000652923)
(0.320327 0.0110718 -0.000371329)
(0.362724 -0.00168657 -0.000275906)
(0.268691 0.0433423 -0.000632412)
(1.30052 -0.405633 -0.00149542)
(0.12404 -0.00387369 -0.000517795)
(0.302197 0.0359979 -0.000756575)
(0.103972 -0.130876 0.000929974)
(0.0713449 -0.12787 -0.000369155)
(-0.0852478 -0.0299173 0.000270853)
(0.379439 0.0378762 -0.000456159)
(0.197953 0.00803715 -0.000355773)
(0.321813 -0.00494462 -0.000251037)
(0.367636 0.0286245 -0.000298414)
(0.49474 0.145726 0.000536923)
(-0.0186766 0.060833 -0.000474483)
(1.02334 0.297219 0.00506167)
(0.453019 0.0299335 -0.000103095)
(0.122992 0.509946 4.98431e-05)
(0.0767489 0.0064777 -0.000463819)
(0.288528 0.102898 0.000107955)
(0.00278135 0.104588 -0.000492813)
(0.0146095 0.245995 0.000502463)
(0.370698 0.00208086 -0.000106781)
(0.0178834 0.228729 -0.000291339)
(0.13636 0.0221805 -0.000608036)
(0.331005 0.0127763 -0.000290512)
(0.381709 -0.0850043 0.000289377)
(0.283092 -0.0998004 8.33285e-06)
(0.0230633 0.241235 0.000318434)
(0.0123905 0.244776 0.000573541)
(0.187461 -0.00900686 -0.000653949)
(0.545332 0.297824 0.00137762)
(0.375345 0.0576968 -0.000402592)
(0.0112845 0.118954 -0.00041037)
(0.184035 -0.0164202 0.0015853)
(0.37933 0.0392813 -0.000577289)
(0.381316 0.293775 -0.000781394)
(0.423403 0.047715 -0.000404224)
(0.370574 0.00725605 -0.000446937)
(0.38221 0.279427 -0.000441734)
(0.39007 0.303119 -0.000710057)
(0.0417112 -0.231029 -0.000756109)
(0.123282 0.0568671 0.00124486)
(0.3626 0.294767 -0.000828768)
(0.15775 -0.0754834 0.000473308)
(0.362826 0.340622 -0.0015553)
(0.331341 -0.00246941 -0.000197366)
(-0.356724 0.144235 0.000369502)
(0.00809041 0.108578 -0.000665597)
(0.395262 0.0693441 0.000191744)
(-0.221347 0.400773 0.000901034)
(-0.0391367 0.274909 -0.000151316)
(-0.148701 0.279143 0.00124384)
(0.0421923 0.0237953 0.00232937)
(-0.00182005 0.0415394 -0.000489612)
(-0.131006 0.769175 0.0196127)
(0.427275 0.281927 0.00014005)
(0.0933356 -0.132282 0.000168239)
(0.0611239 -0.00909379 0.00017851)
(-0.0620314 0.131576 0.00311573)
(0.0338117 -0.136071 -0.000371108)
(0.383505 0.319695 -0.00050209)
(0.33789 0.0225658 -0.000753444)
(0.0612079 -0.0128565 -0.00132022)
(-0.318843 0.23612 0.00122281)
(0.286545 0.00444896 -0.000425551)
(0.483361 0.0233902 0.000273134)
(0.00334744 0.103101 -0.000671211)
(0.364948 -0.00069301 -3.65381e-05)
(-0.0957679 0.00880957 -0.000597445)
(0.296597 0.00134961 -0.000384158)
(0.394407 0.00289287 -0.000263019)
(-0.0268217 -0.00737051 0.000133321)
(-0.0096035 0.00217946 9.12548e-05)
(0.374953 0.327521 -0.000531276)
(0.376655 0.338918 -0.00129633)
(-0.845681 0.701396 -0.0173817)
(0.396474 0.0191183 -0.000329017)
(0.481636 -0.00275584 0.000563742)
(0.170602 0.303166 -0.000413396)
(0.356494 0.00268901 -0.00029574)
(-0.133754 0.726766 -0.0252455)
(0.163262 -0.00351149 7.3439e-05)
(0.36493 0.784898 0.00700532)
(0.0678262 -0.0373388 0.000143469)
(0.665113 0.299816 0.00250281)
(0.166093 0.368555 -0.000378707)
(0.168775 0.360067 -0.000864681)
(0.343066 -0.0031063 -0.000200429)
(0.479717 0.053739 0.000213261)
(0.14859 0.322577 -0.000466842)
(0.0020904 -0.108976 -0.000972192)
(0.19775 -0.00322965 -0.00128074)
(0.340718 -0.00125258 -0.00018766)
(0.171819 0.360174 -0.000252486)
(0.439128 0.192341 -0.000569519)
(-0.621169 -0.0297664 0.00801074)
(0.350735 0.035758 -6.70419e-05)
(-0.248794 -0.0294803 -0.00270734)
(0.39323 0.0210008 -3.589e-05)
(-0.0227517 0.052158 0.00101419)
(0.374178 0.0383421 -0.000422171)
(0.771283 0.103932 -0.00415667)
(-0.020905 0.348392 -0.000155668)
(0.0665557 -0.117291 -0.000455833)
(0.125739 0.100531 0.000708771)
(-0.942404 0.535081 -0.0569634)
(0.37906 0.0220894 -5.07279e-05)
(-0.046049 0.0227494 -0.000608651)
(-0.417016 0.215517 -0.0153895)
(0.74493 0.730216 0.0331666)
(0.216783 0.240694 -0.000171835)
(0.0053711 0.05619 8.84091e-05)
(0.387349 0.0199594 -5.49397e-05)
(0.0724546 -0.137886 0.000376305)
(0.383676 0.00862518 -9.54053e-05)
(0.034873 -0.0379283 0.000877495)
(0.346531 0.0119727 -0.000336381)
(0.00227087 0.0582781 5.19371e-05)
(0.348663 -0.000442158 -0.000290575)
(0.478335 0.00775058 0.000580985)
(0.0255358 0.0290085 -0.000877526)
(-0.299532 -0.451414 0.0180336)
(0.937854 0.281701 -0.000689182)
(0.115231 0.0188778 0.000272412)
(-0.0897834 0.0525379 0.000897896)
(0.360475 0.0660493 0.000133648)
(0.365499 0.00511991 -0.000372876)
(-0.143025 0.308828 0.00589643)
(0.684973 0.149315 0.00228447)
(-0.0820673 0.332861 0.000557407)
(0.918194 0.24475 0.00280701)
(0.394152 0.407332 0.00380815)
(0.878131 0.257085 0.00170694)
(-0.0904796 -0.0911947 0.00792304)
(-0.0883092 -0.141676 0.00229313)
(0.350076 0.00440443 -0.000108261)
(0.386082 0.2389 0.00281012)
(0.158918 -0.0167036 -0.000713743)
(0.345139 0.0220766 -0.000297509)
(0.244945 -0.0339084 -0.00103172)
(0.338188 0.0104878 -0.000508508)
(0.296419 -0.689511 0.0172669)
(0.195945 -0.694715 0.00730816)
(0.349431 0.0193501 -0.000175838)
(0.919767 0.310747 0.00263455)
(0.320616 0.0334652 -0.000426469)
(0.118975 -0.00466523 -0.000420021)
(0.387456 0.0193533 -7.50827e-05)
(0.0379386 -0.0950858 -0.000562755)
(0.255816 0.179624 0.000183691)
(-0.0651126 0.33881 -0.000690445)
(-0.175526 -0.0204371 -0.000918726)
(0.983598 0.266026 0.00352897)
(0.753245 0.281886 0.0051218)
(0.180446 -0.0653271 0.00195611)
(0.0532737 0.173548 0.000582544)
(0.630629 0.297658 0.00510816)
(0.324186 0.120522 0.000319242)
(0.00613836 0.212316 0.000960922)
(0.208498 -0.0105897 0.000575704)
(0.0667469 0.022894 0.000789317)
(0.685614 0.294637 0.00376376)
(0.459488 0.00531911 0.00108121)
(0.357697 0.0323045 -0.000409356)
(0.407305 0.0421062 0.000103543)
(0.328857 0.00890428 -0.000252309)
(0.323031 0.012792 -0.000157105)
(0.350682 0.0165323 -0.000320546)
(0.134407 0.381778 0.0116585)
(0.290739 0.0157942 -0.000755786)
(0.120658 0.0110016 -0.000830816)
(0.738343 -0.00497283 -0.00172357)
(0.644839 0.0459299 0.000361453)
(0.155826 0.00100936 -0.000805585)
(-0.0321598 -0.622025 0.00717973)
(0.125214 0.0268303 -0.000734721)
(0.0285943 0.188218 -8.11988e-05)
(0.371263 -0.0380475 -3.17782e-06)
(-0.0138422 0.746463 -0.0143446)
(0.418477 -0.011346 5.73998e-05)
(0.380859 0.279429 0.000570542)
(0.071537 -0.0358106 -4.57337e-05)
(0.0446673 0.496346 -0.00922537)
(-0.347308 0.456302 -3.29737e-05)
(0.0832389 -0.0330084 0.0021684)
(0.00970303 0.226233 0.000218712)
(0.719707 0.293173 0.00551805)
(0.035522 0.0851681 0.000445401)
(0.0533749 0.0653371 -0.000555529)
(0.00112161 -0.0290133 0.00150356)
(0.268582 0.869279 -0.046351)
(0.338586 -0.00357899 -0.000285311)
(0.392893 0.151692 0.00103595)
(0.0839415 0.833794 -0.0118075)
(0.372736 0.115306 0.00086785)
(0.152419 0.0807112 -0.00208029)
(0.508734 -0.0744056 0.000901202)
(0.434902 0.0354709 0.000143596)
(0.393971 -0.0199697 0.000118855)
(0.238674 -0.196316 -0.000130666)
(0.401887 0.0152498 -0.000203844)
(0.345783 0.0290243 -0.000116619)
(0.492717 0.249793 0.00331495)
(0.326556 -0.00620409 -0.000304205)
(0.290617 0.412733 0.00551889)
(0.190558 0.0940482 -0.000220041)
(0.350222 0.00632747 -6.15092e-05)
(0.0231475 0.206129 -0.00511225)
(0.385575 -0.0376742 -0.000112026)
(-0.0107123 -0.0655701 -0.000808772)
(0.419696 0.365944 0.0025669)
(0.352989 -0.00533996 -0.000187206)
(0.309013 -0.131054 0.000970261)
(0.349091 0.00597453 -0.000311716)
(0.0195921 -0.0620313 -0.00094516)
(0.334086 -0.128736 0.0012425)
(1.69916 0.139062 -0.0164251)
(-0.153343 -0.64064 0.116094)
(0.320529 -0.126581 0.000826033)
(0.0178865 -0.0459869 0.000708518)
(0.364722 -0.00829092 9.61408e-05)
(0.0931973 -0.0341961 0.000780829)
(0.390515 0.0556609 -0.000304386)
(0.36524 0.0201944 -0.000210853)
(0.492789 -0.00188166 0.00132773)
(0.00640972 -0.0527278 -0.00084387)
(0.0398492 -0.0491228 0.000681494)
(0.425476 -0.137756 0.000437669)
(-0.0308344 0.271133 0.000795803)
(0.512702 0.364648 0.0247169)
(0.117017 -0.0701719 -0.000505421)
(0.0411197 -0.0670296 0.000302683)
(0.00284847 0.199754 -0.000272162)
(0.185044 -0.0449984 -0.000653821)
(0.260242 0.139539 -0.00026267)
(0.346881 0.00588802 -0.000177026)
(0.153594 -0.00815925 -0.000621418)
(0.318117 0.0150286 -0.00014257)
(0.317946 0.0115893 -0.000133844)
(0.354723 0.00823339 -0.000240053)
(0.071549 0.00882916 0.000618789)
(0.358131 -0.00305565 -0.000134871)
(0.333807 0.0155552 -0.000231294)
(0.401282 0.130007 -0.000555349)
(0.321563 0.030882 -0.000227545)
(0.000599668 0.207839 -0.000218426)
(0.000622972 0.206339 -0.000221047)
(0.153642 -0.0951652 0.00028793)
(-0.00168132 0.207542 -0.000209134)
(0.036523 -0.0245562 -0.000222293)
(0.325632 0.0584982 2.77382e-05)
(0.000934171 0.212737 -0.000321828)
(0.357594 0.014461 -0.000110743)
(-0.104935 -0.0828528 -0.000407213)
(0.378297 -0.0729058 0.000289901)
(0.372793 0.0403396 -0.000365818)
(0.755758 0.098303 0.0346658)
(0.361824 -0.0229911 1.56408e-06)
(0.334083 0.0167592 -0.000227227)
(0.270724 0.144549 -0.000697468)
(0.277281 0.156089 -0.00062046)
(0.205641 0.363433 -0.00701337)
(0.429799 0.0158861 -0.000327157)
(0.456787 0.00326453 -0.000205802)
(0.268856 0.148872 -0.000575026)
(0.00878576 -0.0233507 -0.00129367)
(0.0474387 0.150039 -8.95378e-05)
(0.256716 0.155347 -0.000334701)
(0.330908 -0.0444921 -0.000178351)
(0.359271 0.105654 -8.10878e-05)
(0.51282 -0.0369 0.00121478)
(0.0702235 -0.107679 -0.00019926)
(0.112259 0.166861 -0.000864784)
(0.367177 0.115347 -7.63824e-05)
(-0.00385342 0.030259 0.000100549)
(0.374261 0.0811398 -0.000607598)
(-0.153302 0.0325885 0.000304547)
(0.0959748 0.132154 -0.00067351)
(0.329422 0.126849 -0.00191534)
(0.00337536 0.0284495 0.000148752)
(-0.00438457 0.027347 0.000371792)
(0.02762 0.00527429 0.000548018)
(0.123607 0.105395 -0.000440528)
(0.455283 0.019257 -0.000440227)
(0.000233939 0.0327779 0.000187103)
(-0.267577 -0.0478464 -0.00298137)
(-0.0245326 0.0181541 -0.00384389)
(0.124939 0.124709 -0.000691537)
(0.100962 0.115652 -0.000601908)
(0.541727 0.369026 0.00165047)
(0.275291 0.0106633 -0.0001535)
(0.40061 0.0369663 9.85054e-05)
(0.373256 0.0634188 -0.000267673)
(0.100854 0.0157478 -0.000449184)
(0.486131 0.0493379 0.00020092)
(-0.421445 -0.194 0.0131019)
(0.147683 0.0860734 0.000336796)
(0.0153919 -0.0148338 0.000614951)
(0.467713 0.014952 -0.000301673)
(-0.104942 0.270199 0.000119503)
(0.0766035 0.177436 0.000353015)
(0.0573 0.0812761 0.000458091)
(0.158524 -0.0387479 -0.000287924)
(0.365205 0.0164827 -0.000332236)
(-0.17617 0.20636 -0.0174615)
(0.363007 0.00630316 -0.000423846)
(0.504763 0.0657115 0.000299905)
(0.372009 0.152571 -0.00482881)
(0.032533 0.178284 0.000584639)
(0.527124 0.0407876 0.000264445)
(0.1928 0.131506 -0.00518273)
(0.365625 -0.114544 -0.000356124)
(0.281762 -0.137565 0.000911373)
(0.196418 -0.135763 0.000482382)
(0.133804 0.208267 0.000362169)
(0.221609 -0.0914855 0.000135524)
(-0.425819 0.306559 0.0154809)
(0.390487 0.0742438 -0.000656735)
(0.356517 0.056123 -0.000512025)
(0.417815 0.209987 0.0011521)
(0.351903 0.0672118 -0.000832024)
(0.941508 1.1018 0.00677775)
(0.356121 0.0555261 -0.000610487)
(0.349264 0.0560475 -0.000412529)
(0.076185 -0.120603 -0.000701699)
(0.854131 0.244939 0.000735354)
(0.168374 0.467983 -0.00462373)
(0.122632 -0.00756858 -0.000658768)
(0.376834 0.121528 0.00046008)
(0.154856 -0.327209 0.00180401)
(0.379625 -0.00679331 -0.000222017)
(0.357293 0.0036195 -0.000204998)
(-0.0171104 0.0501116 0.000573423)
(0.158874 -0.025811 -0.000326309)
(0.188353 0.497953 -0.00493968)
(-0.0926606 -0.0129868 -0.000140674)
(0.439746 -0.0710491 0.000324795)
(0.342677 -0.00384808 -0.000197483)
(0.161092 0.0198146 0.00753107)
(0.195832 0.193842 -0.000148487)
(0.105239 -0.0272882 -0.00058648)
(0.274119 0.154468 -0.000772196)
(0.103026 0.435118 -0.00353502)
(0.406277 0.00925676 -0.000262321)
(0.0514302 0.00295472 0.000663601)
(0.101491 -0.00471599 -0.00134491)
(0.442253 0.467596 -0.00104211)
(0.141722 -0.0135935 0.000584502)
(0.130457 -0.0348793 -0.00166592)
(1.77854 -0.530507 0.101082)
(0.574338 0.196085 0.000743671)
(0.364666 -0.00932306 0.000106994)
(-0.00168909 -0.0118299 0.000337992)
(0.262674 0.147885 -0.00048411)
(0.128102 0.0122109 -0.000248245)
(0.123612 -0.0473133 -0.000808669)
(0.129475 0.0143962 -0.000516282)
(1.52034 -1.31897 0.230498)
(0.0770238 -0.0482289 -0.000640801)
(0.374485 0.114523 -0.000929674)
(0.0195863 -0.0473994 -0.000907897)
(0.0617164 0.165161 0.000528367)
(0.215387 0.0089313 -0.00125622)
(0.0428959 -0.0418019 0.000532282)
(0.0738802 -0.0554 -0.00075613)
(-0.00444113 -0.0122133 -0.00120353)
(0.0914018 0.119497 0.000444705)
(0.295606 0.229863 0.000175295)
(-0.0118255 0.101672 0.00292304)
(0.142196 0.0398326 -0.000622364)
(-0.0261468 0.0506897 -0.00112371)
(0.0989335 -0.0748087 -0.000645742)
(0.130872 -0.0892732 -0.000443841)
(0.0748599 0.0259915 6.45304e-05)
(0.275389 0.157825 -0.00260744)
(0.160395 -0.0181556 -0.00168248)
(-0.00167399 -0.0231643 -0.00114949)
(-0.0119767 -0.124909 0.0011947)
(0.114346 -0.000458143 -0.000383474)
(0.35108 0.000699491 -0.000175574)
(0.364588 -0.000184695 -0.000293523)
(0.138116 0.00177999 -0.000616868)
(0.595814 0.37123 0.000606442)
(0.0666871 0.216556 0.000513136)
(0.0609194 0.176263 0.000432889)
(0.179015 -0.00165149 -0.000747614)
(0.155508 0.263967 -0.000385409)
(0.371457 -0.108371 -0.00025295)
(-0.0877834 -0.0576487 0.00375576)
(0.424943 0.00247177 0.00562624)
(0.0689037 0.159149 0.000465857)
(0.186212 -0.0910567 -5.57421e-06)
(0.400052 0.0206333 -0.000275397)
(0.256955 0.0409548 0.00043914)
(0.368815 0.053788 1.98247e-05)
(0.114595 0.0398853 -0.000318567)
(0.063765 0.146691 0.000482424)
(0.0938435 -0.0491345 -0.00040728)
(0.307259 -0.0090403 -4.25807e-05)
(0.276658 0.178751 -0.000337974)
(-0.0442613 -0.122359 0.000894435)
(0.358777 -0.0430351 0.000114724)
(0.00727128 0.0239463 -0.00125351)
(0.461032 0.198329 0.00229061)
(-0.0440903 0.255183 0.000212967)
(0.148292 0.256446 -0.000481435)
(0.119673 -0.106552 -0.0005446)
(0.0190696 -0.0178606 -0.00125445)
(-0.00521769 0.262929 0.000505398)
(0.00586416 0.258357 0.000434165)
(-0.00158482 0.264944 0.000429958)
(-0.0580502 -0.254886 -0.000336493)
(0.311446 -0.00567401 -0.000190837)
(-0.00698772 -0.00190645 0.000480494)
(0.000287191 -0.00646854 -0.00105612)
(-0.0668438 -0.276615 -0.000490814)
(1.16292 0.471946 0.0194319)
(0.156803 0.247805 -0.000466469)
(0.158208 0.245949 -0.000337122)
(0.208712 0.389391 -0.000672264)
(0.50912 0.136121 0.000480883)
(-0.573466 0.697245 -0.00627605)
(0.497045 0.124806 0.000382753)
(0.353434 -0.00394481 -0.000209542)
(0.350899 -0.0259491 0.000245278)
(0.38387 0.0522394 -0.000402728)
(0.138357 -0.306485 -0.000491038)
(0.331211 0.00656102 -0.000198705)
(-0.366286 0.12926 -0.000146905)
(0.200904 0.395022 -0.00136406)
(0.130763 -0.259824 -0.000415144)
(0.128022 -0.272119 -0.000798451)
(-0.152055 0.233686 0.0139852)
(0.0354475 0.060239 0.000373231)
(0.137535 -0.16037 0.000142618)
(0.10234 -0.0398273 -0.000486344)
(0.133765 -0.0204472 0.000585511)
(0.00645038 0.287665 0.000265867)
(0.155758 -0.25466 -0.000673746)
(0.355471 -0.00178743 -0.00030262)
(0.139243 -0.320641 -0.000593592)
(0.12738 -0.283208 -0.00079992)
(0.413085 0.0296444 6.44034e-05)
(0.334004 0.181128 -0.000391182)
(0.114822 0.038264 0.00115697)
(0.327996 0.183547 -0.000340033)
(0.389999 0.0362802 6.44643e-05)
(-0.0662696 0.0491639 0.000515797)
(-0.116744 0.214329 0.0233466)
(0.247121 0.114789 -0.000916611)
(0.391906 0.0369279 6.46227e-05)
(-0.187382 0.0970546 0.0387097)
(0.309714 -0.000306843 -0.00022546)
(0.0251122 -0.0998616 0.000479242)
(0.461828 -0.128088 0.000525785)
(0.353723 0.0313309 0.00207497)
(0.033086 0.133722 -0.00184992)
(0.0513592 0.0489898 0.000371436)
(0.126967 -0.0474293 -0.000145649)
(0.547638 -0.154669 -0.000526441)
(0.0195176 0.123418 -6.83145e-05)
(0.360023 -0.0232754 0.000198593)
(-0.478836 0.313321 -0.00169952)
(-0.128562 0.334942 0.00207319)
(0.37572 -0.00816556 -9.09629e-05)
(0.482468 0.0563555 0.00017943)
(-0.0383813 -0.0765564 0.000812099)
(-0.0398363 -0.060313 0.000933732)
(0.349513 0.0639356 -0.000430043)
(0.00301543 0.218198 0.000581507)
(0.0370572 -0.0215161 -0.000506915)
(-0.00192538 0.2455 0.000502862)
(0.0264862 0.30756 0.00126618)
(0.346101 -0.0629261 0.000205316)
(0.348987 0.00526012 -0.000200473)
(0.172924 -0.00895452 -0.000652474)
(0.273581 0.0889105 1.04648e-05)
(-0.00167528 0.2426 0.000549764)
(0.145676 0.0212126 -0.000715818)
(0.00164824 0.245845 0.000602303)
(0.0815528 0.130123 0.000273109)
(-0.00798458 -0.0173426 -0.00121972)
(-0.00304787 0.246846 0.000633199)
(0.414515 0.0425644 -0.000161801)
(0.0947514 -0.0521623 -0.000696287)
(-0.0269738 0.0450165 -0.00123655)
(0.389532 -0.0946459 -0.000184612)
(0.385145 -0.0845661 -0.000278621)
(-0.0227212 0.00315416 1.28918e-05)
(0.227854 0.463468 -0.00070472)
(-0.0908944 -0.200308 -0.000254894)
(-0.0253677 0.208264 0.00259438)
(0.361217 0.00311305 -0.000332824)
(0.448741 0.00363741 6.13603e-06)
(-0.622574 0.546037 0.0105624)
(-1.36009 -0.764578 0.0957216)
(0.0655083 -0.0477375 -0.000899219)
(-0.179129 -0.396249 0.0176425)
(0.392936 0.0977523 -0.000357609)
(0.024524 0.00201001 0.000243431)
(0.0319896 0.00572537 0.000256005)
(0.519538 -0.0816948 0.000581719)
(-0.941302 0.792761 -0.042482)
(0.348311 -0.0706161 0.000108292)
(0.142446 0.000447934 -0.000829707)
(0.0467552 -0.0993635 0.00142035)
(0.153044 1.11995 0.0820929)
(0.391375 0.102165 -0.000532841)
(0.100731 0.0118039 -0.000680108)
(1.44745 0.557958 0.00386581)
(0.298225 -0.0239328 -0.000287462)
(0.638587 0.163981 0.000555713)
(-0.0669383 0.213142 -0.000439629)
(0.0906561 -0.0986866 -0.000528879)
(0.359087 0.026631 -2.79648e-05)
(0.476779 0.0956175 0.000576545)
(-0.322645 1.15317 -0.00142594)
(0.0891069 -0.0344493 -0.000587092)
(0.113019 0.0119276 -0.000277389)
(0.110736 0.00303252 -8.52458e-05)
(0.123102 0.0231039 0.00021409)
(-0.532265 -0.890888 -0.032454)
(0.342725 0.110945 -0.00050913)
(0.347799 0.00138928 -0.000393036)
(0.0927434 0.0197888 -0.000276854)
(0.491639 0.00650824 -0.000192792)
(0.488014 0.0418896 -0.000276819)
(0.0858691 0.0221857 -0.00209533)
(0.0931315 0.0102995 -0.00175707)
(0.135571 -0.00640896 -0.00148973)
(0.237869 -1.42776 0.0377362)
(0.364466 0.0933624 -0.000565819)
(0.204286 0.181155 0.000593158)
(0.0397297 -0.0931478 -0.000673232)
(0.145127 -0.0637107 -0.000439575)
(0.127151 -0.00514482 -0.00118637)
(0.429568 0.215208 -0.000451522)
(0.459135 0.0364383 0.00347098)
(0.1222 -0.029237 -0.00061218)
(0.111438 -0.00972099 -0.000453699)
(0.340046 0.00403317 -0.000236506)
(0.125595 -0.00203368 -0.00151278)
(0.00285768 -0.0214685 -0.000204187)
(0.122789 0.0130191 -0.00121225)
(0.15403 -0.00845505 -0.000750088)
(-0.216023 0.343474 -0.0074083)
(0.119987 0.0139257 -0.000121462)
(0.235338 0.110382 0.00023407)
(0.252806 0.107796 0.000185021)
(0.020807 -0.237814 -0.000136251)
(-0.22369 0.339768 -0.00401654)
(-0.230655 0.205713 -0.000701419)
(-0.00903856 -0.0298888 -0.000438722)
(0.0502716 0.222352 0.00153472)
(0.345815 0.0193017 -0.000422068)
(0.371117 0.0271425 -0.000336242)
(0.0845994 -0.0429653 -0.000563649)
(0.130784 0.146274 -4.35902e-05)
(-0.339982 0.0302259 0.00596231)
(-0.0133353 0.331485 -0.00106822)
(0.153877 0.175597 0.00030723)
(-0.160308 0.481341 -0.00276587)
(0.29591 -0.103372 -0.000463145)
(0.139708 0.146336 0.000687514)
(0.197733 0.0843414 -0.00164274)
(0.0243948 -0.189367 0.000130781)
(0.0694278 -0.0423326 -4.72121e-05)
(0.137726 0.138248 0.000581173)
(0.368004 0.0254709 -0.000382849)
(0.376152 0.111325 -0.000721964)
(0.34753 0.322578 0.000722841)
(0.30702 -0.0140866 -0.000906096)
(0.43549 0.0589146 -0.00022981)
(0.131612 -0.00300056 -0.00151502)
(0.440633 0.0288975 -0.000451882)
(0.582412 0.441168 -0.0149004)
(-0.0984278 0.32562 0.00600486)
(0.370791 -0.0134146 0.000376949)
(0.369409 0.0941387 -0.00077878)
(0.334886 -0.00176904 -0.000254841)
(-0.253669 0.149163 -0.00168127)
(0.285598 -0.265749 -0.00990227)
(0.134521 -0.350778 -0.00846453)
(0.265596 0.0925002 -0.006227)
(0.0613352 -0.0581733 -6.47983e-06)
(0.0554665 0.11232 -0.0129973)
(0.287347 0.204539 0.000418867)
(0.362062 0.106558 -0.000447703)
(2.80922 0.318474 0.0317408)
(0.137852 0.153498 -9.74879e-05)
(0.486386 -0.179551 0.00214905)
(0.260703 -0.149553 0.000488599)
(0.381015 0.119122 -0.000454145)
(0.383296 0.147919 -0.000359904)
(-0.194263 -0.0597446 -0.00108434)
(-0.221749 -0.0301853 0.000713603)
(1.8482 -0.498003 0.102115)
(0.0852518 -0.0883355 -0.000758432)
(0.372696 0.00845874 -0.000192718)
(0.122829 0.527156 -8.64361e-05)
(0.345233 0.012111 -0.000144622)
(0.513256 -0.0679532 0.000590004)
(0.158608 -0.0140199 -0.000470436)
(0.134745 -0.00753154 -0.000672638)
(0.0534545 0.079183 0.000392142)
(0.102291 -0.00506186 9.16441e-05)
(0.099084 -0.0013424 0.000325586)
(0.385327 0.141474 -0.000437049)
(1.56912 -0.135497 0.0226311)
(1.54027 0.417254 0.132093)
(0.0519943 -0.030631 -0.00153275)
(0.0453603 0.120376 0.000507491)
(0.00741241 -0.0966961 -0.00130618)
(1.25154 -0.794794 -0.353139)
(0.493687 -0.0128029 0.000689629)
(0.439317 -0.0720269 0.000885519)
(0.469882 0.00702658 0.000884155)
(0.429206 0.152179 -0.00750296)
(0.494359 -0.051752 0.000503811)
(0.428873 0.0846671 -0.000444731)
(0.394751 0.12053 -0.000155329)
(0.126386 0.0106996 -0.00128239)
(0.083062 0.0450308 -0.000264778)
(2.00033 0.0123357 -0.00264155)
(-0.0553835 -0.0182405 -0.00161747)
(0.431465 -0.0563405 -0.000104706)
(-0.00417216 0.228256 0.000725414)
(0.338676 0.0512471 -0.000391221)
(0.133484 0.221807 0.000435276)
(0.796968 0.0462539 -0.000138273)
(0.0117472 0.212654 0.000490275)
(0.36522 0.0977687 -0.000681137)
(0.357985 0.0350157 3.56821e-06)
(0.00310892 0.0877437 -1.53126e-06)
(0.391078 0.0307623 -0.00030961)
(2.54403e-05 0.0917841 6.348e-05)