/*--------------------------------*- C++ -*----------------------------------*\
| =========                 |                                                 |
| \\      /  F ield         | OpenFOAM: The Open Source CFD Toolbox           |
|  \\    /   O peration     | Version:  v2012                                 |
|   \\  /    A nd           | Website:  www.openfoam.com                      |
|    \\/     M anipulation  |                                                 |
\*---------------------------------------------------------------------------*/
FoamFile
{
    version     2.0;
    format      ascii;
    class       volScalarField;
    location    "0.303903";
    object      alphat;
}
// * * * * * * * * * * * * * * * * * * * * * * * * * * * * * * * * * * * * * //

dimensions      [0 2 -1 0 0 0 0];


internalField   nonuniform List<scalar> 
83563
(
2.1252e-05
2.17012e-05
2.54411e-05
2.32626e-05
2.46326e-05
3.67986e-05
2.14259e-05
4.96477e-05
4.25948e-05
0.000119958
3.27575e-05
2.18193e-05
0.0273427
2.10128e-05
4.02035e-05
3.93836e-05
2.09788e-05
2.10461e-05
3.53555e-05
2.1092e-05
2.10093e-05
2.11437e-05
3.72975e-05
2.426e-05
2.09664e-05
2.12772e-05
2.11355e-05
0.000111126
2.1667e-05
2.12016e-05
2.36039e-05
2.12585e-05
2.25245e-05
2.12112e-05
2.11844e-05
2.31596e-05
2.19018e-05
2.10422e-05
2.18244e-05
4.55084e-05
2.11354e-05
2.65183e-05
2.2344e-05
2.17609e-05
0.017495
5.99202e-05
2.17312e-05
5.90174e-05
5.14488e-05
1.75783e-05
0.00988586
3.482e-05
0.0010518
0.00204606
2.76086e-05
0.0035734
2.1117e-05
0.00137112
0.00170367
3.29411e-05
0.00182004
0.000252948
5.39412e-05
2.28718e-05
0.00175965
0.00100358
0.000442914
1.94292e-05
0.00289554
0.00858179
2.50401e-05
0.0125068
2.10571e-05
0.0114676
2.33746e-05
2.68728e-05
5.97854e-05
2.11376e-05
2.1329e-05
0.0297075
2.18061e-05
2.11986e-05
2.1822e-05
0.000329891
5.66462e-05
2.12188e-05
2.09763e-05
2.88463e-05
2.11433e-05
2.92612e-05
5.06788e-05
2.12289e-05
6.9185e-05
0.000113054
0.000521074
6.68707e-05
0.000240849
7.86024e-05
6.00698e-05
5.26676e-05
2.26741e-05
2.19561e-05
3.40494e-05
2.11577e-05
3.8205e-05
2.23992e-05
2.56231e-05
2.1342e-05
0.000448232
2.11255e-05
7.51244e-05
2.85886e-05
2.70227e-05
2.60245e-05
3.00357e-05
2.11702e-05
9.14911e-06
7.6633e-05
2.64283e-05
2.1302e-05
3.88033e-05
4.28605e-05
4.10496e-05
0.000359805
5.61161e-05
2.12308e-05
0.000145349
2.14852e-05
5.3733e-05
5.15027e-05
2.00467e-05
6.24895e-05
2.90897e-05
0.000151353
2.09692e-05
2.10223e-05
4.59649e-05
2.15578e-05
2.14552e-05
0.0120833
2.32685e-05
0.00930138
6.02105e-05
2.58638e-05
2.31001e-05
0.00239066
2.48775e-05
2.17021e-05
2.24913e-05
2.26642e-05
2.42454e-05
2.13274e-05
2.1448e-05
2.9906e-05
2.12468e-05
2.1435e-05
2.11865e-05
5.4794e-05
5.10589e-05
3.52943e-05
4.0969e-05
2.11708e-05
2.12121e-05
2.1608e-05
5.28045e-05
1.37935e-05
2.12826e-05
1.71195e-05
2.11058e-05
7.13766e-05
2.1274e-05
2.20721e-05
4.97747e-05
5.10399e-05
5.64021e-05
3.03885e-05
2.47138e-05
2.12586e-05
3.75654e-05
2.13819e-05
2.21952e-05
2.12482e-05
2.32872e-05
2.3133e-05
9.05953e-05
0.000145407
2.92613e-05
2.12954e-05
2.5821e-05
2.17377e-05
2.17266e-05
0.000128987
0.000100364
1.91587e-05
5.68738e-05
1.74207e-05
2.55833e-05
5.7832e-05
2.15684e-05
3.59454e-05
3.27041e-05
2.81083e-05
9.10529e-05
2.1118e-05
0.000133385
7.40692e-05
2.17042e-05
1.09982e-05
2.11237e-05
2.17882e-05
5.25832e-05
0.000182989
2.1174e-05
2.13981e-05
2.10744e-05
2.99786e-05
3.6313e-05
2.13953e-05
2.15006e-05
4.53394e-05
3.36976e-05
5.65558e-05
2.19995e-05
2.72536e-05
8.06259e-05
2.11118e-05
0.000251683
2.10366e-05
2.16002e-05
8.6457e-05
2.10244e-05
2.17887e-05
2.10442e-05
2.18784e-05
5.4308e-05
2.10102e-05
4.98503e-05
2.20112e-05
2.13281e-05
2.14654e-05
5.33863e-05
3.59117e-05
4.82332e-05
2.12931e-05
2.34827e-05
2.19594e-05
0.00554039
2.16126e-05
0.000571948
2.64734e-05
3.89235e-05
2.71533e-05
2.24298e-05
7.60059e-05
2.20596e-05
2.4605e-05
2.1188e-05
4.57299e-05
2.12339e-05
2.19749e-05
2.20964e-05
3.31711e-05
0.000192837
3.96385e-05
2.89046e-05
2.32929e-05
3.67825e-05
2.62041e-05
2.14483e-05
2.16153e-05
3.00661e-05
5.61813e-05
2.64155e-05
3.18211e-05
5.33194e-05
2.1944e-05
0.000119433
3.38642e-05
2.2563e-05
3.75559e-05
5.1354e-05
2.23289e-05
2.1298e-05
7.0149e-05
3.13749e-05
2.17212e-05
5.34608e-05
2.34063e-05
2.13689e-05
3.03153e-05
2.03889e-05
2.12894e-05
0.000156995
2.11304e-05
2.1326e-05
2.94237e-05
2.91863e-05
2.1585e-05
3.76225e-05
2.48581e-05
2.3584e-05
2.19362e-05
2.15974e-05
2.10738e-05
2.10165e-05
9.11169e-05
0.000108986
0.00164252
3.47178e-05
5.90005e-05
2.18928e-05
4.59205e-05
0.000910862
9.083e-06
0.000173244
2.24826e-05
4.90775e-05
3.40396e-05
2.13152e-05
5.15661e-05
0.000110773
3.45807e-05
2.10326e-05
2.93202e-05
5.24193e-05
2.14773e-05
0.0001272
0.000712262
2.22401e-05
2.7136e-05
2.08261e-05
2.2425e-05
2.13632e-05
0.000887075
2.13366e-05
2.14676e-05
3.79155e-05
0.00367023
5.64863e-05
2.13688e-05
0.00271759
0.00110296
2.1734e-05
2.1664e-05
2.19802e-05
2.1747e-05
6.25092e-05
3.11906e-05
7.2511e-05
2.19209e-05
2.11063e-05
2.18071e-05
2.54949e-05
3.03857e-05
0.00701465
2.10866e-05
5.47348e-05
3.76047e-05
3.49845e-05
0.000365176
0.000395391
0.000202992
4.8586e-05
1.49689e-05
1.35636e-05
6.2886e-05
0.000289339
3.05916e-05
2.17785e-05
2.10401e-05
2.15202e-05
4.10878e-05
5.16784e-05
0.0126165
0.0140529
2.2605e-05
1.90113e-05
2.16365e-05
2.22576e-05
2.15456e-05
2.19253e-05
2.14009e-05
2.14657e-05
2.13858e-05
1.96087e-05
0.000111172
2.52865e-05
4.34838e-05
1.03767e-05
2.49456e-05
9.56887e-05
2.37396e-05
2.69095e-05
3.84505e-05
4.96792e-05
7.20277e-05
2.55442e-05
3.27327e-05
2.15818e-05
2.1021e-05
5.43632e-05
2.11705e-05
2.13123e-05
2.3246e-05
3.95402e-05
2.24856e-05
0.00766592
2.43743e-05
2.11048e-05
2.35464e-05
0.0012071
5.90278e-05
2.19346e-05
2.12965e-05
0.000702915
2.34681e-05
2.36317e-05
8.11129e-05
2.49521e-05
2.45145e-05
2.11776e-05
2.15411e-05
0.00114683
2.12868e-05
5.26166e-05
0.00128844
2.23396e-05
3.68662e-05
2.11102e-05
2.1836e-05
2.16595e-05
2.25587e-05
2.2903e-05
2.17875e-05
0.00248977
4.44319e-05
3.63285e-05
2.21876e-05
3.34959e-05
7.69349e-05
5.1354e-05
2.55276e-05
2.15494e-05
2.11995e-05
2.34038e-05
2.61787e-05
3.31675e-05
5.04069e-05
3.81953e-05
0.00207685
6.05655e-05
2.5997e-05
2.17574e-05
2.38411e-05
4.3334e-05
6.72634e-05
2.14505e-05
2.11706e-05
2.13183e-05
2.33249e-05
2.15784e-05
0.000884376
2.21992e-05
2.14382e-05
2.75496e-05
2.13623e-05
2.1432e-05
2.1643e-05
2.5016e-05
2.93494e-05
3.99425e-05
2.25837e-05
2.34732e-05
3.88743e-05
2.10442e-05
9.07616e-05
2.25592e-05
3.0731e-05
4.13056e-05
2.14608e-05
3.64176e-05
2.17101e-05
2.3548e-05
5.21068e-05
2.11195e-05
2.20924e-05
2.15687e-05
4.97441e-05
4.33626e-05
2.1266e-05
2.11007e-05
2.2909e-05
2.60994e-05
0.000932856
0.000135518
5.55332e-05
2.20126e-05
2.73672e-05
2.51487e-05
2.14004e-05
2.12248e-05
2.86101e-05
2.1882e-05
2.16206e-05
4.56672e-05
2.1522e-05
3.80709e-05
5.60594e-05
1.79856e-05
4.77855e-05
2.12072e-05
2.41299e-05
2.10561e-05
2.10179e-05
2.31695e-05
2.14999e-05
5.82897e-05
0.00040474
0.000642314
2.26475e-05
3.6899e-05
4.04157e-05
2.94554e-05
1.99189e-05
4.82321e-05
2.24583e-05
2.00061e-05
0.00119473
2.15885e-05
2.43005e-05
2.18659e-05
2.13197e-05
2.38607e-05
2.28454e-05
2.15012e-05
2.14655e-05
0.000378047
0.00010251
2.2262e-05
0.000623244
3.70301e-05
2.11243e-05
0.000938209
2.12976e-05
2.19248e-05
5.16018e-05
2.18823e-05
4.66859e-05
0.000781829
4.38923e-05
2.27162e-05
2.17711e-05
2.83014e-05
1.79477e-05
2.13562e-05
3.6583e-05
2.28502e-05
0.00016712
0.000488106
2.10335e-05
2.81552e-05
0.00373884
2.13424e-05
3.76655e-05
2.07647e-05
2.14286e-05
0.000140856
2.14562e-05
2.14521e-05
3.09922e-05
0.000286749
4.61612e-05
2.13066e-05
3.02474e-05
0.000393545
4.75618e-05
2.50457e-05
2.15205e-05
2.10772e-05
2.14506e-05
2.19564e-05
0.00806434
2.1448e-05
2.25401e-05
2.48924e-05
2.18955e-05
2.1129e-05
2.34855e-05
2.1121e-05
0.00632852
2.10096e-05
2.15539e-05
2.10657e-05
2.1572e-05
2.36738e-05
2.10001e-05
2.10873e-05
2.10642e-05
2.11406e-05
2.14994e-05
2.26772e-05
2.13025e-05
2.09717e-05
2.10272e-05
2.2114e-05
2.51936e-05
0.000270734
3.02319e-05
2.11005e-05
2.1102e-05
2.19715e-05
2.12605e-05
2.12076e-05
2.22792e-05
7.79028e-05
2.26895e-05
3.58042e-05
3.4789e-05
7.80961e-05
3.6377e-05
2.17325e-05
4.43144e-05
3.09947e-05
2.15187e-05
2.1764e-05
2.36709e-05
2.24648e-05
2.15442e-05
2.31996e-05
2.11618e-05
4.37551e-05
2.22967e-05
2.24107e-05
2.25567e-05
2.0966e-05
1.86411e-05
2.4544e-05
4.80216e-05
2.10581e-05
2.17355e-05
2.17425e-05
7.63498e-05
9.35115e-05
2.11655e-05
6.25921e-05
2.101e-05
2.09895e-05
2.10971e-05
0.00176728
3.23858e-05
2.23845e-05
2.45437e-05
3.15696e-05
5.05478e-05
7.98834e-05
2.13083e-05
3.99788e-05
2.14706e-05
2.16134e-05
2.22571e-05
2.26234e-05
0.000844362
2.23544e-05
2.3577e-05
0.000745027
2.10832e-05
2.32669e-05
2.10414e-05
2.1969e-05
0.000118107
2.6967e-05
2.46628e-05
2.17291e-05
4.07417e-05
7.85077e-05
2.17991e-05
1.82359e-05
1.90055e-05
2.0936e-05
1.49953e-05
0.000907918
3.50607e-05
9.40421e-05
0.00141894
2.12954e-05
2.34447e-05
7.04253e-05
2.1441e-05
0.000122614
3.02889e-05
2.58905e-05
2.23473e-05
2.2495e-05
7.6233e-05
0.000103179
0.00064299
2.23467e-05
0.000131009
2.28215e-05
2.8557e-05
3.15102e-05
3.01438e-05
2.09968e-05
3.86102e-05
7.21412e-05
3.67869e-05
2.11587e-05
2.49152e-05
3.63998e-05
2.73568e-05
2.11216e-05
3.88326e-05
2.13182e-05
2.12172e-05
4.00469e-05
2.1331e-05
2.11175e-05
2.33148e-05
3.15118e-05
3.13762e-05
2.12603e-05
2.13949e-05
2.1058e-05
2.71469e-05
2.13854e-05
7.81459e-05
0.00163607
0.00454225
2.61492e-05
0.000958757
2.12849e-05
2.11398e-05
2.2504e-05
6.86425e-05
0.00124423
4.35285e-05
2.18241e-05
2.61522e-05
0.00135824
2.12633e-05
2.63335e-05
1.95507e-05
2.14552e-05
2.97791e-05
2.9705e-05
2.44821e-05
2.218e-05
6.85502e-05
0.00120721
2.2318e-05
2.57493e-05
2.61885e-05
2.10003e-05
0.000714997
2.51368e-05
5.52578e-05
2.11231e-05
2.39637e-05
7.13479e-05
2.21119e-05
2.11556e-05
2.10657e-05
0.000157435
2.11398e-05
4.76636e-05
2.19182e-05
2.10092e-05
2.14402e-05
2.49752e-05
4.52896e-05
2.62253e-05
2.10646e-05
2.11253e-05
3.25662e-05
2.27861e-05
2.38689e-05
2.13176e-05
0.000321547
2.14101e-05
2.27061e-05
2.72394e-05
7.8067e-05
0.00136314
0.00265571
2.10889e-05
0.00232718
2.14819e-05
4.57779e-05
2.25223e-05
4.19738e-05
5.68619e-05
2.55877e-05
2.22335e-05
0.000429808
3.81248e-05
3.48762e-05
2.41042e-05
2.11077e-05
2.11131e-05
2.25968e-05
2.88069e-05
2.15544e-05
5.22328e-05
2.12729e-05
2.12371e-05
2.14776e-05
3.08625e-05
0.00113716
0.000285479
5.49493e-05
2.13973e-05
2.312e-05
0.000238119
0.000166497
0.000127408
7.11823e-05
2.11444e-05
5.74425e-05
2.09315e-05
2.11628e-05
0.00017007
2.32672e-05
0.000223556
3.63275e-05
2.1481e-05
5.1027e-05
8.97792e-05
6.73206e-05
0.00377288
2.16654e-05
2.12546e-05
2.83766e-05
2.13829e-05
4.08699e-05
2.26577e-05
2.10635e-05
2.11809e-05
5.51295e-05
2.59734e-05
2.63618e-05
0.00239053
0.00523155
2.11291e-05
2.13332e-05
2.5241e-05
0.000693626
4.25809e-05
2.16273e-05
4.74615e-05
0.00998513
2.24433e-05
2.10877e-05
2.1551e-05
2.10502e-05
2.45675e-05
0.00424897
2.10527e-05
4.44896e-05
5.20645e-05
2.93372e-05
2.16531e-05
3.37113e-05
2.81243e-05
2.12024e-05
6.05999e-05
3.61236e-05
7.03963e-05
4.11837e-05
2.34749e-05
2.15158e-05
2.1195e-05
0.000200572
4.6789e-05
3.85577e-05
3.11745e-05
2.32883e-05
2.11536e-05
2.13253e-05
2.27925e-05
2.47415e-05
2.09699e-05
2.78414e-05
2.1824e-05
2.15445e-05
2.11449e-05
0.000233146
5.89751e-05
2.2086e-05
0.000429178
0.00198225
2.26227e-05
0.000140863
2.1397e-05
2.16136e-05
2.11263e-05
2.16304e-05
3.07858e-05
2.13757e-05
2.58554e-05
4.63644e-05
2.31164e-05
2.12529e-05
2.19761e-05
4.28982e-05
2.13115e-05
2.18911e-05
2.428e-05
2.11717e-05
2.60347e-05
2.71641e-05
2.13052e-05
2.26013e-05
2.10245e-05
2.69224e-05
2.38747e-05
0.00106816
0.000939339
2.17818e-05
0.000242243
2.10399e-05
5.01898e-05
4.71899e-05
3.80815e-05
4.48224e-05
2.12733e-05
2.16753e-05
3.86723e-05
2.15744e-05
0.000678849
2.15386e-05
2.36868e-05
1.63296e-05
4.59676e-05
2.9665e-05
0.0012688
3.12392e-05
1.40231e-05
2.13812e-05
3.20641e-05
0.000208224
3.84568e-05
2.1572e-05
4.91976e-05
5.64248e-05
2.10259e-05
2.10459e-05
2.45563e-05
2.35198e-05
2.2038e-05
2.18173e-05
2.12623e-05
2.15367e-05
2.13079e-05
2.11464e-05
2.09822e-05
4.74627e-05
0.000621512
2.24871e-05
2.09755e-05
2.1072e-05
4.29341e-05
2.10281e-05
2.14532e-05
2.11952e-05
6.06958e-05
6.8148e-05
2.99923e-05
2.10762e-05
6.8815e-05
2.73041e-05
0.00014359
2.28431e-05
2.9575e-05
2.71926e-05
2.19135e-05
4.69039e-05
2.18385e-05
2.16924e-05
2.11519e-05
2.48109e-05
2.71513e-05
2.44138e-05
2.36851e-05
2.12358e-05
2.15031e-05
3.04661e-05
5.68308e-05
3.5093e-05
2.30789e-05
2.32103e-05
7.98684e-05
2.96024e-05
2.11924e-05
2.12018e-05
2.10527e-05
7.8657e-05
7.76438e-05
4.4227e-05
4.6472e-05
1.01165e-05
2.77456e-05
2.11665e-05
2.09964e-05
2.18729e-05
0.000385231
2.21206e-05
4.22889e-05
6.91743e-05
8.29187e-05
3.05741e-05
2.61838e-05
2.21489e-05
2.18244e-05
2.13712e-05
2.64184e-05
2.52602e-05
2.15406e-05
5.48496e-05
5.57786e-05
2.14614e-05
4.33892e-05
2.24857e-05
4.00933e-05
2.84426e-05
2.14736e-05
2.13221e-05
2.10137e-05
5.0266e-05
2.29641e-05
2.14581e-05
7.27572e-05
2.88218e-05
2.13697e-05
5.21816e-05
2.72357e-05
2.09996e-05
3.5696e-05
2.13328e-05
2.26278e-05
2.18052e-05
2.15956e-05
3.16296e-05
2.23479e-05
8.11114e-05
2.19077e-05
9.01646e-05
3.45504e-05
2.22949e-05
0.00558388
2.22364e-05
0.0117667
0.0194642
2.11892e-05
2.13055e-05
2.10129e-05
2.75645e-05
2.1049e-05
3.46084e-05
2.17277e-05
0.00923872
2.11274e-05
0.0195103
6.66724e-05
0.00107329
2.49768e-05
2.14366e-05
3.20381e-05
2.23117e-05
3.46688e-05
2.7536e-05
2.07241e-05
2.33603e-05
0.0207035
2.13655e-05
3.06829e-05
6.50187e-05
2.13771e-05
2.11726e-05
3.76396e-05
0.00121043
2.10798e-05
4.46242e-05
2.28544e-05
2.09982e-05
4.6271e-05
0.0051588
2.15639e-05
2.34643e-05
4.59403e-05
0.000189828
0.0303057
5.65732e-05
7.08761e-05
2.65646e-05
2.47557e-05
5.11253e-05
2.12246e-05
3.661e-05
6.19973e-05
2.97498e-05
7.16121e-05
2.14794e-05
0.000112341
2.42635e-05
3.05952e-05
2.26279e-05
4.25145e-05
2.11371e-05
4.14741e-05
2.10709e-05
2.18471e-05
2.42055e-05
2.19476e-05
2.12841e-05
4.71954e-05
2.27044e-05
4.35899e-05
2.1593e-05
2.80697e-05
2.24439e-05
0.000590583
2.10304e-05
2.43653e-05
2.13754e-05
4.92611e-05
2.08631e-05
4.46006e-05
2.1003e-05
5.2207e-05
2.20199e-05
2.1356e-05
4.15625e-05
5.43145e-05
2.23284e-05
2.12448e-05
2.10175e-05
2.12547e-05
0.00014315
2.95642e-05
3.98968e-05
2.28369e-05
2.28007e-05
2.1494e-05
2.09959e-05
2.99748e-05
2.25019e-05
5.66342e-05
3.29528e-05
2.20561e-05
2.11088e-05
3.42008e-05
2.17396e-05
2.16586e-05
2.22141e-05
2.14181e-05
4.25778e-05
2.10922e-05
2.10148e-05
2.14298e-05
3.81328e-05
7.14844e-05
2.27456e-05
1.4359e-05
2.19753e-05
2.19072e-05
2.17078e-05
2.16539e-05
2.40685e-05
2.21788e-05
2.17065e-05
2.1496e-05
2.13863e-05
4.68032e-05
2.2208e-05
2.7218e-05
2.36936e-05
3.41075e-05
2.66998e-05
7.49197e-05
2.12989e-05
2.18344e-05
3.91586e-05
6.01351e-05
2.15319e-05
2.10451e-05
2.11392e-05
2.15414e-05
4.40733e-05
4.92225e-05
2.463e-05
3.18359e-05
2.08216e-05
0.000287856
1.48302e-05
0.000134933
2.52284e-05
2.1225e-05
2.21562e-05
2.19004e-05
5.98437e-05
2.16603e-05
6.86677e-05
2.7439e-05
2.1622e-05
4.26763e-05
5.54798e-05
2.17806e-05
8.43558e-05
4.61724e-05
2.13701e-05
2.15231e-05
2.69449e-05
2.12907e-05
2.14131e-05
0.0106578
2.11846e-05
0.0136767
0.00287671
4.14418e-05
3.38312e-05
2.12823e-05
2.17437e-05
2.15452e-05
3.8035e-05
2.13182e-05
5.40938e-05
3.81299e-05
0.0112634
4.97073e-05
2.12245e-05
2.13211e-05
2.12644e-05
2.40611e-05
2.39388e-05
3.15129e-05
2.12898e-05
0.000968489
0.000319105
2.1026e-05
2.11184e-05
0.00240479
2.33949e-05
2.11821e-05
2.37052e-05
2.13876e-05
4.73474e-05
0.00141239
2.10812e-05
6.52425e-05
6.66671e-05
5.87084e-05
2.14123e-05
2.11488e-05
2.13578e-05
7.71635e-05
0.00147435
2.92063e-05
2.76722e-05
2.12703e-05
4.55857e-05
4.81598e-05
2.67675e-05
2.60776e-05
2.13663e-05
2.21435e-05
0.000144655
2.14973e-05
4.64482e-05
5.65716e-05
2.21377e-05
3.91975e-05
5.14972e-05
2.24822e-05
2.2278e-05
6.55208e-05
2.69821e-05
2.09967e-05
3.46717e-05
2.14528e-05
2.21032e-05
0.0086129
4.84843e-05
2.13041e-05
2.41952e-05
0.000835814
2.71342e-05
2.18013e-05
4.99613e-05
2.1346e-05
0.00162764
2.41803e-05
2.11383e-05
2.11897e-05
2.17607e-05
2.16576e-05
2.23217e-05
5.80628e-05
2.17573e-05
2.20153e-05
2.29094e-05
5.30705e-05
5.25486e-05
2.11736e-05
7.44922e-05
2.15746e-05
2.17324e-05
2.16035e-05
2.11433e-05
4.78425e-05
2.29552e-05
2.10399e-05
2.10654e-05
0.00197342
2.11831e-05
2.13118e-05
2.12429e-05
4.28987e-05
0.000114159
2.1034e-05
0.00124477
2.27441e-05
2.16308e-05
3.70208e-05
2.12417e-05
0.00133152
0.00030403
2.13113e-05
3.87778e-05
0.000173455
0.00691014
0.000479324
4.37322e-05
2.21972e-05
2.12681e-05
2.12524e-05
2.93965e-05
8.04089e-05
2.10733e-05
9.8599e-05
2.1251e-05
2.1385e-05
7.42532e-05
2.18114e-05
2.17909e-05
2.11749e-05
2.63698e-05
6.46436e-05
2.21393e-05
4.5393e-05
3.97216e-05
2.40392e-05
6.76924e-05
2.35474e-05
3.87894e-05
3.20858e-05
2.28484e-05
2.51805e-05
2.13516e-05
2.11072e-05
2.39513e-05
2.13386e-05
2.27969e-05
2.49746e-05
2.17018e-05
2.14435e-05
2.12222e-05
2.68774e-05
2.17433e-05
2.72225e-05
2.4125e-05
2.1103e-05
2.60604e-05
3.43771e-05
6.45572e-05
2.10171e-05
2.17683e-05
0.000982153
3.51285e-05
2.15554e-05
9.53419e-05
2.1598e-05
2.18049e-05
2.21487e-05
2.10281e-05
0.000400477
2.11628e-05
3.43101e-05
2.31359e-05
6.47596e-05
2.19906e-05
2.10731e-05
2.51956e-05
0.00066998
2.09748e-05
2.47239e-05
2.62899e-05
6.83115e-05
0.000111319
2.95818e-05
2.19165e-05
2.12835e-05
6.65579e-05
4.36176e-05
8.52332e-05
5.42868e-05
2.1148e-05
2.12214e-05
2.12304e-05
2.16611e-05
3.07345e-05
3.67065e-05
2.1601e-05
3.42741e-05
2.24861e-05
3.93287e-05
2.89841e-05
4.69597e-05
2.4302e-05
2.22356e-05
2.10998e-05
2.46305e-05
3.86072e-05
2.12125e-05
2.47785e-05
2.14954e-05
4.29707e-06
3.16665e-05
2.14128e-05
2.16965e-05
2.16409e-05
3.97782e-05
5.06451e-05
2.10263e-05
2.36966e-05
4.2554e-05
5.04022e-05
2.12812e-05
2.14027e-05
0.000722556
2.10052e-05
2.74667e-05
2.11063e-05
2.21035e-05
2.11648e-05
2.11844e-05
2.13883e-05
2.15437e-05
0.0014941
2.14877e-05
3.20556e-05
2.16917e-05
2.1269e-05
3.24855e-05
2.11915e-05
2.38863e-05
2.16414e-05
0.000324532
0.000271001
2.62915e-05
3.60108e-05
2.13737e-05
4.00298e-05
0.0247655
2.16489e-05
2.12284e-05
4.5441e-05
7.0805e-05
0.00143968
8.82782e-05
2.22849e-05
2.09876e-05
2.48894e-05
2.17352e-05
2.99737e-05
2.1356e-05
2.21377e-05
9.08378e-05
0.000293678
2.12776e-05
0.00117698
4.0266e-05
4.19774e-05
2.40185e-05
4.73737e-05
2.14552e-05
0.000923824
5.09693e-05
2.64287e-05
2.42957e-05
2.1166e-05
7.70201e-05
0.000259197
3.59884e-05
2.22802e-05
2.11757e-05
0.000103478
7.19536e-05
5.04683e-05
2.15936e-05
6.07779e-05
3.76794e-05
4.99434e-05
2.19941e-05
2.34157e-05
0.000908164
2.10293e-05
4.81168e-05
2.17204e-05
2.19861e-05
2.10894e-05
2.10236e-05
2.18095e-05
2.12299e-05
2.42485e-05
3.79705e-05
2.5233e-05
2.99221e-05
4.39043e-05
2.1394e-05
2.12735e-05
3.00588e-05
2.06723e-05
2.88319e-05
2.1085e-05
2.1343e-05
2.67128e-05
3.47712e-05
2.1159e-05
2.48175e-05
2.61143e-05
2.12842e-05
2.47269e-05
2.14167e-05
3.04481e-05
2.21629e-05
6.63726e-05
2.11779e-05
2.1044e-05
7.51653e-05
0.000603057
2.16103e-05
2.92442e-05
0.000507218
0.000442368
2.14639e-05
0.000395504
2.46033e-05
2.90456e-05
2.14808e-05
0.00166479
2.14255e-05
3.06997e-05
2.24328e-05
2.57098e-05
4.8368e-05
2.09895e-05
4.9896e-05
2.13071e-05
0.0017615
2.2524e-05
2.16495e-05
2.11743e-05
2.91671e-05
7.16894e-05
2.30886e-05
2.11231e-05
2.40084e-05
3.99403e-05
2.75327e-05
2.1278e-05
9.17453e-06
4.90119e-05
2.17363e-05
4.9691e-05
2.13418e-05
1.34015e-05
5.64386e-05
2.15043e-05
2.09887e-05
2.14865e-05
2.14563e-05
2.12114e-05
2.49657e-05
2.74581e-05
5.45854e-05
0.0107757
2.18526e-05
2.11424e-05
1.99183e-05
2.15498e-05
2.30479e-05
2.2072e-05
2.25504e-05
5.813e-05
2.21975e-05
2.67413e-05
2.10663e-05
4.30778e-05
2.2021e-05
2.18612e-05
2.14736e-05
6.45345e-05
5.64718e-05
2.2063e-05
0.000158985
0.00878153
0.000931793
2.11065e-05
2.44156e-05
2.12595e-05
2.12467e-05
0.00012825
2.13711e-05
2.42663e-05
2.1457e-05
2.12687e-05
2.10982e-05
0.00597924
0.00974247
2.1381e-05
2.10554e-05
2.11411e-05
4.91082e-05
0.000381219
0.0062018
3.07705e-05
4.26541e-05
2.10493e-05
3.16567e-05
2.57108e-05
4.35784e-05
3.02308e-05
2.13062e-05
3.11504e-05
4.06825e-05
2.39981e-05
2.24086e-05
2.14043e-05
2.96284e-05
2.12853e-05
2.30069e-05
2.13748e-05
2.11536e-05
3.86337e-05
5.54674e-05
2.57033e-05
3.07802e-05
2.44897e-05
2.15574e-05
8.32636e-05
2.0783e-05
2.62531e-05
3.02138e-05
3.05723e-05
2.11405e-05
6.32763e-05
3.59045e-05
3.96508e-05
3.96555e-05
0.00100751
3.59973e-05
2.19698e-05
2.26749e-05
2.52535e-05
2.45732e-05
3.83234e-05
0.00126551
2.20493e-05
2.18971e-05
2.39045e-05
2.81777e-05
5.21983e-05
2.11355e-05
2.27525e-05
2.14267e-05
2.98286e-05
2.17623e-05
3.6213e-05
3.38774e-05
2.1462e-05
2.12768e-05
4.17608e-05
2.16406e-05
0.000126857
8.7811e-05
2.47952e-05
2.10483e-05
2.16505e-05
2.44584e-05
2.14804e-05
2.57804e-05
2.14395e-05
2.32396e-05
2.25833e-05
2.11794e-05
0.000281282
2.11367e-05
2.15001e-05
2.12238e-05
2.21684e-05
3.24748e-05
2.62704e-05
0.00820992
3.30445e-05
2.14701e-05
2.29283e-05
4.23598e-05
2.11729e-05
2.11104e-05
2.30334e-05
2.16787e-05
2.10799e-05
2.12011e-05
2.24766e-05
2.20611e-05
2.16314e-05
0.00129714
2.10525e-05
2.10194e-05
2.23277e-05
5.8819e-05
7.66407e-05
2.65729e-05
5.18357e-05
2.49966e-05
5.32278e-05
2.3614e-05
2.10829e-05
2.09878e-05
3.46898e-05
2.16771e-05
2.15778e-05
2.10509e-05
2.11634e-05
2.70799e-05
0.00134877
5.7499e-05
2.10256e-05
6.29233e-05
0.00326079
2.09769e-05
2.73008e-05
2.09894e-05
2.49329e-05
2.1018e-05
4.62254e-05
2.22883e-05
2.12486e-05
0.00563047
4.14673e-05
4.84795e-05
3.09697e-05
2.14068e-05
3.80043e-05
2.27969e-05
2.54909e-05
2.10057e-05
0.00420622
3.37893e-05
2.201e-05
2.11087e-05
2.38375e-05
2.10445e-05
2.17045e-05
5.60109e-05
2.28596e-05
9.13633e-05
2.11909e-05
2.42372e-05
0.00209835
2.53549e-05
3.57644e-05
5.38832e-05
0.0027674
2.0992e-05
0.00133807
2.10369e-05
0.000720488
2.95995e-05
2.14334e-05
2.14482e-05
4.03547e-05
2.28445e-05
2.70063e-05
4.70714e-05
2.19186e-05
2.12154e-05
2.14374e-05
2.38331e-05
2.12727e-05
2.45245e-05
2.85596e-05
2.348e-05
2.25132e-05
3.01802e-05
2.18069e-05
2.13904e-05
0.000996835
2.21343e-05
4.2296e-05
6.66316e-05
2.16599e-05
2.19176e-05
2.7598e-05
2.55981e-05
0.00682656
3.3297e-05
2.23633e-05
0.00220936
0.0175548
2.11268e-05
2.48106e-05
5.5272e-05
2.15045e-05
2.13114e-05
2.82319e-05
2.21997e-05
4.23624e-05
2.37236e-05
0.0110948
3.10597e-05
2.14141e-05
4.69227e-05
2.126e-05
2.15581e-05
2.10768e-05
4.37231e-05
2.39875e-05
2.179e-05
2.18602e-05
2.90768e-05
2.13673e-05
2.17277e-05
2.23535e-05
0.000611698
2.11457e-05
0.00177686
2.33899e-05
2.11132e-05
4.12615e-05
2.12452e-05
3.28055e-05
5.38011e-05
2.22743e-05
6.33499e-05
2.12203e-05
2.20584e-05
2.2191e-05
2.13933e-05
2.13798e-05
2.6992e-05
2.12714e-05
0.000865896
2.15018e-05
2.6675e-05
2.14697e-05
2.10186e-05
2.14151e-05
3.88284e-05
2.12321e-05
2.27063e-05
2.71129e-05
5.12818e-05
2.12442e-05
2.72486e-05
0.000372445
4.12621e-05
0.000921069
0.000237969
6.75763e-05
4.04818e-05
9.64358e-06
2.08152e-05
2.14023e-05
2.50337e-05
0.000101613
5.32638e-05
2.11547e-05
2.14471e-05
2.19736e-05
3.57002e-05
3.84253e-05
5.0449e-05
0.00742831
2.11612e-05
3.67871e-05
4.68275e-05
2.11599e-05
2.10499e-05
2.38335e-05
8.07779e-05
0.00185189
2.1531e-05
2.14241e-05
3.43607e-05
2.11985e-05
4.89584e-05
0.00633304
2.18856e-05
4.02783e-05
0.00531247
2.15361e-05
2.37332e-05
2.11762e-05
2.10755e-05
3.79846e-05
6.90299e-05
2.59133e-05
5.46435e-05
4.90842e-05
2.12424e-05
2.1614e-05
4.66006e-05
2.15825e-05
2.11802e-05
0.000880189
2.19986e-05
3.73065e-05
2.12139e-05
0.00111803
2.19163e-05
0.000556834
2.11149e-05
2.1572e-05
2.89799e-05
1.98315e-05
3.16851e-05
3.71048e-05
5.55003e-05
2.1321e-05
2.10908e-05
0.000904218
0.00114685
0.000775061
2.13458e-05
0.00096289
0.000715422
2.19216e-05
2.11244e-05
2.24691e-05
5.1478e-05
2.28519e-05
2.143e-05
4.48937e-05
6.29636e-05
0.000687874
0.00101316
0.000287925
7.87833e-05
2.17191e-05
2.81029e-05
1.97142e-05
4.80203e-05
4.2516e-05
2.1088e-05
2.20772e-05
2.13053e-05
5.77853e-05
2.11323e-05
0.000134377
2.55924e-05
2.74668e-05
2.12183e-05
3.4451e-05
3.00205e-05
2.10144e-05
6.16702e-05
2.89114e-05
7.16329e-05
2.28108e-05
0.000416058
2.15089e-05
2.17727e-05
2.11895e-05
2.11341e-05
0.000430173
2.14093e-05
2.35376e-05
0.000370508
8.98076e-05
5.45878e-05
0.00080768
2.13845e-05
2.3598e-05
2.1277e-05
0.000136403
2.13847e-05
5.43103e-05
2.13832e-05
5.25897e-05
2.13239e-05
0.000867223
2.1353e-05
2.1141e-05
2.0993e-05
7.39665e-05
0.000338226
2.12555e-05
0.0196428
2.1071e-05
2.10141e-05
2.10031e-05
3.21539e-05
2.16157e-05
2.25251e-05
2.13934e-05
9.83667e-05
3.96341e-05
2.10124e-05
2.13988e-05
2.12391e-05
2.65357e-05
2.15253e-05
2.51935e-05
3.17389e-05
3.10817e-05
2.43478e-05
0.000387196
3.61758e-05
2.16878e-05
4.34259e-05
3.35508e-05
2.11405e-05
2.27717e-05
2.11826e-05
2.50557e-05
2.1456e-05
5.48759e-05
2.73193e-05
3.25723e-05
2.11954e-05
2.18372e-05
5.50398e-05
2.1582e-05
2.11747e-05
2.13236e-05
2.31203e-05
0.000103781
2.13858e-05
4.64974e-05
2.13028e-05
2.09962e-05
2.11452e-05
6.08472e-05
4.61376e-05
2.39649e-05
2.12552e-05
2.58565e-05
2.09864e-05
2.09928e-05
2.10354e-05
2.14468e-05
5.44132e-05
5.1861e-05
0.000331647
3.22353e-05
2.20385e-05
2.10368e-05
2.40639e-05
0.000792857
0.0182311
4.06946e-05
2.09875e-05
2.10333e-05
2.1364e-05
2.10602e-05
0.000204996
6.40554e-05
2.2338e-05
0.00134285
7.90135e-05
2.95086e-05
2.14249e-05
4.75894e-05
7.78062e-05
0.000766786
2.10591e-05
0.00416691
4.0242e-05
2.33931e-05
2.11077e-05
0.000544959
3.15296e-05
0.000178854
4.90625e-05
3.31406e-05
4.94981e-05
2.13289e-05
0.000108602
2.12614e-05
2.01512e-05
4.90813e-05
6.92069e-05
2.14394e-05
2.33896e-05
7.06847e-05
4.204e-05
2.18246e-05
2.10525e-05
9.69258e-05
2.09777e-05
3.18821e-05
2.14116e-05
2.16476e-05
2.10659e-05
0.000108188
2.14925e-05
2.23396e-05
2.57714e-05
2.46014e-05
2.24283e-05
3.43878e-05
2.12769e-05
2.1317e-05
8.78556e-05
2.33088e-05
2.18433e-05
4.18243e-05
2.99853e-05
2.18661e-05
7.61261e-05
2.19954e-05
2.13662e-05
2.08369e-05
2.61357e-05
2.13147e-05
3.17069e-05
2.12659e-05
2.28604e-05
2.97585e-05
2.5482e-05
6.0573e-05
0.00654524
6.70468e-05
0.000777605
2.13045e-05
2.31081e-05
0.00992249
3.70322e-05
2.16852e-05
2.31661e-05
2.14539e-05
0.000340308
3.14328e-05
0.00731717
2.26953e-05
2.4095e-05
6.96507e-05
0.00323599
2.13576e-05
0.000853223
8.62338e-05
6.53311e-05
4.68409e-06
3.33245e-05
2.67732e-05
2.18029e-05
4.74266e-05
2.11615e-05
2.12277e-05
5.397e-05
2.92352e-05
2.38935e-05
2.21951e-05
2.14719e-05
2.12575e-05
2.33691e-05
5.08253e-05
2.14126e-05
2.62197e-05
4.29813e-05
6.43613e-05
2.17253e-05
5.58509e-05
0.0111741
3.01222e-05
2.12913e-05
2.23178e-05
2.18862e-05
3.75238e-05
4.68226e-05
2.15748e-05
2.16403e-05
2.21823e-05
3.66319e-05
2.15677e-05
5.66494e-05
2.11618e-05
3.27315e-05
3.76169e-05
2.53934e-05
7.50368e-05
3.20766e-05
1.97662e-05
2.13299e-05
7.46493e-05
0.000998915
2.15644e-05
3.31013e-05
3.98997e-05
3.69622e-05
4.2261e-05
2.1512e-05
5.16386e-05
2.11077e-05
1.40944e-05
1.97052e-05
2.34936e-05
2.14428e-05
2.52794e-05
2.83237e-05
2.13826e-05
2.26594e-05
2.10905e-05
2.25728e-05
2.09953e-05
2.10047e-05
6.81684e-05
2.18876e-05
2.25431e-05
2.10044e-05
0.000234941
3.48326e-05
2.13579e-05
2.88158e-05
2.14462e-05
2.57454e-05
3.32901e-05
4.86694e-05
2.21754e-05
2.18714e-05
4.80639e-05
0.000455034
2.25754e-05
2.17857e-05
0.000175986
2.10896e-05
5.67169e-05
2.5457e-05
2.12624e-05
2.00836e-05
2.6551e-05
0.00489159
2.15201e-05
2.13122e-05
2.11591e-05
2.19875e-05
0.00240665
4.16064e-05
0.000173241
2.28641e-05
2.30175e-05
9.48204e-05
2.11008e-05
2.10556e-05
0.00178472
4.36186e-05
0.00233957
2.45005e-05
2.03035e-05
0.000944984
0.000176078
2.44414e-05
2.41114e-05
2.1639e-05
2.15232e-05
2.10124e-05
4.47245e-05
2.23463e-05
2.15784e-05
2.28254e-05
5.4621e-05
2.3746e-05
4.22416e-05
6.11313e-05
2.35911e-05
2.55393e-05
2.10106e-05
2.84212e-05
0.000384644
5.12619e-05
2.11406e-05
2.16302e-05
2.26696e-05
0.000947484
3.8064e-05
0.000329563
2.35287e-05
2.1329e-05
2.09785e-05
7.19434e-05
0.000511798
2.10216e-05
2.10042e-05
5.85581e-05
3.9602e-05
2.17404e-05
2.31441e-05
6.73283e-05
2.27781e-05
2.50567e-05
7.56077e-05
0.00129816
2.21961e-05
2.10263e-05
4.42476e-05
2.15001e-05
2.12387e-05
5.67903e-05
2.16863e-05
6.84769e-05
2.14256e-05
2.13546e-05
2.10975e-05
5.43791e-05
3.00136e-05
2.10452e-05
3.38367e-05
2.28378e-05
2.1055e-05
2.15599e-05
2.12859e-05
2.1237e-05
2.89203e-05
2.7747e-05
2.37501e-05
2.72414e-05
2.60649e-05
2.11836e-05
1.85625e-05
4.30358e-05
2.23725e-05
9.40798e-05
0.000226656
3.24623e-05
3.21262e-05
2.11727e-05
3.5633e-05
2.1838e-05
3.00787e-05
3.10455e-05
2.26006e-05
4.44359e-05
2.20721e-05
3.35841e-05
6.35375e-05
2.65597e-05
2.51842e-05
2.10789e-05
2.23469e-05
3.67839e-05
2.42505e-05
2.40887e-05
2.15544e-05
2.10565e-05
8.35312e-05
2.50055e-05
4.54023e-05
3.12826e-05
2.52281e-05
0.00027339
2.11132e-05
0.000100677
3.25208e-05
1.78786e-05
4.75502e-05
4.52136e-05
0.000260434
1.89392e-05
3.18555e-05
3.28051e-05
2.11093e-05
3.12835e-05
2.11962e-05
2.75054e-05
2.12345e-05
5.74891e-05
2.16252e-05
2.50647e-05
4.04757e-05
2.16221e-05
0.000597504
2.118e-05
2.11418e-05
2.31531e-05
4.75555e-05
2.12708e-05
2.11577e-05
3.07201e-05
4.29412e-05
2.11743e-05
2.11782e-05
5.18292e-05
2.12407e-05
3.17942e-05
2.13368e-05
2.36864e-05
2.09987e-05
2.92461e-05
2.14022e-05
3.62084e-05
6.02477e-05
2.18029e-05
8.3766e-05
8.43253e-05
2.96986e-05
2.37237e-05
0.00526042
2.86012e-05
0.00586073
2.21543e-05
4.12948e-05
5.46709e-05
2.13389e-05
2.12662e-05
2.11709e-05
0.000191204
2.12254e-05
1.1006e-05
2.12587e-05
2.10596e-05
2.12127e-05
2.18155e-05
3.0283e-05
5.36177e-05
2.16782e-05
2.64625e-05
2.18787e-05
3.258e-05
3.81787e-05
2.10989e-05
2.52073e-05
0.000228084
0.00010251
1.12886e-05
2.81308e-05
2.14618e-05
3.88195e-05
5.48078e-05
4.08236e-05
0.000157886
2.36464e-05
3.5893e-05
2.25824e-05
0.000423864
3.92601e-05
8.56976e-05
3.74444e-05
4.70662e-05
3.19713e-05
2.22447e-05
2.33991e-05
2.12301e-05
3.62438e-05
9.48817e-05
2.17404e-05
2.1568e-05
3.10221e-05
2.12906e-05
2.72302e-05
4.27898e-05
2.14847e-05
5.4421e-05
2.18167e-05