/*--------------------------------*- C++ -*----------------------------------*\
| =========                 |                                                 |
| \\      /  F ield         | OpenFOAM: The Open Source CFD Toolbox           |
|  \\    /   O peration     | Version:  v2012                                 |
|   \\  /    A nd           | Website:  www.openfoam.com                      |
|    \\/     M anipulation  |                                                 |
\*---------------------------------------------------------------------------*/
FoamFile
{
    version     2.0;
    format      ascii;
    class       volScalarField;
    location    "0.303903";
    object      epsilon;
}
// * * * * * * * * * * * * * * * * * * * * * * * * * * * * * * * * * * * * * //

dimensions      [0 2 -3 0 0 0 0];


internalField   nonuniform List<scalar> 
83563
(
3.94301e-05
3.97199e-05
6.33708e-05
5.87174e-05
3.58955e-05
0.000156763
4.02254e-05
0.000374217
0.000249494
0.00352379
0.000118706
4.23947e-05
10.0944
3.8335e-05
0.000230792
0.000245191
3.81792e-05
3.84867e-05
0.000196668
3.86869e-05
3.83189e-05
3.8922e-05
0.000553069
0.000613874
3.81236e-05
4.05293e-05
3.89025e-05
0.0042608
4.25878e-05
3.92398e-05
5.2177e-05
3.95014e-05
4.68548e-05
3.92657e-05
3.91063e-05
4.93327e-05
3.69265e-05
3.8472e-05
4.22645e-05
0.00105249
3.88849e-05
7.67048e-05
4.51705e-05
4.82878e-05
9.72787
0.00191467
4.15436e-05
0.000715527
1.99574e-05
0.000936267
2.26711
0.000141726
0.298561
0.854243
0.000123272
9.95882
3.88797e-05
0.933597
0.910587
0.000439121
0.841229
0.0523578
1.97046e-05
4.88041e-05
1.07122
0.459103
0.109476
6.9822e-05
3.23282
1.60621
9.21513e-05
2.43365
3.85252e-05
15.5202
4.98628e-05
7.36034e-05
1.86096e-05
3.89361e-05
3.97971e-05
21.1327
4.20574e-05
3.91929e-05
4.23144e-05
0.0493723
2.45473e-05
3.92953e-05
3.81537e-05
9.66748e-05
3.89428e-05
3.38554e-05
0.000403701
3.90897e-05
0.00730847
0.00747143
0.268322
0.000895964
0.0338555
0.00867491
1.61465e-05
0.000395666
9.02044e-05
4.28877e-05
0.000129709
3.91649e-05
0.000176996
4.78572e-05
7.46187e-05
3.98751e-05
0.147936
3.88539e-05
0.00170189
0.000206054
0.000134973
8.40105e-05
3.07813e-05
3.93165e-05
0.000230032
0.00116992
6.86867e-05
3.9703e-05
0.000220481
4.54374e-05
0.000687257
0.0561339
0.00112515
3.94504e-05
0.0190483
4.05493e-05
0.000674787
1.96672e-05
0.00199901
1.95919e-05
0.000121536
0.0215525
5.48936e-05
3.83778e-05
0.00114418
3.93222e-05
4.52131e-05
2.44239
5.77467e-05
1.46043
1.91951e-05
0.000118539
6.10207e-05
1.23323
9.02961e-05
4.16984e-05
0.000115731
4.65842e-05
6.61023e-05
3.80313e-05
4.0764e-05
0.000181846
3.94195e-05
4.034e-05
3.91512e-05
1.81082e-05
2.83238e-05
0.00352342
0.000314639
3.90685e-05
3.93686e-05
4.11925e-05
0.00103601
0.000938605
3.96055e-05
6.15879e-05
3.8777e-05
0.00101022
3.96557e-05
4.17808e-05
0.000431929
0.000393911
0.000508553
3.06076e-05
5.71789e-05
7.07546e-05
0.000209586
4.00985e-05
5.33716e-05
3.9467e-05
0.00018187
5.16007e-05
0.00290584
0.00665751
0.000137878
3.96602e-05
0.000855352
4.18157e-05
4.17126e-05
0.00658389
0.0037443
0.000682891
2.05386e-05
0.00255114
0.000104799
0.000666791
4.087e-05
0.000228842
0.000406266
4.39272e-05
0.00310886
3.88264e-05
0.00627274
0.00282759
4.58513e-05
0.00051774
3.88494e-05
4.34824e-05
0.000590225
0.0234615
3.93987e-05
4.01609e-05
7.14667e-05
0.000106666
0.000195159
4.01276e-05
4.00957e-05
2.42759e-05
2.82686e-05
1.7456e-05
5.08038e-05
4.8266e-05
0.00800606
3.8855e-05
0.0369333
3.82286e-05
4.23477e-05
0.00578936
3.83899e-05
4.38629e-05
3.84826e-05
4.76014e-05
2.06075e-05
3.83242e-05
0.000461612
4.33193e-05
3.9827e-05
3.90264e-05
0.000614987
0.000143877
2.15276e-05
3.96649e-05
9.07199e-05
4.05826e-05
0.758545
4.11798e-05
0.112482
6.90344e-05
0.000413732
3.46749e-05
5.69909e-05
0.00114114
5.73706e-05
5.71372e-05
3.91451e-05
0.000414976
3.93819e-05
5.44454e-05
5.10452e-05
0.00012115
0.0244671
0.000324043
3.60652e-05
5.10405e-05
0.000268946
0.000190456
4.03846e-05
4.11686e-05
0.00031589
0.00142398
9.05159e-05
0.000121484
0.000932989
4.41368e-05
0.00420419
0.000201725
4.60355e-05
2.92895e-05
0.000527436
4.60171e-05
3.96577e-05
0.00124972
0.000255813
3.90829e-05
2.24016e-05
5.06921e-05
4.00747e-05
2.89698e-05
0.00100955
3.96614e-05
0.00694574
3.88874e-05
3.996e-05
0.000418965
0.000110398
0.000125666
2.94389e-05
3.60116e-05
3.72132e-05
4.79757e-05
4.82437e-05
3.83943e-05
3.83484e-05
0.00288439
0.00386027
0.677616
0.000188903
0.000732472
0.000131262
3.74641e-05
0.377216
0.000268115
0.0233639
4.65181e-05
0.0071402
0.000408695
3.98092e-05
2.36168e-05
0.0045105
0.000475717
3.84341e-05
6.3864e-05
2.4797e-05
4.04771e-05
0.0040188
0.211679
7.12292e-05
0.000114192
0.000195853
4.03385e-05
3.99699e-05
0.199179
3.98562e-05
4.05282e-05
0.000184557
2.98277
0.000559092
3.96668e-05
1.83365
0.743991
4.29692e-05
3.92049e-05
6.81261e-05
4.187e-05
0.000743909
0.000105997
0.000921006
4.15829e-05
3.87653e-05
7.04457e-05
6.27457e-05
4.13799e-05
1.24496
3.86765e-05
0.00100848
0.000224164
3.73324e-05
0.0373054
0.0691459
0.0259983
0.00635609
0.000140815
0.00122732
0.00420368
0.041128
0.000186699
4.40514e-05
3.8462e-05
4.43317e-05
0.000221262
0.00040992
63.9262
17.3253
5.36947e-05
5.1342e-05
4.99347e-05
4.52432e-05
4.82017e-05
4.27483e-05
4.02997e-05
4.4513e-05
4.00708e-05
5.37335e-05
0.0144284
6.19258e-05
0.000268652
0.000836139
0.000126242
0.00166154
7.64699e-05
6.94786e-05
0.00475776
3.43278e-05
0.00105583
0.00018067
0.000230043
4.4222e-05
3.83761e-05
2.27101e-05
3.90796e-05
3.8245e-05
7.76948e-05
0.00318636
4.57642e-05
58.687
5.66877e-05
3.86826e-05
9.64813e-05
0.529199
2.05662e-05
4.42642e-05
3.9674e-05
0.219221
5.07958e-05
5.15067e-05
1.36622e-05
0.00291098
5.60961e-05
3.91131e-05
4.09177e-05
0.76854
3.97168e-05
0.000926258
0.732823
7.84117e-05
0.00243877
3.87822e-05
7.49076e-05
4.34735e-05
4.64601e-05
7.15164e-05
4.35914e-05
0.398239
0.000302889
0.000161927
4.39298e-05
0.00020149
0.0124885
0.000513756
8.14629e-05
4.12079e-05
3.95625e-05
0.000137946
8.85507e-05
0.00012517
0.000507744
3.44383e-05
0.385322
0.000629929
6.56424e-05
4.54195e-05
5.28986e-05
0.000440406
0.000816761
4.04855e-05
3.94556e-05
3.98455e-05
0.000100901
4.11583e-05
0.400738
4.62459e-05
4.0509e-05
4.41975e-05
4.01998e-05
4.04144e-05
4.26479e-05
6.01008e-05
0.000108712
0.000208617
8.07059e-05
5.00473e-05
0.00019575
5.57696e-05
0.00213756
4.90895e-05
8.81818e-05
7.07667e-05
4.07494e-05
4.90698e-05
4.1712e-05
7.58654e-05
2.26184e-05
3.88753e-05
4.61338e-05
4.33999e-05
0.000421852
0.000279329
3.95074e-05
3.87496e-05
5.67653e-05
7.86358e-05
0.082264
0.00490519
2.51502e-05
4.65332e-05
7.45266e-05
7.35352e-05
4.09101e-05
3.93261e-05
0.000109112
4.55531e-05
4.13007e-05
0.000292131
4.07405e-05
2.55505e-05
0.000667179
0.000105452
0.000317217
3.92594e-05
3.86203e-05
3.83509e-05
3.83617e-05
5.34351e-05
4.47936e-05
1.9132e-05
0.0678234
0.162642
4.78448e-05
0.000187638
0.000873572
0.000121066
7.0293e-05
0.000444066
4.5431e-05
0.000268641
0.778271
4.10491e-05
5.57767e-05
4.34001e-05
3.97595e-05
8.44259e-05
5.85567e-05
4.19191e-05
4.34946e-05
0.0702446
0.00262285
0.000160917
0.137061
0.000186031
4.16787e-05
0.516179
3.97579e-05
4.29203e-05
0.000383981
5.18215e-05
0.000335444
0.264746
0.000404428
9.63856e-05
4.49075e-05
0.00014213
0.00130246
4.0082e-05
0.000255927
6.36717e-05
0.0306763
0.133906
3.84261e-05
0.00040351
0.662704
4.28483e-05
0.000205345
0.00095222
4.05286e-05
0.0132581
4.04708e-05
4.03981e-05
0.000152628
0.044841
0.000505676
3.98732e-05
0.00011612
0.0893144
0.000530691
6.03753e-05
4.06671e-05
5.56421e-05
4.04861e-05
4.31094e-05
14.1217
4.04132e-05
5.89801e-05
5.94852e-05
4.63747e-05
3.88612e-05
5.0863e-05
3.88337e-05
10.1756
3.8322e-05
4.18179e-05
3.8582e-05
4.24119e-05
8.42837e-05
3.82822e-05
3.86949e-05
3.83875e-05
3.89185e-05
4.065e-05
4.66249e-05
3.96603e-05
3.81445e-05
3.83997e-05
4.55789e-05
5.99418e-05
0.0343452
0.0001291
3.86093e-05
3.87759e-05
4.30822e-05
3.95127e-05
3.91168e-05
4.50359e-05
0.0152847
6.06613e-05
0.000161349
4.18319e-05
0.00158295
0.000233597
0.000121064
0.00318965
0.000173756
4.12195e-05
4.13401e-05
8.3622e-05
7.73636e-05
4.07932e-05
8.96905e-05
3.91893e-05
2.52307e-05
4.83565e-05
4.87337e-05
5.14029e-05
3.81187e-05
0.00149144
0.000123746
0.000517226
3.854e-05
4.11475e-05
6.22693e-05
0.00140768
0.00186153
3.9046e-05
1.89729e-05
3.83241e-05
3.8224e-05
3.87372e-05
0.591992
0.000179347
9.76814e-05
0.000167507
0.000719341
0.00127485
0.00273318
4.0441e-05
0.000329481
4.0624e-05
4.12589e-05
6.90281e-05
4.6227e-05
0.159412
4.70908e-05
5.82093e-05
0.193097
3.8661e-05
3.6736e-05
3.8479e-05
4.29633e-05
0.00308527
0.000126057
8.74799e-05
4.23203e-05
0.00021605
0.00115473
0.000104373
0.000118561
0.000122807
6.29382e-05
0.000147106
0.246017
0.00018839
0.00284526
0.706535
3.96541e-05
5.1083e-05
0.00122603
4.46469e-05
0.013994
9.84094e-05
6.63234e-05
5.44212e-05
4.77345e-05
0.00118435
0.00598691
0.175391
4.8136e-05
0.00616245
4.9808e-05
8.80973e-05
0.000121109
3.57657e-05
3.82605e-05
4.29303e-05
0.00188341
0.000182622
3.91151e-05
5.97437e-05
0.000213326
9.30947e-05
3.88296e-05
7.50088e-05
3.97342e-05
3.77717e-05
8.1656e-05
3.98258e-05
3.89326e-05
3.53087e-05
0.000130289
0.000281305
3.95649e-05
0.00250405
3.85636e-05
7.55369e-05
4.03574e-05
1.55118e-05
1.39798
107.24
6.79009e-05
0.333532
3.96058e-05
3.89663e-05
4.64346e-05
0.000733105
0.983935
0.000260479
3.76262e-05
3.71315e-05
1.33131
3.95918e-05
6.89583e-05
0.000382089
4.04209e-05
0.000813784
0.000150809
5.71525e-05
5.90466e-05
0.00132559
0.0928537
4.55772e-05
6.45678e-05
6.66801e-05
3.8278e-05
0.313994
0.000126238
0.000672764
3.88438e-05
3.67826e-05
0.00164021
4.37581e-05
3.89977e-05
3.85767e-05
0.363811
3.89336e-05
0.000458527
4.33584e-05
3.83188e-05
4.01073e-05
0.000179766
2.56044e-05
6.83699e-05
3.85745e-05
3.88631e-05
0.000101449
4.7187e-05
5.34553e-05
3.99843e-05
0.0302197
4.02385e-05
6.63713e-05
0.000135185
0.0102593
0.667705
3.32976
3.86834e-05
2.29669
4.22951e-05
0.000287496
4.63617e-05
0.000295977
0.000841776
0.00283052
4.72967e-05
0.0951487
0.000200252
0.000159816
5.45934e-05
3.87954e-05
3.88141e-05
5.74032e-05
0.000114484
4.13863e-05
0.00106021
3.96615e-05
3.9554e-05
4.0539e-05
0.000279603
0.509194
0.0515914
0.000478422
4.31017e-05
3.64641e-05
0.026355
0.0103388
0.00471973
0.00330096
3.89636e-05
0.00118422
4.26209e-05
3.90341e-05
0.000370203
7.59897e-05
0.0183319
0.000285563
0.000108543
0.000775306
0.00128225
1.79055e-05
6.90008
4.182e-05
3.94661e-05
0.000105522
4.16461e-05
0.000261924
4.75891e-05
3.85661e-05
3.91066e-05
1.83433e-05
6.76504e-05
0.000167809
3.57747
9.09441
3.88765e-05
3.98183e-05
6.10955e-05
1.3947
0.000458582
4.27209e-05
0.000404729
18.2543
5.09415e-05
3.86862e-05
4.10671e-05
3.85036e-05
5.82632e-05
7.8909
3.85102e-05
0.000337953
0.000434096
0.000139724
4.14711e-05
4.20123e-05
3.64122e-05
3.92552e-05
0.000673899
3.10651e-05
0.000947069
4.2633e-05
7.05165e-05
4.0743e-05
7.65633e-05
0.00673517
0.000434863
3.5259e-05
4.84618e-05
6.03885e-05
3.90782e-05
3.98229e-05
3.78461e-05
3.9413e-05
3.81392e-05
3.41887e-05
4.39984e-05
4.09455e-05
3.89456e-05
0.0619484
0.00213351
5.25493e-05
0.0752064
0.832706
4.63325e-05
0.00975874
4.01328e-05
4.13959e-05
3.88599e-05
4.12252e-05
0.000134314
4.00393e-05
0.000123635
8.00552e-05
4.17206e-05
3.94595e-05
4.36347e-05
6.4392e-05
3.9982e-05
4.34328e-05
6.37217e-05
3.9085e-05
6.58894e-05
0.000115826
3.9711e-05
4.74208e-05
3.83901e-05
0.000101142
4.96064e-05
0.227885
0.604176
4.19579e-05
0.0422192
3.84567e-05
2.65944e-05
0.000439702
0.000259835
0.000357893
3.9562e-05
4.22484e-05
0.000236902
4.19376e-05
0.286827
4.15472e-05
8.67901e-05
0.000562428
0.000425304
0.000118136
0.855022
0.000159524
0.000838463
4.00993e-05
0.000236905
0.0345747
0.000201864
4.66562e-05
0.00138534
1.75675e-05
3.84071e-05
3.85003e-05
7.57179e-05
5.22458e-05
5.01739e-05
4.22096e-05
3.95238e-05
4.07786e-05
4.02398e-05
3.91017e-05
3.81945e-05
0.000288346
0.173019
4.55016e-05
3.81645e-05
3.86033e-05
0.000263713
3.84084e-05
4.10185e-05
3.91655e-05
0.00145219
0.00102567
0.000100756
3.86257e-05
0.00130833
0.000125826
0.000262312
5.06975e-05
3.36215e-05
3.79774e-05
4.40356e-05
0.000753546
4.36932e-05
4.62832e-05
3.89807e-05
6.50873e-05
3.78638e-05
0.000295376
6.30807e-05
3.97225e-05
3.85407e-05
0.000103258
0.00055318
0.000305771
3.71656e-05
5.14486e-05
0.00148183
0.000281031
3.91678e-05
3.92061e-05
3.85201e-05
2.95022e-05
0.00096599
0.000432546
0.000596273
0.000165359
7.76905e-05
3.90498e-05
3.82573e-05
4.27501e-05
0.0643898
5.06643e-05
0.00028068
0.00180471
0.00145651
0.000107026
7.29051e-05
4.38906e-05
8.09843e-05
4.07545e-05
8.67724e-05
0.000118782
0.000107688
0.000624127
0.000570301
5.26788e-05
2.94387e-05
4.67502e-05
0.000273941
6.36746e-05
4.07196e-05
3.97961e-05
3.83371e-05
0.000676114
3.56831e-05
4.04296e-05
0.00290682
0.000103546
6.17758e-05
1.95462e-05
3.3702e-05
3.82746e-05
3.51961e-05
3.99127e-05
6.33992e-05
4.29911e-05
4.10826e-05
0.000301273
4.49364e-05
0.00206728
3.81582e-05
0.00177432
2.66884e-05
4.51019e-05
14.4218
4.45241e-05
142.327
115.57
3.92236e-05
3.78653e-05
3.83303e-05
0.00022921
3.85053e-05
0.000417019
4.1697e-05
11.9605
3.887e-05
29.0211
3.19649e-05
0.156563
0.000130286
4.03252e-05
0.000141494
0.000122091
0.000157622
9.48671e-05
0.000132716
6.46707e-05
367.829
4.16386e-05
0.00272691
1.92477e-05
4.17e-05
5.30946e-05
0.000216464
6.63565
3.86446e-05
0.000281489
5.12161e-05
3.82684e-05
0.000438002
87.2359
4.14094e-05
6.31083e-05
2.31413e-05
0.00859133
10.4614
0.000874895
0.00100364
8.16395e-05
8.17497e-05
0.000582358
3.93347e-05
0.000624165
0.00151524
0.000410956
0.00125564
4.13259e-05
0.0063464
0.000730731
0.000157168
4.63259e-05
3.02831e-05
3.89003e-05
0.000909608
3.86123e-05
4.34817e-05
5.47467e-05
4.43489e-05
3.96079e-05
0.000505738
5.31823e-05
0.00117915
4.12011e-05
0.000121749
4.9291e-05
0.147246
3.84251e-05
5.6137e-05
4.00883e-05
4.60983e-05
5.51339e-05
0.00054537
3.82896e-05
0.000493352
3.68073e-05
3.99217e-05
0.000261281
1.85167e-05
4.56325e-05
3.94726e-05
3.83569e-05
3.9461e-05
0.0088412
3.67704e-05
2.50759e-05
4.76186e-05
5.90467e-05
4.05824e-05
3.8259e-05
0.0001926
5.1059e-05
1.8854e-05
0.000161441
9.00443e-05
3.87436e-05
0.000150825
4.21632e-05
3.76699e-05
4.42362e-05
4.02107e-05
0.000301793
3.8705e-05
3.83446e-05
4.02885e-05
3.66556e-05
0.000897169
3.65361e-05
0.000124409
3.70998e-05
4.25447e-05
4.1684e-05
4.48398e-05
5.63545e-05
5.5181e-05
4.33108e-05
4.07653e-05
4.66809e-05
0.000448413
4.99528e-05
7.48663e-05
7.4157e-05
0.000218973
7.11558e-05
0.00107902
3.96586e-05
4.25032e-05
2.42752e-05
0.000619931
4.07556e-05
3.80196e-05
3.89414e-05
4.09061e-05
0.00032604
0.00180691
5.64359e-05
0.000204747
7.76613e-05
0.0422275
0.0011383
0.0243533
0.000182547
3.94342e-05
5.57124e-05
4.37239e-05
0.00133213
4.25763e-05
0.0107194
3.37984e-05
4.12412e-05
0.00023835
0.00020337
4.26327e-05
0.00184417
0.000114904
4.08173e-05
4.15267e-05
0.000107557
3.96301e-05
4.03307e-05
31.6346
3.91124e-05
9.90577
0.799174
0.000263383
0.000134453
3.95972e-05
4.9014e-05
4.15666e-05
0.000374878
3.97579e-05
0.000468489
0.000184633
18.3503
0.000449289
3.94683e-05
3.97137e-05
3.977e-05
7.41078e-05
3.64149e-05
0.000208231
3.96309e-05
1.68367
0.238356
3.83737e-05
3.88652e-05
5.4131
6.29063e-05
4.05187e-05
0.000203039
4.04327e-05
4.1579e-05
1.76752
3.85448e-05
0.00330412
1.56157e-05
0.000623169
4.26482e-05
3.89577e-05
4.0032e-05
0.000956879
0.317652
0.000138149
0.000154216
3.95255e-05
0.000318247
3.83904e-05
9.95465e-05
9.25632e-05
5.02893e-05
4.4306e-05
0.00239399
4.08376e-05
2.40556e-05
1.79408e-05
4.44211e-05
0.000262958
0.00011338
4.8088e-05
4.5145e-05
2.13256e-05
6.63724e-05
3.82606e-05
0.000192384
4.10656e-05
0.000169469
7.75654
2.73695e-05
3.97629e-05
0.000123454
0.22072
0.000101974
6.23863e-05
0.000500048
4.02226e-05
1.53564
0.000104707
3.89156e-05
3.91332e-05
0.000111712
4.14991e-05
3.80623e-05
0.000584055
5.2011e-05
4.3404e-05
5.24032e-05
0.000663898
0.00107803
3.90824e-05
0.0012642
4.37729e-05
4.1805e-05
3.81373e-05
7.89123e-05
0.000323994
3.82301e-05
3.84581e-05
3.86025e-05
3.23511
3.91278e-05
3.97056e-05
3.93892e-05
0.00029585
0.0164576
3.84295e-05
0.715881
4.95558e-05
3.77159e-05
0.00370858
6.79839e-05
1.10241
0.0465912
5.2277e-05
0.00103798
0.0285344
10.0479
0.0861495
0.000487592
7.17551e-05
3.94959e-05
3.94606e-05
9.33592e-05
0.00644706
3.86119e-05
0.00332997
3.94493e-05
4.01508e-05
0.0018284
4.48922e-05
4.19982e-05
3.90921e-05
7.77026e-05
0.00106582
4.4409e-05
0.000249208
0.000197882
9.74582e-05
0.00136668
8.00108e-05
0.000380897
0.000332782
0.000316441
6.10309e-05
4.26564e-05
3.87945e-05
6.10097e-05
4.01159e-05
4.80011e-05
8.91525e-05
4.16158e-05
3.9615e-05
3.93173e-05
8.81129e-05
4.20096e-05
3.78171e-05
3.87067e-05
3.87378e-05
7.96005e-05
0.00016152
0.000222692
3.83546e-05
4.42411e-05
0.152354
4.11533e-05
4.09653e-05
0.00340975
4.14082e-05
4.23071e-05
4.80347e-05
3.81586e-05
0.0750557
3.90211e-05
0.000168067
5.07182e-05
0.00093592
4.41293e-05
3.86151e-05
3.59908e-05
0.141176
3.81458e-05
0.000125451
7.90288e-05
0.00131792
0.00311661
2.94185e-05
4.27999e-05
4.00547e-05
0.000799464
0.000324692
0.00975472
0.000476913
3.79795e-05
3.92997e-05
3.79118e-05
4.24343e-05
4.4483e-05
0.000180918
3.90523e-05
0.000206858
5.42075e-05
5.70201e-05
0.000112765
0.000302375
0.000138597
5.65193e-05
3.87602e-05
3.59787e-05
5.42669e-05
3.92689e-05
5.87837e-05
4.07288e-05
0.011948
4.38233e-05
4.0295e-05
4.21732e-05
7.62827e-05
0.000271584
0.000499504
7.57311e-05
6.05677e-05
0.000378351
0.00062862
3.95681e-05
4.02538e-05
0.269999
3.83045e-05
7.75904e-05
3.87642e-05
4.9105e-05
3.84894e-05
3.91247e-05
4.01846e-05
4.23521e-05
0.815863
4.1597e-05
0.000123464
4.40497e-05
4.75484e-05
0.000204701
3.91809e-05
8.69714e-05
4.60245e-05
0.0631919
0.081309
9.01006e-05
0.000154878
4.01415e-05
0.000220808
7.11816
4.13617e-05
3.93378e-05
0.000928826
1.3834e-05
0.57969
0.00189589
6.32121e-05
3.82173e-05
0.00019316
3.88297e-05
3.88834e-05
4.40037e-05
4.4384e-05
0.00246827
0.0803266
4.86748e-05
0.53385
0.000369472
0.000269556
8.24828e-05
0.000334677
5.26742e-05
0.312443
0.000401709
7.02812e-05
0.000126239
3.90766e-05
0.00521601
0.0645725
0.00071661
4.44979e-05
3.9084e-05
0.00328628
0.00187353
2.02277e-05
4.17819e-05
0.00138952
0.000703823
1.96324e-05
4.32929e-05
6.6013e-05
0.244343
3.84172e-05
0.0050579
4.31828e-05
5.08548e-05
3.8715e-05
3.83915e-05
3.80669e-05
3.93638e-05
7.53675e-05
0.000212267
6.15906e-05
9.10516e-05
0.000252469
4.0129e-05
3.95523e-05
0.000163928
0.00170134
8.86845e-05
3.86834e-05
7.66997e-05
0.000933188
0.000155759
3.90123e-05
6.51487e-05
6.74013e-05
3.96007e-05
6.55348e-05
4.12469e-05
9.75852e-05
0.000136068
0.000815146
3.90802e-05
3.84763e-05
0.00831324
0.14719
4.11528e-05
0.000383837
0.112789
0.0860717
4.2383e-05
0.0862805
5.70322e-05
0.000334985
4.35484e-05
1.06519
4.02479e-05
7.10523e-05
4.53013e-05
6.4018e-05
3.53946e-05
3.82284e-05
3.88585e-05
3.97292e-05
0.226435
6.82149e-05
4.36659e-05
3.90632e-05
3.18158e-05
0.00168563
4.88007e-05
3.88572e-05
5.7053e-05
3.65477e-05
3.99551e-05
3.95589e-05
0.000325816
0.000748721
5.17624e-05
0.00064216
3.98743e-05
0.000219671
0.00103429
4.07145e-05
3.82266e-05
4.28421e-05
5.32092e-05
4.00291e-05
0.000147293
0.000265916
0.000910435
66.2148
4.23416e-05
3.89394e-05
0.00066051
4.09132e-05
9.70575e-05
4.34362e-05
6.96494e-05
0.000492432
5.70941e-05
0.00011263
3.85994e-05
0.000316917
4.37634e-05
4.30479e-05
7.05223e-05
0.000760072
0.000612263
4.42323e-05
0.0129347
45.7637
2.9395
3.87655e-05
0.000129867
3.94782e-05
3.94974e-05
0.0123249
4.00856e-05
7.98158e-05
4.04169e-05
3.9525e-05
3.87616e-05
237.373
83.6387
4.00464e-05
3.84777e-05
3.89616e-05
2.07767e-05
0.734766
42.803
6.45317e-05
4.55197e-05
3.84989e-05
7.2283e-05
4.69796e-05
4.8169e-05
3.52982e-05
3.97143e-05
6.07897e-05
2.59295e-05
0.000135885
3.89741e-05
4.32841e-05
3.76985e-05
0.000129162
9.71088e-05
4.09429e-05
3.89923e-05
0.000362057
1.76233e-05
9.12103e-05
0.000159238
9.46198e-05
4.61792e-05
0.00142105
5.35822e-05
7.75671e-05
0.000216408
0.000132522
3.90581e-05
0.000734488
0.000270518
0.000335058
0.000196734
0.299867
0.000156552
3.92113e-05
6.20295e-05
6.27268e-05
6.57123e-05
0.000442415
0.208347
4.32968e-05
5.44387e-05
5.77433e-05
0.000122204
0.000389007
3.89093e-05
3.86359e-05
4.26396e-05
3.16856e-05
3.83144e-05
0.000254984
0.000196744
4.28603e-05
5.34255e-05
0.00028721
3.96923e-05
0.00558536
0.00521531
3.52154e-05
3.84947e-05
4.23054e-05
7.44253e-05
4.44765e-05
6.51659e-05
4.0317e-05
4.96281e-05
3.87865e-05
3.9164e-05
0.042425
3.892e-05
4.06546e-05
3.93017e-05
5.49104e-05
0.000126676
0.00034795
10.6518
0.000148398
4.04335e-05
4.83268e-05
2.25856e-05
3.9083e-05
4.38563e-05
8.64871e-05
4.2388e-05
3.86348e-05
4.60421e-05
3.70464e-05
3.71941e-05
4.33831e-05
0.345116
3.82586e-05
3.82686e-05
4.46778e-05
0.000172084
0.00133522
0.000257619
0.000113804
5.95841e-05
0.0022535
5.9337e-05
3.86645e-05
3.82212e-05
0.000184634
4.45801e-05
4.10771e-05
3.85136e-05
3.90211e-05
7.38589e-05
0.528555
2.19187e-05
3.83945e-05
1.7492e-05
5.12707
3.81716e-05
7.46771e-05
3.82293e-05
7.86515e-05
3.83644e-05
0.000280602
4.53619e-05
3.98196e-05
14.3567
0.000275994
0.000346628
9.5907e-05
4.01664e-05
0.000205369
7.14419e-05
6.07745e-05
3.83011e-05
9.79983
0.000734188
5.24364e-05
3.88659e-05
9.97982e-05
3.84743e-05
4.16266e-05
2.09955e-05
4.74698e-05
0.00193737
3.91592e-05
0.000117627
1.2109
3.45976e-05
3.72296e-05
0.000508903
2.74491
3.82389e-05
0.591232
3.84502e-05
0.186883
0.000184868
4.21175e-05
4.04221e-05
0.000377058
6.0228e-05
3.27891e-05
0.000383734
4.48899e-05
3.92868e-05
4.08352e-05
6.06105e-05
3.95435e-05
7.29175e-05
8.84522e-05
3.5216e-05
4.79021e-05
0.00081438
4.34362e-05
4.01117e-05
0.605958
4.59855e-05
0.000249204
1.6868e-05
4.13904e-05
4.26783e-05
7.9053e-05
6.83096e-05
1.26209
0.000134699
3.74916e-05
0.319244
3.69942
3.88484e-05
6.35725e-05
1.73269e-05
4.17726e-05
3.97414e-05
8.56133e-05
3.65715e-05
0.00033058
5.24099e-05
72.4788
0.000104381
4.35219e-05
0.000387851
3.94843e-05
4.50453e-05
3.8701e-05
0.00685022
0.00019331
4.58192e-05
4.53385e-05
0.000109176
4.20886e-05
4.17582e-05
0.000111329
0.00851748
3.89549e-05
0.604018
5.04721e-05
3.88067e-05
0.000305656
3.94644e-05
0.000371925
0.00743485
5.24298e-05
0.000691198
3.94733e-05
4.57891e-05
4.45888e-05
4.01856e-05
4.02527e-05
8.89753e-05
3.95088e-05
0.375651
0.00010612
3.41072e-05
4.2539e-05
3.83641e-05
4.02174e-05
0.000389208
3.93465e-05
5.02536e-05
7.37649e-05
0.000393216
3.80319e-05
4.07005e-05
0.0850058
0.000285671
0.335421
0.0215139
0.00134795
0.000256404
0.00025984
0.000154352
4.91367e-05
7.86441e-05
0.00783741
0.000728898
3.90984e-05
4.0742e-05
3.75486e-05
0.00017313
0.000442467
0.000347364
13.0603
3.9224e-05
0.000297192
0.00373923
3.9053e-05
3.85201e-05
0.0001002
0.00180575
0.641875
4.07783e-05
4.02852e-05
0.000156877
3.91962e-05
0.000379175
16.1321
4.43184e-05
0.000202602
6.77948
4.18056e-05
5.23952e-05
3.91133e-05
3.86232e-05
0.000205958
0.000905825
8.1689e-05
0.000335973
2.23002e-05
3.96072e-05
4.11279e-05
0.000492131
4.10102e-05
3.91023e-05
0.382476
4.37896e-05
2.75939e-05
3.94934e-05
0.723124
4.74443e-05
0.17236
3.89119e-05
4.09892e-05
0.000840222
5.55733e-05
0.00014435
0.000176286
0.000137042
3.98096e-05
3.8692e-05
0.326941
0.312428
0.920731
3.9927e-05
0.733802
0.746232
4.32163e-05
3.8994e-05
4.63984e-05
0.000777173
8.96812e-05
4.03469e-05
0.000374779
2.2881e-05
0.462274
0.669043
0.0579812
0.00271802
4.1785e-05
0.000921437
6.51742e-05
0.000485283
0.000260718
3.86835e-05
4.34562e-05
4.17165e-05
0.00163529
3.88848e-05
0.00972038
7.09946e-05
0.000220789
3.93537e-05
0.000188516
0.000131589
3.82885e-05
0.00109746
0.000103277
0.000881287
5.70646e-05
0.0911056
5.8857e-05
4.1903e-05
3.91416e-05
5.11068e-05
0.13184
4.01743e-05
5.55425e-05
0.000441248
0.0131378
0.000478206
0.0772474
4.00862e-05
5.367e-05
4.01136e-05
0.00633719
4.16442e-05
0.000561058
3.85625e-05
0.00229641
3.98934e-05
0.0372233
3.97979e-05
3.89755e-05
3.82473e-05
0.0122989
0.0599098
3.94605e-05
4.45658
3.86037e-05
3.83296e-05
0.000133019
0.000167697
4.49722e-05
6.57495e-05
4.00627e-05
0.00291028
0.000363989
3.83326e-05
4.03508e-05
4.86097e-05
0.000167197
4.1528e-05
5.97283e-05
0.000124287
0.000296241
5.97433e-05
0.0506901
0.000152813
4.14994e-05
0.000396373
0.000250733
3.90089e-05
5.42899e-05
3.91188e-05
8.67043e-05
4.04015e-05
1.73641e-05
3.20818e-05
0.000132302
3.92515e-05
5.58147e-05
0.000842831
4.14656e-05
3.90907e-05
3.98169e-05
0.000116586
0.00912858
4.03739e-05
2.22003e-05
3.99452e-05
3.81382e-05
3.837e-05
0.000973192
2.17086e-05
3.54054e-05
3.94592e-05
8.55091e-05
3.82122e-05
3.81375e-05
3.84343e-05
9.4503e-05
0.000671627
0.00081933
0.106045
0.000214786
4.36272e-05
3.84482e-05
3.4349e-05
0.550943
9.56274
0.000469646
3.82199e-05
3.84301e-05
4.01285e-05
3.85582e-05
0.0344743
0.00142559
5.79499e-05
0.615528
1.41344e-05
9.52344e-05
4.02143e-05
0.000934889
0.00137931
0.245266
3.86441e-05
0.869795
0.000250901
6.99463e-05
3.878e-05
0.15921
0.000215257
0.013917
0.000476469
0.000164165
0.000355569
3.99154e-05
0.0144199
3.982e-05
0.000117962
0.000581025
0.00144509
4.06341e-05
8.75624e-05
0.00082383
0.000297159
4.22117e-05
5.98561e-05
0.00211476
3.81751e-05
0.000262994
4.01874e-05
4.1545e-05
3.82843e-05
0.00216169
4.06358e-05
4.61689e-05
0.000152909
6.24188e-05
4.63149e-05
0.000130765
3.79892e-05
3.98009e-05
0.00858689
5.1602e-05
0.000134275
0.000866956
0.000246815
4.29113e-05
0.00129881
4.47768e-05
3.99972e-05
5.3103e-05
6.80354e-05
3.97455e-05
0.000105849
3.98149e-05
6.00361e-05
9.56366e-05
7.10862e-05
0.000984229
7.25492
1.80437e-05
0.304443
3.9738e-05
4.92807e-05
13.0415
0.000159487
4.14971e-05
7.07318e-05
6.52991e-05
0.00210589
0.000171175
8.18406
5.21463e-05
7.21256e-05
1.43949e-05
5.30455
3.99418e-05
0.0452343
0.0045176
0.000655842
0.000457084
0.000137853
0.000100639
4.20821e-05
0.000316038
3.90068e-05
3.93344e-05
0.000444926
9.2571e-05
6.15454e-05
4.41755e-05
4.09066e-05
3.94681e-05
5.37351e-05
0.000382014
4.02196e-05
0.000215315
0.000285865
0.000694538
4.26534e-05
0.0005179
9.80955
3.91496e-05
3.97607e-05
4.70436e-05
4.25403e-05
0.000291455
0.000411259
4.44849e-05
4.2462e-05
4.84494e-05
4.05682e-05
4.3076e-05
0.000573649
3.90455e-05
3.80479e-05
0.000251759
0.000172844
0.00177347
0.000196943
0.000119471
3.97743e-05
0.00205292
0.151418
3.9722e-05
0.000138568
2.52154e-05
4.16914e-05
0.000336156
4.06643e-05
0.000654284
3.87715e-05
0.000871026
6.60341e-05
5.13156e-05
4.03385e-05
6.74038e-05
8.58139e-05
4.02225e-05
4.91961e-05
3.87079e-05
5.04073e-05
3.82586e-05
3.82948e-05
0.00129231
4.69598e-05
4.08617e-05
5.01304e-05
0.0479524
2.6681e-05
3.99689e-05
8.46327e-05
4.03802e-05
0.000102782
0.000119505
0.000480595
4.62654e-05
4.24658e-05
0.000414557
0.0983844
4.72293e-05
4.25444e-05
0.0344587
5.49954e-05
3.45458e-05
7.94364e-05
3.95075e-05
6.06466e-05
7.51004e-05
34.9207
4.13235e-05
3.97725e-05
3.90188e-05
4.35337e-05
2.66493
0.000239241
0.0360171
3.915e-05
6.55525e-05
0.00857426
3.87616e-05
3.85355e-05
1.24796
0.000246481
1.56405
5.71533e-05
6.79788e-05
0.451596
0.0414565
7.28673e-05
5.44605e-05
4.12566e-05
4.3166e-05
3.83329e-05
0.000314578
5.2021e-05
4.86827e-05
4.80994e-05
0.000477209
3.68752e-05
0.0002661
0.00104633
8.53508e-05
8.50872e-05
3.83236e-05
8.20937e-05
0.0593502
0.00128688
3.9015e-05
4.2953e-05
4.73126e-05
0.356794
0.000196021
0.0794825
5.27753e-05
3.98437e-05
3.8182e-05
0.0010362
0.381477
3.83748e-05
3.82976e-05
1.6984e-05
0.00122954
4.20822e-05
5.27532e-05
0.00254329
7.67992e-05
6.7635e-05
0.00146252
0.262705
5.47154e-05
3.83961e-05
0.000482814
4.06875e-05
3.93854e-05
0.000588521
4.15812e-05
0.0010647
4.02917e-05
4.27087e-05
5.72994e-05
0.000579916
0.000107087
3.84873e-05
0.000197559
6.10393e-05
3.8526e-05
4.57217e-05
3.94986e-05
3.9389e-05
8.02214e-05
8.13797e-05
5.28808e-05
0.000113177
8.11928e-05
3.91383e-05
8.2175e-05
5.38259e-05
6.57212e-05
0.00195095
0.0324022
3.17584e-05
0.000125668
3.90717e-05
0.000150471
5.04477e-05
7.82032e-05
0.000151952
4.61972e-05
5.85957e-05
4.49307e-05
2.79166e-05
0.000777572
4.4478e-05
0.000113011
3.86554e-05
4.58947e-05
0.000197538
0.00188035
6.80755e-05
4.1246e-05
3.85453e-05
1.28221e-05
5.98859e-05
0.00028794
0.00156589
0.000108394
0.0195863
3.87949e-05
0.00348316
0.00017725
0.000361715
0.000386421
0.000341262
0.0147441
0.0018068
0.000146029
0.000148012
3.88266e-05
0.000138428
3.92215e-05
0.000188798
4.05003e-05
0.000428171
4.17119e-05
8.42065e-05
0.000293399
4.12291e-05
0.215974
3.90956e-05
3.89213e-05
3.64132e-05
0.000550826
4.00034e-05
3.89961e-05
0.00510656
0.000270778
3.93951e-05
3.91008e-05
1.95946e-05
3.93888e-05
0.000125126
4.0236e-05
5.17125e-05
3.82658e-05
3.05446e-05
4.04201e-05
0.00029847
0.000993222
4.20716e-05
0.00321026
0.000803664
0.000115423
0.000211007
5.3156
8.76541e-05
9.0822
6.82574e-05
0.000710042
0.000904768
4.07781e-05
3.95216e-05
3.9233e-05
0.0139476
3.93658e-05
0.000691396
4.58727e-05
8.61253e-05
3.92559e-05
3.89056e-05
0.000117868
0.000453343
4.61336e-05
8.28111e-05
4.28555e-05
4.69109e-05
3.92838e-05
3.87403e-05
7.18996e-05
0.0509255
0.00637855
0.000110723
0.000356323
4.05636e-05
4.12855e-05
0.0004842
0.000344527
0.0136263
3.93556e-05
0.000523108
4.08948e-05
0.0871835
0.000199452
0.00768859
0.000187402
0.000601369
3.85405e-05
5.7958e-05
3.65946e-05
3.93631e-05
0.000196689
0.00510226
4.17783e-05
4.90289e-05
0.000150567
4.09355e-05
3.24388e-05
2.63052e-05
4.22549e-05
5.14679e-05
4.35016e-05
0.000436283
3.81939e-05
0.000111125
0.000109132
4.03808e-05
4.17659e-05
4.51404e-05
0.000198227
5.05683e-05
0.000715324
5.30698e-05
0.000273792
0.00013494
5.85928e-05
4.22783e-05
8.57859e-05
0.000501115
3.16312e-05
0.00122185
4.01203e-05
0.000306984
2.91073e-05
0.000238763
3.8174e-05
0.000202462
0.00136566
0.00819198
3.91677e-05
3.91132e-05
4.08517e-05
0.00108963
0.00031067
1.23247
0.00054187
0.000592056
1.91238
3.98604e-05
0.0191569
4.07367e-05
3.32446e-05
3.93642e-05
0.000133398
2.00491e-05
0.000232363
0.00052806
4.02237e-05
5.16389e-05
0.000205486
4.10826e-05
3.94757e-05
3.82118e-05
4.70941e-05
0.000112949
8.03612e-05
0.000389319
3.9178e-05
0.000150045
0.000552578
8.90129
3.61529e-05
0.00723737
3.82982e-05
4.01451e-05
3.93723e-05
6.08216e-05
0.000796684
3.98397e-05
0.000657587
6.07279e-05
3.90533e-05
3.79702e-05
4.91953e-05