/*--------------------------------*- C++ -*----------------------------------*\
| =========                 |                                                 |
| \\      /  F ield         | OpenFOAM: The Open Source CFD Toolbox           |
|  \\    /   O peration     | Version:  v2012                                 |
|   \\  /    A nd           | Website:  www.openfoam.com                      |
|    \\/     M anipulation  |                                                 |
\*---------------------------------------------------------------------------*/
FoamFile
{
    version     2.0;
    format      ascii;
    class       volScalarField;
    location    "0.303903";
    object      k;
}
// * * * * * * * * * * * * * * * * * * * * * * * * * * * * * * * * * * * * * //

dimensions      [0 2 -2 0 0 0 0];


internalField   nonuniform List<scalar> 
83563
(
8.89629e-05
9.02449e-05
0.000123501
0.000113588
9.14724e-05
0.000233566
9.02223e-05
0.00042042
0.000317699
0.00200949
0.000192112
9.34694e-05
1.60774
8.72201e-05
0.00029708
0.000303424
8.69707e-05
8.74614e-05
0.000257026
8.77823e-05
8.71936e-05
8.8157e-05
0.000442953
0.000375416
8.68815e-05
9.02486e-05
8.81225e-05
0.00212788
9.33738e-05
8.86484e-05
0.000108039
8.90666e-05
9.98209e-05
8.86953e-05
8.84502e-05
0.00010403
8.74139e-05
8.74392e-05
9.33579e-05
0.000674596
8.81022e-05
0.000138887
9.76816e-05
9.96267e-05
1.25338
0.00104489
9.23644e-05
0.000634667
9.88591e-05
0.000397548
0.463291
0.000216387
0.0551504
0.129003
0.000179506
0.586028
8.80611e-05
0.109992
0.121358
0.00037137
0.120611
0.0113749
0.000100194
0.00010276
0.13403
0.0661655
0.021554
0.000113001
0.289498
0.365445
0.00014753
0.547506
8.75307e-05
1.29318
0.000104931
0.000137448
0.000102515
8.81674e-05
8.95432e-05
2.42353
9.30707e-05
8.85803e-05
9.34148e-05
0.0124497
0.000114714
8.87416e-05
8.69372e-05
0.000162484
8.81831e-05
9.69069e-05
0.000441337
8.85317e-05
0.0021911
0.002815
0.0364221
0.000755268
0.00884063
0.00253978
9.5699e-05
0.000445712
0.000138918
9.43218e-05
0.000204877
8.84704e-05
0.0002534
0.000100657
0.000134619
8.96557e-05
0.0250672
8.80438e-05
0.00110551
0.000236377
0.000186049
0.000143875
9.34304e-05
8.86607e-05
0.000139308
0.000924547
0.00013113
8.93754e-05
0.000284717
0.000135498
0.000518175
0.0138714
0.000773118
8.89395e-05
0.00518749
9.07066e-05
0.000587113
9.78054e-05
0.000639239
0.000107551
0.000183227
0.00566885
0.000104198
8.72878e-05
0.000707329
8.95018e-05
9.57015e-05
0.531782
0.000112771
0.36311
0.000104495
0.00017044
0.000115506
0.16677
0.00014594
9.24491e-05
0.000156938
9.98994e-05
0.00012327
8.75231e-05
9.08905e-05
0.000227327
8.89392e-05
9.03748e-05
8.8513e-05
9.67946e-05
0.000116923
0.00108735
0.000349645
8.83828e-05
8.88179e-05
9.16938e-05
0.000722807
0.000353785
8.92243e-05
9.83149e-05
8.79191e-05
0.000829044
8.9266e-05
9.33455e-05
0.00045251
0.000437533
0.000522799
9.38956e-05
0.000115568
0.000119147
0.0002733
8.9999e-05
0.00010579
8.90051e-05
0.000200356
0.0001063
0.00158191
0.00303505
0.000195518
8.93182e-05
0.000457762
9.26588e-05
9.25118e-05
0.00283743
0.00189494
0.000355081
0.000105055
0.000664877
0.000159419
0.000606831
9.12419e-05
0.000279785
0.00035512
0.000108164
0.00164057
8.7997e-05
0.00281846
0.00141249
9.6959e-05
0.000234111
8.80351e-05
9.46145e-05
0.000543249
0.00640121
8.87653e-05
9.00904e-05
0.000119206
0.000174273
0.000259263
9.00504e-05
9.02463e-05
0.000101975
9.50004e-05
9.65522e-05
0.000102739
0.000111528
0.00247829
8.80181e-05
0.00938229
8.71495e-05
9.29744e-05
0.00218716
8.73082e-05
9.50389e-05
8.74529e-05
9.92028e-05
0.000103296
8.72011e-05
0.000467488
9.49509e-05
8.95786e-05
8.89549e-05
0.000558595
0.000221468
9.92721e-05
8.93159e-05
0.000141952
9.1769e-05
0.204816
9.16843e-05
0.0248457
0.000131524
0.000391003
9.44155e-05
0.000109918
0.000909882
0.000109384
0.000115319
8.8502e-05
0.000426672
8.88681e-05
0.000106306
0.000103227
0.000195214
0.007132
0.000350133
9.93616e-05
0.000106064
0.000306764
0.000217547
9.045e-05
9.16719e-05
0.000300294
0.000869828
0.000150576
0.000191384
0.000688071
9.56894e-05
0.00218364
0.000255379
9.90879e-05
0.000101936
0.000508697
9.85217e-05
8.93141e-05
0.000913876
0.000273958
8.95594e-05
0.000106391
0.000105866
8.99539e-05
9.12046e-05
0.000442312
8.93114e-05
0.00321809
8.80938e-05
8.97232e-05
0.000342207
0.000175001
0.000160317
0.000102288
9.20639e-05
9.11014e-05
9.97468e-05
9.92174e-05
8.74165e-05
8.7243e-05
0.0015826
0.00200402
0.102692
0.000249605
0.000642251
0.000164949
0.000127617
0.0571591
0.000151717
0.0065798
9.94033e-05
0.00193921
0.000363895
8.95221e-05
0.000107278
0.00217932
0.000395451
8.73758e-05
0.000133093
0.000110834
9.06065e-05
0.00220581
0.037901
0.000122366
0.000170509
0.000196448
9.24677e-05
8.98021e-05
0.0411588
8.96212e-05
9.06683e-05
0.000257612
0.325718
0.000548274
8.94837e-05
0.217636
0.0878909
9.39212e-05
8.95766e-05
0.000118937
9.27568e-05
0.000665597
0.00017699
0.000798582
9.27904e-05
8.79022e-05
0.000120433
0.000123065
0.000109003
0.296884
8.77622e-05
0.000723014
0.000282847
0.000111115
0.0113625
0.0172158
0.00706222
0.00181856
0.000138374
0.000413961
0.00158683
0.0106809
0.000233124
9.52277e-05
8.74211e-05
9.49236e-05
0.000293774
0.000449191
2.7554
1.51381
0.000107165
9.49469e-05
0.000100985
9.75513e-05
9.90381e-05
9.41072e-05
9.02546e-05
9.49927e-05
8.99693e-05
9.88383e-05
0.00414826
0.000121709
0.000332972
0.000298316
0.000172813
0.001231
0.000130744
0.000132898
0.00140698
0.000127026
0.000850784
0.000209299
0.000267934
9.49728e-05
8.72843e-05
0.000108022
8.83943e-05
8.77468e-05
0.000130717
0.00109674
9.86203e-05
2.06009
0.000114381
8.78074e-05
0.000146549
0.0781239
0.000107132
9.57588e-05
8.9337e-05
0.0385074
0.000106179
0.000107243
0.00010231
0.000879915
0.000114048
8.8452e-05
9.12481e-05
0.0915425
8.93598e-05
0.000679468
0.0948326
0.000128676
0.000926436
8.79304e-05
0.000124263
9.4307e-05
9.95487e-05
0.000124503
9.47182e-05
0.100956
0.000357917
0.000236291
9.59564e-05
0.000253701
0.00307114
0.000500781
0.000140443
9.1594e-05
8.90038e-05
0.000174552
0.000148224
0.000198423
0.000493388
0.000111704
0.0931146
0.000602663
0.000127082
9.66303e-05
0.000109221
0.000427192
0.000724413
9.05748e-05
8.8823e-05
8.95718e-05
0.000149243
9.15838e-05
0.0582307
9.85064e-05
9.05731e-05
0.000107369
9.00697e-05
9.04499e-05
9.33879e-05
0.000119272
0.000174138
0.000281398
0.000131282
0.000105346
0.000268983
0.000105198
0.00135772
0.000102345
0.000160026
0.000166367
9.09165e-05
0.000129991
9.25129e-05
0.000130068
0.000105711
8.80574e-05
9.80883e-05
9.40356e-05
0.000446568
0.000338649
8.90786e-05
8.78763e-05
0.000110879
0.000139512
0.0270853
0.00251777
0.000114901
9.8406e-05
0.000138997
0.000132311
9.09423e-05
8.87869e-05
0.000172094
9.70422e-05
9.18636e-05
0.000356012
9.10052e-05
9.60475e-05
0.000595432
0.000133245
0.000379279
8.86781e-05
9.38612e-05
8.73279e-05
8.72614e-05
0.000108196
9.53534e-05
0.000102634
0.0162526
0.0317491
0.000101205
0.000256059
0.000581185
0.0001841
0.000114788
0.000451675
9.81844e-05
0.000225618
0.0937513
9.14912e-05
0.000113201
9.46639e-05
8.94792e-05
0.000138101
0.000112456
9.2283e-05
9.3895e-05
0.0159724
0.00160074
0.000184218
0.0285794
0.000255668
9.11496e-05
0.0677343
8.94308e-05
9.42962e-05
0.000434165
0.000103493
0.000385684
0.0442357
0.000410117
0.000143859
9.60838e-05
0.000195412
0.000470474
8.99129e-05
0.00029867
0.000116872
0.00737969
0.0248818
8.73648e-05
0.000328688
0.157552
9.29318e-05
0.000270985
0.000437483
9.058e-05
0.00422801
9.05753e-05
9.04701e-05
0.000212256
0.011065
0.000470219
8.95868e-05
0.000182576
0.0183172
0.000489948
0.000119578
9.09255e-05
0.000105097
9.05883e-05
9.45728e-05
1.02475
9.04824e-05
0.000112106
0.000118317
9.79621e-05
8.80618e-05
0.000106287
8.80116e-05
0.768667
8.71975e-05
9.22703e-05
8.76104e-05
9.29674e-05
0.000137442
8.71335e-05
8.77881e-05
8.739e-05
8.81489e-05
9.08526e-05
9.9984e-05
8.93235e-05
8.69164e-05
8.73222e-05
9.76091e-05
0.000119502
0.00940468
0.00019248
8.77196e-05
8.79134e-05
9.45763e-05
8.90761e-05
8.8518e-05
9.73945e-05
0.00344679
0.000114049
0.000234073
0.000117307
0.00108265
0.000284726
0.00015751
0.00116869
0.000226031
9.15487e-05
9.21905e-05
0.000136817
0.000128187
9.11077e-05
0.000140268
8.85037e-05
0.000102356
0.000100953
0.000101616
0.000104717
8.68752e-05
0.000520677
0.000169564
0.00048523
8.7546e-05
9.19248e-05
0.000113042
0.00101213
0.00128801
8.8346e-05
0.000105925
8.72017e-05
8.70445e-05
8.78557e-05
0.0994944
0.000234668
0.000143821
0.000197567
0.000466007
0.000781983
0.00144118
9.02224e-05
0.000354893
9.07679e-05
9.17747e-05
0.000120517
9.94175e-05
0.0360848
9.97729e-05
0.000113965
0.0370353
8.7738e-05
8.99396e-05
8.74446e-05
9.44496e-05
0.00186457
0.000179482
0.000142912
9.32092e-05
0.000289188
0.000929777
0.000146648
0.00014173
0.000148426
0.000111487
0.000142689
0.0461864
0.000250582
0.00159441
0.0972876
8.93037e-05
0.0001065
0.000906756
9.50602e-05
0.00405938
0.000168015
0.000127493
0.000107205
0.000100759
0.000926946
0.00241451
0.0332162
0.000100865
0.00276917
0.000103666
0.000154353
0.000190205
0.000101085
8.71014e-05
0.000125088
0.00115017
0.000252636
8.84139e-05
0.00011867
0.000271589
0.000154942
8.80077e-05
0.00016613
8.94417e-05
8.70099e-05
0.000176105
8.95759e-05
8.81238e-05
8.82294e-05
0.000197681
0.000289528
8.91353e-05
0.000728337
8.758e-05
0.000139426
9.02924e-05
0.000107029
0.147492
2.13594
0.000129609
0.0553945
8.92263e-05
8.82043e-05
9.93837e-05
0.000692421
0.107563
0.000328517
8.80963e-05
9.58478e-05
0.130394
8.9165e-05
0.000131092
0.000264589
9.05065e-05
0.000480287
0.00020623
0.000115057
0.000111197
0.000930096
0.0326825
9.80645e-05
0.000125392
0.000128543
8.71283e-05
0.0465758
0.000173527
0.00059465
8.80283e-05
9.13858e-05
0.00105679
9.56457e-05
8.82794e-05
8.76082e-05
0.0223836
8.81671e-05
0.00045526
9.47646e-05
8.71932e-05
9.01357e-05
0.000206553
0.000105053
0.000130261
8.76015e-05
8.80557e-05
0.000176808
0.00010082
0.000109846
8.9734e-05
0.0096553
9.02061e-05
0.00011931
0.000186877
0.00286194
0.0927003
0.289029
8.77743e-05
0.225544
9.2638e-05
0.00035414
9.93632e-05
0.000343136
0.000677716
0.000846883
9.97038e-05
0.0198424
0.000269436
0.000229971
0.000111594
8.79445e-05
8.7979e-05
0.000110712
0.000177173
9.17933e-05
0.000725696
8.92667e-05
8.90665e-05
9.06878e-05
0.000286193
0.0740719
0.0118698
0.000500385
9.33109e-05
8.93066e-05
0.00774154
0.00407088
0.00239231
0.00150925
8.82135e-05
0.000806816
9.17376e-05
8.83301e-05
0.00077231
0.000129255
0.0062944
0.000314914
0.000148406
0.000613792
0.00105165
0.000106818
0.484607
9.25373e-05
8.90077e-05
0.000168655
9.17086e-05
0.00031935
0.000100987
8.75887e-05
8.84465e-05
9.77175e-05
0.000128928
0.000204787
0.276566
0.657269
8.80805e-05
8.95693e-05
0.000120814
0.0920331
0.000431812
9.34022e-05
0.000427467
1.30483
0.000103941
8.77763e-05
9.14284e-05
8.7489e-05
0.000116344
0.551219
8.75069e-05
0.000377735
0.000463538
0.000197401
9.21e-05
0.0001154
9.85277e-05
8.86601e-05
0.000623306
0.000103123
0.000797588
0.000128864
0.000125119
9.09952e-05
0.000123746
0.0035848
0.000441283
0.00011334
0.000119514
0.000115383
8.8359e-05
8.95695e-05
9.02918e-05
9.6059e-05
8.69067e-05
9.49935e-05
9.5224e-05
9.12774e-05
8.81898e-05
0.0121832
0.00109637
0.000104545
0.0176897
0.125432
9.95232e-05
0.00362026
9.00513e-05
9.19495e-05
8.80549e-05
9.17717e-05
0.00019757
8.99082e-05
0.00017371
0.000187784
9.54744e-05
8.90006e-05
9.52278e-05
0.000161842
8.97127e-05
9.48022e-05
0.00012102
8.84084e-05
0.000127423
0.000172134
8.93959e-05
0.00010066
8.73071e-05
0.000160646
0.000105681
0.0483209
0.0733345
9.29018e-05
0.00987903
8.74141e-05
0.000112319
0.000445453
0.00030697
0.000390216
8.91614e-05
9.30289e-05
0.000294867
9.24576e-05
0.0430172
9.19453e-05
0.000139431
0.000292847
0.000430929
0.000182587
0.101499
0.000217921
0.000334537
9.00027e-05
0.000268845
0.00832136
0.000271538
9.74633e-05
0.000807151
9.67488e-05
8.73325e-05
8.74772e-05
0.000132695
0.000107802
0.00010224
9.32649e-05
8.90941e-05
9.10785e-05
8.99903e-05
8.83736e-05
8.69955e-05
0.000360982
0.032059
9.82864e-05
8.6947e-05
8.76473e-05
0.000328069
8.73354e-05
9.11831e-05
8.85432e-05
0.00091477
0.000815276
0.000169193
8.76837e-05
0.000929765
0.000180556
0.000597936
0.00010467
9.69093e-05
9.87684e-05
9.55136e-05
0.000580679
9.48988e-05
9.73961e-05
8.82429e-05
0.000123707
9.85361e-05
0.000261202
0.000118906
8.92668e-05
8.84828e-05
0.000172723
0.000546981
0.00031967
9.00854e-05
0.000106312
0.00106225
0.000281413
8.85393e-05
8.86184e-05
8.75171e-05
0.000148516
0.000848745
0.000426454
0.000514319
0.000123955
0.000142912
8.83533e-05
8.7096e-05
9.40003e-05
0.0154338
0.000102917
0.000336969
0.00109269
0.0010723
0.000176044
0.000134435
9.58447e-05
0.000129175
9.06908e-05
0.000147291
0.000168261
0.000148066
0.000570576
0.000550899
0.000103289
0.000110028
9.96902e-05
0.000323966
0.000130469
9.08801e-05
8.95292e-05
8.72229e-05
0.000569687
8.80119e-05
9.05103e-05
0.00141433
0.000168423
0.000111563
9.81381e-05
9.32908e-05
8.71225e-05
0.000108961
8.97e-05
0.000116496
9.40888e-05
9.15452e-05
0.000300965
9.7383e-05
0.00126372
8.88846e-05
0.00123425
9.35712e-05
9.75005e-05
0.896694
9.67265e-05
4.00254
4.62318
8.86019e-05
8.72911e-05
8.72157e-05
0.000244998
8.74898e-05
0.000370166
9.24991e-05
1.03595
8.80736e-05
2.3185
0.000142451
0.0402067
0.00017566
9.03494e-05
0.000207687
0.000160509
0.000227632
0.000157472
0.000161168
0.000119606
8.50129
9.16586e-05
0.000900271
0.000108744
9.1759e-05
0.000102979
0.000278004
0.271303
8.7711e-05
0.000345364
0.000105239
8.71134e-05
0.000438713
2.08826
9.18491e-05
0.000118235
0.0001002
0.00394521
1.72713
0.000685474
0.000822197
0.000143299
0.000138588
0.000532758
8.87989e-05
0.000465953
0.000943724
0.000340298
0.000924028
9.15769e-05
0.00259632
0.000409737
0.000213676
9.95282e-05
0.000110426
8.81206e-05
0.000599378
8.7658e-05
9.47073e-05
0.00011193
9.59287e-05
8.92357e-05
0.000477044
0.000106763
0.000698769
9.16691e-05
0.000180239
0.00010229
0.0290678
8.73597e-05
0.000113737
8.9961e-05
0.000146821
0.000104138
0.000482692
8.71474e-05
0.000496253
8.75105e-05
8.97353e-05
0.00032138
9.74563e-05
9.81515e-05
8.89959e-05
8.72552e-05
8.90029e-05
0.0034702
0.000101417
9.74228e-05
0.00010138
0.000112812
9.07609e-05
8.70971e-05
0.000234256
0.000104248
0.000100429
0.000224883
0.000137046
8.78844e-05
0.000221148
9.30653e-05
8.78089e-05
9.63677e-05
9.01876e-05
0.000349462
8.78061e-05
8.72341e-05
9.03045e-05
0.00011494
0.000782143
8.8647e-05
0.000129193
8.77663e-05
9.38366e-05
9.24613e-05
9.57639e-05
0.000113262
0.000107551
9.42423e-05
9.09837e-05
9.70914e-05
0.000446054
0.000102369
0.000138885
0.000128921
0.00026644
0.000134082
0.000877849
8.93207e-05
9.36631e-05
9.4738e-05
0.000596288
9.10378e-05
8.69291e-05
8.81741e-05
9.12328e-05
0.000369289
0.00092262
0.000114591
0.000249113
0.000122313
0.0114005
0.000413301
0.00555191
0.000209109
8.89091e-05
0.000107808
9.5116e-05
0.000869481
9.33618e-05
0.00265213
9.37874e-05
9.17756e-05
0.000311023
0.000327741
9.36642e-05
0.00121393
0.000224972
9.07561e-05
9.1906e-05
0.000165802
8.92665e-05
9.03217e-05
1.76414
8.84582e-05
1.11805
0.149671
0.00032214
0.000207664
8.92187e-05
0.000100337
9.19844e-05
0.000369164
8.94705e-05
0.000491165
0.000258656
1.38243
0.000460942
8.89523e-05
8.9423e-05
8.93787e-05
0.000129905
9.0773e-05
0.000249326
8.92654e-05
0.119699
0.0267992
8.72923e-05
8.8046e-05
0.340872
0.000117934
9.00274e-05
0.000213613
9.03702e-05
0.000136539
0.149128
8.76044e-05
0.00143969
9.91585e-05
0.000589554
9.28568e-05
8.82096e-05
8.98548e-05
0.000838136
0.0665922
0.000194901
0.000201278
8.91079e-05
0.000370908
0.000132299
0.000158919
0.000151352
0.000100721
9.62946e-05
0.00182285
9.1063e-05
0.000102733
9.78974e-05
9.63896e-05
0.000312666
0.000236388
0.000101104
9.74989e-05
0.000114996
0.000129785
8.71017e-05
0.000251925
9.12276e-05
0.000188218
0.802963
0.000111988
8.94448e-05
0.000168267
0.0420075
0.00016204
0.000113324
0.00048703
9.0058e-05
0.153991
0.000154754
8.81414e-05
8.84945e-05
0.000151594
9.21384e-05
8.96586e-05
0.000568
0.000103379
9.50956e-05
0.00010655
0.000578628
0.000736129
8.84043e-05
0.000945565
9.44586e-05
9.26461e-05
8.82153e-05
0.000125476
0.000384326
9.11299e-05
8.74162e-05
8.76361e-05
0.245326
8.84768e-05
8.93929e-05
8.88897e-05
0.000347243
0.00442303
8.73703e-05
0.0922833
0.000103251
8.77907e-05
0.00115416
0.000116739
0.117538
0.0122756
0.000102508
0.000614492
0.0072553
0.800128
0.0209177
0.0004507
0.000122591
8.90685e-05
8.90003e-05
0.00016124
0.0022253
8.76597e-05
0.00176356
8.89808e-05
9.00748e-05
0.00113538
9.62046e-05
9.29712e-05
8.84176e-05
0.000139362
0.000809154
9.64045e-05
0.000327939
0.000273048
0.00014891
0.000936977
0.000133569
0.000374538
0.000318684
0.000262072
0.000120562
9.26858e-05
8.79457e-05
0.000117597
8.99204e-05
0.00010179
0.000144503
9.23737e-05
8.95775e-05
8.8774e-05
0.000149745
9.29005e-05
9.8795e-05
9.39663e-05
8.78639e-05
0.000140186
0.000229509
0.00036889
8.72507e-05
9.53974e-05
0.0378177
0.000116903
9.13294e-05
0.00175773
9.19059e-05
9.33493e-05
0.000100232
8.70519e-05
0.0177023
8.83129e-05
0.000233773
0.000105383
0.000760436
9.5787e-05
8.76636e-05
9.26651e-05
0.0300724
8.69245e-05
0.000171487
0.000140524
0.000925804
0.00181591
9.06371e-05
9.41569e-05
8.97343e-05
0.000711229
0.000366573
0.00280858
0.000496261
8.70959e-05
8.87512e-05
8.71915e-05
9.31791e-05
0.000113744
0.000251119
8.92728e-05
0.000259763
0.00010735
0.000145729
0.000176055
0.000367151
0.000178526
0.000108981
8.78868e-05
9.15832e-05
0.000140803
8.86961e-05
0.000117379
9.09433e-05
0.000676863
0.000114564
9.0271e-05
9.29914e-05
0.000124873
0.00032012
0.000490697
0.000122412
0.000116517
0.000391734
0.000548987
8.91796e-05
9.0238e-05
0.0434548
8.71687e-05
0.00014205
8.79007e-05
0.000101285
8.77192e-05
8.8476e-05
9.01048e-05
9.28269e-05
0.108053
9.18765e-05
0.000193753
9.50107e-05
9.77013e-05
0.000251814
8.85535e-05
0.000140318
9.7005e-05
0.0139055
0.0147466
0.000149779
0.000229975
9.00103e-05
0.000289553
1.29344
9.19708e-05
8.88093e-05
0.000634711
9.61704e-05
0.0894655
0.00126419
0.000115381
8.70321e-05
0.000213609
8.9301e-05
0.000105162
9.41863e-05
9.6383e-05
0.0014599
0.0163516
9.88505e-05
0.0776271
0.000376207
0.000327872
0.000136925
0.000388254
0.000103299
0.0527128
0.000441462
0.000132576
0.000170556
8.83837e-05
0.00195367
0.0128506
0.000495807
9.67816e-05
8.8408e-05
0.0017992
0.00113295
9.81884e-05
9.2336e-05
0.000895317
0.000503155
9.62197e-05
9.48486e-05
0.000120901
0.0461623
8.7348e-05
0.00151713
9.41402e-05
0.000102768
8.78118e-05
8.7308e-05
8.85687e-05
8.88464e-05
0.000131514
0.000276692
0.000121278
0.000160663
0.000324462
9.00459e-05
8.91487e-05
0.000216194
0.000585355
0.000155582
8.77709e-05
0.000124266
0.00048725
0.000226688
8.82974e-05
0.000123799
0.000129057
8.92223e-05
0.000123853
9.13415e-05
0.000167845
0.000168883
0.000718023
8.84092e-05
8.74458e-05
0.00246078
0.0292569
9.16419e-05
0.000326457
0.023447
0.0192997
9.27012e-05
0.0182572
0.00011518
0.000304463
9.39609e-05
0.129274
9.02487e-05
0.000143576
9.79756e-05
0.000124821
0.000127312
8.705e-05
0.000135484
8.94202e-05
0.0634443
0.000120537
9.44573e-05
8.83834e-05
9.38133e-05
0.0010693
0.000103221
8.80453e-05
0.000113846
0.00011758
0.000102087
8.91631e-05
0.00016812
0.000591269
0.000103036
0.000550064
8.96483e-05
0.000164949
0.000744356
9.094e-05
8.70456e-05
9.32424e-05
0.000103829
8.95481e-05
0.000186808
0.000263262
0.00068669
2.6089
9.34998e-05
8.81788e-05
0.000352927
9.12563e-05
0.000145564
9.51756e-05
0.000121865
0.000520569
0.000109416
0.000168991
8.76362e-05
0.000360014
9.54413e-05
9.43085e-05
0.000119492
0.000683092
0.000573647
9.60064e-05
0.00441776
1.981
0.166707
8.79055e-05
0.000173285
8.90322e-05
8.90269e-05
0.00387828
8.99594e-05
0.000135487
9.04975e-05
8.91032e-05
8.78861e-05
3.67802
2.86397
8.99255e-05
8.74747e-05
8.82016e-05
9.81577e-05
0.0539599
1.65761
0.000136883
0.000135554
8.74813e-05
0.00014673
0.000106906
0.000141013
0.000100615
8.93978e-05
0.000133751
9.98158e-05
0.0001757
9.08615e-05
9.35407e-05
0.000102875
0.000161224
0.000145421
9.09327e-05
8.82618e-05
0.000364567
9.60703e-05
0.000149022
0.000215687
0.000148123
9.69241e-05
0.00106072
0.000102303
0.000139062
0.000249395
0.000196195
8.83147e-05
0.000665145
0.000304058
0.000356152
0.000272307
0.053767
0.000231454
9.02441e-05
0.000115349
0.000122488
0.000123705
0.000402143
0.0500889
9.49559e-05
0.00010614
0.00011434
0.00018079
0.000439576
8.81294e-05
9.11823e-05
9.28893e-05
9.46557e-05
8.87568e-05
0.000296977
0.000252025
9.32078e-05
0.000103543
0.000337424
9.00919e-05
0.00259593
0.0020912
9.09344e-05
8.74747e-05
9.30184e-05
0.000131374
9.49874e-05
0.000126092
9.03525e-05
0.000104397
9.09939e-05
8.85136e-05
0.0107102
8.81467e-05
9.0876e-05
8.87517e-05
0.000107282
0.000197493
0.000294182
0.890187
0.000215508
9.05489e-05
0.000102407
9.50463e-05
8.84029e-05
9.3456e-05
0.000137326
9.31831e-05
8.7704e-05
9.59711e-05
8.86979e-05
8.8051e-05
9.41414e-05
0.0657713
8.72168e-05
8.71586e-05
9.70904e-05
0.00031083
0.000985941
0.000254518
0.000237528
0.000118717
0.00107022
0.000115164
8.77422e-05
8.70376e-05
0.000247095
9.55324e-05
9.14924e-05
8.75017e-05
8.83122e-05
0.000137544
0.0829056
0.000109277
8.73136e-05
0.000101968
0.397187
8.69581e-05
0.000138957
8.70499e-05
0.000136257
8.7264e-05
0.000350994
9.77709e-05
8.93936e-05
0.873726
0.000329023
0.000399262
0.000167661
9.01165e-05
0.000272135
0.000124063
0.000120954
8.71669e-05
0.623394
0.000485599
0.000104447
8.80268e-05
0.000150165
8.74436e-05
9.23763e-05
0.000105717
0.000101259
0.0012995
8.85272e-05
0.00016433
0.154947
9.11615e-05
0.000112298
0.000510093
0.267734
8.70661e-05
0.0869948
8.74008e-05
0.0357648
0.000227911
9.23484e-05
9.04942e-05
0.000381226
0.00011411
9.1538e-05
0.000413923
9.64339e-05
8.87271e-05
9.09341e-05
0.000116891
8.91334e-05
0.000130077
0.000154614
8.84131e-05
0.000100989
0.000483711
9.46205e-05
9.00255e-05
0.075829
9.80785e-05
0.000316304
0.000103054
9.20279e-05
9.40089e-05
0.000143702
0.000128738
0.291391
0.000206122
8.90394e-05
0.0858015
0.791125
8.80392e-05
0.000122226
9.5091e-05
9.21232e-05
8.9434e-05
0.000151296
8.7593e-05
0.000364296
0.000108432
2.73942
0.000175352
9.38254e-05
0.000415433
8.90444e-05
9.57836e-05
8.7773e-05
0.00178991
0.000209681
9.71394e-05
9.67784e-05
0.000173503
9.21566e-05
9.25739e-05
0.000153318
0.00705798
8.82032e-05
0.101302
0.000105625
8.79699e-05
0.00034569
8.90011e-05
0.000340079
0.00197742
0.000105059
0.000645635
8.89429e-05
9.7722e-05
9.67456e-05
9.01176e-05
9.01562e-05
0.000150873
8.90864e-05
0.0555429
0.000146734
9.28353e-05
9.28877e-05
8.72646e-05
9.0197e-05
0.000379313
8.88247e-05
0.000103861
0.000137675
0.000438289
8.73552e-05
0.000102431
0.0174128
0.000334493
0.0543434
0.00701475
0.000927578
0.000314106
0.000152535
0.000173806
9.96475e-05
0.000136499
0.00277473
0.000606284
8.83804e-05
9.0855e-05
8.82982e-05
0.000242197
0.000402035
0.000408562
0.941133
8.85459e-05
0.000323166
0.00129491
8.8348e-05
8.75094e-05
0.00015031
0.00117691
0.106245
9.1069e-05
9.02818e-05
0.000225994
8.85863e-05
0.000420075
0.965179
9.57452e-05
0.000278292
0.572835
9.22336e-05
0.000108451
8.84505e-05
8.76773e-05
0.000272358
0.000771836
0.000141638
0.000417877
0.000101927
8.91382e-05
9.16425e-05
0.000465988
9.14237e-05
8.84405e-05
0.0566529
9.54201e-05
9.87828e-05
8.89586e-05
0.0875538
9.90842e-05
0.0303325
8.80932e-05
9.13826e-05
0.000481455
0.000101347
0.000208708
0.000249132
0.000269814
8.95463e-05
8.77875e-05
0.0531807
0.0583302
0.0821928
8.97238e-05
0.081824
0.0709876
9.46257e-05
8.82043e-05
9.92907e-05
0.000615758
0.00013917
9.03751e-05
0.000399833
0.000116696
0.054981
0.079994
0.0126448
0.00142517
9.25888e-05
0.000497862
0.000109922
0.000470063
0.000324001
8.77732e-05
9.51778e-05
9.16234e-05
0.000948775
8.80918e-05
0.00355881
0.000131272
0.0002404
8.88065e-05
0.000248117
0.000193608
8.71698e-05
0.000802036
0.00016827
0.000776423
0.000110902
0.0189961
0.00010932
9.28315e-05
8.85036e-05
0.00010094
0.0231727
9.0128e-05
0.000111131
0.00125769
0.00339236
0.00049882
0.0245246
8.99858e-05
0.000109496
8.97741e-05
0.0028632
9.17206e-05
0.000537833
8.82599e-05
0.00107454
8.96307e-05
0.0175223
8.96033e-05
8.82165e-05
8.70781e-05
0.00293402
0.0138749
8.9003e-05
0.911245
8.76471e-05
8.72169e-05
0.000162379
0.000226396
9.58396e-05
0.000118342
8.99688e-05
0.00165484
0.000369615
8.72167e-05
9.0305e-05
9.86892e-05
0.00020522
9.19096e-05
0.000119358
0.000193371
0.000295666
0.000117345
0.0136313
0.000229133
9.21995e-05
0.000403756
0.000282835
8.82557e-05
0.000108113
8.84656e-05
0.000143431
9.04793e-05
9.4851e-05
9.10844e-05
0.000202197
8.86444e-05
0.000107291
0.000663565
9.19535e-05
8.84172e-05
8.95451e-05
0.000159836
0.00300699
9.03108e-05
9.87333e-05
8.96471e-05
8.69608e-05
8.75401e-05
0.000748971
9.72499e-05
8.95679e-05
8.90019e-05
0.000144676
8.7024e-05
8.69528e-05
8.73796e-05
0.000138313
0.000588884
0.000634278
0.0182536
0.000256955
9.53317e-05
8.7398e-05
8.84334e-05
0.0641368
1.26889
0.000425588
8.70354e-05
8.73698e-05
8.99908e-05
8.75739e-05
0.0082273
0.000930055
0.000110637
0.0890974
0.00010271
0.000163164
9.02042e-05
0.000648434
0.00100931
0.0422587
8.76697e-05
0.193621
0.000309467
0.00012443
8.79243e-05
0.0287899
0.000254037
0.00490509
0.000471239
0.000227459
0.000409216
8.96765e-05
0.00390248
8.94251e-05
0.000149617
0.0005245
0.000985277
9.07039e-05
0.000139247
0.000745828
0.000344276
9.32881e-05
0.000108802
0.0014043
8.69638e-05
0.000282487
9.0156e-05
9.2158e-05
8.72761e-05
0.00150052
9.08193e-05
9.87356e-05
0.000193276
0.000120625
9.91844e-05
0.000206609
8.73742e-05
8.95219e-05
0.00267277
0.000106697
0.000166531
0.000581763
0.00026482
9.41727e-05
0.00096961
9.64663e-05
8.98377e-05
0.00010213
0.000129672
8.9452e-05
0.000178449
8.9437e-05
0.000113944
0.000164218
0.000130959
0.00075285
0.657177
0.000106912
0.0482087
8.94213e-05
0.000103863
1.08756
0.000236831
9.22017e-05
0.000124403
0.000114784
0.00264882
0.000226227
0.739322
0.000105816
0.00012833
9.73e-05
0.394148
8.97622e-05
0.0190942
0.00192305
0.000639313
0.000142382
0.00020871
0.00015989
9.30996e-05
0.000377647
8.82913e-05
8.88038e-05
0.00047815
0.000160077
0.000117983
9.62914e-05
9.11001e-05
8.90186e-05
0.000109004
0.00042996
9.01863e-05
0.00023134
0.000341993
0.000653002
9.35888e-05
0.000524967
1.00138
0.000105683
8.94153e-05
9.96134e-05
9.37827e-05
0.000322941
0.000428071
9.52123e-05
9.31615e-05
0.00010076
0.000118534
9.36979e-05
0.000556403
8.83382e-05
0.000108619
0.000300164
0.00020394
0.00112533
0.000245509
0.000149206
8.95118e-05
0.00120461
0.0381396
8.99643e-05
0.000208486
9.76681e-05
0.0001207
0.000367899
9.09e-05
0.000567705
8.79138e-05
0.000346173
0.000110616
0.000106788
9.0383e-05
0.000127083
0.000151806
9.01315e-05
0.000102692
8.78064e-05
0.000103717
8.70958e-05
8.71563e-05
0.000916188
9.85504e-05
9.3324e-05
9.9642e-05
0.0103171
9.39002e-05
8.97922e-05
0.00015192
9.044e-05
0.000158259
0.000194203
0.000471773
9.84777e-05
9.36803e-05
0.000434957
0.0205798
0.00010044
9.35989e-05
0.00762526
0.000104551
0.000136061
0.000138387
8.90779e-05
0.000107048
0.00013731
1.31104
9.16762e-05
8.9484e-05
8.83024e-05
9.50865e-05
0.24781
0.000307442
0.00771518
9.20333e-05
0.000119499
0.00278028
8.7888e-05
8.75383e-05
0.146131
0.000319946
0.186938
0.00011508
0.000113929
0.0635775
0.00843125
0.000129874
0.000111465
9.18193e-05
9.36854e-05
8.72154e-05
0.000365401
0.000104825
9.96018e-05
0.000101904
0.000497642
9.10706e-05
0.000326555
0.000776038
0.00013797
0.000143475
8.72017e-05
0.000148656
0.0154718
0.000793864
8.82623e-05
9.36936e-05
0.000100696
0.0568117
0.000266029
0.0159074
0.000108389
8.95931e-05
8.69742e-05
0.000842686
0.0428962
8.72831e-05
8.71586e-05
9.69065e-05
0.000679166
9.29808e-05
0.000107463
0.0012772
0.000128502
0.00012669
0.00102506
0.0568996
0.000107099
8.73174e-05
0.000452011
9.09032e-05
8.88793e-05
0.000564352
9.23103e-05
0.000832896
9.03061e-05
9.28049e-05
0.000106786
0.000548378
0.000174551
8.74613e-05
0.000252161
0.000114793
8.75246e-05
9.64934e-05
8.91202e-05
8.88893e-05
0.000148065
0.000146172
0.000108975
0.000170586
0.000141658
8.84957e-05
0.000117454
0.000148116
0.000117926
0.00132278
0.00886713
9.89042e-05
0.000195678
8.83919e-05
0.000225684
0.000102011
0.000148972
0.000211965
9.9341e-05
0.000157142
9.68174e-05
9.43337e-05
0.000685638
0.00010576
0.000164188
8.77235e-05
9.84631e-05
0.000262364
0.000676661
0.000124605
9.16508e-05
8.7552e-05
0.000100575
0.000118989
0.000352511
0.00069846
0.000160872
0.00719731
8.79502e-05
0.00185046
0.000233984
0.00024807
0.000418354
0.000383035
0.00610226
0.000575304
0.000209872
0.000214963
8.79828e-05
0.00020293
8.86149e-05
0.000222512
9.01248e-05
0.000484047
9.23114e-05
0.000141365
0.000335826
9.17475e-05
0.0355075
8.84362e-05
8.81542e-05
8.93067e-05
0.000499558
8.96539e-05
8.82726e-05
0.00124076
0.000331986
8.8761e-05
8.84362e-05
9.79335e-05
8.8889e-05
0.000194162
9.00578e-05
0.000107589
8.71108e-05
9.20049e-05
9.03914e-05
0.000320464
0.000753604
9.30856e-05
0.00161255
0.000809143
0.000180548
0.000217865
0.513525
0.000154062
0.698393
0.000119519
0.000529151
0.000685566
9.06615e-05
8.90969e-05
8.85726e-05
0.00502879
8.88389e-05
0.000269566
9.5945e-05
0.000130811
8.86822e-05
8.95586e-05
0.000184037
0.000481003
9.71929e-05
0.000144207
9.41232e-05
0.000120308
0.000119092
8.78619e-05
0.000130973
0.010497
0.00249111
0.000105967
0.000308648
9.06803e-05
0.00012311
0.000502557
0.000366476
0.00451263
9.38271e-05
0.000422876
9.34491e-05
0.0187692
0.000272891
0.00250029
0.0002583
0.000517638
0.000108044
0.000110407
9.00036e-05
8.88454e-05
0.00025991
0.00216398
9.26175e-05
9.97859e-05
0.000210329
9.07251e-05
9.14296e-05
0.000103339
9.2596e-05
0.000163087
9.47219e-05
0.000370842
8.6994e-05
0.000125319
0.000170022
9.04303e-05
9.18213e-05
0.000135651
0.000275651
0.000160929
0.000619936
0.000104247
0.000299585
0.000209602
0.000107474
9.2754e-05
0.000140291
0.000486964
0.000107386
0.000893924
8.99465e-05
0.000334297
9.66435e-05
0.000282342
0.000103628
0.00025421
0.00107275
0.00342504
8.85432e-05
8.84583e-05
9.10593e-05
0.000862285
0.000349839
0.173571
0.000561209
0.00030866
0.451202
8.95845e-05
0.00560783
9.10043e-05
9.63057e-05
8.88545e-05
0.000204313
9.90909e-05
0.000274184
0.000504691
8.96735e-05
0.000103386
0.000266179
9.15538e-05
9.21473e-05
0.000101203
0.00011197