/*--------------------------------*- C++ -*----------------------------------*\
| =========                 |                                                 |
| \\      /  F ield         | OpenFOAM: The Open Source CFD Toolbox           |
|  \\    /   O peration     | Version:  v2012                                 |
|   \\  /    A nd           | Website:  www.openfoam.com                      |
|    \\/     M anipulation  |                                                 |
\*---------------------------------------------------------------------------*/
FoamFile
{
    version     2.0;
    format      ascii;
    class       volScalarField;
    location    "0.303903";
    object      nut;
}
// * * * * * * * * * * * * * * * * * * * * * * * * * * * * * * * * * * * * * //

dimensions      [0 2 -1 0 0 0 0];


internalField   nonuniform List<scalar> 
83563
(
1.80648e-05
1.84535e-05
2.16619e-05
1.97762e-05
2.09789e-05
3.13198e-05
1.82125e-05
4.25095e-05
3.64096e-05
0.000103135
2.79819e-05
1.85469e-05
0.0230461
1.786e-05
3.44168e-05
3.37938e-05
1.78304e-05
1.78881e-05
3.02316e-05
1.79264e-05
1.78566e-05
1.79706e-05
3.19284e-05
2.06628e-05
1.78198e-05
1.80865e-05
1.79655e-05
9.56416e-05
1.8425e-05
1.80243e-05
2.01336e-05
1.80742e-05
1.91395e-05
1.80314e-05
1.8005e-05
1.97434e-05
1.86237e-05
1.78859e-05
1.85596e-05
3.89147e-05
1.79653e-05
2.2633e-05
1.90114e-05
1.84994e-05
0.0145342
5.13203e-05
1.84819e-05
5.06651e-05
4.4073e-05
1.51922e-05
0.00852074
2.9734e-05
0.000916869
0.00175332
2.35252e-05
0.00310364
1.7951e-05
0.00116629
0.00145566
2.82665e-05
0.00155634
0.000222409
4.58517e-05
1.94731e-05
0.00150927
0.000858213
0.000381925
1.64595e-05
0.00233319
0.00748313
2.1257e-05
0.0110857
1.78986e-05
0.00969755
1.98736e-05
2.31004e-05
5.0825e-05
1.79683e-05
1.81324e-05
0.025014
1.85364e-05
1.80181e-05
1.85603e-05
0.000282539
4.82476e-05
1.80367e-05
1.78286e-05
2.45783e-05
1.79715e-05
2.49646e-05
4.34234e-05
1.80459e-05
5.91206e-05
9.54541e-05
0.000444956
5.73e-05
0.000207769
6.6922e-05
5.1048e-05
4.5188e-05
1.92544e-05
1.86695e-05
2.91245e-05
1.79863e-05
3.26507e-05
1.90538e-05
2.18578e-05
1.81425e-05
0.000382277
1.79559e-05
6.46301e-05
2.44047e-05
2.30809e-05
2.21757e-05
2.5523e-05
1.79941e-05
7.59289e-06
6.57572e-05
2.25308e-05
1.81074e-05
3.30901e-05
3.63661e-05
3.51622e-05
0.0003085
4.78106e-05
1.8046e-05
0.000127146
1.82615e-05
4.59748e-05
4.37749e-05
1.83973e-05
5.31369e-05
2.48611e-05
0.000134194
1.78007e-05
1.78677e-05
3.93543e-05
1.83345e-05
1.82312e-05
0.0104207
1.98204e-05
0.00812526
5.11965e-05
2.20559e-05
1.96777e-05
0.0020297
2.12286e-05
1.84471e-05
1.91535e-05
1.9281e-05
2.0689e-05
1.81278e-05
1.82391e-05
2.55765e-05
1.806e-05
1.82222e-05
1.80099e-05
4.65661e-05
4.34398e-05
3.02005e-05
3.49692e-05
1.7995e-05
1.80341e-05
1.83698e-05
4.53862e-05
1.20016e-05
1.80906e-05
1.41249e-05
1.79405e-05
6.12324e-05
1.80846e-05
1.87695e-05
4.26665e-05
4.37388e-05
4.837e-05
2.59242e-05
2.10225e-05
1.80575e-05
3.20746e-05
1.81798e-05
1.8872e-05
1.8065e-05
1.98648e-05
1.97084e-05
7.75064e-05
0.000124527
2.49529e-05
1.81037e-05
2.20484e-05
1.84789e-05
1.84659e-05
0.000110055
8.63102e-05
1.66168e-05
4.8362e-05
1.55952e-05
2.18256e-05
4.97036e-05
1.83327e-05
3.07862e-05
2.79371e-05
2.39705e-05
7.79167e-05
1.79494e-05
0.000113975
6.35031e-05
1.8453e-05
9.52737e-06
1.79544e-05
1.85287e-05
4.5001e-05
0.000157185
1.79989e-05
1.81885e-05
1.7895e-05
2.56258e-05
3.09979e-05
1.81874e-05
1.82811e-05
3.85524e-05
2.87335e-05
4.80644e-05
1.8699e-05
2.31935e-05
6.90441e-05
1.79448e-05
0.000214508
1.78807e-05
1.83713e-05
7.4366e-05
1.78704e-05
1.85331e-05
1.78865e-05
1.86067e-05
4.65999e-05
1.78572e-05
4.26096e-05
1.87309e-05
1.81331e-05
1.82484e-05
4.56637e-05
3.06815e-05
4.12003e-05
1.81006e-05
1.99906e-05
1.86765e-05
0.00497722
1.83717e-05
0.000493926
2.25521e-05
3.3257e-05
2.31374e-05
1.90797e-05
6.52943e-05
1.87698e-05
2.09473e-05
1.80083e-05
3.94828e-05
1.80483e-05
1.8681e-05
1.87877e-05
2.831e-05
0.000187104
3.40492e-05
2.46372e-05
1.98364e-05
3.1491e-05
2.23642e-05
1.82324e-05
1.83717e-05
2.56922e-05
4.78197e-05
2.25438e-05
2.71351e-05
4.56701e-05
1.86711e-05
0.000102076
2.90973e-05
1.91951e-05
3.19291e-05
4.41561e-05
1.8984e-05
1.81032e-05
6.01454e-05
2.64052e-05
1.84705e-05
4.54752e-05
1.98982e-05
1.81724e-05
2.58422e-05
1.74411e-05
1.81004e-05
0.00013419
1.79607e-05
1.81312e-05
2.5156e-05
2.49669e-05
1.84072e-05
3.19864e-05
2.11826e-05
2.00722e-05
1.86646e-05
1.83645e-05
1.79128e-05
1.78631e-05
7.81505e-05
9.36328e-05
0.00140066
2.96833e-05
5.06828e-05
1.86552e-05
3.9124e-05
0.000779514
7.72662e-06
0.000166772
1.91171e-05
4.74002e-05
2.91606e-05
1.81184e-05
4.38573e-05
9.47672e-05
2.95855e-05
1.78775e-05
2.4963e-05
4.4585e-05
1.82537e-05
0.000108964
0.000610753
1.89194e-05
2.29141e-05
1.7734e-05
1.90767e-05
1.81586e-05
0.000765462
1.81371e-05
1.82556e-05
3.23628e-05
0.00320116
4.83898e-05
1.81678e-05
0.00232481
0.000934463
1.84762e-05
1.84201e-05
1.86881e-05
1.8494e-05
5.35976e-05
2.65979e-05
6.23188e-05
1.86352e-05
1.7939e-05
1.853e-05
2.17233e-05
2.58423e-05
0.00637181
1.7923e-05
4.66519e-05
3.21204e-05
2.97649e-05
0.00031147
0.00038577
0.000172655
4.6828e-05
1.22379e-05
1.25662e-05
5.39107e-05
0.000249642
2.61985e-05
1.85272e-05
1.78831e-05
1.82926e-05
3.51045e-05
4.43002e-05
0.0106889
0.0119043
1.92494e-05
1.58027e-05
1.83804e-05
1.89302e-05
1.8314e-05
1.86453e-05
1.81919e-05
1.82447e-05
1.81804e-05
1.63625e-05
0.000107339
2.15288e-05
3.71423e-05
9.57895e-06
2.12907e-05
8.20823e-05
2.01184e-05
2.28786e-05
3.74467e-05
4.23038e-05
6.17001e-05
2.18217e-05
2.80859e-05
1.8357e-05
1.78671e-05
4.6243e-05
1.79945e-05
1.81188e-05
1.97931e-05
3.39745e-05
1.91271e-05
0.00650835
2.07712e-05
1.79386e-05
2.00339e-05
0.00103798
5.02258e-05
1.86443e-05
1.8105e-05
0.000608763
1.99751e-05
2.00962e-05
6.89532e-05
2.39378e-05
2.08683e-05
1.80026e-05
1.83138e-05
0.000981345
1.80947e-05
4.48589e-05
0.00110448
1.90045e-05
3.1674e-05
1.79427e-05
1.85523e-05
1.84122e-05
1.9197e-05
1.95074e-05
1.85229e-05
0.00230335
3.80647e-05
3.10325e-05
1.88639e-05
2.87498e-05
6.79725e-05
4.3932e-05
2.17912e-05
1.8323e-05
1.80209e-05
1.98785e-05
2.233e-05
2.83091e-05
4.31494e-05
3.26092e-05
0.00202514
5.18919e-05
2.21424e-05
1.85023e-05
2.02962e-05
3.72937e-05
5.78255e-05
1.82372e-05
1.79964e-05
1.8122e-05
1.9867e-05
1.8341e-05
0.000761527
1.88842e-05
1.82259e-05
2.34746e-05
1.81625e-05
1.82189e-05
1.84046e-05
2.13028e-05
2.51043e-05
3.41614e-05
1.92197e-05
1.9957e-05
3.32653e-05
1.78592e-05
7.76144e-05
1.92039e-05
2.61363e-05
3.52003e-05
1.8256e-05
3.09923e-05
1.84666e-05
2.00697e-05
4.44651e-05
1.79515e-05
1.87697e-05
1.83374e-05
4.25458e-05
3.6951e-05
1.80763e-05
1.79357e-05
1.9492e-05
2.22764e-05
0.000802601
0.000116311
4.7244e-05
1.87294e-05
2.33314e-05
2.14259e-05
1.81947e-05
1.80409e-05
2.44289e-05
1.86057e-05
1.83896e-05
3.90476e-05
1.82957e-05
3.24949e-05
4.78261e-05
1.51527e-05
4.08135e-05
1.80273e-05
2.05305e-05
1.78967e-05
1.78644e-05
1.97168e-05
1.82683e-05
4.95518e-05
0.000350515
0.000557791
1.92668e-05
3.14485e-05
3.47995e-05
2.51956e-05
1.68704e-05
4.13473e-05
1.90974e-05
1.70536e-05
0.0010164
1.83526e-05
2.0677e-05
1.85832e-05
1.81237e-05
2.03311e-05
1.94372e-05
1.82841e-05
1.82428e-05
0.000326868
8.79251e-05
1.89804e-05
0.000536333
3.16235e-05
1.79406e-05
0.000799943
1.81048e-05
1.86452e-05
4.41817e-05
1.86019e-05
3.99103e-05
0.00066521
3.74297e-05
1.93244e-05
1.85022e-05
2.41801e-05
1.5295e-05
1.81526e-05
3.13697e-05
1.9307e-05
0.000159778
0.00041611
1.78767e-05
2.40967e-05
0.00337111
1.814e-05
3.21848e-05
1.80895e-05
1.82199e-05
0.000121348
1.8244e-05
1.82344e-05
2.65661e-05
0.000245736
3.93524e-05
1.81155e-05
2.58357e-05
0.000338097
4.07099e-05
2.1315e-05
1.82966e-05
1.78657e-05
1.82423e-05
1.86725e-05
0.00669258
1.82326e-05
1.91776e-05
2.11801e-05
1.86242e-05
1.79598e-05
1.99896e-05
1.7952e-05
0.00522587
1.78568e-05
1.83233e-05
1.79048e-05
1.83407e-05
2.01715e-05
1.78491e-05
1.79251e-05
1.79051e-05
1.79689e-05
1.8275e-05
1.92968e-05
1.81058e-05
1.78244e-05
1.78716e-05
1.8813e-05
2.14419e-05
0.000231774
2.58278e-05
1.79367e-05
1.79387e-05
1.86857e-05
1.80729e-05
1.80278e-05
1.89562e-05
6.99541e-05
1.92981e-05
3.05617e-05
2.96063e-05
6.66427e-05
3.12341e-05
1.84436e-05
3.8539e-05
2.6463e-05
1.82997e-05
1.8503e-05
2.01467e-05
1.9116e-05
1.83132e-05
1.97429e-05
1.79886e-05
3.73713e-05
1.89681e-05
1.90693e-05
1.91994e-05
1.78195e-05
1.63596e-05
2.09112e-05
4.09693e-05
1.78979e-05
1.84827e-05
1.84693e-05
6.54953e-05
8.02069e-05
1.79904e-05
5.32238e-05
1.78575e-05
1.78397e-05
1.7933e-05
0.00150496
2.76347e-05
1.90579e-05
2.09718e-05
2.71701e-05
4.31694e-05
6.83925e-05
1.81155e-05
3.44038e-05
1.82526e-05
1.83726e-05
1.89372e-05
1.9243e-05
0.000735138
1.90253e-05
2.00815e-05
0.00063929
1.79203e-05
1.98177e-05
1.78848e-05
1.86873e-05
0.000101416
2.29996e-05
2.10122e-05
1.84761e-05
3.48377e-05
6.73783e-05
1.85442e-05
1.52483e-05
1.6145e-05
1.77736e-05
1.24564e-05
0.000780378
2.99976e-05
8.04119e-05
0.00120566
1.81006e-05
1.99832e-05
6.03563e-05
1.82158e-05
0.000105979
2.58169e-05
2.2057e-05
1.90065e-05
1.91418e-05
6.52938e-05
8.76389e-05
0.000566153
1.90217e-05
0.000111992
1.94185e-05
2.43394e-05
2.68851e-05
2.57129e-05
1.78461e-05
3.28027e-05
6.32158e-05
3.14544e-05
1.79862e-05
2.12146e-05
3.11189e-05
2.32091e-05
1.79523e-05
3.31149e-05
1.812e-05
1.8039e-05
3.4182e-05
1.81326e-05
1.79521e-05
1.98421e-05
2.69938e-05
2.68193e-05
1.80731e-05
1.90662e-05
1.79009e-05
2.31618e-05
1.81812e-05
6.64639e-05
0.00140049
0.00382883
2.22659e-05
0.000828014
1.80913e-05
1.79693e-05
1.91439e-05
5.88594e-05
0.00105827
3.72896e-05
1.85639e-05
2.22672e-05
0.00114942
1.80728e-05
2.2429e-05
1.649e-05
1.82388e-05
2.55114e-05
2.53815e-05
2.08465e-05
1.88467e-05
5.87338e-05
0.00103532
1.89897e-05
2.19162e-05
2.23019e-05
1.78489e-05
0.000621787
2.14678e-05
4.73045e-05
1.79542e-05
2.04342e-05
6.12799e-05
1.88155e-05
1.79855e-05
1.79064e-05
0.000123945
1.79693e-05
4.06814e-05
1.86407e-05
1.78565e-05
1.82311e-05
2.13598e-05
3.87922e-05
2.23359e-05
1.79046e-05
1.79564e-05
2.7733e-05
1.9387e-05
2.03152e-05
1.81245e-05
0.000277641
1.82e-05
1.93025e-05
2.32502e-05
7.18532e-05
0.0011583
0.00225794
1.79247e-05
0.00199343
1.82613e-05
3.9261e-05
1.91661e-05
3.58028e-05
4.91068e-05
2.28046e-05
1.89163e-05
0.000372417
3.26271e-05
2.9783e-05
2.05297e-05
1.79424e-05
1.79478e-05
1.92173e-05
2.4677e-05
1.83234e-05
4.47056e-05
1.80822e-05
1.80501e-05
1.82586e-05
2.63644e-05
0.000969764
0.000245783
4.7102e-05
1.81808e-05
1.96854e-05
0.00020466
0.000144261
0.000109134
6.21049e-05
1.79744e-05
4.9472e-05
1.77711e-05
1.79894e-05
0.000145006
1.97871e-05
0.000194511
3.12554e-05
1.82618e-05
4.37333e-05
7.76264e-05
5.73518e-05
0.00306315
1.84286e-05
1.80665e-05
2.42604e-05
1.81756e-05
3.5043e-05
1.9287e-05
1.79033e-05
1.80034e-05
4.68501e-05
2.2114e-05
2.24921e-05
0.00192427
0.00427517
1.79604e-05
1.81333e-05
2.15016e-05
0.000546575
3.65944e-05
1.83788e-05
4.06335e-05
0.00839436
1.90872e-05
1.79242e-05
1.83193e-05
1.78916e-05
2.09092e-05
0.00346549
1.78958e-05
3.7998e-05
4.45478e-05
2.50997e-05
1.84084e-05
2.85285e-05
2.39946e-05
1.8022e-05
5.1886e-05
3.0809e-05
6.04531e-05
3.50557e-05
1.998e-05
1.82905e-05
1.80004e-05
0.000171721
4.03018e-05
3.279e-05
2.65264e-05
1.98415e-05
1.79808e-05
1.81313e-05
1.93873e-05
2.10707e-05
1.78229e-05
2.37546e-05
1.8548e-05
1.83132e-05
1.7973e-05
0.000215643
5.07063e-05
1.87188e-05
0.00037448
0.00170046
1.924e-05
0.000120873
1.81854e-05
1.83816e-05
1.79576e-05
1.83864e-05
2.61555e-05
1.817e-05
2.1966e-05
3.96431e-05
1.96637e-05
1.80666e-05
1.87042e-05
3.66093e-05
1.8117e-05
1.86235e-05
2.06856e-05
1.79978e-05
2.21781e-05
2.30234e-05
1.8112e-05
1.92302e-05
1.78699e-05
2.29641e-05
2.02627e-05
0.000922138
0.000801117
1.8513e-05
0.000208047
1.78827e-05
4.2693e-05
4.06151e-05
3.26389e-05
3.82914e-05
1.8085e-05
1.8436e-05
3.30314e-05
1.83453e-05
0.000580639
1.8313e-05
2.016e-05
1.37232e-05
3.92965e-05
2.53982e-05
0.0010844
2.67926e-05
1.20128e-05
1.8181e-05
2.74582e-05
0.000180249
3.28734e-05
1.83238e-05
4.23249e-05
4.79538e-05
1.78724e-05
1.78883e-05
2.09293e-05
2.0019e-05
1.87501e-05
1.85467e-05
1.80751e-05
1.83081e-05
1.81125e-05
1.79759e-05
1.78334e-05
4.06724e-05
0.000534624
1.91074e-05
1.78276e-05
1.79099e-05
3.67318e-05
1.7873e-05
1.82428e-05
1.80156e-05
5.18613e-05
5.83235e-05
2.55703e-05
1.79145e-05
5.94665e-05
2.33184e-05
0.000122669
1.94492e-05
2.51395e-05
2.31182e-05
1.86453e-05
4.02722e-05
1.85503e-05
1.8446e-05
1.79785e-05
2.1161e-05
2.30786e-05
2.07884e-05
2.01723e-05
1.80545e-05
1.82827e-05
2.60028e-05
4.86766e-05
3.00782e-05
1.96522e-05
1.97712e-05
6.85326e-05
2.53616e-05
1.8013e-05
1.80275e-05
1.78954e-05
6.7288e-05
6.71158e-05
3.78402e-05
3.99266e-05
8.36266e-06
2.36598e-05
1.79916e-05
1.78453e-05
1.86022e-05
0.000332944
1.88155e-05
3.64093e-05
5.95427e-05
7.10502e-05
2.60612e-05
2.23104e-05
1.88368e-05
1.85439e-05
1.81632e-05
2.25016e-05
2.14516e-05
1.83225e-05
4.69457e-05
4.78942e-05
1.82271e-05
3.70108e-05
1.91322e-05
3.44813e-05
2.40596e-05
1.82548e-05
1.81272e-05
1.78601e-05
4.32012e-05
1.95372e-05
1.82364e-05
6.1934e-05
2.46554e-05
1.81328e-05
4.4346e-05
2.32415e-05
1.78481e-05
3.03591e-05
1.81433e-05
1.92656e-05
1.85327e-05
1.83593e-05
2.70592e-05
1.89937e-05
6.95258e-05
1.86341e-05
7.72707e-05
2.9526e-05
1.89698e-05
0.00501778
1.8912e-05
0.0101304
0.0166449
1.80128e-05
1.8111e-05
1.78603e-05
2.35685e-05
1.78911e-05
2.95719e-05
1.84677e-05
0.00807553
1.79605e-05
0.0166702
5.71343e-05
0.000929289
2.13153e-05
1.82187e-05
2.74362e-05
1.89914e-05
2.95865e-05
2.35251e-05
1.76148e-05
1.99085e-05
0.0176834
1.81591e-05
2.67496e-05
5.52937e-05
1.81721e-05
1.79759e-05
3.21337e-05
0.00099832
1.79168e-05
3.81361e-05
1.94622e-05
1.78473e-05
3.95482e-05
0.00449901
1.83355e-05
1.99363e-05
3.90475e-05
0.00016305
0.0256626
4.83357e-05
6.06203e-05
2.26374e-05
2.1145e-05
4.38644e-05
1.80419e-05
3.1306e-05
5.28994e-05
2.53609e-05
6.11996e-05
1.82638e-05
9.55943e-05
2.06774e-05
2.61452e-05
1.92447e-05
3.62397e-05
1.79657e-05
3.55459e-05
1.79102e-05
1.85653e-05
2.05958e-05
1.86748e-05
1.80942e-05
4.04981e-05
1.92895e-05
3.72682e-05
1.83561e-05
2.40144e-05
1.91049e-05
0.000516445
1.78752e-05
2.07394e-05
1.81691e-05
4.20854e-05
1.77027e-05
3.84496e-05
1.78514e-05
4.49255e-05
1.87253e-05
1.81535e-05
3.55772e-05
4.61636e-05
1.90004e-05
1.80587e-05
1.78641e-05
1.80668e-05
0.000122586
2.51745e-05
3.40649e-05
1.94253e-05
1.93982e-05
1.82685e-05
1.7845e-05
2.56429e-05
1.91559e-05
4.81453e-05
2.81932e-05
1.87724e-05
1.79418e-05
2.91832e-05
1.84878e-05
1.84215e-05
1.88941e-05
1.82052e-05
3.64194e-05
1.79277e-05
1.78612e-05
1.82171e-05
3.24375e-05
6.13678e-05
1.93574e-05
1.20745e-05
1.86864e-05
1.86269e-05
1.84584e-05
1.8407e-05
2.04872e-05
1.88661e-05
1.8456e-05
1.82759e-05
1.81746e-05
3.99337e-05
1.88808e-05
2.3188e-05
2.01716e-05
2.91776e-05
2.27392e-05
6.42767e-05
1.81055e-05
1.85762e-05
3.32757e-05
5.16191e-05
1.8302e-05
1.78882e-05
1.79685e-05
1.83129e-05
3.76447e-05
4.23987e-05
2.09404e-05
2.72784e-05
1.73373e-05
0.00027701
1.35058e-05
0.000113912
2.15583e-05
1.80411e-05
1.87754e-05
1.86222e-05
5.10757e-05
1.84252e-05
5.90557e-05
2.34226e-05
1.83809e-05
3.6527e-05
4.75355e-05
1.85203e-05
7.19164e-05
3.96427e-05
1.81614e-05
1.83064e-05
2.30029e-05
1.80965e-05
1.8205e-05
0.00885411
1.80054e-05
0.0113574
0.00252277
3.54604e-05
2.88666e-05
1.80921e-05
1.84861e-05
1.83201e-05
3.27183e-05
1.81209e-05
4.63445e-05
3.26122e-05
0.00937322
4.25606e-05
1.8043e-05
1.81218e-05
1.80782e-05
2.04941e-05
2.03647e-05
2.68679e-05
1.80957e-05
0.000765886
0.000271182
1.78715e-05
1.79515e-05
0.00193187
1.98987e-05
1.80026e-05
2.02265e-05
1.81786e-05
4.03537e-05
0.00113239
1.79196e-05
5.64581e-05
5.66685e-05
5.01978e-05
1.81957e-05
1.79755e-05
1.81517e-05
6.60715e-05
0.00125643
2.47471e-05
2.36432e-05
1.808e-05
3.89055e-05
4.1033e-05
2.28334e-05
2.22731e-05
1.81554e-05
1.88358e-05
0.000124916
1.82754e-05
3.94862e-05
4.80777e-05
1.88241e-05
3.34594e-05
4.43565e-05
1.91314e-05
1.8951e-05
5.58094e-05
2.28404e-05
1.78461e-05
2.96902e-05
1.82396e-05
1.88138e-05
0.00748111
4.124e-05
1.81082e-05
2.06412e-05
0.00071954
2.31737e-05
1.85267e-05
4.26916e-05
1.81475e-05
0.00138977
2.0585e-05
1.79672e-05
1.80107e-05
1.85142e-05
1.84114e-05
1.90078e-05
4.97147e-05
1.84934e-05
1.87514e-05
1.94982e-05
4.53879e-05
4.52398e-05
1.79973e-05
6.36518e-05
1.83451e-05
1.84786e-05
1.83646e-05
1.79565e-05
4.10303e-05
1.95506e-05
1.78829e-05
1.79058e-05
0.00167433
1.80059e-05
1.81133e-05
1.80538e-05
3.66808e-05
0.000106983
1.78774e-05
0.00107065
1.93615e-05
1.83914e-05
3.23273e-05
1.80415e-05
0.00112786
0.000291086
1.80905e-05
3.27407e-05
0.00016603
0.00573435
0.000457108
3.7494e-05
1.88498e-05
1.80775e-05
1.8066e-05
2.50628e-05
6.91284e-05
1.79111e-05
8.40583e-05
1.80632e-05
1.81867e-05
6.34532e-05
1.85551e-05
1.85229e-05
1.79983e-05
2.24954e-05
5.52867e-05
1.8835e-05
3.8839e-05
3.39089e-05
2.04772e-05
5.78141e-05
2.00681e-05
3.31457e-05
2.74665e-05
1.9534e-05
2.14344e-05
1.81253e-05
1.79433e-05
2.04003e-05
1.81402e-05
1.94269e-05
2.10796e-05
1.84536e-05
1.82297e-05
1.80397e-05
2.29038e-05
1.84897e-05
2.32286e-05
2.05305e-05
1.79361e-05
2.22195e-05
2.93506e-05
5.49959e-05
1.78634e-05
1.85136e-05
0.00084485
2.98873e-05
1.83251e-05
8.155e-05
1.83588e-05
1.85375e-05
1.88234e-05
1.78734e-05
0.000375767
1.79883e-05
2.92651e-05
1.97069e-05
5.5607e-05
1.87123e-05
1.79112e-05
2.14725e-05
0.000576521
1.78271e-05
2.10976e-05
2.24882e-05
5.85319e-05
9.52245e-05
2.51324e-05
1.86425e-05
1.80928e-05
5.69459e-05
3.72471e-05
7.27782e-05
4.64754e-05
1.79758e-05
1.80386e-05
1.80475e-05
1.84146e-05
2.61761e-05
3.13704e-05
1.83668e-05
2.93578e-05
1.91332e-05
3.35204e-05
2.47381e-05
4.01224e-05
2.06961e-05
1.89123e-05
1.79351e-05
2.09811e-05
3.28802e-05
1.80303e-05
2.10945e-05
1.8276e-05
3.45103e-06
2.69545e-05
1.82007e-05
1.8454e-05
1.83972e-05
3.39598e-05
4.3384e-05
1.7808e-05
2.01734e-05
3.65032e-05
4.31498e-05
1.80896e-05
1.8206e-05
0.000629443
1.78531e-05
2.34055e-05
1.79389e-05
1.88021e-05
1.79925e-05
1.80071e-05
1.81835e-05
1.83111e-05
0.00128795
1.82637e-05
2.73653e-05
1.84436e-05
1.80679e-05
2.78793e-05
1.80127e-05
2.03746e-05
1.8401e-05
0.000275393
0.000240705
2.24086e-05
3.07337e-05
1.81649e-05
3.4173e-05
0.0211527
1.84053e-05
1.80447e-05
3.90356e-05
6.01697e-05
0.00124268
7.58671e-05
1.89545e-05
1.78378e-05
2.12601e-05
1.84838e-05
2.55972e-05
1.81438e-05
1.88372e-05
7.77137e-05
0.000299572
1.80674e-05
0.0010159
3.44759e-05
3.58924e-05
2.0457e-05
4.05367e-05
1.82323e-05
0.000800395
4.36635e-05
2.25077e-05
2.07388e-05
1.79916e-05
6.58579e-05
0.000230167
3.08734e-05
1.89447e-05
1.79981e-05
8.86539e-05
6.16598e-05
4.2896e-05
1.83652e-05
5.19198e-05
3.23729e-05
4.24421e-05
1.8702e-05
1.99283e-05
0.000784907
1.7874e-05
4.0956e-05
1.84706e-05
1.86907e-05
1.79254e-05
1.78696e-05
1.85462e-05
1.80479e-05
2.0654e-05
3.24603e-05
2.14926e-05
2.55144e-05
3.75285e-05
1.81849e-05
1.80843e-05
2.56611e-05
1.81256e-05
2.45648e-05
1.79233e-05
1.81198e-05
2.28969e-05
2.96926e-05
1.79861e-05
2.11723e-05
2.22402e-05
1.8092e-05
2.1066e-05
1.82049e-05
2.59821e-05
1.8865e-05
5.69224e-05
1.80003e-05
1.78866e-05
6.55569e-05
0.000523386
1.83667e-05
2.49889e-05
0.000438683
0.000389478
1.82483e-05
0.000347693
2.09353e-05
2.4905e-05
1.82459e-05
0.00141202
1.8213e-05
2.61112e-05
1.90707e-05
2.19035e-05
4.12139e-05
1.78399e-05
4.25143e-05
1.81136e-05
0.00159987
1.91691e-05
1.83896e-05
1.79977e-05
2.4896e-05
6.10485e-05
1.96495e-05
1.79549e-05
2.04457e-05
3.40449e-05
2.34751e-05
1.80871e-05
7.80746e-06
4.20235e-05
1.84587e-05
4.24058e-05
1.81398e-05
1.11473e-05
4.82127e-05
1.82812e-05
1.7839e-05
1.82641e-05
1.82345e-05
1.80293e-05
2.13233e-05
2.34571e-05
4.66138e-05
0.00925128
1.85822e-05
1.79714e-05
1.6972e-05
1.83191e-05
1.96481e-05
1.8769e-05
1.91903e-05
4.95283e-05
1.88716e-05
2.282e-05
1.79073e-05
3.68074e-05
1.87329e-05
1.85948e-05
1.82218e-05
5.52518e-05
4.8372e-05
1.87544e-05
0.000135797
0.0077177
0.000850891
1.79403e-05
2.08097e-05
1.80709e-05
1.80599e-05
0.000109834
1.81697e-05
2.0699e-05
1.8237e-05
1.80783e-05
1.79342e-05
0.00512909
0.00882617
1.81737e-05
1.78977e-05
1.79704e-05
4.17363e-05
0.000356645
0.00577737
2.61318e-05
3.63302e-05
1.78906e-05
2.68068e-05
2.18947e-05
3.71532e-05
2.58115e-05
1.81113e-05
2.64855e-05
3.45818e-05
2.04463e-05
1.90645e-05
1.81934e-05
2.52663e-05
1.81122e-05
1.95993e-05
1.81763e-05
1.79808e-05
3.30385e-05
4.7134e-05
2.19128e-05
2.62934e-05
2.08693e-05
1.83088e-05
7.12584e-05
1.75792e-05
2.24377e-05
2.58669e-05
2.61414e-05
1.7972e-05
5.42114e-05
3.07581e-05
3.40717e-05
3.3922e-05
0.000867652
3.07973e-05
1.86925e-05
1.93052e-05
2.15267e-05
2.0959e-05
3.28983e-05
0.00108377
1.87426e-05
1.86248e-05
2.03769e-05
2.40716e-05
4.47047e-05
1.79651e-05
1.93674e-05
1.82121e-05
2.54492e-05
1.85047e-05
3.11298e-05
2.90555e-05
1.82428e-05
1.80606e-05
3.56776e-05
1.84038e-05
0.000108587
7.54665e-05
2.11332e-05
1.78898e-05
1.84071e-05
2.08709e-05
1.82576e-05
2.19581e-05
1.82236e-05
1.97646e-05
1.92126e-05
1.80043e-05
0.000243342
1.79673e-05
1.82823e-05
1.80378e-05
1.88644e-05
2.7711e-05
2.2385e-05
0.0066955
2.8167e-05
1.82502e-05
1.95304e-05
3.59983e-05
1.79965e-05
1.79236e-05
1.96246e-05
1.84363e-05
1.79185e-05
1.8004e-05
1.91127e-05
1.87602e-05
1.83858e-05
0.00112811
1.78943e-05
1.78657e-05
1.8989e-05
5.05298e-05
6.55228e-05
2.26308e-05
4.46185e-05
2.12883e-05
4.57437e-05
2.01166e-05
1.79204e-05
1.78382e-05
2.97617e-05
1.84248e-05
1.83406e-05
1.78921e-05
1.79881e-05
2.30529e-05
0.00117036
4.90329e-05
1.78705e-05
5.34967e-05
0.00276925
1.78288e-05
2.32712e-05
1.78395e-05
2.12448e-05
1.78642e-05
3.95139e-05
1.89658e-05
1.80617e-05
0.00478563
3.53018e-05
4.13899e-05
2.63789e-05
1.81965e-05
3.24546e-05
1.93898e-05
2.16652e-05
1.7854e-05
0.00356903
2.89061e-05
1.87242e-05
1.79434e-05
2.03355e-05
1.78866e-05
1.84499e-05
4.79081e-05
1.944e-05
7.84474e-05
1.8012e-05
2.06618e-05
0.00178443
2.16182e-05
3.04859e-05
4.60157e-05
0.00235029
1.78417e-05
0.00115205
1.78803e-05
0.000616007
2.52878e-05
1.82238e-05
1.82333e-05
3.46896e-05
1.94576e-05
2.29993e-05
4.01838e-05
1.86446e-05
1.80347e-05
1.82247e-05
2.02887e-05
1.80821e-05
2.0884e-05
2.43238e-05
1.99772e-05
1.91618e-05
2.58575e-05
1.85507e-05
1.81845e-05
0.000854026
1.88265e-05
3.61324e-05
5.66641e-05
1.84154e-05
1.86369e-05
2.351e-05
2.1836e-05
0.00605488
2.83875e-05
1.90315e-05
0.00207544
0.0152264
1.79565e-05
2.11494e-05
4.69679e-05
1.82847e-05
1.81136e-05
2.40634e-05
1.88816e-05
3.61305e-05
2.01905e-05
0.00931855
2.65118e-05
1.82044e-05
4.00479e-05
1.8073e-05
1.83305e-05
1.79161e-05
4.20919e-05
2.04695e-05
1.85347e-05
1.85922e-05
2.48158e-05
1.81606e-05
1.84705e-05
1.90029e-05
0.000526371
1.79742e-05
0.00152907
1.9894e-05
1.79475e-05
3.51871e-05
1.80646e-05
2.79865e-05
4.73333e-05
1.89465e-05
5.42769e-05
1.80369e-05
1.877e-05
1.88921e-05
1.81883e-05
1.81735e-05
2.30247e-05
1.80789e-05
0.000739119
1.82603e-05
2.27417e-05
1.82546e-05
1.78646e-05
1.82059e-05
3.32703e-05
1.8047e-05
1.93188e-05
2.31261e-05
4.39677e-05
1.80581e-05
2.32009e-05
0.000321018
3.52493e-05
0.000792402
0.000205848
5.74474e-05
3.46314e-05
8.05888e-06
1.76141e-05
1.81873e-05
2.13224e-05
8.84123e-05
4.53867e-05
1.79803e-05
1.82347e-05
1.86875e-05
3.04936e-05
3.28767e-05
4.32488e-05
0.00610367
1.79898e-05
3.16269e-05
4.03588e-05
1.7988e-05
1.78922e-05
2.02933e-05
6.90353e-05
0.00158274
1.83044e-05
1.82095e-05
2.93005e-05
1.80191e-05
4.18849e-05
0.00519718
1.86163e-05
3.44032e-05
0.00435617
1.83141e-05
2.02032e-05
1.80019e-05
1.7913e-05
3.2415e-05
5.919e-05
2.21024e-05
4.67773e-05
4.19286e-05
1.80549e-05
1.8378e-05
3.9711e-05
1.83429e-05
1.80029e-05
0.000755237
1.87133e-05
3.18267e-05
1.80341e-05
0.000954068
1.86237e-05
0.00048042
1.79492e-05
1.83358e-05
2.48291e-05
1.6634e-05
2.71583e-05
3.16871e-05
4.78098e-05
1.8128e-05
1.79262e-05
0.000778539
0.000980118
0.000660356
1.81464e-05
0.000821154
0.000607761
1.86472e-05
1.79566e-05
1.9123e-05
4.39081e-05
1.94372e-05
1.82192e-05
3.83905e-05
5.35643e-05
0.000588529
0.000860802
0.000248186
6.72547e-05
1.84646e-05
2.421e-05
1.66855e-05
4.09789e-05
3.62381e-05
1.79242e-05
1.87613e-05
1.81112e-05
4.95419e-05
1.79611e-05
0.000117265
2.18456e-05
2.35577e-05
1.80363e-05
2.93905e-05
2.56372e-05
1.7861e-05
5.27521e-05
2.46746e-05
6.15634e-05
1.93978e-05
0.000356473
1.82744e-05
1.85092e-05
1.80105e-05
1.79427e-05
0.000366561
1.81976e-05
2.00118e-05
0.000322634
7.8836e-05
4.6829e-05
0.000700751
1.81801e-05
2.01052e-05
1.80823e-05
0.000116426
1.81812e-05
4.64013e-05
1.81804e-05
4.52517e-05
1.81241e-05
0.000742354
1.81564e-05
1.79701e-05
1.78427e-05
6.29941e-05
0.000289203
1.80671e-05
0.0167692
1.79097e-05
1.78611e-05
1.78399e-05
2.75076e-05
1.83818e-05
1.91704e-05
1.81839e-05
8.46874e-05
3.37795e-05
1.78597e-05
1.81892e-05
1.80327e-05
2.26701e-05
1.83072e-05
2.14668e-05
2.70768e-05
2.65583e-05
2.07434e-05
0.000329908
3.09214e-05
1.84356e-05
3.70148e-05
2.87142e-05
1.79707e-05
1.93767e-05
1.80055e-05
2.13545e-05
1.82366e-05
4.66309e-05
2.3274e-05
2.78114e-05
1.80173e-05
1.85617e-05
4.70185e-05
1.83523e-05
1.79987e-05
1.81242e-05
1.97217e-05
8.91463e-05
1.81811e-05
3.95195e-05
1.81072e-05
1.78456e-05
1.79748e-05
5.18769e-05
3.92093e-05
2.03928e-05
1.80673e-05
2.20304e-05
1.78369e-05
1.78426e-05
1.7879e-05
1.82188e-05
4.64702e-05
4.4192e-05
0.000282781
2.76663e-05
1.87482e-05
1.78801e-05
2.04909e-05
0.00067197
0.0151533
3.47096e-05
1.7838e-05
1.7877e-05
1.81629e-05
1.79009e-05
0.00017671
5.46089e-05
1.90103e-05
0.00116071
6.71723e-05
2.51593e-05
1.82102e-05
4.04775e-05
6.64713e-05
0.000655295
1.79002e-05
0.00387912
3.43533e-05
1.99219e-05
1.79413e-05
0.000468547
2.69824e-05
0.000155593
4.19459e-05
2.8364e-05
4.23862e-05
1.81326e-05
9.50525e-05
1.80743e-05
1.70789e-05
4.26127e-05
6.04595e-05
1.82223e-05
1.99295e-05
6.0769e-05
3.58977e-05
1.8555e-05
1.77996e-05
8.39265e-05
1.78295e-05
2.73083e-05
1.82029e-05
1.83988e-05
1.79066e-05
9.37417e-05
1.8268e-05
1.90038e-05
2.19871e-05
2.09798e-05
1.91165e-05
2.938e-05
1.80863e-05
1.81221e-05
7.48738e-05
1.98555e-05
1.85882e-05
3.51348e-05
2.55725e-05
1.86004e-05
6.51465e-05
1.87043e-05
1.81606e-05
1.76778e-05
2.22435e-05
1.8119e-05
2.7076e-05
1.80814e-05
1.94631e-05
2.53783e-05
2.17135e-05
5.18278e-05
0.00535765
5.70123e-05
0.000687048
1.811e-05
1.97009e-05
0.00816249
3.16515e-05
1.84375e-05
1.96921e-05
1.81591e-05
0.000299855
2.69085e-05
0.00601092
1.9325e-05
2.05498e-05
5.91916e-05
0.0026358
1.81552e-05
0.000725398
7.3674e-05
5.6088e-05
3.99167e-06
2.84389e-05
2.28621e-05
1.85371e-05
4.06139e-05
1.79862e-05
1.8044e-05
4.6247e-05
2.49128e-05
2.03556e-05
1.88902e-05
1.82594e-05
1.807e-05
1.99008e-05
4.35531e-05
1.82006e-05
2.23703e-05
3.68227e-05
5.52555e-05
1.84815e-05
4.78918e-05
0.00919999
2.56757e-05
1.80972e-05
1.89836e-05
1.86074e-05
3.22046e-05
4.01012e-05
1.83407e-05
1.83956e-05
1.88595e-05
3.11706e-05
1.83429e-05
4.85707e-05
1.79874e-05
2.79076e-05
3.22087e-05
2.16567e-05
6.42652e-05
2.75448e-05
1.67707e-05
1.81301e-05
6.36155e-05
0.000864601
1.8338e-05
2.82314e-05
3.40473e-05
3.14495e-05
3.62376e-05
1.82876e-05
4.43325e-05
1.79409e-05
1.23822e-05
1.66768e-05
2.00004e-05
1.82262e-05
2.1564e-05
2.41693e-05
1.81772e-05
1.92924e-05
1.79265e-05
1.92063e-05
1.78447e-05
1.78526e-05
5.84581e-05
1.86137e-05
1.91828e-05
1.78249e-05
0.000199778
2.97422e-05
1.8155e-05
2.45435e-05
1.82304e-05
2.19312e-05
2.84031e-05
4.16802e-05
1.88652e-05
1.85994e-05
4.10725e-05
0.000387436
1.92242e-05
1.85328e-05
0.000151863
1.78886e-05
4.82294e-05
2.16977e-05
1.8076e-05
1.70055e-05
2.25947e-05
0.00442985
1.83045e-05
1.81197e-05
1.79851e-05
1.8692e-05
0.00207393
3.55576e-05
0.000148739
1.94716e-05
1.96055e-05
8.11379e-05
1.79349e-05
1.78969e-05
0.00154001
3.73778e-05
0.00201088
2.08546e-05
1.71846e-05
0.000805563
0.000154324
2.0833e-05
2.05325e-05
1.83915e-05
1.82997e-05
1.7859e-05
3.81992e-05
1.90106e-05
1.83401e-05
1.94305e-05
4.67055e-05
2.02425e-05
3.60671e-05
5.18012e-05
2.00726e-05
2.17737e-05
1.78577e-05
2.42269e-05
0.000362996
4.40753e-05
1.79706e-05
1.83937e-05
1.92883e-05
0.000814143
3.24936e-05
0.000286531
2.00348e-05
1.81314e-05
1.78305e-05
6.16781e-05
0.000434121
1.78672e-05
1.78522e-05
4.97631e-05
3.37639e-05
1.84898e-05
1.97019e-05
5.77249e-05
1.9351e-05
2.13576e-05
6.46607e-05
0.00110915
1.88669e-05
1.78713e-05
3.80855e-05
1.82785e-05
1.80513e-05
4.87058e-05
1.84436e-05
5.86402e-05
1.82164e-05
1.81496e-05
1.79112e-05
4.66699e-05
2.56063e-05
1.78878e-05
2.8967e-05
1.94296e-05
1.78957e-05
1.8328e-05
1.80972e-05
1.80537e-05
2.45956e-05
2.36294e-05
2.02114e-05
2.31405e-05
2.22436e-05
1.80088e-05
1.51091e-05
3.66824e-05
1.9044e-05
8.07183e-05
0.000218391
2.77213e-05
2.74223e-05
1.79972e-05
3.04642e-05
1.85651e-05
2.55403e-05
2.66112e-05
1.92258e-05
3.7928e-05
1.87762e-05
2.86889e-05
5.44116e-05
2.26327e-05
2.14687e-05
1.79169e-05
1.90119e-05
3.13617e-05
2.19152e-05
2.0527e-05
1.83288e-05
1.78979e-05
7.10008e-05
2.12782e-05
3.88406e-05
2.80391e-05
2.14881e-05
0.000238029
1.79449e-05
8.84764e-05
2.7799e-05
1.53118e-05
4.07634e-05
3.86929e-05
0.000227303
1.64865e-05
2.71465e-05
2.80979e-05
1.79436e-05
2.67739e-05
1.80191e-05
2.36021e-05
1.80498e-05
4.92494e-05
1.83862e-05
2.1359e-05
3.4595e-05
1.8375e-05
0.000525389
1.80042e-05
1.79698e-05
1.97129e-05
4.07756e-05
1.80836e-05
1.79834e-05
2.71326e-05
3.66327e-05
1.79988e-05
1.80019e-05
4.40523e-05
1.80537e-05
2.71157e-05
1.81414e-05
2.01458e-05
1.78474e-05
2.49419e-05
1.81928e-05
3.09671e-05
5.14614e-05
1.85361e-05
7.29006e-05
7.33194e-05
2.54176e-05
2.0245e-05
0.00446491
2.43704e-05
0.00483338
1.88352e-05
3.5491e-05
4.67525e-05
1.8141e-05
1.80773e-05
1.79966e-05
0.000163181
1.80439e-05
9.45903e-06
1.80606e-05
1.78813e-05
1.80306e-05
1.85543e-05
2.58617e-05
4.59316e-05
1.84287e-05
2.26008e-05
1.8605e-05
2.77687e-05
3.24932e-05
1.79341e-05
2.14725e-05
0.000194734
8.75603e-05
9.12738e-06
2.40617e-05
1.82445e-05
3.30392e-05
4.69449e-05
3.50841e-05
0.000134501
2.01323e-05
3.07664e-05
1.92187e-05
0.000363665
3.36034e-05
7.31772e-05
3.20419e-05
4.01009e-05
2.726e-05
1.89289e-05
1.99226e-05
1.80478e-05
3.09107e-05
8.26012e-05
1.8479e-05
1.8278e-05
2.6443e-05
1.80966e-05
2.31927e-05
3.65369e-05
1.82621e-05
4.65096e-05
1.85626e-05