/*--------------------------------*- C++ -*----------------------------------*\
| =========                 |                                                 |
| \\      /  F ield         | OpenFOAM: The Open Source CFD Toolbox           |
|  \\    /   O peration     | Version:  v2012                                 |
|   \\  /    A nd           | Website:  www.openfoam.com                      |
|    \\/     M anipulation  |                                                 |
\*---------------------------------------------------------------------------*/
FoamFile
{
    version     2.0;
    format      ascii;
    class       surfaceScalarField;
    location    "0.303903";
    object      phi;
}
// * * * * * * * * * * * * * * * * * * * * * * * * * * * * * * * * * * * * * //

dimensions      [0 3 -1 0 0 0 0];
oriented        oriented;


internalField   nonuniform List<scalar> 
156950
(
-0.00226863
0.00108204
0.000834858
0.000351728
0.000424365
-0.00108865
8.01482e-05
0.000584139
-0.000333206
0.000719377
-0.000386171
-8.48911e-05
-0.00033102
0.000143002
0.000272908
0.00015289
-0.00017681
1.72919e-05
6.62767e-06
0.000172186
-0.000257077
0.000299472
0.000847789
-0.00131639
0.000169126
0.00102848
-0.00102626
-2.22076e-06
0.000801952
-0.000386046
-0.000415905
-8.17605e-05
0.000126325
-2.90774e-05
-1.54869e-05
6.02178e-05
-0.000441943
0.000381725
-0.00147966
0.000575773
0.00120336
0.00302799
-0.00390169
-0.00223734
0.00311104
0.000248351
0.000417246
-0.000678953
1.3356e-05
2.91524e-05
-0.00110282
0.00107366
-0.00134478
0.000172635
0.00107531
9.68295e-05
0.000180959
-0.000108534
-9.84563e-05
2.60319e-05
1.9744e-05
0.00057475
-0.000346143
0.000297092
0.00138427
-0.00168136
0.000532212
-0.000569934
0.000454969
0.000148627
-5.59117e-05
-0.000742031
0.000649316
0.000311047
5.80391e-05
0.000163126
-0.00115963
0.00108879
0.00172933
-0.0016585
-0.00104067
0.000896203
0.000144469
0.000178178
-0.000109565
4.00483e-05
-0.000108661
0.00113156
-0.00100835
-0.000456008
0.000332802
-0.000117245
0.000240557
0.000517746
-0.000641059
-0.000214395
3.33426e-06
0.000138386
7.26752e-05
-0.000374516
0.00140635
9.9726e-05
-0.000797023
0.000347415
-0.000135357
0.000584964
9.43138e-05
-0.000115408
0.000124217
-0.000103123
-0.000103867
5.22994e-05
0.000600227
-0.000548659
0.000567769
-0.0012048
0.000770549
-0.000133514
-0.000901823
0.000128691
0.000435737
0.000337396
-0.000108059
4.4681e-05
-0.000859528
0.000922906
-0.000179732
0.000189181
-9.44912e-06
4.78854e-05
3.00603e-06
-2.52733e-05
-2.56182e-05
7.81273e-05
0.000211534
-9.61178e-05
-0.000193544
5.62919e-05
-0.000287389
0.000231098
-0.00237871
0.00394327
-0.00406877
0.00250422
3.85098e-05
-0.000498476
0.000467189
-7.2225e-06
-0.000917704
0.000775368
-0.000232179
-0.000394731
-0.000134513
0.000437109
9.21344e-05
9.93117e-05
-0.00101325
-9.44147e-05
-0.000489987
0.00659355
-0.00428873
-0.00181483
0.00264788
-0.00136872
-0.00127915
-0.000451559
0.000486029
9.70607e-05
-0.000131531
-5.61648e-05
0.000463101
-0.000205366
-0.00020157
9.11277e-05
0.000908975
0.000351847
-0.00135195
0.000355727
0.00153931
-0.000179539
-0.0017155
-0.00252143
-0.000625546
0.00251208
0.000634902
-0.000818392
-0.000634922
0.000115486
0.000717941
-0.000198506
-0.00136815
0.000116137
0.000617087
-0.00155252
0.00103284
-0.000693723
0.0012134
0.000730653
-0.000110781
-0.00121598
0.000596112
0.000420528
6.41605e-05
0.000223788
-0.000708477
0.00127385
0.000526984
-0.0013245
-0.000476332
-0.00035711
0.00163096
-0.00150178
-0.00150085
0.00120877
0.00179386
-0.00172526
2.11056e-05
6.87589e-05
-0.000358845
0.00026898
-0.000281578
0.000280269
1.30906e-06
-0.000444454
0.000500811
0.000259415
-0.000315771
-8.97995e-05
-0.00140346
0.00220402
-0.000710754
0.000541562
-8.73121e-05
-0.00148836
-0.000359031
0.000443926
-0.00212016
0.000419825
0.000198547
0.00247848
-0.0013856
-0.0025384
0.00144552
-0.00272889
0.0004922
-0.000129866
0.00236656
-0.000136419
0.000349373
0.000282489
-0.000495442
8.46986e-05
-0.00216803
0.00225208
-0.000168752
-0.000332549
8.75787e-06
-1.07006e-05
0.000334492
0.000810137
0.00207634
-0.000717962
-0.00216852
-0.000174438
-6.51057e-05
0.000239544
-8.2642e-06
-0.000209013
-8.02645e-05
0.000297542
-0.000188636
-0.000321997
0.000510632
0.000366342
0.000140646
0.000161501
-0.000668489
-0.000654281
0.000451293
0.000498887
-0.000295899
0.00210494
-0.00471345
0.00391273
-0.00130421
-0.000439485
0.000261111
0.00207677
-0.00189839
-0.000803804
0.000887885
0.00132142
-0.0014055
-0.00093402
6.85321e-05
-1.03621e-06
0.000866524
0.000261423
-0.00177427
0.000338748
0.0011741
0.000485622
0.000212763
-0.000862051
0.000163667
0.000926617
-0.000541776
0.000181079
-0.000565921
-2.22985e-05
-5.06853e-06
2.94373e-05
-2.0702e-06
-0.000272503
-0.000214099
0.000486602
-0.000395953
0.000752574
-0.000646786
0.000290165
-0.000551066
0.000894033
-0.000391916
4.89487e-05
4.10238e-05
0.00121785
-0.00125888
0.000170924
-0.000136128
0.00118602
-0.00122082
-0.000563688
-0.00109312
0.00410502
-0.00244821
0.000748167
-0.00145123
0.000290594
0.000412472
-0.000346361
0.000602563
-0.000278384
2.21818e-05
0.00132927
-0.00149888
0.000169607
-0.000303149
0.000154114
-0.000197326
-0.00103166
-0.002914
0.00338197
6.46645e-05
6.37127e-06
-7.10357e-05
0.00117094
-0.00113561
-3.53305e-05
-0.00223466
-0.000525271
0.00124038
0.00151954
-4.58038e-05
-0.00014132
0.000187123
3.65722e-05
0.000713445
-0.000750017
-1.56104e-05
-0.000554594
-0.000175056
0.000745261
0.000526532
0.000269098
-0.000795631
0.000142492
0.000442408
-0.000403262
-0.000181638
0.000385933
0.000345364
-0.000204765
0.000302581
-0.00115352
0.000569943
0.000280993
0.000469325
0.000435513
-0.000415874
-0.000708749
0.000599203
0.00052542
-0.00157134
7.04865e-05
-0.000693509
-0.00151001
0.00134982
0.000853699
-0.000910107
0.00228333
-0.000277874
-0.00109535
-0.000204552
0.00021276
0.000276245
-0.000284453
3.68054e-05
8.19286e-07
-3.76247e-05
-0.00144218
-0.000130801
0.00171747
-0.000144493
-0.000183066
0.00101264
0.00148892
-0.00231849
0.000736107
-0.000806311
7.02035e-05
-0.00051208
0.000195894
0.000316186
0.00102352
0.00105983
-0.000138731
-0.00194462
0.000528425
-0.00280789
0.00462293
-0.00550985
0.00369481
-0.000952012
0.00141992
0.000531045
-0.000998956
-0.000687724
0.00037181
1.27645e-05
-0.00212639
0.000401646
0.00172475
-0.000148623
0.0013171
-7.44662e-05
-0.00109401
-0.00154335
-0.0015271
-0.00061235
0.0036828
-0.000270905
0.00139542
-0.00112602
1.5122e-06
-0.00146912
0.00110542
0.000363696
0.000253971
-9.32406e-05
-0.000160731
-0.00102561
0.00101897
-0.00213312
0.00213976
4.65512e-06
-0.00128926
0.00128461
-0.000640722
0.000879317
-1.99728e-05
-0.000218622
0.000815904
-0.000617624
-0.000249034
5.07527e-05
-0.00148312
0.00162328
0.000171523
-0.000311686
0.000732459
-6.40262e-05
-0.000519806
0.000697365
-0.000553855
-0.000861957
0.000718447
4.58193e-05
5.24494e-05
-0.000418741
0.000320472
-0.001604
-8.30441e-05
0.00155546
0.000131583
0.000642936
-0.00325742
-0.000114409
0.00103197
-0.000184432
-0.000114245
-0.000733289
-0.0034742
0.000119038
0.00273209
0.000623067
0.00119607
-2.62386e-06
-0.00119345
0.00107506
0.000541792
-0.000584885
-2.49382e-05
0.000805793
-0.00075689
-2.39655e-05
0.00248104
-0.00229511
0.000350741
-0.000526291
0.00141027
2.85274e-05
-0.000912507
0.000148904
2.73622e-05
-0.000132602
-4.36641e-05
-0.000888649
-0.000722792
0.00301788
-0.00140644
-9.14491e-05
-0.00021976
0.000311209
-0.000575602
0.00121271
-0.00117222
0.000535113
-0.000440405
0.000423084
1.2401e-05
4.91917e-06
0.00060904
-0.000144285
-0.000475866
1.11096e-05
-0.00140584
0.00139619
0.00140534
-0.00139569
-0.000474821
0.00072831
0.000890358
-0.00114385
0.000196933
-0.00019214
0.00146758
-0.00147237
0.000748547
-4.34478e-05
0.0003478
-0.0010529
0.000112479
1.59704e-05
-0.000128449
0.00139988
-0.001399
-8.81736e-07
-0.00362545
-0.00103563
-0.00308572
0.0077468
-0.0013076
0.00133885
-3.1247e-05
-0.000176828
-0.000425002
0.000702526
-0.000100696
4.85197e-05
0.000437516
5.13063e-05
-0.000537342
0.00182283
-0.000543985
-0.000238616
-0.00104023
0.0012394
0.000355214
-0.000996951
-0.000597659
0.00159204
-0.000686984
-0.000371227
-0.000533828
-5.87598e-05
0.0019403
-0.000226326
-0.00165522
-0.00070526
0.00178648
-2.22269e-05
-0.001059
0.00203674
-0.000595517
3.25455e-05
-0.00147377
0.00148132
-0.000222659
-0.00125866
0.000197188
0.000968704
-0.000656811
-0.000509081
-0.000910649
0.000297001
0.00100865
-0.000395007
0.00116592
-0.00135886
0.000192938
-1.90998e-05
-0.00110523
0.00112433
-9.66209e-05
0.00126254
0.000119559
8.18899e-05
5.25224e-05
-0.000309907
0.000248046
6.18605e-05
0.000206594
0.00179167
0.00039928
-0.00239755
0.000248119
-0.00135284
0.00110472
0.00270718
-9.69614e-06
-0.00274979
5.23038e-05
-0.00133882
-0.000170516
0.000136738
0.0013726
-7.71772e-05
0.000400729
4.19347e-05
-0.000365487
-0.000745059
0.00089768
0.00197864
-0.00213126
-4.01128e-06
0.000178093
1.54679e-05
-0.000189549
0.000234067
0.000294609
0.000105896
-0.000634571
-0.000355881
0.000141486
0.000256789
-0.000417469
-0.000131242
0.000291923
-9.94143e-05
-0.000322677
-1.11721e-05
0.000433264
-0.00197363
-0.00708361
0.00594419
0.00311304
0.00017387
-0.000871057
0.00206177
-0.00136458
-0.0011771
-0.000304272
0.00104188
-0.000121814
0.00125629
-0.00121783
-3.84661e-05
0.000438132
0.000623123
-3.11334e-05
-0.00103012
-0.00105765
1.69103e-07
0.00105748
0.00095515
-0.000162974
-0.000283056
-0.000509119
0.000608429
0.00141538
-0.000688306
-0.0013355
0.0011296
-0.00109752
-3.20816e-05
-5.57886e-05
-0.000862338
0.000339383
0.000578744
0.00102716
-8.00515e-05
-0.00121499
0.00026788
-0.00182476
0.00159309
0.00125328
-0.00102161
0.000130908
0.000291148
-0.00020848
-0.000213576
0.00147682
-0.0012059
-0.000270918
0.00153372
0.000478831
-0.00186027
-0.000152273
0.00124539
0.000231426
0.000254154
0.000144121
2.56031e-06
-0.00130675
0.00124993
5.42679e-05
0.000829695
-0.00128553
-0.00179912
0.00225496
-0.00021559
-0.000931522
0.000956687
0.000190425
-5.11539e-05
-0.000230883
6.58865e-06
0.000275448
0.00102972
0.0036716
0.000180743
0.000428788
-0.00428113
-5.22464e-05
0.00163219
-0.00153294
-4.70049e-05
0.00175562
0.000124618
-0.000943032
-0.000937203
0.000436668
-0.00152873
-0.000221796
0.00131386
-0.000268809
0.000206726
1.09293e-05
-0.00120244
0.00115464
4.77953e-05
0.00026849
0.00126068
-0.00151783
-1.13404e-05
-0.000292703
-4.5787e-05
0.000107607
5.26873e-05
1.13531e-05
-6.40404e-05
0.00159998
-0.00126564
-0.00166816
0.00133382
7.01334e-06
0.000131791
-0.000138804
7.58334e-05
-7.97891e-05
0.00119292
-0.00118897
0.000176519
3.6782e-06
-0.00012751
-0.00347329
0.00486121
-0.00469721
0.00330929
-9.36421e-05
0.000116642
-0.00152228
0.00149928
-0.00177946
0.00187686
-9.73965e-05
0.00013078
-6.51445e-05
-0.000168615
0.00010298
0.000183565
0.000924316
-0.00221968
0.0011118
-0.00268152
0.00343153
-0.000523087
-0.000226924
-0.000168421
3.96915e-05
0.000185612
-5.68828e-05
0.00129039
-9.61992e-05
-7.9068e-06
-0.00118628
-0.00118535
0.00132595
-0.00174689
0.00160629
-0.00164377
0.000256964
0.0002394
0.000124757
-0.00139266
0.0010285
-0.00063096
0.000129661
-5.7621e-05
0.000558921
-0.000606564
0.000777546
-0.000150892
-0.00056448
-6.21743e-05
-0.000645754
1.66977e-05
0.00012296
0.000506096
-3.71493e-06
3.42864e-06
-0.000132759
0.000133045
-0.00126853
0.000297964
0.000970568
-0.00060777
0.000607416
3.53783e-07
-0.00131572
-0.000211424
0.000404187
0.00112296
0.00201394
0.000213288
3.00009e-05
-0.00225723
0.00243986
-2.17429e-05
0.00022076
-0.00263887
-4.97517e-05
-9.46276e-05
0.000107048
3.73318e-05
0.0037288
0.000539977
-0.000511276
-0.0037575
-0.00203626
-3.75304e-05
0.00246328
-0.000389481
4.79345e-05
0.000419961
-0.000183064
-0.000284832
0.000375614
9.49502e-08
-0.000375708
0.000620087
0.00113909
-0.00109315
-0.000666023
-0.000227613
3.08004e-05
0.000147061
-0.00113744
-0.000167017
0.000108328
0.00119613
-0.000892831
0.000914768
-2.19374e-05
0.00134423
-0.000254504
0.000471049
-0.00156078
0.000140385
0.000463656
-0.000604041
3.9796e-06
-0.00139065
0.000732876
0.000653794
0.000873689
2.52253e-05
-0.000881424
-1.74902e-05
0.000609895
4.90901e-06
0.0010108
-0.00162561
-0.00114468
-0.000306925
0.0014528
-1.18728e-06
-3.01641e-05
2.87071e-05
-0.00114323
-0.000562617
-4.51536e-05
0.000146841
0.000280583
-0.00328624
0.00285882
-0.000627925
0.000541554
-0.00147241
0.00155878
0.000244169
3.20493e-05
-0.000299135
2.29171e-05
-1.28136e-06
-0.000188283
0.00011118
7.83846e-05
-0.00143201
0.000926684
-0.000763201
-0.00245181
0.000817339
0.000354968
0.0012795
-0.00200127
0.000493894
0.000390065
0.00111731
0.0013864
-0.00159306
-0.000399491
0.000606149
0.00145904
-0.00272855
-0.0011823
0.00119558
-0.0018002
0.000604618
-0.000650352
0.000541525
-0.00066789
0.000776718
0.000893644
-0.00107946
0.000185818
0.000871771
0.00121005
-0.00126448
-0.000548052
-0.00026576
0.000894049
-8.02374e-05
-0.000432969
-0.00157802
0.00201099
-0.0001979
-0.000843086
0.0010892
-4.82139e-05
0.00119503
-0.00255808
0.00227686
-0.00091381
0.000233219
1.09497e-05
-0.00153857
0.000337845
0.00120291
-2.18025e-06
0.00195477
-0.00273957
-0.000546855
0.00133165
-0.00206973
-0.000608441
0.00150108
3.65334e-05
-0.00108562
0.00104909
-0.000301936
-0.000582731
0.000884667
-0.000233503
8.91022e-05
4.97734e-05
-2.69644e-05
0.00100866
-0.0009817
0.00281607
-0.00241379
-0.000220628
-0.000181651
-0.000408448
0.000553134
0.000632861
-0.000514016
-0.000571833
0.000517561
0.000568287
-0.000990054
0.000688118
1.98889e-05
-0.000469626
4.12892e-05
0.00186824
-0.000571297
-0.00129694
0.000280054
0.000190336
-0.00156759
0.0010972
-0.000562059
9.9658e-05
-7.4505e-05
0.000536906
-0.000994561
0.00241746
-0.000911973
-0.000510924
0.000342518
-0.000267536
0.000961679
-0.00103666
0.00178676
9.88128e-05
-0.0021056
0.000220019
5.60633e-06
-0.000537904
0.000464695
0.0011769
-0.00110369
-3.20268e-05
0.000138506
-7.28184e-05
-3.36609e-05
1.36435e-05
0.00126193
-0.00119353
-8.20377e-05
0.00213283
7.88084e-05
-0.00212335
-8.82871e-05
-1.28915e-05
2.06245e-05
0.000111328
-0.000119061
-0.000125662
0.000113031
-2.60925e-07
0.00204641
0.00104805
-0.00122622
0.00161344
0.000264778
0.000584574
0.000310152
-0.0011595
-0.0019462
0.00210033
-0.000154131
6.2069e-05
0.000979012
-0.00104108
0.00113503
-0.00124071
0.000148967
-4.32912e-05
1.81731e-05
-0.000806516
0.000788342
-0.00088482
0.00165962
-0.00202746
0.00125265
-0.000256179
0.000310996
-0.000850128
0.000795311
0.000447034
-0.000507242
0.00164765
-0.00158744
0.000909624
-0.00109106
-0.000899697
0.00108114
-0.00167494
-0.000709552
0.000726796
0.0016577
-0.0007342
0.0018614
8.37311e-05
-0.00121093
0.000630871
-0.0026334
0.000662054
0.00134047
0.000937535
-0.000930695
-6.84013e-06
0.00129201
0.000272512
-0.00156452
0.00156173
-0.00095916
-0.00181901
0.00121644
-0.000360007
0.000221129
0.000450662
-0.000311785
-0.000156849
-0.000228195
0.000625706
-0.000240662
-9.48108e-07
0.000938483
0.0021082
0.00139742
-0.00287474
0.00190419
-0.000987477
-0.000916715
-3.65675e-05
-0.000286644
0.000404556
-8.13451e-05
0.0016324
0.000188149
-0.00130968
-0.000510864
0.000771566
-0.000544928
0.000237488
-0.000464126
0.00113506
-0.00113987
0.000125993
-0.000121185
-4.38003e-05
4.85053e-05
-1.57074e-05
1.10024e-05
0.000176624
0.000171057
0.00115829
-0.00150597
0.00262157
-0.00147484
-0.000967549
-0.000179183
0.00186386
-0.00288807
-0.000376291
0.0014005
-5.26278e-05
5.1778e-05
-0.000545866
0.000546716
-0.000319872
0.00121352
-0.00102322
0.00126005
-0.000836067
0.000134091
-0.0015452
0.00141111
-0.00010138
-3.91001e-05
0.000108453
-0.000435565
0.00100651
-0.000949833
0.00037889
0.00307231
-0.00350131
-0.00191597
0.00234497
-0.000104577
0.000257955
-0.00154581
0.00139243
0.000297464
9.62593e-06
-2.05187e-05
-0.000286571
-0.0015468
0.00156326
0.000117632
0.000275233
-0.000233932
-0.000687055
0.000134316
-0.00155653
0.00142221
0.000273183
-0.000182173
-9.10098e-05
0.000898847
-0.00100309
0.000104244
0.000261092
3.87636e-05
-2.3921e-06
0.000540324
-0.00129444
0.000327822
0.000426297
5.8525e-05
-5.11884e-05
0.000998557
-0.00100589
-0.000259509
0.000182147
7.7362e-05
0.000222604
9.20572e-07
-0.000223525
0.002207
-0.00202014
-0.000186862
5.24465e-05
-0.00104445
0.000518626
0.000473373
0.000154391
-0.000123149
0.000274394
-0.000305636
-0.000295444
0.00239374
-0.00209829
-0.000378508
0.00136671
-0.00119428
0.000206075
-0.000122178
-0.000418959
0.000801153
-0.000260016
-0.000378722
0.000399769
-0.00172706
0.00170601
-0.000325671
0.000949172
-0.000364607
-0.000258894
0.00128571
-0.00143306
-0.00165193
0.00179927
0.000837776
0.000295437
-0.000303518
-0.000357021
-0.000484738
0.00212747
-0.00066133
0.000228621
0.000107039
-0.000275695
0.000307907
-0.00104685
0.000958661
0.00133412
-0.00124593
2.65728e-05
0.00146053
-0.000123009
-0.00136409
-0.000120344
-8.49788e-05
0.000858729
-0.000653407
0.0022705
-0.00225534
9.04177e-05
-0.000105579
-0.00104318
0.000806709
0.000236473
-0.00100991
9.75487e-05
0.000912363
-0.00174158
0.00106999
0.00387861
-0.00320702
-0.00308514
0.000832395
0.000511167
-0.00158418
0.000746744
-1.76389e-05
0.000855078
-0.00111886
0.00316937
0.000232394
-0.0022829
-0.000113943
9.2e-05
0.00151432
-0.00149238
-0.000423632
0.00044068
-0.000367415
0.000350366
0.000693848
0.00145494
-0.00210016
-4.8632e-05
6.50037e-05
0.000184394
-0.000249397
-0.00045021
0.000334515
-0.00149705
0.00161275
-0.0017032
0.000703425
0.00159394
-0.000594168
0.000480009
0.000993276
-5.2579e-05
-0.00142071
0.0025144
-0.000648448
-0.00200113
0.000135181
0.00113833
0.0014057
-0.000114323
-0.00242971
-0.000304334
-0.000117736
0.00042207
-0.000159385
-0.000854165
0.00101355
-0.0026804
-0.000668269
0.000220311
0.00312836
-0.000772816
-0.000554692
0.00172331
-0.000395802
0.00073424
2.83907e-05
-0.00076263
-0.000101503
0.000188098
-0.000214792
0.000128197
-0.000132851
-6.42963e-05
0.000197148
0.000778683
-0.00232075
0.00088331
-0.000888302
4.99151e-06
0.000889709
-0.00108853
0.000198817
-0.0012349
0.00166579
-0.000285495
-0.000145395
-0.00050823
-0.000919945
0.00128428
0.000143895
-9.31967e-05
0.0013086
7.49801e-05
-0.00156045
0.00121217
0.000439753
-9.14737e-05
-1.5767e-05
0.00111053
-0.00109476
0.00124442
-0.00139955
0.000327096
-0.00017197
8.16619e-05
-5.74962e-05
0.000392984
-0.000417149
0.00199092
-0.000171078
-0.000725086
-0.00109476
0.00229103
-0.00225269
-0.000200269
0.000161931
-0.000282737
0.000227163
0.000149592
-9.40178e-05
-0.00139926
-0.000615692
0.00308495
3.98148e-05
-0.000614205
0.00057439
-0.000795275
0.00159682
0.000186199
-0.000987746
-0.000315487
0.00112072
-0.000353733
-0.000451497
-0.00151097
0.00119002
0.000146872
0.00017407
-0.000998328
5.48958e-06
0.000992839
0.000150142
0.00123421
-0.00174888
0.000364526
-4.41961e-06
2.96503e-05
0.000236145
-0.000261375
0.00126371
-0.00016703
-0.00119235
9.56741e-05
-0.00154552
-0.00342727
0.000547917
0.00442487
0.000159345
-0.000157718
-1.6277e-06
-0.00104447
0.00105168
-7.21335e-06
-0.000559424
0.0016081
0.000123484
2.83854e-05
-0.00015187
-0.000140035
0.000470155
-0.00033454
5.47658e-06
-9.51902e-05
0.000119364
0.00203827
-0.000774556
-0.000753096
0.00111372
-0.000163707
-0.000196919
-0.000673011
-0.000960811
0.00163382
0.000527299
-0.00132007
0.00179146
-0.0021761
0.00170471
-6.29799e-05
0.000344977
0.000197659
-0.000479656
0.000778967
0.00119698
-0.00150074
-0.000475212
-0.00237055
-0.000910285
0.00228705
0.000993783
0.00169925
-3.4237e-05
-0.00167505
1.00374e-05
-0.000771301
-0.000757131
0.00090413
0.000624302
-0.000141875
4.41289e-05
-0.0018205
0.00191825
0.00175158
-0.0018815
0.000102565
2.73577e-05
-0.000904029
0.00221367
0.000391287
-0.00170092
4.88291e-08
0.000891462
-0.00089151
-0.000220755
0.00147597
-0.00125522
0.000772069
0.000719134
-0.00115037
-0.000340832
0.000780478
0.000507592
-0.000307522
-0.000980548
-0.000492996
0.000262986
-2.10703e-05
-0.000944084
0.000965155
0.000260482
-1.29326e-06
-0.000244781
-1.44076e-05
5.32708e-05
-0.00106922
-0.000820024
0.00183598
-0.00153163
0.000811933
3.95574e-05
0.000680137
0.000235106
-0.00137625
0.00127152
-0.000130373
0.000866553
-0.000972759
-0.000664794
0.000771001
0.00027255
-1.20682e-05
0.0013688
-0.00113369
-5.3304e-06
0.00128149
-0.00030588
-0.000970282
-0.00709328
0.000680382
0.00338456
0.00302834
0.00106812
0.000300682
-0.000283158
-2.51367e-05
0.000308294
-0.00201724
0.000305274
0.000723064
0.0009889
-4.98973e-05
0.000301698
-0.0002518
0.000306946
0.000953522
-0.000190166
-0.0010703
9.03058e-05
0.00103929
9.28957e-05
0.00199238
-0.000316036
-0.00176924
0.00028746
-0.00024738
-4.13728e-05
-0.000300628
0.000296692
-4.59609e-05
0.00172939
-0.00166402
0.000260283
-0.000325653
0.00116901
0.000371916
-0.00182267
0.000281748
0.00479874
-5.36942e-05
-0.0022513
-0.00249374
0.000661312
-0.000342948
0.000476835
-0.000795199
-2.6176e-05
0.000459207
-0.000368378
-6.4653e-05
2.23446e-05
-1.58677e-05
0.000374551
-0.000381028
-5.49192e-05
-0.000744911
0.000132846
0.000666985
-0.00140543
-0.00139232
0.00196575
0.00083199
3.04436e-05
-0.00220945
0.00217897
3.10575e-08
-1.17516e-05
-0.000401754
0.000413505
-0.00112957
-0.000103517
0.000916232
0.000316852
-0.00122276
-0.000511348
-0.000214184
-0.000768851
0.00149438
0.000110611
-0.000186701
7.60899e-05
0.00126504
-0.0012556
-9.44147e-06
-0.0010337
4.51033e-05
-5.74417e-05
0.00104604
-0.00173126
0.000613783
0.00111748
0.0011909
0.000251109
-0.00186338
0.000421365
-0.000496712
-4.07734e-05
0.00055983
-0.000487
-9.71237e-06
-0.000627253
0.00016131
0.00062183
-0.000155887
-1.37826e-06
-0.000329127
0.000214666
0.000181794
-6.73331e-05
0.000955331
1.15757e-05
1.70413e-05
-0.000983948
0.000442331
-0.000780634
-0.000263046
0.000225799
-0.00177092
0.00180817
0.000309989
-0.000827791
0.000517516
2.85819e-07
0.000182666
3.61177e-05
-0.00116944
0.000950657
0.00132569
0.000327982
-0.00165368
0.000780998
-0.000805936
-0.00112708
0.000123829
0.00119839
-0.000195145
0.00191402
-0.00104254
0.00122546
-0.00209694
0.000438024
-0.00037761
0.00173792
-0.00179833
0.000724631
-0.00213542
0.000251264
0.00115952
0.000177193
8.13998e-06
0.000886953
-0.00107229
0.00123837
-1.28857e-05
-0.00122549
5.97817e-08
-0.00150409
0.00150403
-0.0022216
0.00184356
0.00110267
-0.00024741
0.000425793
-0.000178383
-0.000683584
0.000601312
0.000770574
-0.000688302
0.00108228
-0.00132404
-0.00046194
0.000703693
0.000635854
0.000131696
0.00089816
-0.00166571
-0.00183426
0.00137223
-0.000959281
0.00142131
0.000643139
-0.000969549
0.000882061
-0.000555651
0.000138635
-0.000153119
-0.000516669
0.000531153
-0.000838744
-0.000386936
0.00122568
0.000940915
-0.001857
0.00182523
-0.000909142
-0.00038824
3.36663e-05
0.000138456
0.000216118
-0.00127437
-0.000377201
0.00165158
0.000171605
-5.9073e-05
0.000309363
-0.000421895
-0.000856892
0.000351318
0.000505574
-0.00158508
0.00131188
-0.00161525
0.00188846
-0.00012777
0.000367079
-6.39377e-05
-0.000175371
-0.000217293
-0.000186755
0.000291488
0.00011256
-4.78783e-05
-0.000138372
0.000180473
5.77788e-06
0.000592963
0.000383483
-0.000608227
-0.000368219
-0.000943565
0.00305311
-0.000316741
-0.0017928
-0.000371085
-1.71545e-05
-0.00055607
0.000430189
6.70922e-06
0.000119172
-0.000752964
0.000160326
-0.000352892
6.45258e-05
0.00088133
-0.000312759
-0.000544133
-0.00321264
0.0030911
-0.000406673
0.000528212
0.00101501
-0.000269916
-0.000976036
0.000230939
0.000952078
0.000397928
-0.00239326
0.00104325
-0.00149864
0.0014172
8.14361e-05
0.000560082
-0.000590883
-0.000167525
0.000198327
-0.000415264
0.0028086
-0.000350545
-0.00204279
-0.000565886
0.00075719
-0.000477948
-0.000979334
0.000149439
0.00102464
-0.000194741
0.000105143
0.000120006
-0.000225149
-0.000740679
-0.00219584
0.00268564
0.000250876
-0.000437305
-0.00133317
0.00177774
-7.25813e-06
0.00106662
-0.00110168
-0.000269925
0.000304977
-0.000510942
0.000238931
-0.000191388
0.0004634
0.000708154
-0.000408327
-2.30488e-05
-0.000276778
5.44287e-05
-0.00210079
0.00212486
-7.84931e-05
0.000335866
-0.000471563
0.000876865
-0.000887257
1.03919e-05
0.00193671
-0.000635466
-0.0016265
0.000325252
-0.00148763
0.000552348
0.000182322
0.000928756
0.000169634
-0.00109839
-0.00146704
0.00155383
0.00268409
-0.00277087
0.000824358
-0.000606962
7.32088e-05
-0.000290605
0.000137099
0.000391894
-0.00166078
0.00113179
0.000151884
0.000712246
-0.000748401
-0.00011573
-0.00133687
7.05049e-05
0.00126636
0.00103239
-7.59816e-05
0.00117362
-0.00213003
-0.0010924
-0.000244464
0.000707068
0.000561336
0.000180374
-0.00145475
-0.00109863
0.00105916
0.000294264
-0.000254795
0.00125024
0.00148868
-7.87076e-05
-0.00266021
-0.0011565
0.00149761
-0.00138571
0.0010446
0.000452243
0.00765652
-0.00733891
-0.000769853
0.00228035
0.000238105
-0.00118569
-0.00133277
-0.00128493
0.000200072
0.00121228
-0.000127422
-0.000247809
0.000208762
-0.000188828
0.000227875
-0.0016698
0.00183533
-0.000165531
-0.000586555
0.00192266
-0.000629034
-0.000563202
0.000265544
-0.00014066
0.000438317
0.000726202
0.00171127
-0.000454985
-0.00198249
0.000999268
0.000960121
-0.00195939
-0.000158386
0.00147186
3.37539e-05
-0.00134723
0.00100221
6.49035e-06
-0.0010087
3.92643e-05
0.000979549
-0.000562175
-0.000456638
-0.000689108
0.00100527
-0.000520135
0.000203978
-0.000100956
-0.000352332
-0.000133267
7.96232e-05
-2.76448e-05
-5.56933e-05
0.0023155
0.000311172
-0.00143453
-0.00119214
-0.000131247
-0.000898814
0.000871676
-6.7827e-05
0.000831205
-0.000763378
-0.000814083
0.00125667
-0.000442582
-0.000514316
0.000124958
-0.000188667
0.000578024
0.00027431
-0.0019717
-0.000379379
-0.000328538
0.000139715
-0.00155774
0.00141803
0.000353813
-0.000116121
-0.000237692
0.000179519
-0.000214013
1.7108e-05
1.73868e-05
-0.00216061
0.000182725
-0.00195751
0.0039354
0.00019084
0.000309097
-0.000320435
-0.000179502
0.000169178
-8.21552e-06
1.85565e-05
-0.00470358
0.00226367
0.00748655
-0.00504663
0.00189461
0.000254384
6.81776e-05
-0.00221718
-7.29376e-05
-0.00085874
-0.00108556
5.65812e-05
-0.000161084
0.000104503
-0.00175402
-0.00019327
-5.49845e-05
-0.000281594
0.000249978
8.66011e-05
9.44957e-05
-0.000158816
6.43201e-05
0.0003003
-0.000432312
-8.28465e-05
0.000214858
0.00103867
-0.00517218
-0.000570081
-0.000334321
2.093e-05
-0.000231138
0.000544529
-0.000941767
0.00136841
0.000120039
-0.000546685
0.000482607
0.000339762
-0.000337836
-0.000484533
3.12156e-05
-0.00102894
-0.000308137
0.00130586
-0.000766735
-8.97203e-05
-0.000541575
0.00139803
-0.000200009
0.000115565
-5.12775e-05
0.000135722
0.000565746
-0.000174401
0.000124102
-0.000515447
7.11286e-06
-4.89821e-05
-5.10437e-06
4.69736e-05
-0.00101881
0.000681062
-0.00128412
0.00162186
-0.00228896
0.000388769
0.00224706
-0.00034687
-0.000102552
-0.000194683
0.000297235
-0.000711748
0.000470017
-8.29842e-05
0.000324715
-4.62851e-05
-9.15344e-06
6.25514e-05
0.000499315
-0.000197104
0.000301966
-0.000604176
0.000238077
-0.000234724
-0.000849587
0.000846234
-9.58785e-05
0.000282539
-0.00018666
-4.57611e-05
-0.000990786
0.00178471
-1.8629e-05
-0.000568164
0.000290389
0.000296404
4.70775e-05
6.01626e-06
-4.76108e-05
-5.48295e-06
-0.000259973
0.000300097
0.000653089
-0.000693213
-0.00040799
-0.000409995
0.000318992
0.000498993
-0.000321164
6.54749e-05
-0.000913697
0.00116939
0.000519965
0.00102889
-0.00118707
-0.00036178
-3.96415e-05
-0.000482802
0.000454687
6.77568e-05
0.00138074
-0.00101332
0.000845812
-0.00121323
0.000189677
-0.000239367
-0.000892413
0.000942103
-0.000255871
-0.000699576
0.000955447
-0.00022303
-6.06591e-06
0.000229096
-0.000723194
-0.000878751
0.00160194
0.00099471
-0.000905
-6.1332e-05
-2.83783e-05
-0.000191138
-0.000276944
0.000310822
0.000157259
0.00118728
-0.00256554
0.00137826
-0.000557389
0.000299897
0.000706198
-0.000448706
0.000122259
-0.000191786
6.72515e-06
6.28021e-05
3.22432e-05
-0.00199485
0.00217084
-0.000208231
0.000179417
0.00140376
-0.00138074
-0.000202435
0.000245903
-0.00026994
0.00162428
-0.00160025
-0.000158452
-0.000339399
0.000186869
0.000310983
-0.00068986
-0.000191192
0.000625181
-4.86463e-05
0.000590267
-9.77547e-05
-0.000443866
0.000162632
0.000940779
-0.00102851
-7.48999e-05
0.000732538
-0.00115867
0.000115731
0.000310398
0.000608172
0.000498296
-0.000611348
-0.00049512
0.00121776
-0.00103274
-0.000355458
0.000170439
-6.31576e-05
3.49791e-05
-1.81066e-05
0.00219596
0.000136933
-0.00159361
-0.000739286
-0.000189001
0.00127505
0.000183364
-0.00126942
-0.00122965
0.000506461
-1.94286e-05
-0.000803289
0.000208593
0.000614125
-1.9046e-06
7.70013e-05
-0.00108831
-0.000119319
0.00113063
0.000926979
-0.000849978
0.000134085
0.000792894
0.000660615
0.00142304
-0.00148482
-0.000598835
-4.84114e-06
-0.00109663
0.00110147
-0.000243187
0.000138958
-0.00016309
0.000267319
-4.91172e-05
-8.02418e-06
-0.00145516
0.001221
0.000422374
-0.000188223
0.00256668
0.00039474
-0.00077298
-0.00156757
0.00111089
-0.00206066
0.000936087
0.000351596
0.00094478
-0.00218245
0.0015314
-0.000293726
0.00047595
0.0022855
-0.000477499
-0.00228395
-0.00158991
0.00288654
-0.00539053
0.0040939
-0.00142996
0.00190591
-0.00149924
0.000817703
-7.32901e-05
0.000754828
6.42903e-05
-0.000855606
0.000953947
-0.00201243
-0.000138128
0.00215267
-2.10817e-06
-7.75467e-06
-0.00141296
0.000943947
0.000476769
-0.00130188
0.00132225
-6.74058e-05
4.70344e-05
0.000802291
0.00290231
-0.00250957
-0.000769055
0.000670681
-7.23781e-05
0.000170752
-0.00143174
0.000903882
0.000520099
0.000369211
-0.000816178
-0.000984769
0.000413839
0.000175967
-0.000697349
0.000107544
0.000244399
0.00087132
-0.000639071
-0.000476648
6.03397e-05
-0.000218984
-0.000194744
0.000353388
0.000223473
-0.00051565
-0.000126586
0.000418763
0.000143826
0.00108911
-0.00122514
-7.79117e-06
-0.000895513
0.0010296
-0.000711575
0.000750036
0.000865421
0.00115191
-0.00132934
0.0012571
-0.00107967
-0.000671256
-0.000372493
0.00105028
0.00015083
-0.00120111
0.00139243
-0.00163476
0.000242326
0.00142751
8.83544e-05
-9.07519e-05
-0.00142512
-0.000625446
-0.00123885
0.00128156
-0.000102311
-0.00059033
0.000156299
-0.000264106
0.00161921
-0.0015114
-2.2752e-05
2.45453e-05
0.00068798
-0.000689773
-0.00014156
0.000555399
-0.00154517
0.00124779
0.000218069
7.93106e-05
-0.000905914
0.00106221
0.00064496
-0.00078652
0.00197967
-0.000391974
-0.000279591
-0.00130811
-3.30198e-05
-4.98774e-05
0.000351662
-0.000268764
0.000864528
0.000131794