/*--------------------------------*- C++ -*----------------------------------*\
| =========                 |                                                 |
| \\      /  F ield         | OpenFOAM: The Open Source CFD Toolbox           |
|  \\    /   O peration     | Version:  v2012                                 |
|   \\  /    A nd           | Website:  www.openfoam.com                      |
|    \\/     M anipulation  |                                                 |
\*---------------------------------------------------------------------------*/
FoamFile
{
    version     2.0;
    format      ascii;
    class       volVectorField;
    location    "0.303903";
    object      U;
}
// * * * * * * * * * * * * * * * * * * * * * * * * * * * * * * * * * * * * * //

dimensions      [0 1 -1 0 0 0 0];


internalField   nonuniform List<vector> 
83563
(
(0.0121026 0.327108 -0.000382966)
(-0.0385977 0.0639249 0.000127098)
(-0.112339 0.0600722 0.000305906)
(-0.0220749 0.0724222 0.00121983)
(0.00250281 -0.0695361 -0.000279235)
(-0.0592459 0.0706305 0.00187465)
(0.290216 0.0173245 -0.000166507)
(0.262741 0.00654573 9.11208e-05)
(0.0968966 -0.167308 0.00147931)
(0.0257998 -0.0236885 0.00552355)
(0.095773 -0.0869754 -0.000269129)
(0.256737 0.00349873 -0.000311899)
(0.823845 0.188123 -0.00629899)
(0.0660589 0.0300959 0.000602186)
(0.258998 0.00233927 -0.00113482)
(0.194219 -0.197764 -0.000913256)
(0.0406318 -0.0183481 -0.000165785)
(0.0675679 0.0288581 0.000471288)
(0.225956 0.0873848 -0.000381202)
(0.0748616 0.0397093 0.000450276)
(0.118236 0.0119563 0.000244446)
(0.0758164 0.0344625 -0.000184561)
(0.337425 0.127931 0.00117923)
(0.192673 -0.0620362 0.0186179)
(0.0371089 -0.0142182 -0.000114059)
(0.179592 0.0339371 3.55034e-05)
(0.00800823 -0.093168 -0.000313233)
(-0.0662652 -0.0846264 0.00610361)
(0.184287 0.0414409 0.000162813)
(0.0820599 -0.0203658 0.00135234)
(0.0173436 -0.00832644 0.00120193)
(0.00395371 -0.130339 0.00129775)
(0.018106 -0.211051 -6.895e-05)
(0.129675 0.0127471 0.000861133)
(0.121115 0.166821 0.000142804)
(-0.0168207 -0.00839756 0.0104893)
(0.0105888 -0.00414619 -9.32818e-05)
(0.0198331 -0.0403786 -0.000350431)
(0.0508439 -0.0121957 1.79271e-05)
(-0.386511 0.349109 -0.000402742)
(0.100432 -0.00797505 0.000188168)
(0.177928 0.0300132 0.000559362)
(0.0102672 -0.0939571 0.000659488)
(0.178601 0.03137 0.000185359)
(0.883772 0.325761 -0.0099035)
(0.394146 0.240934 -5.63741e-05)
(0.0283225 -0.101891 -0.00111075)
(0.191762 -0.0301111 -0.00305723)
(0.245199 0.00223813 -0.000248441)
(0.0715777 -0.294662 0.000136498)
(-0.284127 -0.477224 -0.0042736)
(0.174821 0.0360689 0.000137646)
(0.0705068 0.12027 -0.00487337)
(-0.44714 0.339227 0.0375481)
(0.220249 0.185085 0.000182499)
(-0.279142 -0.61703 0.0979813)
(0.121231 -0.0395084 -0.00013464)
(-0.0972285 0.525038 0.0196961)
(-0.434287 0.574276 0.0287158)
(0.285559 0.196799 1.13059e-05)
(-0.730436 0.456509 0.081484)
(0.0162246 -0.0296923 -0.000221768)
(0.0869582 0.000961544 0.000299571)
(0.0830259 -0.0218723 0.00361928)
(-0.587968 -0.223642 0.0167952)
(0.63393 0.212985 -0.0551854)
(-0.231803 -0.585698 0.0203178)
(0.298214 0.190281 3.93077e-05)
(1.62256 -0.114172 0.0554407)
(-0.0696685 -0.596934 -0.00530932)
(0.0987837 -0.0530585 0.00510755)
(0.568259 0.0584049 -0.00543915)
(0.0757592 -0.00368673 -0.000109422)
(-1.21535 0.170444 -0.00794609)
(0.0351919 0.0329669 -0.000347879)
(-0.0123916 -0.00553108 -0.0104071)
(0.0990898 0.0339231 -0.0183958)
(0.0898902 -0.0216041 -0.00014413)
(0.0545136 -0.134234 0.000358442)
(-0.310735 1.31442 -0.0312353)
(-0.113351 0.293827 0.00018273)
(0.271903 0.000783575 -0.000253752)
(0.118328 0.130726 0.000882404)
(0.0230026 -0.430786 0.00503999)
(0.00292106 0.249222 0.000194125)
(0.0801238 -0.135319 -0.000676865)
(0.00785647 0.00443372 0.000454034)
(-0.062829 0.141351 0.00925695)
(0.0972307 -0.0972937 -0.000770946)
(-0.00120339 0.219703 9.93492e-05)
(0.298719 0.00944332 0.000860813)
(0.268934 -0.00993941 -0.00012734)
(0.745575 0.500085 0.00258228)
(0.0659141 -0.286469 0.0110059)
(0.339479 0.134578 0.00745041)
(0.355375 0.0329098 -0.000671223)
(0.107237 0.0863647 -0.0107225)
(0.744692 0.446639 0.00233612)
(0.000990396 -0.0137056 -4.75209e-05)
(0.278024 -0.00840011 0.000633506)
(0.376906 0.259768 -0.000158863)
(0.00857112 -0.0419851 8.64657e-05)
(0.151153 -0.0890712 -7.13477e-05)
(0.0236908 -0.123393 0.00074794)
(0.0541501 -0.172611 0.000776619)
(0.044019 -0.135579 0.000737714)
(0.0502339 -0.164652 0.000693445)
(0.225959 0.0608787 2.16474e-05)
(-0.560791 0.544377 0.0448667)
(0.0920304 0.0435626 0.000809033)
(0.284207 0.205433 -0.000338752)
(0.249027 0.181045 -5.5245e-05)
(0.287912 0.0315738 0.000233897)
(0.0345223 0.076321 0.00323473)
(0.000159531 -0.0155884 -0.000183661)
(0.292909 0.0307325 4.55097e-05)
(0.355913 0.156012 -0.00306385)
(0.268959 0.00849654 -0.000988539)
(0.0372823 -0.101085 -0.00093249)
(0.388897 0.0263537 0.000170757)
(0.0454808 -0.161402 0.000653619)
(0.808865 0.0461694 0.0016883)
(0.27931 0.185152 -8.12981e-05)
(-0.198343 -0.31478 0.00823637)
(0.456035 0.0915175 -0.000639047)
(0.233389 0.0267217 0.000140662)
(0.371765 0.25988 0.00271269)
(0.191116 -0.0455594 -0.000401003)
(0.332894 0.0895923 -0.000172156)
(-0.00319612 0.0462148 0.000572231)
(0.197294 -0.309552 -0.00143109)
(0.282217 -0.00621722 0.00286216)
(0.188477 -0.0191423 0.00189197)
(-0.02616 -0.0676299 -0.0315003)
(0.285188 0.0306043 -0.000358385)
(0.11882 0.00355562 0.000236878)
(-0.0898973 0.411425 -0.00257573)
(-0.0585797 0.0294974 0.000831917)
(0.282757 0.0407317 -9.04462e-05)
(0.0857865 -0.597129 -0.00242668)
(0.175172 -0.141758 -0.000549109)
(0.343232 -0.464391 0.000288159)
(0.268025 0.0113583 -4.71236e-05)
(0.178662 -0.134006 -0.000409248)
(0.181853 0.000460149 0.00544995)
(0.574124 1.03366 0.0902559)
(0.270918 0.0880397 0.000336384)
(0.0264749 0.0302377 -0.000693919)
(0.302489 0.0875447 -5.64141e-05)
(0.0596807 0.0242453 -0.00246351)
(0.107895 -0.194681 -0.00528761)
(0.0852272 -0.00109653 0.000150635)
(0.110198 -0.0539359 -0.000153384)
(0.352205 0.02094 -0.000357245)
(0.176136 0.0407426 0.000253804)
(0.229233 0.0313738 -0.000195333)
(0.241228 0.00251266 -0.000232586)
(0.026543 -0.00016214 0.00011742)
(0.393356 -0.00704446 0.000114744)
(1.40768 0.703688 0.0109567)
(0.311993 0.00619428 -3.2831e-05)
(0.0966307 0.054384 0.000283723)
(0.104646 -0.0102216 0.000281053)
(0.254981 0.0267457 -0.000192776)
(0.354892 0.0421623 -0.000184375)
(0.0470208 0.232821 -0.00176595)
(0.328691 0.139221 0.000228022)
(0.302604 0.077807 0.0164961)
(0.348633 0.0124175 6.84729e-05)
(0.337257 0.0563031 0.0010162)
(0.259226 -0.00585337 -0.000519648)
(0.241916 0.0242729 -0.000340983)
(0.306077 0.040306 -0.00162896)
(0.270478 -0.00425415 -0.00171722)
(0.294074 0.0277036 -0.000752546)
(0.00160728 0.0425762 0.000974296)
(0.0700362 0.0132931 0.000890846)
(0.367132 0.0588958 0.00014091)
(0.177261 0.164687 0.000105594)
(0.32309 0.100758 -0.000125316)
(0.205686 -0.0348875 -0.00042109)
(0.0874546 -0.0114615 0.000423758)
(0.337057 0.109259 0.000186924)
(0.00436699 -0.0812695 -0.000387221)
(0.107973 0.101407 0.00733707)
(-0.0280541 -0.123924 0.0116595)
(0.0439201 0.128144 0.00275705)
(0.114356 0.0104917 -0.000206761)
(-0.0935643 1.14548 -0.0043048)
(-0.145432 0.3551 -0.000635328)
(-0.0825977 0.271784 -0.000496618)
(0.0820128 -0.380211 0.0252841)
(0.399986 0.012058 -0.000304898)
(0.0533482 -0.0664931 0.000458792)
(0.250559 0.00475587 1.91051e-05)
(0.267673 0.0677587 0.000354401)
(0.265253 0.0483591 0.000359808)
(0.309581 0.00944552 0.00029709)
(0.108921 0.0356737 0.000154707)
(0.269266 0.0539734 0.00035649)
(-0.291749 0.271284 0.00105933)
(0.0547744 -0.0108733 0.00173231)
(-0.237291 0.318053 0.00185595)
(0.276928 0.0439045 0.000229392)
(-0.250463 0.328703 0.00135708)
(-0.0938932 0.0712386 0.00612608)
(0.257526 0.0686673 0.000329143)
(0.301365 0.0833405 0.00760369)
(0.169317 -0.0156458 -0.000189881)
(0.127434 -0.00335801 0.000188436)
(0.264321 0.0705903 0.000373613)
(0.0926504 0.941776 0.00567206)
(0.230694 0.161884 -0.000143817)
(0.277818 0.015047 -5.94093e-06)
(0.296551 0.0612088 4.51273e-05)
(0.11395 -0.00195006 0.00014586)
(0.26155 0.0101806 -0.000406172)
(0.308398 -0.0193045 -0.000530726)
(0.121659 -0.00360386 7.77242e-05)
(-0.0404688 0.00731342 -0.0047358)
(0.279585 0.00493956 0.000122801)
(-0.00147917 -0.0316366 -0.000181754)
(0.238253 0.0241316 -0.000445045)
(-0.0156697 -0.0475935 -0.00248661)
(-0.366995 0.876562 0.0102221)
(0.249803 0.00228476 0.000132051)
(-0.281484 0.522531 0.00074348)
(0.0375834 -0.00536576 -5.58514e-06)
(0.295404 0.0601886 0.000383985)
(0.0315667 0.756916 0.00258713)
(0.0392868 -0.0155151 -5.93101e-05)
(0.254162 0.0317798 0.000187722)
(0.249842 0.0271182 -4.15769e-05)
(0.259121 0.0585138 -4.5023e-05)
(0.229266 0.0352919 0.00950814)
(0.105879 -0.0121827 0.000288896)
(0.271197 0.0461395 0.00055321)
(0.135957 -0.0370291 0.00362071)
(0.0977067 -0.0455407 0.000717138)
(0.0256829 -0.00788871 -6.30983e-05)
(0.303446 0.0669226 0.000157256)
(0.149233 0.0197996 0.000153775)
(0.247836 -0.00591926 -0.000324772)
(0.292441 0.0202237 -0.000192988)
(0.431589 0.128457 0.000227821)
(-0.0264902 0.0413364 -0.000456356)
(0.559692 0.0899922 0.000367103)
(0.423542 0.0427732 -0.000112376)
(0.0257798 0.256765 -0.00329615)
(0.0994792 -0.000249662 -2.45719e-05)
(0.245248 0.154433 0.000287209)
(-0.00753165 0.0571373 -0.00048561)
(0.0325282 0.250041 0.000191219)
(0.282068 -0.0172923 0.000333138)
(0.000289752 0.240587 -0.000166459)
(0.101857 0.0234208 1.37024e-05)
(0.256873 0.0155912 -0.000179772)
(0.272599 -0.00684003 -0.000143133)
(0.188531 -0.023788 -4.82765e-05)
(0.0107052 0.263034 9.84412e-05)
(0.00350089 0.274685 -4.97028e-05)
(0.143324 0.0123732 -0.000103902)
(0.482575 0.078249 -0.000847567)
(0.306169 0.0785189 -0.0002191)
(-0.00403673 0.100585 -0.000430188)
(0.104206 -0.0623729 -0.00116033)
(0.307856 0.0534085 0.000436261)
(0.315958 0.27026 -0.00067076)
(0.342766 0.0518125 6.10264e-05)
(0.265177 0.00836085 5.37059e-05)
(0.31775 0.261565 -0.000347248)
(0.331142 0.278801 -0.000849739)
(0.147744 -0.171596 -0.000856971)
(0.141991 0.10063 0.00213184)
(0.311053 0.280731 -0.000666905)
(0.185565 0.0396965 0.00293204)
(0.30658 0.355109 -0.00187434)
(0.246309 -0.0183775 -0.000145512)
(-0.326099 0.145591 0.00061612)
(-0.00286937 0.0696646 -0.000592083)
(0.332481 0.0916782 -5.08578e-05)
(-0.240822 0.398688 0.00149747)
(-0.0633787 0.271168 -6.63688e-05)
(-0.153343 0.283815 0.00189839)
(0.188795 -0.042561 0.00139568)
(-0.0389336 0.0495537 -0.00054862)
(0.248306 -0.0457193 -0.00359315)
(0.351564 0.275658 0.000325698)
(0.133407 -0.0177785 0.0017724)
(0.00862571 -0.0805723 -4.31257e-05)
(0.193943 -0.0702999 0.00142455)
(0.0971396 -0.0343303 0.00065097)
(0.321517 0.313307 -0.000277233)
(0.247636 0.0620192 4.30076e-06)
(0.0208236 -0.101879 0.000330424)
(-0.325096 0.232087 0.00162051)
(0.240536 -0.0050613 -0.00128896)
(0.408455 0.0337539 -7.46351e-05)
(-0.00016755 0.0639416 -0.000845603)
(0.245737 -0.0290266 -0.00041757)
(-0.0389669 0.0108676 -0.000612321)
(0.221884 -0.015362 -0.000497573)
(0.31636 0.0197151 0.00031493)
(0.000476706 0.0279409 0.000307316)
(0.00363436 0.026681 0.000249424)
(0.317194 0.336694 -0.000152327)
(0.311355 0.355861 -0.000673478)
(-0.0442349 0.418619 -0.0113349)
(0.329075 0.015064 0.00065306)
(0.280296 -0.0114309 -0.00144441)
(0.133757 0.336089 -0.000312273)
(0.257897 -0.00234653 -0.000408602)
(-0.0103074 0.865476 -0.0249672)
(0.214115 -0.0589879 0.00118569)
(0.184243 0.188553 -0.0083504)
(0.00994452 0.142631 0.00127088)
(0.381424 0.172631 -0.00546967)
(0.116471 0.408501 -0.000472615)
(0.160447 0.346923 -0.000973098)
(0.248635 -0.000574602 -0.000318171)
(0.425842 0.0885326 -0.00065028)
(0.111898 0.34984 -0.00056753)
(0.0653609 -0.0362257 -0.0017543)
(0.119547 -0.022324 0.00222915)
(0.251049 0.00172027 -7.33405e-05)
(0.162275 0.340596 -0.000375227)
(0.36911 0.206738 -8.92885e-05)
(-0.824991 0.161224 0.0192551)
(0.279952 0.0465601 -0.000357546)
(-0.0745092 0.130236 -0.00720921)
(0.331097 0.0324127 4.69953e-05)
(-0.0135666 0.0111078 0.000769147)
(0.333484 0.0805442 8.34253e-05)
(0.752122 0.0847047 -0.00776124)
(-0.0543196 0.352938 -0.000332108)
(0.0974791 -0.0157475 -0.000538393)
(0.136779 0.151995 0.00246681)
(-1.45407 1.53115 -0.0420869)
(0.340488 0.0270022 -0.000667731)
(-0.0199482 0.0221679 -0.000562362)
(-0.407545 0.253428 -0.036739)
(0.940941 0.701732 0.051924)
(0.180947 0.266904 -2.72876e-05)
(0.000865948 0.104679 0.000249294)
(0.331551 0.0292313 -0.000218938)
(0.122148 -0.0428852 0.000922156)
(0.354749 0.0280051 -0.000294066)
(0.105689 0.0273191 0.00119501)
(0.283914 0.0236524 0.000290556)
(-0.0118286 0.113608 0.000227016)
(0.245033 0.0215441 -0.000374191)
(0.272199 -0.00951795 -0.000462395)
(0.0450622 -0.057996 -0.000171819)
(-0.00022866 -0.102315 -0.00111821)
(0.504319 -0.249937 0.00403071)
(0.094601 0.0856409 0.00045166)
(-0.0791988 -0.0102717 0.000727198)
(0.306068 0.0991778 -0.000147324)
(0.291227 0.00353932 4.53533e-05)
(-0.554591 0.0972341 0.0127884)
(0.4847 0.100713 -0.00393598)
(-0.256301 0.10485 0.00143747)
(0.49118 -0.0397964 0.00259065)
(0.368965 0.0742512 0.0074086)
(0.456643 -0.0404983 0.00259907)
(-0.193367 -0.192877 0.008717)
(-0.0618272 -0.373115 -0.00171842)
(0.28329 0.00247234 0.000142295)
(0.264577 0.000863961 -0.00438797)
(0.13273 -0.0166697 0.000144585)
(0.290493 0.0167013 -0.00025638)
(0.212398 0.0660797 0.000286513)
(0.263472 0.0221619 0.000441039)
(-0.418804 -1.62346 0.182642)
(-0.378478 -1.01506 0.0439285)
(0.236808 -0.0187765 -4.39845e-05)
(0.397762 -0.0692524 0.000345312)
(0.266521 0.0320001 -0.000486593)
(0.0969643 0.0119545 -0.000121468)
(0.350031 0.0263148 2.12766e-05)
(0.0124109 -0.0517728 -0.000320673)
(0.24032 0.154084 0.000659468)
(-0.0766582 0.340761 -0.00109788)
(0.05414 -0.201613 2.86784e-05)
(0.389577 -0.0775747 0.00275812)
(0.480103 0.0333789 0.0038111)
(0.0599159 0.0531049 0.00215192)
(0.0350137 0.223234 0.000194109)
(0.442697 0.0157157 0.00379545)
(0.285065 0.133708 0.000835913)
(0.00946841 0.25432 -0.000179197)
(-0.00369292 0.0540535 0.00197172)
(0.0268791 0.0376901 -0.000436731)
(0.465503 0.0293312 0.000761513)
(0.268839 0.0042526 -0.00108726)
(0.299409 0.055284 0.000638738)
(0.348965 0.0209557 -9.67537e-05)
(0.276872 -0.00298353 -6.19597e-05)
(0.270568 0.0162061 0.000134853)
(0.290079 0.00586273 -3.55568e-05)
(0.269788 -0.0230128 -0.00336181)
(0.211143 0.0434774 -0.000114025)
(0.0841488 -0.00309052 0.000224345)
(0.293202 -0.0525083 -0.00201905)
(0.621917 0.0482771 -0.000119051)
(0.0731849 0.0223221 0.00124088)
(-0.509979 -1.21035 0.0263126)
(0.121431 0.0019983 -0.00298262)
(0.0185429 0.201556 0.000114539)
(0.239797 0.0168761 -0.000194752)
(-0.0956368 0.541102 -0.0111029)
(0.230997 -7.50811e-05 -4.91499e-06)
(0.367319 0.308797 0.000695122)
(0.0417624 0.0390646 0.00206622)
(0.00781629 0.39831 -0.00509603)
(-0.341693 0.457381 3.47725e-05)
(0.012105 0.0421618 0.00205481)
(0.00575739 0.215829 -0.000189279)
(0.444357 0.0150886 0.00532518)
(-0.0186451 0.0597895 0.0028289)
(0.0466035 0.0868749 0.00192429)
(0.0221161 0.019974 0.00235734)
(-0.100118 0.736369 -0.0379144)
(0.230538 -0.00824395 0.000195013)
(0.346891 0.107238 0.00104886)
(-0.127348 0.720089 -0.0139335)
(0.303346 0.0972369 0.00089069)
(0.0465407 -0.145387 -0.000278134)
(0.263499 -0.0205429 -0.00108605)
(0.369508 0.0187209 -0.000360073)
(0.229388 0.00568931 0.000107611)
(0.20527 0.00451541 0.00110158)
(0.320851 0.0183297 0.000406762)
(0.286815 0.0534368 -0.00035937)
(0.332944 0.228362 0.00521381)
(0.241593 0.00240068 -0.0007751)
(0.241587 0.0619425 0.00537687)
(0.251614 0.160333 0.0003167)
(0.273649 -0.00526632 0.000240039)
(0.0540854 0.2468 0.00106891)
(0.283349 0.00215901 -0.000586936)
(0.0118027 -0.11106 3.54234e-05)
(0.317359 0.041182 -0.00258652)
(0.290718 0.0277646 0.000185078)
(0.334637 0.0238278 0.00189592)
(0.230823 -0.000684653 0.000909539)
(0.00676966 -0.104904 0.000175233)
(0.301134 0.00344601 0.00241709)
(0.290866 0.0126266 0.00146991)
(1.59757 -0.167862 -0.117471)
(0.291142 0.020348 0.00308541)
(0.0900552 0.00276232 0.000967304)
(0.251811 0.0222723 -0.000279069)
(0.0752884 0.0156791 0.00114753)
(0.348779 0.0825939 0.000418088)
(0.303175 0.0164703 -0.000125454)
(0.306119 -0.0300062 0.000159455)
(0.0126704 -0.10667 3.08115e-05)
(0.0548794 0.00742719 0.000982647)
(0.28263 -0.0663097 -0.000415704)
(-0.0244566 0.278174 0.000632514)
(0.819281 -0.251957 0.028226)
(0.111158 -0.0475051 0.000118184)
(0.0877183 0.0240183 0.00114884)
(-0.00125903 0.240637 0.000121331)
(0.136381 -0.0223043 0.000261815)
(0.237123 0.137184 5.72257e-05)
(0.245917 0.00321054 0.000441819)
(0.101257 0.00415996 0.000334751)
(0.248277 0.00799122 -0.000491345)
(0.250493 0.018209 -0.000436158)
(0.277056 0.0242008 -4.10652e-05)
(0.0309779 0.0226117 -0.000499095)
(0.270094 -0.00120314 -1.12445e-05)
(0.240146 0.0122064 -0.000292266)
(0.373287 0.138976 -2.14181e-05)
(0.24965 0.0127999 -8.50558e-05)
(0.00579607 0.264919 7.75185e-05)
(0.00293278 0.258828 6.89032e-05)
(0.158482 0.0120626 0.0031063)
(0.00214864 0.25213 8.6755e-05)
(0.0109236 0.0861628 0.00133225)
(0.265187 0.0790792 3.79367e-05)
(-0.000650644 0.226369 0.000125649)
(0.313352 0.0202635 -0.000230113)
(0.0557698 -0.0483507 0.0027109)
(0.238732 -0.0171725 -0.000418428)
(0.31259 0.0594955 0.00052607)
(0.207796 -0.0157443 0.0055448)
(0.256287 -0.0128119 -0.000142006)
(0.27443 0.0326022 8.98238e-05)
(0.22096 0.165731 -8.54609e-05)
(0.222993 0.154963 -0.00023589)
(0.787258 0.176084 -0.0233274)
(0.385106 0.00477286 -0.000648577)
(0.382162 0.00384592 0.000164915)
(0.227487 0.15341 -0.000210942)
(0.0413833 -0.0890237 7.5394e-05)
(0.0472739 0.178868 0.000349268)
(0.24336 0.156186 4.08602e-06)
(0.247272 -0.0166653 -5.95531e-05)
(0.267963 0.101155 0.00130708)
(0.273192 0.00347247 -0.000991252)
(0.11001 -0.0367971 0.00106522)
(0.109901 0.220928 0.000264677)
(0.269992 0.0793097 0.000704069)
(0.00399105 0.0915411 0.000236634)
(0.302589 0.138072 8.74795e-05)
(-0.0612363 -0.043646 -0.000793157)
(0.1152 0.165121 0.000717201)
(0.25501 0.0860972 -0.000981523)
(0.00300452 0.0813529 0.000292386)
(0.0110384 0.0455862 0.00036047)
(0.0356829 0.00531409 0.000705782)
(0.0903772 0.116471 0.000454357)
(0.383982 0.0349633 0.000145397)
(0.00313282 0.0874374 0.000217467)
(0.0190392 -0.161601 -0.00703767)
(0.478475 -0.00418702 0.00241058)
(0.0860005 0.146929 0.000390116)
(0.089914 0.170369 0.000469443)
(0.499048 0.346513 0.00187656)
(0.224303 0.0270018 -0.000396947)
(0.330978 0.0466496 -0.000176208)
(0.308952 0.0659814 0.000178383)
(0.0802492 0.05317 -0.000290992)
(0.441207 0.0417694 -2.53863e-05)
(-0.544681 -0.259311 0.0103495)
(0.139909 0.150819 0.00182675)
(0.0349016 0.0510914 0.000392183)
(0.406825 0.0271077 0.000166363)
(-0.112593 0.262782 -1.12023e-05)
(0.0701637 0.200022 -6.06617e-05)
(0.0462326 0.137444 0.000188321)
(0.148807 -0.0102288 -0.000131616)
(0.277491 0.00850395 0.000146907)
(-0.319671 -0.00254286 -0.004965)
(0.317254 -0.00420858 -0.000529703)
(0.466366 0.041095 4.58946e-05)
(0.592177 0.0426864 -0.00606223)
(0.0329698 0.224573 0.000191583)
(0.457171 0.0373855 -9.75008e-05)
(0.510539 0.265121 0.00924956)
(0.217229 -0.0157753 -0.000459654)
(0.174206 0.017864 0.00147964)
(0.25092 -0.0493075 0.0021884)
(0.101123 0.225719 0.000504407)
(0.256958 -0.0634728 0.00179648)
(-0.630174 0.141074 0.0325292)
(0.278714 0.134835 0.000811281)
(0.252503 0.0544067 0.000155211)
(0.303084 0.134305 0.00105006)
(0.253233 0.0662559 -1.22829e-05)
(0.888455 1.06681 0.00815571)
(0.277581 0.0505621 9.53926e-05)
(0.29841 0.0756063 0.000306001)
(0.021304 0.0895951 -0.0090404)
(0.526639 0.0598223 0.00289497)
(0.27651 0.289806 -0.001118)
(0.0869887 -0.000528436 0.000232807)
(0.322813 0.128911 -0.000277825)
(-0.186445 -0.361298 0.00641081)
(0.249751 -0.00354586 -0.00023819)
(0.244419 -0.00170838 0.000193707)
(-0.138281 -0.017618 0.000561162)
(0.150565 0.013905 -0.000101814)
(0.234668 -0.0457212 -0.00356491)
(0.0198063 -0.00686594 -0.000573254)
(0.244031 -0.0431706 -0.000554309)
(0.255376 0.00543064 1.51078e-05)
(0.106892 0.0309848 0.0135719)
(0.152555 0.234126 0.000329205)
(0.116147 -0.0180277 0.00014186)
(0.229952 0.165185 -0.000286739)
(0.144457 0.29358 -0.00595288)
(0.344746 0.0278303 0.000378385)
(0.0552533 0.0621436 0.000580615)
(0.08592 -0.0120364 0.00128799)
(0.391236 0.421106 -0.00145463)
(0.0697335 0.0421117 0.00153532)
(0.0603242 0.00475004 0.00180063)
(1.30957 -0.513171 0.0777884)
(0.349167 -0.00962423 -0.00194329)
(0.242896 0.024205 -0.000148051)
(0.0511 0.0177398 -0.000177396)
(0.230834 0.152032 1.13297e-05)
(0.0639525 0.0140746 0.000188578)
(0.045202 -0.0283269 -1.07718e-05)
(0.0779686 0.0425768 0.000143268)
(1.25587 -0.798954 0.177332)
(0.0644923 -0.0253377 -0.0001623)
(0.285406 0.0750134 0.000327775)
(0.0600316 -0.0856769 -0.000132018)
(0.0401296 0.209512 2.09213e-05)
(0.22609 0.0836463 -0.000429719)
(0.026438 0.0078052 0.000513828)
(0.0651968 -0.0640697 0.00022774)
(0.00285188 -0.0194588 -0.000116895)
(0.0691012 0.154168 0.000559599)
(0.248549 0.204645 1.47222e-05)
(0.016623 0.0642416 0.00381287)
(0.11508 0.0310034 0.000155076)
(0.00455645 -0.0187732 -0.000137783)
(0.10942 -0.0485424 -4.24208e-05)
(0.149245 -0.0467405 -9.69572e-05)
(0.0621173 0.0256054 -6.28467e-05)
(0.26176 0.127438 -0.00103253)
(0.00428602 -0.0185701 0.00374807)
(0.00390997 -0.0231932 -0.000143283)
(0.10639 0.000502927 0.00316197)
(0.101212 0.0170985 1.08503e-06)
(0.23375 -0.00548536 -6.64627e-05)
(0.269097 0.0109188 3.42149e-05)
(0.103561 0.00459182 0.000247227)
(0.370034 0.206493 0.0059697)
(0.0446871 0.218482 0.000250529)
(0.0510697 0.187502 -0.000117561)
(0.116728 -0.000902394 0.000158749)
(0.143235 0.302389 -0.00011903)
(0.263268 -0.0357396 -7.28368e-06)
(0.0307796 -0.0730886 0.00169445)
(0.4945 0.0325846 0.0169105)
(0.0635362 0.210609 -0.000100955)
(-0.0394476 -0.021726 -0.000715487)
(0.33931 -0.0209762 0.000223978)
(0.21811 0.140517 0.00040906)
(0.305574 0.056076 -0.000417727)
(0.101504 0.0333309 0.000253085)
(0.0500634 0.192515 3.49046e-05)
(0.117632 0.0175298 0.000122637)
(0.242643 0.00683511 -0.00028262)
(0.242751 0.125642 0.00126169)
(0.112538 -0.0285813 0.00211717)
(0.238542 0.00412826 -1.5653e-06)
(0.00681031 -0.0200517 -0.000166407)
(0.375629 0.0828256 0.00307939)
(-0.069548 0.25375 0.000115164)
(0.126439 0.2693 -0.000282925)
(0.13871 -0.0527327 -0.000340384)
(0.00133689 -0.0214018 -0.000134774)
(-0.0161009 0.261109 0.00055114)
(-0.0217247 0.286121 0.000634456)
(-0.0334204 0.283532 0.000657937)
(0.133695 -0.14699 -0.000339948)
(0.236949 -0.0016744 2.27733e-05)
(0.0342166 0.0352921 0.000511565)
(0.00506022 -0.0229752 -0.000150574)
(0.113618 -0.167348 -0.000341075)
(0.989451 -0.868759 0.0503858)
(0.131458 0.26612 -0.00021331)
(0.138278 0.277906 -0.000329105)
(0.19329 0.405995 -0.000364783)
(0.448437 0.116758 0.000233892)
(-0.536488 0.638993 -0.0082502)
(0.466548 0.113743 4.54704e-05)
(0.231362 -0.00391492 -0.000111075)
(0.265971 0.0129161 -0.00022366)
(0.310902 0.0387982 0.000146971)
(0.188456 -0.097229 -0.000574888)
(0.250805 0.00102864 -0.000234331)
(-0.356478 0.134875 -0.000184533)
(-0.089684 -0.133931 0.000874814)
(0.208475 -0.109499 -0.000518483)
(0.208554 -0.121752 -0.000931076)
(-0.238617 0.300091 0.0198632)
(0.0319494 0.119964 0.00016742)
(-0.00335495 -0.119161 0.00057885)
(0.0840424 -0.0285322 -3.14315e-05)
(0.151341 0.0428983 0.00232718)
(-0.0312266 0.310083 0.000493495)
(0.206027 -0.107483 -0.00029244)
(0.253455 0.0182906 0.000167814)
(0.194821 -0.102731 -0.000923084)
(0.189983 -0.153821 -0.00116957)
(0.354537 0.0483232 0.000218494)
(0.299584 0.204612 6.73832e-05)
(0.181752 -0.0447701 0.00187605)
(0.299912 0.194831 4.71963e-05)
(0.335029 0.0460303 -0.000137448)
(0.0954857 -0.0692057 0.00179625)
(-0.185728 0.251027 0.0300297)
(0.239151 0.154191 -0.000241548)
(0.339071 0.0486828 -8.73844e-05)
(-0.354034 0.22995 0.0490469)
(0.250626 0.00735853 -0.000254358)
(-0.00919671 -0.0191505 0.00229759)
(0.30642 -0.0388344 -0.000501139)
(0.307866 -0.00927832 0.00136046)
(-0.127749 0.00847642 -0.00318287)
(0.0377842 0.100076 0.000207047)
(0.106005 -0.014875 -5.45005e-05)
(0.267169 -0.0132246 0.000288655)
(0.00829055 0.163531 0.000220751)
(0.292669 -0.0248632 0.000998275)
(-0.48192 0.276864 -0.00176788)
(-0.37341 0.33012 0.000951245)
(0.229077 0.00867166 -0.00016093)
(0.445045 0.0844727 -0.0014254)
(0.125098 0.024635 0.00205335)
(0.140749 0.00803861 0.00269862)
(0.245146 0.0625991 0.000220845)
(-0.00498071 0.245408 0.000167026)
(0.0755163 -0.00623593 2.50221e-05)
(-0.00337497 0.268963 0.000185888)
(0.0251966 -0.0476265 0.00144639)
(0.251374 -0.0221566 -2.45019e-05)
(0.276389 -0.0027629 -0.000165585)
(0.100038 0.0248038 0.000161325)
(0.229833 0.146254 0.000405776)
(0.00137132 0.254839 2.28775e-05)
(0.100403 0.0114956 0.000452386)
(-0.00135219 0.253966 0.000118209)
(0.0598653 0.133028 0.000437261)
(0.00521499 -0.0279514 -0.000251128)
(-0.00305794 0.26077 7.31806e-05)
(0.35574 0.0437481 -0.000100138)
(0.093205 -0.0199871 -9.88025e-05)
(0.00248588 -0.0288423 -0.000247305)
(0.245359 -0.00735098 -0.000672274)
(0.28663 -0.271484 0.000850677)
(0.0104887 0.0460552 0.000276845)
(0.359912 0.403092 -0.00276594)
(0.0506512 -0.113038 -0.000190522)
(0.0413413 0.143053 0.0029451)
(0.25674 -0.00296079 -0.000345924)
(0.363054 0.00691712 -0.000109758)
(-0.124148 -0.426821 -0.00380165)
(-2.29476 0.306025 0.519425)
(0.10616 -0.00348625 -0.00037083)
(0.248971 -0.728977 0.00494928)
(0.32296 0.0832306 0.00052109)
(0.0326686 0.0649706 0.000222088)
(0.0422698 0.0725386 0.000246502)
(0.260094 -0.0229885 -0.00194336)
(-0.620779 1.05472 -0.0650246)
(0.254541 -0.0113834 -0.00026074)
(0.0827286 0.00335606 0.00071148)
(0.0832453 -0.0589165 0.00332643)
(0.353319 1.26718 0.0639421)
(0.330164 0.0990487 0.000555439)
(0.0988151 -0.0283679 -0.000366408)
(1.36381 0.552619 0.00462184)
(0.252723 0.00842994 -0.000319882)
(0.596997 0.198003 0.000447843)
(-0.0792128 0.232536 -0.000593325)
(0.0605647 -0.0754159 -0.000261688)
(0.281962 0.054026 0.000414617)
(0.318381 0.0961747 0.00129528)
(-0.291533 0.654463 -0.00640505)
(0.0948149 -0.0244695 -0.000280361)
(0.0926813 0.022313 0.000128948)
(0.0898756 0.0218459 0.000188577)
(0.101128 0.0931157 0.000245162)
(-0.217147 -1.07503 -0.023805)
(0.288091 0.146753 9.41254e-05)
(0.30196 0.00892072 -0.000912729)
(0.0393212 0.0394525 -0.000136374)
(0.430427 0.0211222 -0.000205479)
(0.439441 0.0452555 0.000266909)
(0.0559317 0.00926392 -0.00214106)
(0.0440412 0.000280446 -0.00220574)
(0.0668009 -0.000237714 -0.00205412)
(0.338004 -1.01799 0.0935609)
(0.294397 0.075549 -1.2017e-05)
(0.203025 0.178208 -0.0001595)
(0.0432303 -0.112108 -0.00109939)
(0.149513 -0.023859 -9.53396e-05)
(0.0635907 0.00277032 0.00120829)
(0.355707 0.238956 -0.000522226)
(0.211804 0.00230133 -0.00575435)
(0.104154 -3.54051e-05 0.000283568)
(0.106048 0.00475967 -0.00013303)
(0.25126 0.00308127 -0.000186059)
(0.0414451 0.0119452 0.000724549)
(0.0483566 -0.0194653 1.75136e-05)
(0.0405105 -0.00320001 0.000829926)
(0.0970544 0.0199878 0.00040158)
(-0.57872 0.191396 -0.00496404)
(0.0599218 0.0102692 0.000200756)
(0.197046 0.153555 0.00123851)
(0.222813 0.153661 0.000913083)
(-0.0882732 -0.297479 0.0149227)
(-0.227225 0.0761383 0.00113807)
(-0.0866427 0.274876 0.00358615)
(0.0101263 -0.0966761 -0.000369622)
(-0.205735 -0.194567 0.00334362)
(0.25555 0.00708008 0.00015084)
(0.283876 0.0378208 0.000467651)
(0.122811 -0.015464 -0.000337029)
(0.122599 0.167771 6.04471e-05)
(-0.213031 -0.129088 0.0143067)
(-0.0214702 0.299734 0.000849252)
(0.12168 0.189996 0.0013075)
(-0.535688 0.124991 -0.00208653)
(0.237708 -0.00562349 -0.000224554)
(0.111077 0.172978 0.00117003)
(0.0892135 0.109187 -0.00103122)
(0.0958124 -0.0320638 0.000872799)
(0.0455329 -0.000681548 0.00184696)
(0.102462 0.176821 0.00170813)
(0.271123 0.0200139 0.000193616)
(0.29425 0.065181 0.000286665)
(0.315715 0.317678 0.000851154)
(0.206742 0.0664752 -0.000499147)
(0.353304 0.0844017 0.000231943)
(0.0792654 0.0300775 0.00109431)
(0.359672 0.0236077 0.000441911)
(1.00915 0.193576 -0.0439078)
(-0.0283444 0.295774 0.0148891)
(0.247583 0.00577457 -0.000949419)
(0.296342 0.0686075 5.31238e-05)
(0.25573 -0.00943325 -0.000282638)
(-0.137161 0.0681019 0.0156148)
(0.266841 -0.190419 -0.0134471)
(0.111808 -0.362129 -0.0112827)
(0.207031 0.139356 -0.00788224)
(0.00294905 0.0142827 -0.000773804)
(0.157862 0.106224 -0.0150871)
(0.220217 0.21133 0.00037957)
(0.28975 0.0809126 0.000356208)
(2.67836 0.311979 0.0410892)
(0.119565 0.168003 7.3488e-05)
(0.429851 -0.126841 0.0018212)
(0.251846 -0.0520731 0.00197872)
(0.321489 0.113408 3.78483e-05)
(0.356084 0.139501 -0.000169553)
(-0.0387702 -0.0886796 -0.000593866)
(-0.0900916 0.045474 0.000406386)
(1.4282 -0.421374 0.0401914)
(0.0560808 -0.0907299 -0.000764919)
(0.291018 0.0179612 6.49222e-05)
(0.0815108 0.0812803 -0.00952254)
(0.297266 0.00135319 -0.000323994)
(0.248924 -0.0101907 0.0023954)
(0.102704 0.0161786 0.000424051)
(0.117896 0.0277985 0.000184031)
(0.0443926 0.134693 0.000361015)
(0.0409805 0.00471245 -0.00042675)
(0.0991204 0.0753332 -8.76734e-05)
(0.317378 0.148816 8.96202e-06)
(1.36268 -0.139043 -0.0078527)
(1.27681 0.25124 0.123301)
(0.041939 -0.00351462 -0.000165558)
(0.0421526 0.16279 0.000217974)
(0.0166421 -0.0988516 0.000659184)
(0.956279 -0.601796 -0.620714)
(0.286679 0.0219818 0.00135314)
(0.271295 0.0271431 0.00155859)
(0.262396 0.0552468 0.000953544)
(0.155972 -0.837357 -0.0232994)
(0.257004 0.0172295 0.00115384)
(0.317161 0.0747263 0.000358863)
(0.338395 0.120408 0.000218555)
(0.0616852 -0.00100344 0.00023696)
(0.0434926 0.0842426 1.28974e-05)
(1.70755 -0.0698452 -0.00932439)
(0.0365618 -0.00961612 -0.00273161)
(0.232642 0.0437818 0.00168645)
(-0.0173806 0.258839 9.97712e-05)
(0.27075 0.0811939 0.000243279)
(0.103076 0.243923 0.000254466)
(0.704306 0.0361983 0.000165096)
(-0.0106672 0.235131 0.000130265)
(0.300819 0.0718729 0.000208509)
(0.280722 0.0566203 -0.000128355)
(0.0054168 0.148853 0.000260346)
(0.327646 0.0345678 -0.000231996)
(0.000518688 0.156517 0.000331777)
(0.238885 0.0839912 0.000772686)
(0.358839 0.00440934 -0.000133895)
(0.298792 0.0207435 -0.00036551)
(-0.596084 0.869546 0.0462016)
(0.324028 0.0320001 -0.000273776)