/*--------------------------------*- C++ -*----------------------------------*\
| =========                 |                                                 |
| \\      /  F ield         | OpenFOAM: The Open Source CFD Toolbox           |
|  \\    /   O peration     | Version:  v2012                                 |
|   \\  /    A nd           | Website:  www.openfoam.com                      |
|    \\/     M anipulation  |                                                 |
\*---------------------------------------------------------------------------*/
FoamFile
{
    version     2.0;
    format      ascii;
    class       volScalarField;
    location    "2";
    object      alphat;
}
// * * * * * * * * * * * * * * * * * * * * * * * * * * * * * * * * * * * * * //

dimensions      [1 -1 -1 0 0 0 0];


internalField   nonuniform List<scalar> 
108993
(
0.000110189
0.000103954
8.35673e-05
0.000113701
0.000114004
6.25138e-05
9.88585e-05
9.0866e-05
0.000113339
0.000104953
0.000119685
0.000118616
9.47891e-05
9.49552e-05
0.000100965
8.4306e-05
8.93746e-05
0.000102031
9.59141e-05
0.000102307
9.25173e-05
0.000109185
9.10165e-05
0.00011319
0.000111899
0.000102166
0.000103104
0.000109419
0.000121934
7.29465e-05
0.000124197
0.000117506
0.000118091
0.000115631
9.73952e-05
0.000114037
9.93372e-05
0.000116878
9.99551e-05
0.000100688
0.000128282
0.000121601
0.000104025
0.000139793
0.00010209
7.59598e-05
0.000120471
0.000108388
0.000131784
0.000111522
0.000115193
0.000127712
0.000106197
0.000110376
0.000116767
0.000120532
0.00010694
0.000106463
8.98049e-05
0.000122858
0.000109001
0.000111103
0.000107792
9.60228e-05
0.000106669
0.000122389
9.89622e-05
0.000117884
0.000127276
0.000111992
0.000105679
0.000102352
0.000112582
0.000109393
9.86739e-05
0.000120543
9.34275e-05
0.000130197
0.000112653
0.00010904
0.000103255
9.79171e-05
9.50346e-05
0.000101152
0.00012184
0.000101911
0.000122263
9.89752e-05
0.00010429
0.000119681
0.000106232
9.16916e-05
0.000118569
8.92224e-05
0.000114318
0.000112095
9.0917e-05
7.95957e-05
8.90639e-05
9.39992e-05
0.000116261
0.000131015
0.000127045
0.000121774
8.57171e-05
0.00012037
0.000121728
0.000128304
0.000120123
0.000122654
9.64486e-05
0.000105829
0.000124514
0.000110589
0.000112431
0.000108036
9.72497e-05
9.08661e-05
0.000127133
0.000109132
0.000106886
0.000101633
0.000111504
7.40773e-05
0.00010607
0.000108294
0.000112741
9.84079e-05
9.36614e-05
0.000119789
9.9538e-05
0.000118957
0.000124128
0.000231119
0.000108313
9.18353e-05
0.000103117
9.69546e-05
9.58438e-05
0.000103424
9.48083e-05
8.76212e-05
0.000105027
0.000104608
0.000115897
0.000111443
9.06457e-05
0.0001702
0.000103961
0.000129384
0.000120506
8.93179e-05
8.95181e-05
0.000167762
0.000110478
0.000105728
0.000129405
0.000114312
0.000152728
0.000109111
0.000146405
0.000196117
0.00012378
0.000101927
0.00010424
0.000116785
0.000104941
9.21235e-05
9.11719e-05
0.000125492
0.000115898
0.000115397
0.000116329
9.68068e-05
0.000108453
0.000102583
0.000230366
9.70406e-05
0.000117453
9.5493e-05
9.79004e-05
9.15035e-05
0.000103402
3.43332e-05
0.000127486
0.000111466
0.000106817
0.000111181
0.000111241
3.91795e-05
0.000111165
0.000116257
9.70356e-05
0.000161083
0.000117993
0.000105362
0.00012394
0.000112695
0.000120401
4.33047e-05
0.000117496
0.000122197
9.66723e-05
9.42308e-05
0.000114713
0.000207386
9.95802e-05
0.0001171
0.000105575
0.00189318
9.36757e-05
0.000108453
0.000228276
0.00038824
0.000541603
7.73926e-05
9.78114e-05
0.00010976
0.000104545
0.000133282
0.000108983
0.000113185
0.000129088
0.000156617
9.78259e-05
8.52375e-05
9.88582e-05
0.000122039
0.000141987
9.03193e-05
0.000117724
0.00011123
9.21009e-05
9.09462e-05
0.000102117
8.69514e-05
0.000115399
0.000100969
0.000102714
0.000102241
7.69423e-05
0.000116851
7.24343e-05
0.000109062
0.000122502
0.00010261
0.000774006
0.000110611
0.000113327
0.000120983
9.94e-05
0.000110855
0.000105244
0.000116317
0.000112496
0.000109246
0.000110529
0.000106326
0.000126446
7.19105e-05
0.000109022
9.8142e-05
0.000122126
9.06104e-05
8.21789e-05
0.000108576
0.000120926
0.000127041
7.15196e-05
0.000106963
7.85951e-05
8.71723e-05
0.000158702
0.00299406
0.000109969
0.000102486
0.000116904
0.000127013
0.000120299
0.000108053
0.000116492
9.11708e-05
7.48647e-05
9.90719e-05
0.000115365
0.000110295
8.58513e-05
0.00011637
0.000124594
0.000137838
0.000105901
9.19033e-05
0.000120413
0.000114882
0.000110202
9.09765e-05
0.000125374
0.000106992
9.87522e-05
6.42335e-05
0.000115937
9.62307e-05
0.000117593
8.62083e-05
0.000112651
8.9368e-05
8.21576e-05
9.48729e-05
8.37036e-05
0.000212405
0.000118313
0.000118058
9.43627e-05
0.000103427
0.000119927
0.000108068
8.06917e-05
9.77435e-05
0.000107431
0.000127969
0.000102984
7.94305e-05
7.93261e-05
7.68571e-05
8.81833e-05
0.000381082
0.00242388
0.000156829
0.000101505
0.000123691
0.000131396
0.00014178
0.00205761
0.000103833
0.000369652
0.000107142
0.000110121
0.000114198
0.000112438
9.95469e-05
0.000105626
0.000147477
9.96074e-05
0.000115999
9.99698e-05
0.000103674
9.7996e-05
9.77573e-05
9.61999e-05
9.20811e-05
0.000113427
7.64463e-05
7.89098e-05
0.000105673
0.000102114
0.000107812
9.81447e-05
7.02952e-05
0.000104713
6.37414e-05
0.000131577
9.86367e-05
8.60607e-05
0.000103407
0.000111077
0.00011833
0.000116501
9.84327e-05
0.000107455
0.00245729
9.07796e-05
0.000116547
9.42695e-05
0.000775861
0.000134037
0.000289902
0.000120633
0.000145847
0.000171392
0.000116082
0.00014369
9.95312e-05
0.000121415
9.37758e-05
0.000103882
7.3397e-05
9.95805e-05
0.000265722
0.000103292
0.000122597
0.000591913
7.73544e-05
0.0004956
9.44593e-05
0.000116013
0.000149746
0.0018621
0.00011007
0.000102742
0.000107153
0.000146956
0.000333446
0.000148459
0.000110259
0.000113666
7.84041e-05
9.84507e-05
6.91722e-05
0.00010108
0.00170562
0.0001007
9.71133e-05
0.000446149
9.62625e-05
0.000111308
0.000122088
0.000874849
9.97242e-05
6.45021e-05
0.000102338
0.00131264
0.00010566
0.000667737
8.40031e-05
0.000117341
0.000656729
0.000114969
8.00756e-05
0.00198291
7.27804e-05
0.00117198
0.000108899
0.00120203
0.000103575
0.000101175
0.000109771
0.000101445
0.000113829
0.000120651
9.80098e-05
0.00010334
0.000101464
0.000125162
7.37964e-05
0.000114285
0.000120503
9.63213e-05
0.000119902
0.000103271
7.99019e-05
0.000106305
0.000108853
0.000118736
0.000139838
0.000130648
0.000107076
0.000107312
0.000103068
0.000129282
9.57467e-05
0.000112488
0.000106504
9.81448e-05
0.000118363
0.000106919
8.27173e-05
9.29034e-05
0.000107357
7.80898e-05
9.55157e-05
8.3325e-05
0.000114985
0.000113334
0.000103577
0.000124334
0.000115135
9.20583e-05
0.000118707
0.000103904
0.000116691
9.77318e-05
0.000127087
0.000121835
0.000115819
0.000133508
9.55088e-05
9.49358e-05
8.75786e-05
0.000100733
0.000121365
0.000108243
0.000118934
0.000114053
9.23303e-05
0.000104771
7.51239e-05
0.000117085
0.000116531
8.35469e-05
0.000104922
9.09028e-05
0.000108779
8.57717e-05
0.000109171
0.000116249
0.000121029
0.000103851
9.49362e-05
0.000147934
0.000106614
0.000114604
0.00010066
0.000116819
0.000123414
0.00010793
0.000102132
9.23842e-05
0.000107265
0.000124678
0.000129893
9.68259e-05
0.000107737
0.000110408
0.000114372
0.000124807
0.000104806
0.000102948
0.000113937
0.000110703
0.000122609
8.7405e-05
0.000100692
9.63934e-05
9.91282e-05
0.000108307
0.000123256
9.98852e-05
0.000114091
0.000119158
0.000116718
9.31699e-05
0.000148549
0.00010581
0.000123393
0.000122779
0.000104159
8.68219e-05
9.89517e-05
0.000120867
8.62035e-05
0.000153154
9.05554e-05
0.00027567
0.000130265
0.000120223
9.35899e-05
0.000117588
0.00012522
0.00175118
9.19346e-05
0.000112076
0.000109583
9.83139e-05
0.000115896
7.51504e-05
0.000143916
0.000114422
9.12255e-05
0.000143145
0.000119805
0.00011433
8.311e-05
0.000914359
7.9318e-05
0.000117442
0.000108719
0.000126972
8.07822e-05
0.00242538
0.000110873
0.000123348
9.98672e-05
0.000124495
0.000133693
0.000114795
9.37969e-05
0.000140377
7.9631e-05
0.000121602
7.93479e-05
0.000129061
8.21006e-05
0.000102488
0.000106627
0.00309122
9.85359e-05
0.000133398
8.49549e-05
0.000123857
0.00010272
0.000113011
0.000122849
0.00331425
9.61039e-05
9.34063e-05
7.73678e-05
0.00312368
9.30525e-05
0.000106767
0.000113697
0.000221311
0.000113208
0.000129256
0.000104644
0.000133343
0.000101702
0.00011534
9.44334e-05
0.000101153
9.58141e-05
0.000132192
0.000107445
0.000114889
0.000117092
0.0001221
0.000121347
0.00012986
0.000120267
9.99401e-05
0.000112419
0.000138461
0.000106929
0.00011816
0.000103836
0.000103939
9.2529e-05
8.31003e-05
0.000409064
0.000102299
0.000117259
0.000102559
0.000115069
0.000101129
9.69905e-05
9.18746e-05
9.78961e-05
0.000108252
9.0196e-05
9.83197e-05
0.000104402
0.000111217
9.22963e-05
0.000208416
6.82705e-05
0.000121456
0.000106335
0.000264612
5.91932e-05
0.000104829
6.42269e-05
5.13375e-05
0.00010965
8.33355e-05
0.000105497
9.47344e-05
0.00014946
8.6781e-05
0.000118102
0.000221075
0.000111865
0.000128223
0.000130486
0.000124192
7.73243e-05
7.07976e-05
0.000128345
0.000116731
7.08026e-05
0.000109941
0.000121795
0.000100919
0.000118294
0.000105464
0.000112549
7.02145e-05
0.000148056
0.000130375
7.01941e-05
7.07937e-05
0.00170828
0.000103395
0.000107327
0.000115062
8.81705e-05
0.000115238
0.00234696
0.000102183
0.000106477
8.68217e-05
0.000544264
0.000145855
0.000107106
6.42385e-05
6.90257e-05
0.000135225
7.36053e-05
0.000113706
9.47544e-05
0.000113787
9.62782e-05
0.000111633
0.000117532
0.000122154
0.000119917
0.000147884
8.51986e-05
0.000122389
0.000108732
8.19092e-05
0.000118147
0.000120017
0.000113921
0.000137806
9.45021e-05
9.618e-05
0.000113793
0.000119434
8.73575e-05
0.000115456
0.00011518
0.000105134
0.000109632
8.72992e-05
9.69642e-05
0.000116191
8.79146e-05
0.000126996
8.98114e-05
0.000113696
0.000130793
9.62113e-05
8.16432e-05
0.000117973
0.000102838
0.000119104
0.000122189
0.000127546
0.000140492
0.0001157
0.000150858
0.000117728
8.03885e-05
9.23741e-05
0.000134481
8.28763e-05
9.58591e-05
8.67097e-05
0.00012266
0.000131665
9.795e-05
0.000106434
0.000104454
0.000136746
0.000105461
7.27532e-05
0.000118074
0.000117206
9.82592e-05
0.000115221
0.000113818
9.97251e-05
0.00011085
0.000112911
0.00012349
0.000104147
0.000131495
0.00010639
0.00264755
9.67243e-05
9.95621e-05
7.15581e-05
0.000276964
0.000114736
0.000104984
0.000106454
0.000138115
0.000108764
8.6384e-05
0.000113402
7.30274e-05
0.000108748
9.33734e-05
0.000105329
0.000105495
0.000123316
0.000135946
0.000116615
0.00012047
0.00047612
0.000118994
9.63002e-05
9.98346e-05
0.000119875
0.000102965
0.00011411
0.000118765
0.000113983
0.000104005
9.27074e-05
9.68081e-05
0.000110271
0.000110612
0.000111029
8.24173e-05
8.92384e-05
0.000534515
8.48544e-05
0.000107968
0.00196603
8.67047e-05
0.000990833
8.93745e-05
0.000106865
0.000114769
0.00215265
9.69426e-05
8.68303e-05
9.1365e-05
8.87889e-05
0.000131817
0.000106905
0.000121349
0.000110065
0.000136395
9.72314e-05
8.73353e-05
0.00010624
8.44298e-05
0.000131507
0.000124228
8.78438e-05
0.000124025
0.000100923
0.000131838
0.000109503
0.000110167
0.000106905
0.000118508
0.00132933
0.000110588
0.00112455
0.000110983
0.00144458
0.000115919
0.000110648
6.56348e-05
0.000103836
0.000109382
0.000137731
6.69694e-05
7.51798e-05
0.000101576
0.000107416
7.19742e-05
0.0001016
0.000118124
0.000106898
8.56778e-05
0.000119935
9.87519e-05
9.24039e-05
0.000100851
9.32483e-05
8.14039e-05
0.000103075
9.80546e-05
0.000118274
0.000114898
0.000100801
8.77885e-05
5.89368e-05
7.33651e-05
9.18441e-05
0.000110951
0.000107653
0.00125406
0.000103597
0.00320995
0.000100587
0.00196017
0.000106312
0.000100592
0.000123322
9.85133e-05
0.000127897
9.17618e-05
0.000102358
0.000112189
9.42992e-05
0.000136348
0.000127327
0.000101868
9.96472e-05
0.000550429
0.000120793
0.000109406
0.00189311
0.00229523
8.46621e-05
0.000120553
0.000107732
0.000111714
0.000142538
0.000126973
0.001035
8.98193e-05
0.00102754
0.000113345
0.000127358
0.000105062
8.65555e-05
0.00011952
0.000100575
0.000122651
0.000120039
0.000123033
8.62309e-05
0.000135795
0.000107175
7.47845e-05
9.24391e-05
8.61668e-05
9.12944e-05
0.000117928
0.00014018
9.47133e-05
0.0001007
0.000106173
0.000116007
0.000178777
9.1421e-05
9.90502e-05
9.13001e-05
0.00012131
0.000110359
8.88931e-05
7.92314e-05
0.000414928
0.00012239
0.000107543
0.000110781
0.000115097
0.000101585
0.000120932
0.000100687
0.00013313
0.000213466
0.000102206
7.74588e-05
0.000114063
9.64814e-05
9.65125e-05
0.000112361
0.000123345
0.000116834
9.84806e-05
0.00011812
0.000112007
0.000105438
0.000102083
8.45868e-05
0.000116426
8.09157e-05
0.000106308
8.00791e-05
9.74017e-05
0.000101508
0.000114739
0.000113553
0.000115983
9.70872e-05
9.5495e-05
9.86244e-05
8.43226e-05
0.000101095
0.000111917
0.00011139
0.000108126
0.000121708
0.000108711
9.15708e-05
0.000119352
0.000109539
8.85198e-05
9.62534e-05
9.04148e-05
0.000100545
8.12819e-05
0.000118073
8.42724e-05
0.000117756
9.00222e-05
0.000102093
0.000111466
0.000111074
0.000143614
0.000104627
9.53674e-05
0.00017714
9.66943e-05
0.000112245
0.000110665
0.000120628
5.9873e-05
0.000110597
0.000111004
9.72981e-05
0.000105982
0.000109437
7.86639e-05
8.24064e-05
0.000100159
0.000106081
0.000111472
0.00011929
0.000122055
0.000115531
0.000104019
0.000128966
0.000102238
0.000123922
0.000119145
0.000116426
0.000118143
0.000127373
0.000155027
0.000115243
0.000123293
0.000121863
0.000844782
9.03056e-05
0.000110593
0.000111003
0.000128115
0.000120202
0.000101309
9.52826e-05
0.000115887
0.00011579
9.87235e-05
0.000107822
0.000100947
0.000116712
0.000107569
7.642e-05
0.000109866
0.000105715
9.68122e-05
7.76635e-05
0.000123127
0.00183901
0.000102532
0.000106162
0.000128561
0.000135148
0.000100969
9.98069e-05
9.43225e-05
0.000113388
0.000175104
0.000129219
0.000264162
0.000149674
0.000124901
0.000130756
8.32093e-05
7.02844e-05
0.000102796
8.69885e-05
9.95436e-05
0.000108971
0.000484922
8.95455e-05
0.000114857
0.00011559
0.00011823
8.68331e-05
0.000116143
0.00011321
9.02994e-05
0.000105562
0.00011997
0.000116604
7.34581e-05
0.000136243
0.000121629
0.000124792
0.000106079
0.000112519
0.000109436
0.000155343
0.000139792
0.000150211
0.000128408
0.000126825
0.00125712
8.41423e-05
9.26182e-05
0.000118976
8.84166e-05
0.000123
0.000102754
6.9452e-05
0.000114326
0.000125428
0.000146063
8.17611e-05
0.000111949
0.000124967
0.000101777
9.99167e-05
0.000106395
7.32827e-05
9.83747e-05
0.000189358
0.000117024
0.000114924
9.70524e-05
0.000115178
9.0804e-05
0.000106636
0.000102882
0.000103087
0.000114675
9.84376e-05
0.000117104
7.48735e-05
0.000110342
0.000126305
0.000121274
0.000116064
0.000117679
9.98296e-05
7.08352e-05
0.000113496
0.000131371
0.00296593
0.00212574
0.000115803
0.000111285
0.000117552
0.000129247
8.92558e-05
0.000107325
7.46683e-05
0.00010412
9.33718e-05
6.73645e-05
0.000118804
8.08676e-05
9.48879e-05
0.000128639
0.000105999
8.15825e-05
9.71239e-05
0.000101154
0.00010198
0.000264256
0.000124694
0.000101743
7.55176e-05
8.89959e-05
0.000140577
0.000118529
0.000109372
8.02209e-05
7.71769e-05
7.81898e-05
0.00156865
0.000105881
0.000103759
0.000103209
0.000130803
0.000289968
0.000100861
9.52216e-05
0.000113502
6.78837e-05
9.63069e-05
8.03862e-05
0.000128386
0.000100805
0.000127726
0.000104129
0.000118215
0.000107096
0.000101339
0.000107201
8.11266e-05
0.000115439
7.43801e-05
9.32611e-05
0.000103377
0.00234928
0.000113342
0.000106356
0.000115879
9.20912e-05
0.000110853
9.21901e-05
0.0001046
0.000105948
0.0001
0.000113748
0.000116001
0.000107097
0.000207269
9.96473e-05
0.000943357
0.000113877
0.000105034
0.000106429
0.000125031
9.78182e-05
0.0011909
0.000117303
9.10731e-05
0.000115001
0.000680124
0.000138306
0.000100179
0.000100774
0.000119534
0.000132077
0.000156157
0.000135842
0.000127047
0.000109628
8.9072e-05
0.000107599
0.000137357
0.000127644
0.000127398
0.000116121
0.000173916
0.000113288
0.000102369
0.000109029
9.32433e-05
0.000113733
0.00012
0.000117994
0.000485242
0.000115858
0.000101006
7.68978e-05
0.00204092
0.000110736
0.000109171
0.000105574
0.000113526
0.000119438
9.86301e-05
0.000234662
0.000186942
9.65134e-05
0.000312316
0.000121786
6.11877e-05
0.00012252
7.43445e-05
8.19551e-05
0.000102921
9.73905e-05
0.000126496
0.000116046
9.50348e-05
8.99278e-05
9.57323e-05
0.000105847
0.000100498
0.000127023
0.000125595
0.000130647
0.000168936
0.000124442
0.000143071
0.000368619
0.000110341
0.000112464
0.000552781
0.000183301
0.000228515
0.00010535
0.000113184
9.61981e-05
0.000109358
0.000108594
0.000108834
8.82446e-05
0.000106094
0.000138844
0.000109059
0.000114028
0.000118667
0.000133429
0.000608648
0.000121146
0.000106824
0.000133092
0.000102276
0.000103543
0.00012135
0.000108641
8.10159e-05
0.000109243
0.000119936
0.000101541
0.000105825
0.000129174
8.40314e-05
0.000104447
0.000107898
0.000121074
0.000141019
0.000131203
0.000120947
0.000113892
0.000174619
0.000103978
0.000117036
9.91161e-05
9.11364e-05
0.000117861
0.000107523
0.000119034
0.000139235
9.06654e-05
0.000113728
9.99969e-05
0.000107206
0.000118683
0.000111567
0.000124684
0.000124004
0.000136573
0.00015092
0.000122577
0.000106832
9.63517e-05
0.00011742
9.68734e-05
0.000145644
0.000116071
0.000106246
0.000115292
0.000128031
0.000114057
0.000116093
0.000101773
8.48142e-05
0.000113358
0.000119766
0.000107837
0.000108547
9.41625e-05
0.000132543
0.000116642
0.000104471
0.000102446
0.000100798
9.92443e-05
0.000156084
9.49295e-05
0.000121523
0.000100546
9.58601e-05
0.000107456
0.000116361
0.000100187
8.93613e-05
9.59572e-05
0.000117969
0.000100607
9.09277e-05
0.000147367
0.000130223
0.000121931
0.00010152
7.90306e-05
0.000111136
0.000112712
8.52009e-05
0.000105467
8.40549e-05
0.000141218
0.000111126
0.000122075
0.000112507
0.000205418
9.7554e-05
8.62161e-05
8.28083e-05
0.000123873
8.27427e-05
6.84218e-05
0.000110448
9.37064e-05
7.02629e-05
8.86802e-05
0.000112347
0.000114312
0.000106201
7.28504e-05
0.000110708
0.000125292
9.61271e-05
0.000107905
9.87665e-05
0.000132328
9.72312e-05
8.59867e-05
9.55376e-05
0.000263487
0.000114944
9.31249e-05
9.56405e-05
0.00245597
0.000127535
9.69454e-05
9.39354e-05
8.97606e-05
9.99506e-05
0.000117289
0.00011017
8.96156e-05
0.000248402
0.000112515
0.000104105
9.80576e-05
8.21516e-05
9.9612e-05
0.000106782
8.17341e-05
9.39693e-05
0.000123398
0.00145254
0.000101403
0.000125441
9.6371e-05
0.000133371
0.000114425
0.00010316
9.87979e-05
9.54339e-05
0.000103514
0.000103834
0.000102764
7.76467e-05
0.000113736
0.000100615
0.000151362
0.000203828
0.000116857
0.000111993
0.000145674
9.75878e-05
0.000101021
9.58737e-05
8.4521e-05
0.000105306
0.000102048
0.000137244
0.000103002
0.000118282
0.000280852
0.000104997
8.26552e-05
0.000111569
9.2436e-05
0.000106458
0.00010473
7.61008e-05
0.000109231
0.000116377
0.000197099
0.000111535
0.000107382
0.000103317
0.000101427
9.65718e-05
0.000111233
0.000121077
0.000116249
0.000126831
9.48755e-05
0.000103741
0.000109824
0.000136959
0.000128085
0.000112163
0.0014176
0.000101039
0.000124464
0.000121491
0.000124629
0.00012152
9.48027e-05
0.000119265
0.000165774
0.000101055
0.000125917
8.44929e-05
0.000111455
0.000290568
0.000114512
9.28879e-05
0.000102106
0.000112822
0.000141029
0.000107287
0.00012414
9.17825e-05
8.24271e-05
0.000104598
8.94646e-05
0.000124949
8.08758e-05
0.000123864
0.000103594
0.000110691
9.98937e-05
7.49267e-05
9.31922e-05
6.71722e-05
0.000101381
0.000110322
0.000101513
9.77158e-05
0.000135986
0.000111067
0.000123396
8.49746e-05
0.000106324
0.000100418
0.000120578
0.00235006
8.60857e-05
9.25061e-05
0.000108643
6.96638e-05
6.94322e-05
8.72505e-05
0.000112521
0.000105655
0.000133991
0.000106571
0.00010714
0.000120769
7.56862e-05
0.000111373
7.7622e-05
0.000105971
0.000108137
9.49972e-05
0.000127822
0.000103137
0.000102241
9.43393e-05
7.0721e-05
0.00012477
0.00109227
7.82068e-05
0.00012075
0.000108348
7.93308e-05
7.90882e-05
0.000112387
6.98462e-05
0.000101306
9.16849e-05
0.000100524
0.000129512
0.000110023
0.00015702
0.000279549
0.000157577
0.000788972
0.000124254
0.000104782
0.000106375
7.61279e-05
0.000120363
0.00010369
0.000177136
0.000136068
0.000116163
0.000108839
0.000127042
0.000115703
8.79499e-05
7.84806e-05
0.000126039
0.000108449
0.00010313
0.000209686
0.000113929
7.7115e-05
9.83953e-05
0.000367007
0.000136383
7.02807e-05
0.000165427
0.000113415
0.000167129
0.00012636
0.000118822
6.36628e-05
0.00010542
0.000127423
0.000116347
0.000129456
7.67223e-05
0.000116486
9.55305e-05
9.97642e-05
8.42644e-05
0.000116907
0.000125611
9.02113e-05
0.000115774
0.000130727
7.75621e-05
9.50132e-05
0.000117117
0.00114319
0.000125812
0.00118545
8.59277e-05
9.11604e-05
0.000107497
0.000105537
0.00146214
9.98918e-05
0.000102518
0.000107858
9.73619e-05
0.000127267
9.63899e-05
0.00011749
0.00010952
7.15966e-05
8.11366e-05
8.59774e-05
0.00010274
9.8121e-05
0.000122737
0.000185479
9.13152e-05
0.00230268
7.0447e-05
0.000113274
8.89764e-05
0.000327141
0.00011261
0.00016213
9.8196e-05
0.00018787
0.000228423
0.000197086
0.000136896
7.98347e-05
0.000116604
0.000121032
0.00010684
9.04312e-05
0.00278917
7.61587e-05
0.000125789
0.000200548
9.52124e-05
0.00016191
9.16975e-05
7.17262e-05
9.75315e-05
0.000100379
7.80658e-05
9.19435e-05
0.000116217
7.09903e-05
9.91199e-05
8.72781e-05
0.000297879
0.00212097
0.000113543
8.25511e-05
0.000927906
9.58747e-05
0.000156975
0.000135698
0.000156348
0.00013522
0.0019804
9.29231e-05
0.000115162
0.000109096
0.000102114
0.000128314
0.000122616
0.000103558
9.41669e-05
0.000104503
0.00217318
0.0001015
0.00010294
0.000119497
7.39691e-05
0.000108373
0.000787417
0.000106654
0.00209157
0.000115866
0.000103723
8.53384e-05
9.63458e-05
0.000310446
8.63428e-05
0.000102795
8.71943e-05
0.000125771
8.93164e-05
0.00178218
0.00206019
0.00177036
0.000107712
0.000109919
0.00239628
0.00011052
9.59417e-05
0.000100206
7.49971e-05
7.59769e-05
0.000628381
9.30984e-05
7.58118e-05
0.00154303
0.000120104
0.000120228
7.79555e-05
0.000131563
0.000112349
0.000117658
0.000119131
9.23167e-05
0.000111157
9.40406e-05
0.000105695
0.000128859
0.00010188
0.000131961
0.000104376
0.000109394
9.91473e-05
0.000117756
0.00010424
0.000315831
0.000115252
0.000103117
0.000106768
0.000103135
0.000101917
0.000103126
0.000103029
0.000107119
0.000122368
0.000138466
0.00012688
0.00014948
0.000111053
0.000125208
0.000100245
0.00148143
0.000103239
0.000113002
0.000159638
0.000106624
0.000112804
0.000107267
0.000108937
0.000101377
0.000112292
0.000256375
0.00012665
0.000196005
0.00010693
0.000112441
0.000269646
0.000285827
0.000117419
0.000118674
0.000145921
0.000145953
0.000119532
0.000196804
7.72631e-05
0.000109868
0.000112178
0.00134531
0.000110441
0.000156786
9.94198e-05
0.000209131
0.000113794
0.000133326
0.00214944
0.00013097
0.000106805
0.000110538
0.000138873
0.00050783
0.000113411
0.000110256
0.000124279
0.000110287
0.00011209
0.000107574
0.000116991
0.000113543
0.000106396
0.000112958
0.000101872
0.000165543
7.88204e-05
9.62318e-05
0.000110347
9.87754e-05
0.000106256
0.000101368
0.000113189
6.16617e-05
0.000126964
0.000110361
8.13981e-05
9.83925e-05
0.000132336
8.86084e-05
0.000116001
0.000132864
7.13189e-05
0.000203765
6.95614e-05
9.12124e-05
0.000122178
0.000118404
9.1744e-05
8.1616e-05
0.000100865
0.000136164
0.000116949
0.000136508
0.000122118
8.66388e-05
0.00172617
0.000139722
7.07924e-05
0.000130372
0.000122243
0.000139597
8.4388e-05
0.000100007
7.81254e-05
0.000219883
0.000115737
0.000367929
0.0035739
0.000104097
9.83922e-05
0.000965044
0.000117158
0.000103284
8.01749e-05
0.000115631
9.70872e-05
0.000132428
0.00042683
0.000106269
0.000107272
0.000100234
8.31394e-05
0.000110627
8.3127e-05
0.000192125
0.000129545
0.000127294
0.000104214
0.000112242
0.00010209
0.000127375
0.000103787
0.000107616
0.000103541
8.04957e-05
9.83161e-05
0.000107916
9.66053e-05
9.83537e-05
0.000108643
9.10795e-05
9.55295e-05
0.000290321
8.02226e-05
9.90611e-05
0.000140098
7.81964e-05
0.000130782
9.65593e-05
0.000102913
0.000118214
0.000118283
0.000111736
0.000197279
0.000102037
0.000168934
9.2087e-05
9.85524e-05
9.55178e-05
9.31113e-05
0.000331044
0.000112689
0.000156632
9.62304e-05
0.000305218
9.94085e-05
0.000113902
8.762e-05
9.78452e-05
9.00496e-05
9.7079e-05
0.00010004
9.80456e-05
9.87733e-05
0.000105051
0.000452675
0.000166437
0.000118994
0.000116685
9.70405e-05
0.000106192
8.7487e-05
6.19815e-05
0.000127177
9.33393e-05
0.000101549
9.23406e-05
0.000109796
0.000146144
0.000106898
0.000122908
0.00013228
0.000111273
9.7895e-05
0.000109183
8.66085e-05
9.81708e-05
8.86909e-05
0.000328273
7.85054e-05
0.000113668
0.000130792
0.000102304
0.000117619
0.000116255
0.000320363
9.52083e-05
9.39967e-05
8.93623e-05
0.000100117
0.000134311
0.00012596
9.98068e-05
9.86383e-05
0.00158371
0.00012254
8.2993e-05
0.000106941
0.000149501
0.00115982
0.00151156
0.00206134
0.00167788
7.87425e-05
0.00172099
0.000131301
0.000128178
8.96512e-05
0.000216383
0.00197098
8.4985e-05
0.000110311
0.00180439
0.000108893
0.00160863
8.14207e-05
0.000102812
0.000182993
0.000320409
9.06753e-05
9.78223e-05
0.000101274
8.50758e-05
0.000120587
0.000102081
0.000196308
0.000102825
9.54934e-05
0.000127722
9.30059e-05
9.4734e-05
8.85345e-05
0.000106052
7.41401e-05
0.000128382
0.000113982
0.000108669
8.44371e-05
0.000106834
0.00184208
8.84641e-05
0.000176604
0.000101955
0.000103634
0.00010893
8.17105e-05
8.81408e-05
0.000131538
8.82466e-05
7.88602e-05
0.00010415
0.000122157
0.000229488
0.000112508
0.00010719
0.000106135
0.000103648
9.60763e-05
0.000120948
0.000104151
0.000124854
0.000100066
0.000105396
0.00014275
9.40509e-05
0.000109467
0.000105854
0.000111575
9.93138e-05
0.000115164
0.000102563
0.000105125
0.000117469
0.000155223
9.77796e-05
0.000325675
0.000152353
8.52071e-05
0.00013782
0.000136784
0.000133854
0.000118129
0.0001215
0.00011777
0.000113988
9.96269e-05
0.000113023
7.00531e-05
0.000133519
0.000122196
0.000112921
9.75126e-05
0.000177536
0.000124448
8.42594e-05
0.000115388
6.66898e-05
0.000111994
0.000117848
8.12309e-05
0.000104709
9.52433e-05
0.000135294
9.49043e-05
9.59725e-05
5.34161e-05
0.000977709
0.000113515
0.000189773
0.00111273
9.13302e-05
8.6702e-05
8.12777e-05
0.000102664
0.00104503
0.000101543
0.000126254
0.000125196
0.000114912
0.00111189
9.99176e-05
8.69756e-05
0.000116204
8.9796e-05
0.000145166
8.44596e-05
9.89447e-05
0.000116868
7.67026e-05
9.37842e-05
8.49548e-05
8.26712e-05
0.000103718
8.0753e-05
0.000106273
0.000139843
0.000131273
9.01856e-05
0.000271127
0.000125967
0.00011149
7.0405e-05
8.08828e-05
0.000100581
0.000105413
0.000113792
0.000122277
0.000108871
0.000141122
0.000102967
0.000112031
0.00011502
9.9617e-05
0.000101485
0.000116365
9.38209e-05
0.000101783
9.73994e-05
0.000125314
0.000105612
0.000133117
7.66209e-05
0.000114299
9.41868e-05
7.62864e-05
9.82196e-05
0.000513582
7.42368e-05
0.000105073
9.49062e-05
7.70968e-05
0.000107199
9.5109e-05
0.000142995
7.58586e-05
0.00015725
0.000107347
8.14966e-05
0.000129549
0.000109932
0.000529817
0.00011936
0.000114662
8.06524e-05
0.000118103
0.000105488
9.83266e-05
0.000117093
0.00011537
0.000108013
9.47816e-05
0.000119024
0.000109343
0.000153957
0.000113486
0.000106714
0.000106757
0.000120837
8.75039e-05
0.000129464
0.000112382
8.99081e-05
0.000123789
0.000131565
0.000114457
0.000114421
0.000110997
0.000116064
0.000113704
0.000119817
8.44098e-05
0.000100779
0.000108322
0.000108545
0.00010879
0.000109518
0.000118211
0.000110808
7.62582e-05
0.000116631
0.000124446
0.000147447
0.000105259
9.62429e-05
0.00011757
0.000212895
9.5729e-05
9.53071e-05
0.00218713
7.60746e-05
0.000109076
0.000127196
9.69364e-05
0.000106463
0.000118867
6.5712e-05
0.000100249
0.000107777
0.000111037
0.000102271
0.000136308
0.00012901
6.55489e-05
0.000142548
0.000132582
6.34265e-05
9.82609e-05
0.000118859
6.74794e-05
0.000106877
0.000116606
0.000121718
0.000109294
8.88533e-05
9.87967e-05
7.16731e-05
0.000113902
0.000114423
6.20783e-05
0.00012905
0.000111335
6.82631e-05
0.000114897
0.00011325
0.000134738
0.000104722
0.000106376
0.00010815
0.000111799
7.43511e-05
0.0001144
0.000106897
7.5561e-05
0.000112316
0.000112224
7.9677e-05
9.44897e-05
9.90862e-05
9.68957e-05
0.000105343
0.000111225
0.00010181
0.00108249
9.76369e-05
0.000113941
0.000116158
0.000121857
0.000129113
0.000107462
0.000114999
9.13387e-05
7.21094e-05
0.00012952
9.74933e-05
0.000128737
0.000105915
6.17647e-05
0.000121423
6.84947e-05
0.000116452
0.000100695
9.41465e-05
0.000113224
0.000107317
0.000112563
7.21142e-05
0.00011788
0.000107541
0.000156
9.20821e-05
0.000103383
7.11328e-05
0.000116974
9.9669e-05
0.000130363
0.00010134
0.000225059
0.000139625
0.000110646
0.000135342
0.000120864
7.66077e-05
0.000128558
8.88057e-05
6.8207e-05
0.000122314
0.000104184
0.000118016
6.62442e-05
0.000113353
0.000113261
0.00011014
0.000121803
0.000106354
0.00012907
6.47098e-05
0.000103893
0.000130902
7.39195e-05
6.91617e-05
0.000109111
9.95778e-05
0.000103458
0.000130127
0.000161779
6.59417e-05
0.000109481
8.75502e-05
0.000105959
6.90039e-05
6.05017e-05
6.29138e-05
0.000104275
7.54168e-05
0.000132021
6.74492e-05
7.26857e-05
0.000104266
0.00011242
0.00011128
0.000108177
7.36023e-05
0.000120713
0.000111286
0.000118134
9.98894e-05
0.000100775
0.000135271
0.000133462
0.00012709
0.000112195
9.67181e-05
0.000127372
0.00307304
0.000121808
0.00011738
6.31697e-05
0.000583408
0.00010339
0.000103133
9.57932e-05
0.000105963
8.85894e-05
0.000102051
0.000858414
7.68063e-05
7.92178e-05
9.36136e-05
7.24129e-05
0.000105271
9.80417e-05
0.000105766
7.76061e-05
9.96458e-05
0.000108624
9.75167e-05
0.000111688
0.000111473
0.000102034
8.99714e-05
0.000116692
0.000107672
0.000101405
0.000130228
6.79557e-05
0.000102964
0.000140087
0.00152772
0.000204938
0.000108345
9.93592e-05
9.77137e-05
0.000172049
9.86264e-05
0.00014
0.00011584
0.000109521
7.74179e-05
0.000100608
7.12766e-05
0.00133809
0.000118473
0.000127435
0.000133823
0.000141398
0.000107093
0.000107791
0.000110834
0.000136034
0.000128012
8.84057e-05
8.9753e-05
0.000115466
9.08387e-05
7.18301e-05
0.000117652
0.000133193
0.000133814
9.39494e-05
0.000108972
0.00012198
9.90318e-05
0.000102056
0.000105652
9.77183e-05
0.000114505
0.000109103
8.16081e-05
0.000126127
0.000116104
0.000131439
7.1869e-05
0.000105628
0.000143679
0.000358944
7.47452e-05
0.000313386
0.000101047
0.000115548
7.20627e-05
8.8925e-05
0.000490214
6.82364e-05
0.000109214
0.000134084
9.66217e-05
0.000136195
7.46956e-05
9.95993e-05