/*--------------------------------*- C++ -*----------------------------------*\
| =========                 |                                                 |
| \\      /  F ield         | OpenFOAM: The Open Source CFD Toolbox           |
|  \\    /   O peration     | Version:  v2012                                 |
|   \\  /    A nd           | Website:  www.openfoam.com                      |
|    \\/     M anipulation  |                                                 |
\*---------------------------------------------------------------------------*/
FoamFile
{
    version     2.0;
    format      ascii;
    class       volScalarField;
    location    "2";
    object      CH4;
}
// * * * * * * * * * * * * * * * * * * * * * * * * * * * * * * * * * * * * * //

dimensions      [0 0 0 0 0 0 0];


internalField   nonuniform List<scalar> 
108993
(
5.30811e-97
2.19899e-72
1.34536e-61
0
5.49363e-182
2.61273e-178
0
0
8.00626e-138
1.56591e-104
0
7.09773e-115
0
0
5.11269e-142
1.71108e-24
3.18035e-99
0
1.6506e-175
2.24701e-104
6.5192e-187
7.15565e-155
4.80408e-97
0
7.68745e-186
4.33547e-139
0
4.93411e-109
2.30347e-117
1.07785e-143
1.96785e-148
0
0
0
6.85171e-175
0
8.1666e-160
0
8.66476e-17
1.12825e-39
0
2.47413e-131
0
9.73907e-186
3.62545e-33
9.17251e-44
0
0
0
2.27599e-94
0
5.08068e-34
3.54908e-69
7.7489e-169
2.29861e-136
0
3.04184e-165
6.38715e-166
0
0
8.68797e-155
0
0
1.93945e-173
2.47574e-177
7.92503e-116
1.45644e-182
2.70146e-167
0
0
3.31053e-147
1.91328e-172
9.344e-169
7.57239e-172
7.27466e-114
0
0
1.67546e-83
0
7.68885e-183
0
0
0
3.01686e-128
0
0
2.60823e-117
0
3.69323e-172
0
1.68863e-172
1.42922e-148
5.97783e-176
1.41451e-206
0
0
4.61229e-151
9.93576e-132
0
0
3.2493e-167
0
0
0
0
0
1.90287e-133
4.57363e-163
1.67607e-176
0
1.45101e-47
4.04862e-173
2.61679e-63
1.26508e-35
3.60834e-136
9.31989e-38
7.83512e-177
0
2.44387e-29
5.19839e-147
2.7709e-126
5.17312e-148
1.1474e-31
4.00694e-77
0
9.43117e-39
1.92149e-85
0
1.18994e-149
1.35049e-153
0
2.86503e-152
0
1.46192e-17
1.15838e-143
0
2.17592e-147
0
1.0769e-137
0
3.49463e-77
1.11553e-142
0
8.96386e-150
1.14389e-151
8.15928e-166
9.09315e-140
0
3.39519e-75
3.15903e-14
6.2218e-14
6.61859e-157
4.7162e-65
1.28484e-10
0
7.20433e-53
8.13112e-107
3.044e-163
8.21341e-157
4.1626e-37
3.61476e-12
3.97374e-160
1.23203e-147
0
0
8.19081e-40
2.32461e-181
0
7.22982e-171
9.47787e-134
0
3.9836e-128
1.42422e-36
0
0
1.04186e-124
9.7555e-26
1.24254e-174
1.69673e-114
3.31682e-158
0
0
7.21109e-162
1.01594e-82
1.01754e-108
0
0
0
0
9.91228e-81
0
1.72863e-160
3.16824e-131
9.07933e-30
4.41032e-140
2.23632e-65
8.57733e-88
0
5.18559e-144
8.62373e-82
3.35401e-177
1.78842e-31
3.13695e-176
2.1954e-164
0
5.01286e-23
0
0
5.74467e-123
0
1.02887e-51
0
1.64892e-24
4.64213e-36
7.91237e-18
0
6.06628e-127
0
6.58719e-161
0
4.14379e-118
0
1.50129e-49
1.09948e-29
0
8.53238e-175
7.00869e-163
8.34017e-90
2.40541e-15
3.79889e-126
4.57572e-39
7.58976e-137
8.30297e-173
0
2.40595e-148
0
3.42694e-150
9.75348e-152
0
0
6.27813e-154
0
0
0
0
1.97114e-24
3.10597e-40
9.88255e-29
2.17699e-158
0
0
3.71201e-168
0
2.14979e-138
1.54472e-160
0
8.89053e-161
2.59054e-87
5.21452e-139
7.46936e-181
1.01182e-96
0
3.10015e-47
1.92775e-36
0
4.86538e-103
2.26706e-96
6.02084e-127
0
1.42253e-124
3.64799e-193
7.85867e-69
1.75806e-50
1.76691e-05
3.04675e-56
3.95012e-120
7.6856e-157
0
0
2.53217e-93
0
1.33537e-42
4.20306e-43
1.82828e-144
8.36504e-138
0
1.52798e-177
5.6164e-92
7.07065e-78
2.45166e-59
3.43812e-123
1.96692e-107
1.24399e-89
1.63217e-104
0
1.52342e-94
3.41019e-144
4.74994e-100
0
1.68929e-188
3.65985e-27
0
0
1.21181e-191
1.44197e-129
1.46868e-144
1.95334e-160
4.00517e-113
7.87509e-142
0
0
9.75684e-152
0
2.21331e-161
1.19486e-135
4.13385e-18
0
1.2147e-64
1.12848e-28
2.37006e-125
0
9.58462e-176
9.33735e-136
0
0
1.55882e-06
7.12387e-05
1.68283e-14
0
2.24683e-63
1.7822e-118
5.40028e-19
1.50014e-08
1.16638e-120
0
0
1.73625e-144
1.97312e-156
3.10976e-125
3.70742e-141
0
1.43171e-34
1.138e-94
9.27713e-126
1.72931e-123
0
1.16551e-83
1.0622e-148
0
1.70603e-81
1.7534e-117
0
0
0
0
0
3.72185e-120
0
2.80801e-121
0
3.928e-55
1.42466e-96
8.86966e-84
2.21467e-82
0
4.42961e-88
4.15998e-86
2.08121e-140
0
0.00240643
1.50207e-45
1.1066e-63
4.26714e-80
2.55595e-05
0
6.70918e-10
1.10392e-84
8.92975e-120
8.71689e-16
0
6.71057e-15
5.72958e-15
0
4.06362e-19
0
0
3.39901e-76
1.82296e-15
5.68595e-96
1.83554e-47
1.41884e-15
0
0
5.71976e-111
4.28049e-65
1.42537e-86
0.000134401
2.68005e-168
9.43149e-36
2.46681e-137
1.5424e-84
1.40139e-33
7.92932e-36
2.40914e-143
9.58987e-126
2.4673e-126
9.22478e-119
2.0875e-140
1.0686e-59
5.45114e-06
0
7.14723e-94
0
4.15645e-145
0
4.91603e-132
2.4608e-05
3.38928e-61
0
8.0536e-176
0.00173413
1.30093e-72
3.84291e-06
1.21526e-180
2.98494e-175
1.06262e-06
0
4.7096e-23
3.97358e-06
1.62059e-195
2.12561e-05
7.70305e-28
3.52203e-05
2.04393e-151
7.77272e-138
4.86756e-103
6.03708e-143
8.59601e-126
0
2.10915e-130
2.69469e-130
0
1.7979e-93
5.11858e-178
0
1.95128e-45
3.53749e-53
1.12647e-37
0
5.7611e-182
0
3.09523e-178
6.69835e-91
0
0
2.36864e-141
0
0
2.84752e-108
0
1.80159e-42
7.45969e-59
1.76654e-39
9.51734e-21
0
1.65222e-69
0
0
7.87114e-68
3.42321e-65
0
0
2.95963e-137
6.6078e-53
0
0
2.77048e-132
0
1.27189e-74
3.9004e-25
0
6.90143e-131
2.1258e-128
1.09401e-87
1.44769e-45
7.43228e-72
3.78728e-65
8.07612e-71
0
6.16307e-75
0
6.57737e-99
0
5.30541e-65
1.55095e-28
0
2.72437e-44
1.02015e-106
1.7205e-81
2.10602e-82
1.08693e-161
1.58214e-125
0
1.06751e-74
4.86948e-40
8.03051e-24
1.23889e-85
0
3.8292e-20
8.28002e-81
3.25328e-31
2.0158e-53
6.39948e-130
7.17226e-72
4.15372e-84
8.62262e-165
1.06391e-152
6.26516e-86
0
0
1.61841e-113
1.18187e-114
8.58659e-60
0
1.68621e-111
1.3947e-21
3.20302e-128
1.54318e-92
6.62808e-21
0
1.90963e-155
1.30752e-163
6.14483e-23
1.91676e-113
0
2.53542e-131
0
0
3.56352e-74
0
2.31916e-139
4.06024e-64
0
0
0
2.05262e-116
8.43871e-141
1.77294e-22
7.95546e-125
4.56631e-157
8.74356e-29
0
7.64623e-29
0
7.7839e-132
0
0
3.76897e-71
0
4.30345e-96
7.27397e-72
0
1.05992e-74
1.37372e-64
0
1.76055e-22
2.5492e-115
9.81543e-126
1.35767e-77
0
5.77409e-72
2.94115e-59
0.149123
0
1.56951e-16
7.36582e-59
1.33507e-128
0
0.000247039
6.72543e-47
4.71384e-65
1.34757e-103
2.20438e-88
4.57177e-155
0
1.64295e-34
7.084e-40
0
0
2.45534e-173
0
3.48374e-160
2.66337e-110
1.33479e-83
6.51204e-05
0
3.94431e-134
4.86701e-164
2.50288e-80
2.36251e-53
0
0
3.23331e-05
2.29955e-58
0
0
0
5.37345e-161
2.0842e-53
1.99839e-77
1.81149e-08
0
0
1.36163e-72
5.50043e-70
1.7917e-86
1.67331e-37
2.26171e-163
4.48898e-41
3.49433e-160
2.75401e-26
1.48102e-156
4.7518e-96
0
4.49096e-98
2.11184e-147
1.2523e-121
3.26558e-39
2.33976e-39
1.60781e-38
8.36425e-12
3.36707e-88
5.6992e-34
7.55712e-19
8.45615e-39
0
8.57541e-158
0
0
1.01379e-42
0
1.95902e-41
1.68236e-104
5.25421e-39
1.81401e-126
4.20022e-37
1.91662e-71
5.42685e-53
5.93596e-41
3.068e-38
6.61317e-40
1.60083e-25
0
0
1.20861e-71
4.54806e-107
1.0248e-12
8.18655e-62
0
4.31582e-59
7.33567e-66
0
3.82428e-57
1.23999e-106
6.20171e-141
0
1.14817e-142
4.30185e-48
9.50555e-57
0
2.02817e-46
0
1.77382e-41
2.62663e-61
0
0
4.39467e-30
1.08041e-80
1.54562e-158
0
8.07086e-73
2.54445e-57
3.87054e-46
8.27918e-42
6.14934e-55
1.74736e-42
4.93443e-30
0
0
0.000580411
0
1.11565e-77
1.33872e-42
6.14172e-123
5.31009e-131
0.00391424
4.80721e-93
4.48963e-27
0
4.40964e-06
1.8296e-37
3.54065e-119
0
0
1.8651e-41
6.04924e-176
9.92278e-41
9.51813e-99
1.73421e-129
0
3.67093e-42
0
1.59714e-20
8.47187e-106
9.16221e-10
1.05014e-82
0
4.30308e-33
1.85903e-191
2.93824e-48
0
2.14333e-32
0
1.87239e-25
0
4.68902e-34
1.83063e-42
0
1.90142e-34
0
6.44479e-38
3.76635e-31
2.84373e-23
1.53912e-28
0
2.90887e-188
3.60275e-68
4.27248e-176
3.15424e-72
0
0
3.77039e-27
7.25828e-28
2.49166e-26
2.1184e-48
5.52282e-51
1.39322e-41
1.17306e-40
4.96899e-46
0
8.03511e-112
0
1.24119e-174
2.32622e-48
3.53878e-179
8.88002e-46
4.21534e-172
1.72088e-32
2.65305e-31
0
2.48654e-38
3.55577e-171
2.86833e-46
0
8.90038e-56
0
0
2.7471e-63
0
0
1.41965e-60
5.35143e-37
0
2.69124e-26
7.62538e-21
0
1.80902e-58
0.00033211
4.67622e-28
5.13849e-80
6.63813e-83
0
1.601e-58
1.56939e-60
1.39232e-57
1.42345e-95
6.78517e-46
0
3.00243e-126
9.78299e-60
1.5072e-154
2.77877e-36
6.16321e-132
4.7369e-99
0
4.30389e-41
2.07872e-12
3.04907e-86
3.55261e-14
1.91637e-137
0
2.51224e-40
4.38383e-171
2.19428e-66
1.0785e-44
2.54647e-122
1.33475e-110
0
1.78551e-104
3.41078e-100
6.13715e-54
0
0
0
2.48906e-106
2.37175e-08
0
5.31394e-110
0.000229064
1.30083e-140
8.60876e-05
2.70208e-97
2.72002e-109
0
0.000548397
3.2715e-35
2.27804e-143
3.30806e-49
3.42287e-78
1.7247e-91
7.17345e-103
1.73664e-40
0
1.40788e-54
5.82504e-29
6.27857e-146
3.04221e-49
3.28393e-46
1.27735e-37
2.71657e-48
1.67347e-110
2.38166e-55
0
2.05213e-49
8.80629e-139
9.41177e-37
8.54334e-71
0
3.10479e-06
0
5.83914e-05
1.9221e-57
9.17674e-06
0
3.57699e-53
0
7.71784e-20
0
0
1.07605e-127
0
0
3.78537e-60
1.64192e-47
0
8.85653e-139
9.1355e-79
4.11612e-18
2.22361e-54
5.36247e-18
0
7.33026e-93
1.1001e-24
0
9.80546e-125
3.28016e-20
3.36242e-34
9.28698e-45
0
0
2.56792e-53
4.54452e-47
1.52234e-43
2.65086e-29
3.30961e-70
0
1.14751e-171
0
1.99021e-42
0.000403285
0
0
1.35353e-23
4.3302e-47
5.67653e-50
2.11333e-138
0
2.85017e-33
8.39579e-26
0
8.98619e-14
2.08309e-45
0
7.41415e-07
8.88496e-151
6.41366e-138
5.98381e-05
0.00128529
7.43201e-110
2.12587e-81
8.0646e-210
0
5.9234e-39
3.56167e-31
6.69123e-05
3.00469e-90
7.17771e-06
6.89144e-31
3.64968e-41
5.27883e-105
0
5.71058e-39
1.17725e-120
9.31556e-135
9.49499e-166
8.69029e-43
2.69709e-93
2.05866e-32
0
0
4.59575e-40
1.13831e-146
1.55705e-36
8.3914e-38
9.57103e-43
8.9737e-49
4.52927e-127
3.98047e-13
1.38303e-137
1.1334e-28
0
3.6953e-87
3.1985e-159
0
9.72874e-39
6.36219e-144
2.77525e-101
7.04276e-06
0
7.04565e-40
1.11628e-149
4.64926e-54
4.88603e-32
5.78374e-17
6.78912e-121
2.0332e-34
2.02539e-21
1.7668e-50
0
6.17119e-50
0
1.30564e-62
2.01853e-51
3.66859e-43
2.54439e-15
9.17472e-19
2.47346e-79
1.27762e-34
9.08347e-64
4.31383e-50
1.65051e-17
7.84885e-17
0
1.46321e-149
0
2.69944e-16
0
0
4.14492e-158
9.77015e-15
0
1.82099e-64
0
0
1.92781e-77
0
2.50256e-122
3.95733e-22
6.91955e-86
9.58691e-79
0
0
2.71038e-39
0
0
1.51895e-166
0
0
9.1095e-28
0
6.41562e-108
0
0
3.63094e-51
1.34268e-42
2.63997e-54
0
0
2.42317e-46
0
8.61395e-41
4.41064e-19
1.20817e-45
1.28716e-177
0
0
1.73933e-143
2.70732e-64
5.70241e-46
0
2.26822e-180
2.53872e-72
1.82155e-123
5.39776e-24
1.38785e-75
0
3.07132e-159
4.99434e-76
8.30836e-49
3.35652e-32
0
0
2.18865e-78
4.81192e-105
1.29174e-61
0
2.01303e-126
9.24145e-177
4.8008e-127
1.21057e-05
2.59581e-80
1.61138e-44
1.16548e-135
5.72431e-33
7.42276e-29
3.0661e-143
6.14339e-45
2.50734e-56
0
4.72293e-61
1.17909e-34
3.31244e-55
1.06639e-23
3.9066e-43
0
4.45053e-139
0
0
2.26077e-44
7.60164e-33
0.000689437
2.27241e-26
0
5.83701e-48
0
1.26485e-24
8.98913e-50
3.59172e-26
1.18402e-60
5.0777e-27
2.32142e-62
5.06092e-10
4.71408e-27
1.04917e-33
2.2191e-107
0
0
3.67557e-92
0
7.21603e-177
2.38737e-63
1.34696e-17
9.93337e-125
2.54667e-25
1.78344e-53
1.33447e-83
6.43819e-93
3.6878e-34
3.46653e-18
0
1.07369e-52
2.00206e-77
0
0
7.94382e-49
1.86176e-24
2.09689e-22
0
0
7.85159e-181
1.779e-87
1.25534e-78
0
6.04504e-162
0
0.209904
5.67002e-40
1.23149e-176
0
0
1.05513e-86
4.06524e-106
0
8.31004e-78
2.34116e-77
1.99099e-84
0
6.22764e-82
6.5451e-81
0
0
0
4.06232e-92
0
7.40813e-80
0
2.06475e-45
2.91027e-37
1.75184e-54
1.90005e-39
4.50915e-70
4.69148e-181
2.57223e-39
0
1.45306e-139
0
3.40683e-134
2.0135e-58
4.15769e-87
3.2454e-25
4.18905e-85
5.73759e-62
5.76785e-139
5.40319e-137
0
9.54817e-99
0.000252474
3.11553e-05
0
0
6.8999e-107
1.77826e-79
7.92143e-53
0
0
2.03335e-138
0
0
0
0
1.6854e-152
3.41027e-49
2.99679e-111
0
1.14609e-55
1.89425e-56
1.78987e-47
0
0
3.56215e-46
0
3.36743e-83
2.86013e-17
4.81214e-189
5.22274e-45
0
0
5.49642e-126
0.00101677
3.56711e-36
0
1.4292e-19
1.2647e-140
3.72728e-16
5.57156e-23
0
2.17413e-101
0
5.00234e-54
0
1.02468e-58
1.03488e-170
4.81431e-24
6.97663e-21
5.88875e-28
1.58324e-107
1.7343e-180
2.34217e-27
0
0
0
8.01682e-157
7.03065e-173
0.000601491
4.86523e-25
0
0
6.65576e-43
0
0
2.90081e-48
0
1.04889e-149
3.1983e-20
3.98211e-37
0
9.29899e-18
0
9.34476e-19
1.20351e-84
0
0
1.42451e-145
2.12236e-81
0.0832149
2.57008e-115
0
0
1.92876e-15
0
4.35876e-110
1.32251e-51
8.4109e-52
4.88657e-37
6.4837e-23
0
2.49122e-52
6.2287e-72
0
0
0
0
5.59591e-45
0
3.28128e-26
0
2.72347e-144
1.32459e-44
3.13287e-133
1.11753e-143
0
0
1.82934e-07
0
1.58361e-36
7.07084e-48
0.000173199
0
4.27437e-108
1.09288e-133
9.53763e-27
8.24537e-96
1.5327e-57
1.02948e-60
5.68985e-60
1.46171e-48
2.50118e-64
7.2258e-156
3.75556e-59
3.1685e-56
0
0
0
0
8.44236e-94
1.52232e-127
4.74146e-117
2.2888e-115
1.009e-154
3.8861e-73
6.41151e-77
5.76392e-25
1.90703e-145
3.28203e-86
0
7.98401e-61
0
4.58108e-116
2.15555e-92
0
3.94712e-18
0
1.78036e-24
2.0105e-37
0
1.07599e-118
8.34511e-129
2.07266e-29
1.10876e-118
6.26689e-72
4.27367e-69
0
5.34903e-62
6.45396e-63
7.75209e-142
1.38488e-62
2.17693e-05
7.24816e-65
9.66139e-44
5.43038e-55
0
4.53952e-33
0
2.97099e-106
0
0
0
0
2.62675e-150
8.07949e-46
0
0
4.71499e-54
4.33399e-17
0
0
0
0
0
5.05455e-153
0
0
3.59741e-87
0
4.21167e-59
1.27568e-29
3.81703e-25
3.31854e-50
6.03792e-12
7.40712e-32
1.6245e-134
0
2.56628e-198
4.21127e-57
0
3.129e-77
0
8.17503e-153
1.01081e-147
3.22815e-58
6.98503e-60
0
4.61534e-44
1.42659e-42
0
8.86086e-34
0
9.00044e-142
7.38809e-31
6.05649e-140
3.05446e-68
1.47091e-22
1.26097e-46
5.8594e-65
0
1.39127e-67
0
4.53135e-62
2.27868e-19
1.59604e-43
0
7.03917e-27
4.17842e-31
0
0
4.67821e-22
1.83378e-73
2.74674e-54
4.97181e-79
9.19494e-47
0
0
6.3263e-84
1.56089e-38
0
0
0
2.64506e-81
1.00028e-31
0
1.49989e-153
1.77567e-36
0
7.29729e-156
1.29335e-123
1.16137e-67
3.45957e-37
0
1.46625e-132
1.40578e-14
0
6.27888e-46
2.76881e-126
9.4049e-52
0
1.08973e-74
8.33567e-65
3.88975e-58
0
3.46778e-41
0
6.19774e-58
2.45405e-27
1.11414e-175
1.45898e-158
4.31444e-139
1.56208e-36
2.74239e-36
0
4.05925e-36
0
1.2121e-25
6.13511e-29
7.1278e-10
3.91375e-44
0
3.74173e-123
0.0050651
2.1795e-91
6.76315e-110
0
0
1.97769e-152
0
2.40812e-128
3.42732e-186
1.13445e-39
5.42373e-28
2.36587e-42
0
0
5.45726e-119
5.466e-153
0
0
1.9889e-132
0
8.48254e-36
1.23888e-130
4.33463e-100
5.90979e-96
1.90152e-30
1.63424e-67
0
4.01763e-63
2.43416e-90
6.55532e-110
0
3.90717e-70
0
2.06665e-82
1.38562e-35
5.69913e-11
7.74308e-108
0
1.20082e-29
8.41519e-122
0
9.15683e-140
0
0
0
7.9923e-11
2.37384e-135
0
2.45404e-07
0
7.8679e-73
3.32995e-77
1.41025e-120
8.47019e-50
4.20656e-130
2.83207e-74
2.64138e-131
3.07618e-72
2.26251e-07
8.0268e-15
1.76126e-75
0
1.7006e-25
5.88895e-169
1.95079e-27
0
0
2.6785e-128
2.11505e-100
1.19575e-147
8.09198e-107
0
6.45868e-151
0
1.7877e-06
2.01323e-20
6.41576e-20
1.0098e-171
3.09666e-104
1.91504e-26
7.18775e-29
1.56381e-122
0
3.86204e-114
9.40762e-126
1.50882e-80
6.82409e-57
3.62422e-24
1.23942e-25
5.47733e-110
6.89652e-21
1.15787e-25
9.83394e-10
0
4.08637e-26
3.91742e-83
0
1.08302e-20
9.53702e-119
5.19641e-25
0
4.19281e-109
0
1.52671e-33
2.40556e-85
4.27747e-111
3.2297e-47
5.63722e-109
0
8.63547e-39
1.55124e-27
2.04719e-25
3.15161e-129
6.19917e-145
1.42355e-17
0
0
2.53275e-33
1.30927e-149
0.00192325
1.54154e-113
1.36898e-99
8.90256e-88
8.76471e-87
4.96575e-94
0
8.67053e-24
3.13865e-45
7.17512e-29
3.64194e-14
0
2.65887e-13
0
0
5.08872e-98
5.61767e-100
9.09618e-88
0
9.28795e-102
2.61879e-82
1.59754e-51
2.79968e-86
2.57875e-96
4.10576e-41
0
0
1.03535e-31
2.11763e-31
1.72737e-26
0
1.65049e-39
8.62161e-98
1.79753e-91
4.3065e-119
1.02003e-106
0
1.05385e-105
2.52442e-29
1.40704e-21
1.18967e-34
1.61228e-16
0
7.76276e-46
0
0
1.57364e-17
5.2974e-42
0
0
1.18651e-26
0
0
0
5.16811e-47
2.59395e-98
0
1.51673e-172
1.8452e-163
9.37357e-09
4.2607e-160
3.23292e-73
0
2.31566e-06
6.74485e-15
0
0
0
4.5286e-10
1.32337e-38
0
4.37102e-164
2.61925e-32
2.19287e-16
0
2.04274e-99
7.387e-54
0
3.92298e-75
1.50451e-84
8.28196e-73
1.21216e-14
3.77319e-69
5.39423e-78
3.11312e-24
5.32519e-41
3.10213e-71
6.5849e-78
1.08265e-20
0.0133262
2.06894e-25
7.80906e-07
0
1.30609e-46
0
0
1.60987e-06
9.83284e-30
3.59662e-62
8.44723e-129
1.30491e-71
9.70981e-36
1.56307e-78
1.17093e-145
0
2.72576e-41
0
6.62575e-96
1.68477e-67
1.07404e-115
2.54158e-24
1.21749e-10
0
0.000877051
8.65678e-63
1.72023e-179
5.14847e-37
2.05542e-07
4.64643e-46
3.76375e-14
1.21718e-16
1.12693e-20
1.83049e-07
6.05278e-08
0
5.6401e-43
1.97397e-26
1.95386e-96
2.40331e-56
8.06596e-63
0
6.58876e-37
7.40662e-23
0
1.21235e-23
7.89239e-10
0
1.09771e-39
0
4.99546e-83
0
3.52195e-134
2.82022e-41
1.52936e-114
4.0616e-38
0
0
0.000683017
3.44209e-21
0
2.05729e-08
8.06318e-75
0
2.96221e-44
8.60308e-14
2.26783e-12
0.000501865
1.25287e-72
1.1943e-60
1.4616e-103
3.5311e-141
1.88619e-171
0
7.26115e-43
0
0
4.67033e-15
1.59857e-68
9.98208e-41
6.6064e-16
0
5.2806e-29
4.21926e-12
1.56005e-173
0.000263152
3.86144e-49
0
5.26006e-94
8.72347e-17
9.58707e-40
1.0123e-169
3.43179e-125
0
1.46636e-89
0
0.00112647
0.000626593
0.00073593
0
0
0.000104817
5.63736e-29
1.49279e-170
0
8.11283e-88
0
5.05732e-06
2.03423e-88
7.30492e-104
0.000163963
9.72089e-88
1.68474e-52
7.50467e-99
1.40866e-58
5.13772e-155
2.72253e-115
1.49998e-29
6.62329e-53
8.57448e-65
8.7806e-20
0
1.32939e-50
0
1.63651e-74
7.42923e-114
3.97367e-53
2.62731e-64
3.76374e-73
9.72603e-34
7.79106e-33
3.38028e-78
0
1.81056e-39
2.62934e-66
0
1.3997e-67
1.56771e-65
9.13985e-28
0
2.399e-32
6.9114e-21
2.0827e-36
1.24921e-170
3.79491e-32
2.55409e-66
6.76344e-37
0
2.28694e-132
4.56501e-36
0
8.43069e-106
1.24898e-40
0
7.36677e-69
1.665e-65
0
3.53692e-56
1.0445e-61
4.696e-86
1.21286e-22
1.97619e-33
2.98181e-52
1.57874e-90
4.26267e-32
3.91914e-60
0
6.20031e-53
0
0
2.34773e-105
3.15331e-35
7.9844e-08
1.72188e-57
1.41967e-11
4.85342e-30
2.02062e-63
1.29327e-138
0
0.000421355
0
4.01331e-23
5.593e-34
6.53768e-26
8.10657e-06
0
0
5.36036e-39
1.10409e-167
1.32396e-54
3.69726e-96
2.98328e-42
1.27193e-36
6.80135e-102
3.96687e-50
0
1.27428e-69
1.78418e-62
2.67632e-142
1.54258e-91
2.04363e-45
3.74965e-96
2.23206e-86
0
2.50897e-175
1.71399e-66
0
7.1114e-61
5.79979e-37
0
2.39462e-152
1.05785e-33
7.94591e-93
0
1.49391e-38
4.96416e-129
1.81586e-124
0
1.90749e-83
0
4.51007e-81
1.17325e-35
2.07306e-80
8.52271e-147
1.74972e-62
1.22503e-110
3.40131e-27
0.000347749
1.28238e-135
0
1.07244e-40
1.82347e-69
7.13654e-20
5.69678e-202
1.05223e-123
4.92046e-192
4.04052e-152
0
9.45944e-10
0.00157708
1.96153e-40
4.82902e-87
0.000134973
1.63316e-59
5.75958e-37
0
2.78619e-25
3.58261e-132
6.61288e-09
2.74492e-55
1.20427e-120
0
0
3.80939e-31
0
0
3.38972e-27
0
0
5.62243e-42
3.5658e-29
3.38316e-103
0
1.75025e-94
4.5547e-36
1.23557e-95
1.49058e-202
1.41074e-139
4.0163e-74
0
2.75023e-35
5.83678e-28
2.43808e-197
1.68545e-194
7.15346e-43
0
0
0
0
1.72352e-33
1.65726e-44
0
0
1.72801e-101
7.49623e-52
5.1749e-50
1.74304e-72
5.12923e-41
1.23242e-79
0
0
9.77116e-130
5.35964e-07
2.01296e-56
2.77151e-25
1.64242e-32
8.72511e-44
2.5278e-47
1.34685e-84
4.17817e-149
8.23469e-24
1.32661e-43
2.28505e-35
8.76033e-52
3.31686e-80
1.34042e-33
1.54891e-82
2.57477e-11
4.37881e-59
3.94571e-57
1.19997e-82
1.53104e-26
0
0
0
5.3556e-65
6.88803e-149
3.88243e-157
0
3.46839e-48
1.5243e-38
1.6504e-115
0
9.19303e-87
0
3.98144e-57
1.12506e-35
6.11993e-177
0
0
3.88523e-25
0
7.79598e-70
3.61958e-42
7.19146e-64
4.6074e-64
0
0
2.10246e-26
8.93641e-28
2.09294e-184
0
1.00259e-15
1.69899e-38
4.50226e-27
0
0.00913107
0
0
2.34769e-23
9.97072e-14
0.00845988
0.00539293
0.00164916
0.0112673
4.37476e-190
0.0132486
0
1.29735e-31
5.73182e-187
1.07152e-07
0.017666
1.35696e-171
0
0.00729294
0
0.000117203
0
6.97174e-43
4.40557e-39
1.62e-21
4.13451e-60
0
2.76232e-123
0
7.12975e-80
0
2.53932e-11
0
2.54395e-22
0
5.4824e-188
4.6839e-193
0
2.1392e-74
4.96018e-93
0
4.65854e-28
0
3.54539e-53
3.80092e-76
9.23793e-11
3.18016e-190
5.06216e-27
0
1.54937e-51
6.89425e-39
0
0
1.19374e-85
4.14973e-49
0
1.6627e-16
1.40797e-16
6.82304e-09
8.43114e-29
1.21931e-45
7.84937e-49
0
0
0
4.66421e-48
0
1.04606e-33
1.3534e-30
4.03153e-17
5.25636e-51
4.03873e-48
6.00936e-79
0
3.46144e-40
0
0
0
4.53152e-29
7.84368e-16
2.14243e-127
2.50944e-07
1.36612e-111
1.72281e-95
0
3.80153e-16
0
5.80897e-61
0
0
3.94836e-80
3.45238e-98
0
3.07172e-47
1.09745e-104
1.53108e-82
0
2.06164e-77
3.2304e-09
0
1.30133e-41
6.77491e-86
0
4.09306e-99
0
0
2.51047e-22
5.48039e-28
1.71987e-115
0
0
0
2.41535e-05
0
2.68023e-28
8.65337e-05
0
0
0
0
1.10531e-05
5.82905e-88
1.10308e-98
1.93146e-98
0
7.61891e-05
0
4.26569e-135
0
3.405e-65
0
5.30201e-133
1.95354e-101
4.376e-97
1.11842e-128
6.12181e-48
6.66713e-75
2.08696e-131
5.17496e-47
0
3.64808e-53
2.43558e-21
0
0
2.51106e-23
3.5579e-24
4.94871e-76
1.52285e-127
0
0
0
0
2.79894e-81
0
5.9918e-116
4.60774e-78
4.46056e-74
8.96548e-72
8.86037e-67
8.71807e-121
0
1.11631e-23
6.7856e-25
2.0023e-20
4.89985e-24
8.73219e-39
6.4743e-24
1.26534e-125
3.93825e-81
3.73712e-24
3.40855e-127
0
0
2.48556e-123
3.96412e-25
0
2.72827e-125
1.77989e-34
4.52451e-85
4.73579e-30
7.47235e-92
6.20372e-28
1.82666e-64
0
1.4166e-22
7.36759e-130
3.45535e-10
1.27669e-106
1.53666e-75
0
4.4907e-38
1.04678e-23
0
6.99427e-26
1.31803e-31
1.35468e-23
0
0
2.15614e-123
5.76701e-12
7.65703e-64
2.30097e-34
1.55235e-63
0
0
7.71491e-59
8.08632e-57
0
1.43929e-120
4.04849e-124
1.71502e-62
1.45316e-33
6.74162e-55
0
2.82189e-65
0
3.89848e-92
2.15673e-105
3.81635e-103
2.68377e-50
6.36134e-63
2.99962e-64
4.15864e-93
8.29772e-106
0
8.22945e-101
6.53281e-97
6.68351e-92
0
2.20144e-155
3.76277e-109
1.3774e-22
0
9.16784e-22
0.000494907
2.92496e-165
6.43791e-104
4.57294e-34
3.37812e-106
2.20333e-139
7.39052e-92
0
2.20682e-108
4.18715e-29
5.72715e-21
3.78033e-55
3.28158e-86
4.94358e-46
0
3.2459e-41
5.2269e-23
4.29068e-166
0
1.86602e-34
1.45342e-165
9.08192e-110
2.03289e-26
6.50316e-116
0
6.63224e-56
0
2.42841e-168
3.87152e-43
1.06907e-23
0
1.59967e-71
6.4731e-128
2.98929e-162
1.09724e-119
0
3.22421e-95
2.08301e-130
3.45156e-123
1.04081e-89
2.2049e-60
1.35136e-108
4.51926e-121
1.50057e-118
3.72937e-49
3.74143e-59
1.04172e-26
0
1.80314e-51
2.94258e-105
1.87054e-33
0
1.19903e-110
0
1.85528e-05
0
5.16415e-88
0
2.49055e-54
3.50689e-78
2.82527e-83
3.80658e-52
0
3.06872e-49
5.60507e-77
9.63423e-67
0
9.77364e-97
0
4.68852e-80
0
0
1.60216e-120
0
6.62717e-110
0
3.14939e-48
2.39034e-57
7.68213e-81
2.10533e-27
8.43188e-64
0
3.1765e-18
6.27414e-57
0
6.9952e-29
0
0
1.54216e-09
1.19293e-43
1.31695e-25
0
1.08587e-112
2.38142e-55
9.05491e-61
4.8011e-58
0
0
8.9287e-92
8.39152e-135
0
3.18784e-85
3.0404e-57
1.88851e-54
0
0
1.43891e-132
0
1.83948e-22
0
1.47839e-49
8.65037e-53
4.72827e-21
4.32343e-143
4.44164e-87
8.7222e-18
3.42032e-134
0
1.87281e-47
2.39373e-64
3.62083e-122
0
1.06493e-134
0
0
7.65806e-138
2.41978e-22
1.35856e-84
1.12654e-87
0
1.42472e-39
5.69351e-127
0
0
1.13243e-84
1.11565e-140
3.33205e-83
0
0
9.65879e-52
1.1018e-60
8.30856e-26
8.02363e-32
1.00846e-85
0
0.00104224
2.19239e-61
0
0
1.01743e-17
2.12415e-37
3.97432e-61
1.69347e-34
6.93099e-62
1.30775e-22
0
2.16505e-08
0
6.30263e-39
1.1706e-22
0
9.79935e-53
2.25389e-114
0
0
2.3528e-66
0
1.14429e-21
7.54747e-31
5.41802e-43
0
2.41348e-36
1.16901e-58
0
6.09805e-24
2.37001e-104
2.89892e-36
0
0
0.000129542
3.38364e-19
0
1.76971e-119
0
7.68419e-35
1.21954e-85
2.31842e-17
2.6402e-75
2.96536e-33
5.83271e-35
1.43375e-41
2.19719e-84
0.00157152
0
1.66239e-64
2.48464e-11
1.19956e-26
0
2.13291e-27
0
3.73255e-43
3.85251e-145
0
8.55013e-88
0
9.63471e-110
5.07715e-93
1.07603e-81
2.16892e-11
2.30499e-60
4.12746e-67
6.77167e-123
6.88479e-37
8.29461e-52
0
3.71944e-70
5.0589e-90
0
9.87442e-61
0
2.50841e-57
0
3.48543e-49
2.39407e-88
1.17593e-57
1.54768e-68
1.92073e-16
0
5.89983e-24
1.08624e-65
0
1.81071e-157
1.39198e-113
0
4.70999e-156
0
1.03674e-11
1.35208e-89
6.37773e-48
1.39868e-150
0
7.1261e-65
1.19444e-71
2.26481e-157
0
9.38868e-48
9.96102e-120
2.79383e-33
0.000113838
4.86895e-155
5.2686e-40
0
4.97856e-44
5.75825e-53
0
7.19806e-151
0
0
2.7841e-150
2.42876e-170
2.66708e-106
9.97222e-146
0
9.26056e-188
5.21676e-43
3.43112e-44
3.4475e-163
5.38308e-60
5.89756e-125
1.24683e-163
0
0
1.80246e-127
1.13935e-72
1.18907e-21
4.34893e-98
0
8.20237e-72
0
1.62432e-25
0
0
1.26306e-118
2.69706e-148
0
0
0
1.39239e-103
2.2394e-102
9.16297e-106
0
9.32633e-111
5.26399e-23
2.01493e-154
4.20006e-92
3.19216e-105
2.21861e-11
4.61946e-15
9.30302e-109
0
2.19453e-37
3.53763e-120
3.55706e-78
2.44759e-06
6.76884e-154
4.58371e-27
4.95213e-33
5.87254e-66
1.06648e-83
3.09983e-109
5.50331e-41
2.70386e-75
0
0
3.16234e-86
1.9124e-108
0
4.73848e-49
2.07402e-29
1.56237e-73
1.437e-30
2.3107e-106
2.74251e-38
1.0363e-13
0
0
8.81201e-132
1.57714e-21
2.42385e-08
9.32237e-119
0
2.10015e-163
2.96464e-81
1.2866e-77
8.70752e-34
0
0
0
0
0
3.49979e-114
5.71796e-39
1.04372e-120
1.94676e-129
3.21344e-145
1.04965e-125
6.76023e-60
5.24623e-46
0
0
0
6.15669e-115
0
6.39225e-148
9.66058e-34
2.85617e-31
4.57885e-171
0
3.18949e-150
0
8.35848e-130
2.17938e-42
8.71362e-47
1.28409e-44
3.21953e-69
0
2.28753e-164
8.20415e-144
1.21328e-41
1.17461e-51
0.0110759
1.62153e-111
2.54544e-143
0
4.04317e-49
9.16855e-37
0
0
0.0232189
0.0217614
7.55481e-48
0.00481798
0.000138185
3.02222e-83
3.29227e-50
5.26497e-24
0
0
3.16026e-177
2.41619e-112
6.396e-147
8.84429e-89
0.00129778
0
7.45226e-06
3.9133e-27
1.00265e-06
1.27016e-73
6.15848e-78
9.92885e-77
2.07133e-22
7.49904e-41
3.63165e-08
5.12521e-34
8.77634e-26
1.46954e-08
1.94105e-171
6.77801e-33
2.43899e-05
8.29843e-92
0
7.80906e-37
0
4.7585e-164
1.34873e-05
1.00982e-39
0
1.057e-131
5.2953e-118
0
3.38059e-61
0
8.55728e-145
3.68624e-44
3.54019e-39
0
7.31854e-54
2.36169e-93
5.11944e-05
0
1.59848e-58
1.70102e-167
0
7.94749e-05
0
7.77091e-107
1.92406e-30
1.14402e-171
1.38915e-88
0
0
0
1.57765e-42
5.78259e-95
0
3.89024e-97
1.77952e-101
0
1.83991e-51
0
1.90664e-57
1.86612e-91
1.02048e-102
0
0
4.11147e-149
0
1.04936e-100
0
4.62108e-89
0
1.88685e-99
4.0997e-92
6.03972e-65
0
0.000651659
0
0
0
4.48234e-144
0
0
0
0.000259642
1.85669e-55
0.000599193
8.44744e-133
4.26341e-35
2.93284e-46
0.000262125
0.000684096
1.17968e-35
4.90106e-38
4.85384e-77
0
0
8.37099e-75
2.12713e-149
3.53731e-115
0
1.82926e-06
5.35677e-133
0
5.8349e-94
1.56535e-57
0
0
0
0
0
1.59114e-35
0
1.38786e-128
0
2.20591e-60
4.36612e-52
1.80585e-83
0
4.78995e-15
0
3.01818e-16
2.03059e-187
5.48988e-173
1.30466e-57
4.74889e-13
1.61234e-14
1.2673e-15
0
0
4.80854e-41
2.32489e-52
2.84085e-50
5.581e-14
0
0
1.10374e-139
0
1.35064e-51
8.97666e-31
1.57839e-38
2.4651e-75
7.10193e-29
2.21831e-30
0
3.11172e-32
9.61986e-14
0
0
1.2202e-142
1.70244e-20
4.3926e-15
9.37049e-46
0
7.74715e-19
2.93316e-39
2.40933e-46
1.29395e-41
2.02594e-18
6.10606e-14
0
0
8.18325e-17
0
3.43905e-52
8.8291e-156
2.52056e-85
1.927e-72
1.0869e-147
7.18527e-131
0
0
6.54077e-110
1.74927e-08
1.37691e-146
0
4.61139e-19
3.31811e-140
4.34682e-48
4.04071e-20
1.06873e-18
0
1.8025e-19
1.22221e-25
2.00168e-16
1.83185e-74
0
2.71496e-17
6.86555e-27
7.01922e-20
7.41856e-21
0
0
8.50119e-35
1.6486e-64
3.13076e-41
4.88529e-167
5.70771e-79
3.58044e-26
0
6.26035e-52
8.24253e-157
1.3718e-95
0
8.23329e-27
0
0
0
0
0
5.2715e-26
1.07738e-24
3.13463e-40
0
4.01042e-17
5.29718e-47
1.62971e-51
0
0
3.27149e-15
0
1.40719e-45
1.60399e-102
2.39667e-61
0
9.02595e-90
0
0
0
1.65528e-97
5.33808e-135
1.49515e-48
4.12487e-191
1.23809e-79
2.25304e-125
0
5.09792e-153
2.26422e-169
0
3.64851e-38
4.22694e-52
1.5946e-155
6.02743e-134
0
2.30358e-124
3.95769e-49
9.21922e-40
7.01607e-136
0
6.69683e-101
2.80397e-132
1.52691e-75
1.99885e-51
1.20045e-40
2.7535e-129
4.20073e-73
5.58749e-106
4.1872e-138
2.4421e-124
0
0
0
4.19568e-140
2.77886e-173
0
0
0
2.4744e-28
1.95591e-162
2.3413e-84
6.52896e-124
1.50704e-48
3.47138e-121
1.15424e-48
6.5816e-63
3.93333e-19
6.08742e-139
7.6073e-141
7.35797e-143
0
4.97443e-45
0
0
0
0
0
0
8.18425e-125
0
0
1.15486e-135
2.3443e-84
3.79734e-50
4.30809e-132
0
3.18233e-120
0
3.7506e-91
2.70178e-102
5.327e-104
3.86389e-72
8.99182e-135
0
1.62322e-58
4.03459e-39
7.30444e-150
2.98082e-119
0
1.43673e-87
2.39373e-83
2.09053e-85
1.85972e-46
1.27572e-32
1.38766e-112
0
0
2.71603e-47
6.21615e-129
0
0
4.78954e-54
0
0
3.26379e-76
0
7.13013e-133
0
4.11216e-62
5.6445e-165
0
9.16413e-90
2.71037e-168
0
0
1.13281e-102
8.26156e-121
6.90562e-06
8.74046e-113
0
1.67185e-83
0
0
0
2.75978e-48
1.5817e-24
1.56615e-20
2.15306e-47
0
0
6.86629e-56
1.75309e-93
0
0
2.3592e-70
4.40105e-05
2.85616e-126
2.03102e-95
0
2.78216e-52
1.54961e-47
2.36326e-41
1.02772e-32
6.6466e-163
2.20793e-31
1.9522e-10
0
0
6.76281e-132
8.21755e-98
1.08774e-166
1.25595e-80
0
2.71255e-72
0
2.27676e-10
1.16932e-34
4.7e-18
2.67744e-07
5.28618e-11
3.05124e-57
3.21008e-158
1.23103e-151
0
1.26055e-121
0
1.36929e-152
0
0
1.23782e-05
7.75866e-39
0
5.70514e-57
1.50494e-120
2.45434e-13
0
2.97723e-32
0
1.96111e-157
2.34147e-29
0
0
7.85283e-175
6.70464e-38
8.2446e-15
6.82717e-13
0
6.47727e-14
0
2.04063e-36
3.46082e-138
1.19005e-21
0
0
7.66161e-47
0
0
0
1.56751e-36
0
5.45652e-24
2.56576e-155
2.24648e-101
2.40013e-30
1.1749e-128
1.2046e-59
1.15343e-158
2.14769e-51
6.29369e-124
1.33988e-143
0
3.60802e-126
2.9745e-52
1.22911e-121
8.8377e-39
0
4.95724e-43
0
4.63018e-108
2.2966e-55
3.43226e-78
1.12779e-123
1.95978e-124
4.32473e-12
0
3.93206e-30
6.77586e-06
0
1.25228e-164
0
1.78139e-43
1.66648e-125
5.59709e-133
0
2.79485e-28
7.38403e-118
1.03819e-93
0.000486503
1.26887e-46
0
4.24662e-58
0
1.71239e-143
4.74079e-143
2.40818e-101
0
0.00168578
1.01539e-162
0.0155881
2.98782e-93
1.86742e-44
9.62175e-162
0
9.10227e-39
5.73663e-164
0
5.13599e-85
3.42882e-123
0
1.4616e-09
0
3.04474e-22
0
1.42653e-36
0
8.47037e-63
3.5673e-92
1.06165e-118
0
2.65105e-16
1.98839e-54
0
1.80018e-36
4.13989e-19
0
3.19186e-43
9.56835e-34
1.71525e-121
4.51334e-24
0
4.62802e-81
1.11523e-133
5.19117e-14
0
0
1.80674e-37
4.05522e-29
6.87439e-32
1.03672e-07
1.80391e-50
7.10843e-15
3.00753e-39
0
4.40695e-112
0
1.11726e-09
2.67542e-70
1.11367e-51
2.18409e-21
0
4.41011e-63
7.57435e-19
9.35602e-164
7.39888e-151
8.4129e-10
3.88795e-49
0
4.02064e-70
3.06492e-154
0
8.23291e-111
0.00017464
1.4945e-17
0
0
1.28716e-11
1.03859e-49
8.94655e-35
8.47045e-29
9.75377e-07
0
1.577e-110
0
1.87826e-61
7.07267e-115
4.80357e-117
8.89848e-40
6.18378e-33
1.1289e-83
6.3049e-11
0
1.03319e-64
1.3921e-38
2.02006e-51
4.9529e-157
1.42761e-103
5.67899e-09
1.22423e-64
0
6.68574e-57
0
2.99958e-156
1.96722e-47
4.37956e-35