/*--------------------------------*- C++ -*----------------------------------*\
| =========                 |                                                 |
| \\      /  F ield         | OpenFOAM: The Open Source CFD Toolbox           |
|  \\    /   O peration     | Version:  v2012                                 |
|   \\  /    A nd           | Website:  www.openfoam.com                      |
|    \\/     M anipulation  |                                                 |
\*---------------------------------------------------------------------------*/
FoamFile
{
    version     2.0;
    format      ascii;
    class       volScalarField;
    location    "2";
    object      CO2;
}
// * * * * * * * * * * * * * * * * * * * * * * * * * * * * * * * * * * * * * //

dimensions      [0 0 0 0 0 0 0];


internalField   nonuniform List<scalar> 
108993
(
4.96451e-96
1.40795e-71
1.34408e-61
0
1.70748e-181
8.77172e-178
0
0
5.95098e-138
6.08414e-104
0
4.98898e-115
0
0
2.02635e-141
1.73416e-24
1.16067e-98
0
2.50043e-175
1.06232e-103
2.75882e-186
7.14088e-155
4.00019e-97
0
1.12404e-185
1.84837e-138
0
1.98534e-108
1.04093e-116
3.79416e-143
1.505e-148
0
0
0
6.28685e-175
0
6.21304e-160
0
7.71532e-16
1.39533e-38
0
1.9131e-131
0
8.54876e-186
3.69178e-33
5.39391e-43
0
0
0
1.85081e-94
0
3.6194e-33
2.45912e-68
5.71211e-169
9.0955e-136
0
2.14535e-165
1.97146e-165
0
0
2.79676e-154
0
0
1.46028e-173
3.71154e-177
3.71127e-115
2.15221e-182
8.43667e-167
0
0
1.23814e-146
8.8652e-172
1.12659e-168
2.39523e-171
3.07288e-113
0
0
1.08877e-82
0
1.0787e-182
0
0
0
2.37528e-128
0
0
7.67211e-117
0
1.10152e-171
0
5.13316e-172
1.05528e-148
1.7976e-175
0
0
0
3.38894e-151
1.40062e-131
0
0
6.30276e-167
0
0
0
0
0
7.1372e-133
4.31156e-163
1.02514e-176
0
1.34913e-47
8.171e-173
1.04152e-62
3.91661e-35
2.85778e-136
6.3909e-38
2.44793e-176
0
2.24873e-28
3.82085e-147
2.38373e-125
1.5494e-147
3.20595e-31
3.92349e-77
0
7.89308e-39
8.12943e-85
0
9.51433e-150
9.77419e-154
7.35945e-92
2.1205e-152
0
1.04425e-16
8.78121e-144
0
1.79396e-147
0
3.76368e-137
0
3.42108e-77
8.48084e-143
0
8.30931e-150
9.02298e-152
8.44404e-166
2.7204e-141
0
3.35035e-75
3.12494e-13
3.33651e-13
0
3.88688e-65
8.14361e-10
0
3.90477e-52
3.40495e-106
2.10628e-163
5.96035e-157
5.92188e-36
2.1284e-11
2.86961e-160
9.08272e-148
0
0
5.31552e-39
7.77918e-181
0
5.31394e-171
8.79476e-134
0
1.49051e-127
8.63738e-36
0
0
2.14233e-124
1.40444e-24
9.17977e-175
1.81021e-114
2.22918e-158
0
0
4.56531e-162
9.87005e-83
5.30378e-108
0
0
0
0
9.66299e-81
0
1.0796e-160
3.35136e-131
1.25805e-28
4.26823e-140
4.98029e-65
3.25295e-87
0
7.09655e-144
8.33542e-82
1.11556e-176
2.27907e-30
6.61073e-176
1.37319e-164
0
1.4797e-22
0
0
6.78852e-123
1.68032e-06
1.27583e-50
0
2.42016e-23
3.24161e-35
7.65972e-17
0
2.40318e-126
0
4.23346e-161
0
3.5554e-118
0
8.01411e-49
1.44593e-28
0
6.31827e-175
4.51496e-163
7.1365e-90
2.15582e-14
3.69287e-126
7.19978e-38
3.15841e-136
6.17787e-173
0
1.76189e-148
0
2.17874e-150
3.92145e-151
0
0
4.7585e-154
0
0
0
2.92085e-158
2.69155e-24
1.60147e-39
2.93018e-28
1.48952e-158
0
0
5.43768e-168
0
1.78617e-138
1.32645e-160
0
7.78217e-161
2.41877e-87
3.89508e-139
3.00688e-180
8.32427e-97
0
9.8667e-47
1.94057e-36
0
8.20677e-103
1.8791e-96
2.35866e-126
0
1.57154e-124
1.10883e-192
6.76963e-69
1.19365e-49
0.000326458
1.95833e-55
4.3723e-120
5.86658e-157
0
0
1.2378e-92
0
4.13987e-42
2.12685e-42
1.86547e-145
8.92506e-138
0
7.56441e-177
6.64442e-92
1.42844e-77
1.15012e-58
0
1.60721e-107
1.48887e-89
1.34349e-104
0
1.3139e-94
2.62908e-144
3.95881e-100
0
4.97183e-188
1.12036e-26
0
0
3.53739e-191
1.58358e-129
5.80337e-144
1.47559e-160
0
2.76729e-141
0
0
3.58181e-151
0
4.37017e-161
6.73396e-135
2.46235e-17
0
5.79423e-64
6.99545e-28
2.9758e-125
0
7.17563e-176
6.37995e-135
0
0
3.00565e-05
0.000857322
5.63173e-14
0
9.56467e-63
1.45441e-118
1.85178e-18
1.88499e-07
9.55777e-121
0
0
1.31064e-144
5.08137e-156
3.38543e-125
3.31311e-141
0
8.5364e-35
1.19285e-94
3.35943e-125
6.5581e-123
0
1.01821e-83
3.59245e-148
0
1.47957e-81
1.40267e-117
0
0
0
0
0
2.96356e-120
0
2.06074e-121
0
4.56461e-55
1.34621e-96
7.67643e-84
1.85079e-82
0
5.76091e-88
3.62468e-86
1.73253e-140
0
0.0354666
8.36196e-45
1.22273e-63
3.61216e-80
0.000170586
0
3.38502e-09
2.96489e-85
9.2048e-120
2.85509e-15
0
3.19241e-14
1.95773e-14
0
2.28967e-18
0
0
1.52941e-75
3.02941e-14
1.97832e-95
8.31191e-47
7.37196e-16
0
0
1.52958e-110
2.59428e-64
1.72468e-86
0.00195327
1.79029e-168
9.61634e-36
1.7042e-137
1.886e-84
9.54953e-33
4.05973e-35
1.82572e-143
7.95442e-126
2.40058e-126
1.90216e-118
2.53323e-140
2.70948e-59
2.40038e-06
0
6.14731e-94
0
1.52857e-144
0
3.43115e-132
0.000259973
4.00015e-60
0
2.42167e-175
0.000274596
8.61791e-72
1.08047e-05
8.39561e-181
9.96491e-175
8.55704e-06
0
3.68574e-22
0
4.9065e-195
0.000445435
4.73705e-27
0.000397725
2.01798e-151
5.97437e-138
2.10937e-102
4.76732e-143
3.84492e-125
0
1.64962e-130
1.0397e-129
0
2.39319e-93
2.06664e-177
0
1.96101e-44
2.77475e-52
6.6959e-37
0
2.32403e-181
0
9.55727e-178
5.75687e-91
0
0
9.23487e-141
0
0
3.29586e-108
0
4.79851e-42
7.40945e-59
4.76156e-39
5.60809e-20
0
1.41574e-69
0
0
6.76096e-68
2.95427e-65
0
0
2.29299e-137
6.58215e-53
0
0
2.1922e-132
0
7.25619e-74
2.89825e-24
0
6.4403e-131
1.69029e-128
9.13692e-88
1.32738e-45
6.2533e-72
3.28363e-65
6.95044e-71
0
7.04382e-74
0
3.14613e-98
0
4.59525e-65
2.02981e-28
0
2.48453e-44
8.20195e-107
1.52111e-81
1.0604e-81
8.47462e-161
1.34389e-125
0
9.12755e-75
4.08056e-40
4.72679e-24
1.04635e-85
0
5.90319e-19
7.0091e-81
1.84439e-30
1.71199e-52
4.95732e-130
7.61933e-72
3.61225e-84
0
1.74796e-152
5.37527e-86
0
0
1.24058e-113
8.97825e-115
4.89837e-59
0
7.96748e-111
1.28149e-20
6.3951e-128
1.23048e-92
6.82255e-20
0
8.51347e-155
2.24838e-163
4.79072e-22
5.67398e-113
0
1.9927e-131
0
0
2.54191e-73
0
8.62146e-139
1.75765e-63
0
0
0
2.24184e-116
2.91603e-140
1.54975e-21
9.6298e-125
3.27387e-157
2.5569e-28
0
2.26682e-28
0
2.96504e-131
0
0
5.76226e-71
0
2.04784e-95
5.05849e-71
0
9.02968e-75
8.8906e-64
0
1.02945e-21
1.04498e-114
7.6429e-126
6.87774e-77
0
4.91237e-72
2.02948e-58
0.0580977
0
1.33347e-15
1.6481e-58
5.45244e-128
0
0.00707089
8.45761e-46
2.26654e-64
1.18682e-102
3.18776e-88
6.89807e-155
0
0
4.0922e-39
0
0
1.70706e-173
0
1.2032e-159
1.42097e-109
1.30178e-83
0.00197672
0
3.05441e-134
1.40887e-163
3.1404e-79
2.62634e-52
3.51912e-79
0
0.000273649
2.33481e-58
0
0
7.98583e-05
1.93845e-160
1.03841e-52
1.71048e-77
3.05002e-08
0
0
1.17343e-72
2.53161e-69
1.56091e-86
3.98279e-37
8.10175e-163
3.31826e-40
2.49325e-160
1.96758e-25
1.06156e-156
2.0819e-95
0
4.5574e-97
7.20905e-147
9.7003e-122
1.98567e-39
1.45954e-38
1.28394e-38
6.48875e-11
1.78203e-87
5.79404e-34
4.63241e-18
6.92119e-39
1.86555e-161
3.05008e-157
0
0
5.65244e-42
0
1.1235e-40
1.59427e-104
1.33409e-38
1.4124e-126
3.51259e-37
4.46387e-71
4.97711e-52
3.09766e-40
3.72754e-38
8.00675e-40
2.07035e-25
0
0
9.66065e-71
2.32059e-106
1.83166e-11
1.11103e-60
0
5.96485e-58
9.69898e-65
0
1.8554e-56
1.01382e-106
5.73994e-141
0
4.97328e-142
3.68768e-48
6.0892e-56
0
2.51806e-46
0
1.10351e-40
3.5521e-60
0
0
3.00748e-29
1.22177e-79
6.06812e-158
0
8.48479e-72
3.26228e-56
4.9581e-45
6.5074e-42
2.96865e-54
1.48343e-42
7.48986e-29
0
0
0.0149736
0
1.25827e-77
5.32709e-42
2.47963e-122
3.61977e-130
0.0569043
4.40376e-92
3.15901e-26
0
8.41499e-05
1.72154e-37
2.81626e-119
0
0
1.05666e-40
1.83783e-175
1.02889e-40
4.19659e-98
1.34135e-129
0
1.06003e-41
0
1.56357e-19
3.73284e-105
1.14876e-08
4.37792e-82
0
5.97592e-32
5.41698e-191
1.50139e-47
0
2.29739e-32
0
2.53181e-25
0
1.52391e-33
1.19221e-41
0
1.19011e-34
0
3.86066e-37
4.38408e-31
2.94512e-23
1.41872e-28
0
8.57192e-188
4.00704e-67
3.00426e-176
3.48058e-72
0
0
5.45188e-27
5.72998e-27
1.93327e-25
1.06559e-47
3.2408e-50
7.53845e-41
6.35378e-40
2.57379e-45
0
3.32092e-111
0
9.08973e-175
1.04935e-47
2.57781e-179
7.13512e-45
3.09157e-172
2.16244e-32
1.49123e-30
0
1.06845e-37
2.61923e-171
1.34796e-45
0
1.43314e-54
0
0
1.55401e-62
0
0
3.31077e-60
7.2581e-36
0
1.83319e-25
2.2509e-20
0
4.18041e-58
0.00982643
2.42103e-27
2.85444e-79
6.09196e-83
0
3.74036e-58
3.41333e-60
8.12573e-57
1.14743e-95
6.76014e-45
0
3.37593e-126
1.97642e-58
1.08517e-154
1.58829e-35
4.9912e-132
5.60849e-99
0
3.36019e-41
1.43556e-11
1.3318e-85
2.37029e-13
6.79247e-137
0
2.53403e-40
1.31466e-170
1.87734e-66
9.48367e-45
1.97647e-122
5.59359e-110
0
2.43975e-104
3.88666e-100
5.40541e-54
0
0
0
2.87983e-106
2.36842e-07
0
9.39782e-110
0.00202251
5.46169e-140
0.000520251
1.32514e-96
8.28887e-109
0
0.015826
2.61018e-34
9.32329e-143
4.39401e-48
3.63009e-77
1.07397e-90
2.64711e-102
7.61938e-39
0
2.00735e-54
3.87901e-28
2.54097e-145
3.68666e-49
4.50336e-45
1.60174e-36
3.46234e-48
6.36515e-110
6.70702e-55
0
9.22904e-49
4.97798e-138
1.38012e-35
1.36282e-70
0
0.000683663
0
0.00281624
8.44951e-57
0.000425338
0
8.03677e-52
0
5.46214e-19
0
0
3.01421e-128
0
0
1.5652e-59
9.46175e-47
0
6.89032e-139
6.53413e-79
4.42677e-17
1.72769e-54
4.705e-17
0
9.10126e-93
1.20256e-24
0
7.94545e-125
3.81761e-19
3.13141e-34
1.27156e-43
0
0
3.6766e-52
5.87814e-46
1.40923e-43
2.82642e-29
2.72362e-70
5.93604e-07
3.9535e-171
0
1.0982e-41
0.00849062
0
0
1.10687e-22
1.98038e-46
4.88157e-50
1.64709e-138
0
2.22686e-33
1.25943e-25
0
8.50228e-13
1.53145e-44
0
2.70525e-06
7.36631e-151
2.51234e-137
0.000431514
0.0410346
3.27537e-109
2.26309e-80
2.35214e-209
0
3.02932e-38
3.76688e-30
0.000351189
1.2891e-89
0
1.02197e-29
1.7587e-40
3.0718e-104
0
3.1486e-38
1.99258e-120
6.61347e-134
8.55088e-166
4.6212e-42
1.34763e-92
2.64781e-31
0
0
6.13557e-40
9.30075e-147
9.59806e-36
6.79259e-38
5.15711e-42
4.59174e-48
5.05755e-127
1.46483e-12
5.39589e-137
1.84561e-27
0
1.96967e-86
2.77185e-159
0
9.46104e-38
5.16569e-144
8.38901e-101
2.15183e-05
0
3.74713e-40
4.64734e-149
9.80676e-54
2.95651e-32
1.69571e-16
1.99715e-120
3.00493e-33
1.59804e-20
8.85581e-50
0
2.12703e-49
0
1.26688e-62
8.69433e-51
2.22219e-42
4.05177e-14
1.18782e-17
9.0944e-79
7.32838e-34
7.02966e-64
5.00196e-50
2.23164e-16
5.60063e-16
0
1.07582e-149
0
3.83408e-15
0
0
2.47964e-158
1.44961e-13
0
1.57166e-64
0
0
2.49681e-77
0
1.20095e-121
3.95487e-22
3.02731e-85
6.8604e-79
0
0
1.43422e-38
0
0
4.42881e-166
0
0
1.44929e-26
0
4.67228e-108
0
0
3.148e-51
1.71849e-41
1.24261e-53
0
0
1.62233e-45
0
1.1446e-39
3.02771e-18
1.67367e-44
5.69246e-177
0
0
6.94189e-143
2.04826e-64
3.01468e-45
0
9.51689e-180
5.65139e-73
1.59286e-123
4.30139e-23
1.03299e-75
0
2.81297e-159
6.45138e-76
1.4903e-48
2.16147e-31
0
0
4.56064e-78
3.78562e-105
1.98286e-61
0
2.48696e-126
6.35433e-177
3.60918e-127
0.000154556
2.76067e-80
1.18555e-43
9.038e-136
8.45112e-32
8.69123e-29
3.25125e-143
1.88287e-44
2.17284e-56
0
3.75771e-60
1.49812e-33
1.13269e-54
6.29122e-23
2.33071e-42
0
1.95177e-138
0
0
1.29212e-43
1.09925e-31
0.00625853
2.24949e-25
0
2.97716e-47
0
1.97594e-23
8.03395e-50
5.45588e-25
5.73452e-60
7.368e-26
2.43384e-61
9.50509e-10
1.99723e-26
6.58163e-33
2.68891e-107
0
0
3.14038e-92
0
5.44587e-177
2.98372e-62
1.92001e-16
3.54984e-124
3.89613e-24
2.31975e-52
1.65257e-83
5.39007e-93
2.39554e-33
3.55108e-18
0
1.4006e-51
9.29575e-77
0
0
4.10732e-48
1.0141e-23
2.54439e-22
0
0
2.76279e-180
7.23693e-87
5.34328e-78
0
5.00019e-162
0
0.0884289
5.41855e-40
6.01246e-176
0
0
1.06478e-86
4.62295e-106
0
7.88839e-77
1.10917e-76
8.38725e-84
0
1.77266e-81
2.09792e-80
0
0
0
3.40712e-92
0
7.37337e-79
0
2.8147e-44
2.63003e-37
1.89692e-54
1.09372e-38
9.98562e-70
4.34575e-181
2.3583e-39
0
1.50977e-138
0
2.32478e-133
1.76061e-58
5.15242e-87
2.31919e-24
4.43848e-85
2.83769e-61
3.94572e-138
3.69318e-136
0
3.23149e-98
0.0101654
0.000181575
0
0
5.64186e-107
7.89567e-79
7.93837e-53
0
0
1.56515e-138
0
0
0
0
7.04127e-152
4.53132e-48
3.82662e-110
0
2.59554e-55
1.17134e-55
1.03772e-46
0
0
4.79624e-45
0
2.59904e-82
7.94028e-17
1.49622e-188
3.00916e-44
0
5.98651e-126
2.79499e-126
0.0273127
4.43409e-35
0
2.37652e-18
4.72784e-140
6.6741e-15
9.01212e-22
0
1.10003e-100
0
3.87953e-54
0
5.36567e-58
9.21657e-171
2.22108e-23
9.80062e-20
8.97651e-27
1.32569e-107
1.18107e-180
3.66224e-26
0
0
0
2.75162e-156
2.84751e-172
0.0274802
7.87862e-24
0
0
0
0
0
1.5897e-48
2.20025e-92
7.98538e-150
5.47203e-19
1.74296e-36
0
1.62194e-16
0
1.34897e-17
3.20001e-84
0
0
5.31761e-145
1.79114e-80
0.023392
2.16382e-115
0
0
8.7856e-15
0
3.50632e-110
3.24341e-51
7.86664e-52
2.89463e-37
5.89259e-22
0
1.34452e-51
4.31777e-71
1.33177e-107
0
0
0
1.16409e-44
0
2.11036e-26
0
1.04667e-143
9.50791e-44
1.01965e-132
8.72998e-144
0
0
5.84891e-07
0
9.9079e-36
7.69531e-48
0.00322523
0
3.4668e-108
3.96527e-133
1.08037e-26
4.38675e-95
9.30175e-57
6.33159e-60
3.32829e-59
9.10435e-49
5.80329e-63
5.63481e-156
2.32145e-58
1.9679e-55
0
0
0
0
4.19838e-93
1.17195e-127
3.51031e-117
1.4962e-115
8.36603e-155
4.43116e-73
6.80615e-77
7.6397e-25
7.00484e-145
1.33115e-85
0
6.06426e-60
0
3.69313e-116
1.83123e-92
0
7.58386e-17
0
2.75501e-23
2.3156e-37
0
5.01514e-118
3.62792e-128
1.20683e-28
7.73109e-119
1.33027e-71
3.88708e-68
0
3.48606e-61
5.08897e-62
6.02957e-142
8.81012e-62
0.000162867
4.99771e-64
8.6328e-44
2.85759e-54
0
4.39351e-33
0
2.44038e-106
0
0
0
0
1.92798e-150
1.8107e-45
0
0
4.57292e-54
2.92354e-16
0
0
0
0
0
4.63107e-153
0
0
2.1661e-87
0
1.81254e-58
8.07308e-29
2.80188e-24
4.31512e-49
5.98114e-11
9.50387e-32
5.45665e-134
0
2.89682e-198
5.21954e-56
0
1.57461e-76
0
8.00203e-153
6.73115e-148
3.29182e-58
7.9935e-59
0
4.25038e-44
1.30536e-42
0
1.10706e-32
0
7.15386e-142
4.33709e-31
2.08558e-139
5.42053e-68
1.65455e-22
1.12887e-46
2.01359e-64
0
2.09004e-67
0
5.09382e-61
3.76519e-18
8.31364e-43
0
1.46963e-26
6.10576e-30
0
0
0
2.70735e-73
4.02351e-54
3.87624e-78
6.5825e-46
0
0
4.39756e-83
5.69813e-38
0
0
0
1.88127e-80
5.80725e-31
0
6.18106e-153
8.29245e-36
0
5.51187e-156
5.03388e-123
8.41572e-68
1.99203e-36
0
6.10365e-132
2.08979e-13
0
3.14389e-45
1.08905e-125
5.02644e-51
0
7.92473e-75
4.78123e-64
4.98124e-57
0
0
0
5.89436e-58
2.92006e-27
5.06509e-175
2.82666e-156
1.68255e-138
9.30193e-36
8.44743e-36
0
1.17477e-35
0
1.91951e-24
4.9554e-28
4.86835e-09
5.28575e-43
0
2.40401e-122
0.0753987
2.96492e-91
3.58194e-109
0
0
1.52947e-152
0
1.87305e-128
1.35078e-185
5.01121e-39
6.59546e-28
1.35386e-42
0
0
1.59263e-118
2.22973e-152
0
0
1.52902e-132
0
1.22965e-34
2.70046e-130
4.14528e-100
1.19375e-95
1.3154e-29
1.59321e-66
0
2.64922e-62
2.0681e-90
3.22034e-109
0
4.21721e-69
0
1.57251e-81
7.33422e-35
1.47642e-09
3.70285e-107
0
5.23152e-29
4.2997e-121
0
3.8521e-139
0
0
0
1.39732e-09
8.3601e-135
0
2.15753e-06
0
8.41154e-72
2.8462e-77
5.20872e-120
4.35136e-49
1.50404e-129
3.02459e-73
9.56957e-131
3.31068e-71
3.68511e-06
1.27842e-14
1.80943e-74
0
1.99235e-25
1.76821e-168
1.65548e-26
0
0
9.62543e-128
1.71388e-100
0
1.03809e-106
0
1.79584e-150
0
3.37896e-05
3.30221e-20
4.56696e-19
4.09848e-171
2.5917e-104
1.22535e-25
7.29544e-29
1.79617e-122
0
1.55091e-113
3.61718e-125
1.54359e-79
4.57542e-56
2.17211e-23
6.7732e-25
1.9962e-109
1.10552e-19
7.66897e-25
1.0796e-08
0
2.99052e-25
3.87868e-82
0
6.97062e-20
2.0002e-118
3.12514e-24
0
3.36603e-109
0
8.52519e-33
2.31687e-84
1.75192e-110
3.96892e-46
2.32661e-108
0
6.03196e-38
9.36345e-27
1.19781e-24
2.41432e-129
4.12366e-145
1.19343e-16
0
0
1.46729e-33
1.1134e-149
0.0448404
7.17698e-113
1.18656e-98
8.61133e-87
7.76276e-86
4.42102e-93
0
3.1087e-23
3.2294e-45
4.64772e-28
2.93193e-13
0
2.31328e-12
0
0
9.4231e-98
2.52749e-99
8.0993e-87
0
9.84247e-102
2.55472e-81
1.38953e-51
2.49579e-85
2.27143e-95
3.22134e-41
0
0
1.31977e-30
1.20132e-30
1.06109e-25
0
2.30303e-38
7.54851e-97
1.6535e-90
1.08593e-118
8.359e-106
0
0
1.77195e-28
1.08749e-20
1.14131e-34
2.69272e-15
0
6.83662e-45
0
0
1.00131e-16
3.25707e-41
0
0
9.86159e-26
0
0
0
7.06153e-46
4.75181e-98
0
5.38067e-172
5.63535e-163
1.60761e-08
1.2641e-159
3.72268e-72
0
4.78202e-05
2.30307e-14
0
0
0
1.90428e-09
9.52966e-38
0
6.32435e-164
1.38487e-32
2.42731e-15
0
8.28063e-99
3.94304e-54
1.69443e-41
4.70299e-74
1.27005e-84
9.69592e-72
1.06443e-13
1.43072e-68
6.05812e-77
6.08722e-23
3.30986e-41
3.51231e-70
7.03197e-77
8.61251e-20
0.0439173
1.24575e-24
1.44288e-05
0
1.73084e-45
0
0
3.01893e-05
5.74357e-29
1.29192e-61
7.28199e-128
1.3162e-70
1.38885e-34
0
4.78028e-145
0
2.94394e-41
0
1.23683e-95
1.19577e-66
4.60642e-115
3.2045e-23
2.25843e-09
0
0.0111247
1.10859e-61
5.38857e-179
4.81779e-37
1.21807e-06
2.69932e-45
2.36568e-13
7.05687e-16
8.28424e-20
3.46163e-06
7.52205e-07
1.49555e-16
6.63918e-43
1.2424e-25
9.49822e-96
4.01722e-56
1.91377e-62
0
7.68384e-37
9.31822e-22
0
1.41341e-23
1.75051e-09
0
1.20615e-39
0
4.53016e-82
0
3.12508e-134
3.37253e-41
6.8642e-114
4.95872e-38
0
0
0.018212
2.4347e-20
0
2.97648e-07
3.63659e-74
0
7.82234e-44
1.08795e-12
2.66216e-12
0.0123457
1.64361e-72
1.64655e-60
5.60231e-103
1.65508e-140
6.30086e-171
0
6.74755e-42
0
0
5.99655e-14
1.90505e-67
9.3487e-41
4.84547e-15
0
3.32235e-28
8.03041e-11
5.4794e-173
0.00471064
1.06277e-48
0
9.84975e-94
8.94607e-16
6.79242e-39
7.18553e-170
3.07264e-125
0
5.50008e-89
0
0.0299736
0.0176299
0.0191114
0
0
0.00373911
5.47016e-29
1.09963e-170
0
6.82606e-88
0
0.000106204
1.93299e-87
1.06031e-102
0.000802438
3.74365e-87
2.54201e-52
7.2602e-98
1.87823e-58
4.74706e-155
1.28306e-114
7.16471e-29
5.85352e-52
1.25318e-64
6.16861e-20
0
8.70621e-50
0
8.74426e-74
3.3818e-113
4.10373e-53
3.19709e-63
2.14874e-72
5.53718e-33
5.92916e-32
2.00274e-77
0
1.11767e-38
1.79307e-65
0
1.08579e-66
1.26436e-64
1.34696e-26
0
1.615e-31
5.31298e-20
1.15817e-36
4.5308e-171
2.13839e-31
2.10603e-67
4.77654e-36
0
7.83923e-132
2.30808e-35
0
8.27461e-106
7.99772e-40
0
5.0403e-68
5.39001e-65
0
1.98137e-55
4.67681e-61
1.87941e-85
8.78912e-22
6.4307e-33
1.93439e-51
5.82931e-90
2.73598e-31
1.73488e-59
0
2.76599e-52
0
0
2.22579e-104
6.46957e-35
4.75261e-07
5.59137e-57
1.13185e-10
1.21892e-29
8.98889e-63
9.76956e-138
0
0.00677486
0
2.35422e-22
3.01256e-34
4.794e-25
3.11124e-05
0
0
3.72571e-38
4.4658e-167
8.1831e-54
1.75853e-95
1.5361e-41
8.48311e-37
2.66877e-101
2.25448e-49
1.69658e-101
5.69885e-69
7.62842e-62
1.15378e-141
8.19589e-91
9.82885e-45
1.95301e-95
1.96614e-86
0
1.14559e-174
6.89865e-66
0
3.12191e-60
3.13882e-36
0
7.85357e-152
1.41124e-32
9.88553e-93
0
6.06645e-38
1.40786e-128
4.24987e-124
0
2.3553e-83
0
4.87029e-80
6.63671e-35
2.26504e-80
3.36096e-145
8.00849e-62
4.48986e-110
5.22966e-26
0.00641038
9.50441e-136
0
1.01176e-40
1.88268e-69
5.42484e-19
1.72006e-201
4.16868e-123
1.55814e-191
2.93464e-152
0
1.11374e-08
0.0281241
1.8579e-40
1.0093e-86
0.00136273
1.54107e-59
3.07938e-36
0
9.54776e-25
5.06829e-132
6.57888e-08
1.76024e-54
1.08338e-120
0
0
4.40364e-31
0
0
2.44894e-26
0
0
4.31853e-41
5.44472e-28
2.79247e-103
0
1.43664e-94
3.01756e-35
1.01621e-95
4.47619e-202
6.10068e-139
2.73616e-73
0
1.54032e-34
8.89759e-27
7.3897e-197
5.12087e-194
5.24566e-42
0
0
0
0
1.61054e-32
9.03631e-44
0
0
7.4317e-101
9.97178e-51
2.54377e-49
1.59093e-72
2.81312e-40
1.03596e-79
0
0
4.13289e-129
9.84682e-06
9.58428e-56
4.32167e-24
1.35287e-31
1.50346e-43
1.48266e-46
1.14181e-84
5.76806e-148
1.32331e-22
1.84626e-42
2.28765e-34
1.02285e-50
1.86506e-79
1.89202e-32
1.30485e-82
4.84e-10
1.99997e-58
1.80501e-56
1.02802e-82
1.88777e-26
0
0
0
4.69365e-65
2.51075e-148
1.57866e-156
0
2.36169e-47
8.36283e-38
2.04121e-115
0
0
0
4.53679e-56
6.52911e-35
4.51638e-177
0
0
4.4435e-24
0
7.27579e-70
2.16086e-41
6.21207e-64
4.69536e-64
0
0
2.61691e-26
7.28657e-28
5.46996e-184
0
1.70343e-14
2.42419e-37
3.96485e-27
0
0.0473293
0
0
3.69595e-22
1.73557e-12
0.0799233
0.0340701
0.0324577
0.0744214
1.23876e-189
0.0872648
0
6.00761e-32
1.43394e-186
2.05521e-07
0.0937287
4.3589e-171
0
0.0804175
0
0.00222959
0
3.82133e-42
3.27835e-38
1.77766e-20
2.8351e-59
0
1.45943e-122
0
4.07834e-79
0
1.98296e-10
0
1.57929e-21
0
1.90671e-187
1.59817e-192
8.28938e-196
6.25724e-74
3.93268e-92
0
2.55926e-27
0
5.8949e-53
1.0328e-75
1.81784e-09
1.09625e-189
3.32579e-26
0
2.9191e-51
9.12686e-38
0
0
2.32903e-85
3.30376e-49
0
8.46566e-16
1.16739e-15
1.37019e-07
4.53554e-28
1.18692e-45
6.86377e-49
0
0
0
2.04584e-47
0
9.93606e-34
1.33395e-30
3.3155e-16
4.6517e-51
4.08746e-48
6.30688e-79
0
2.08869e-39
0
0
0
7.34368e-29
7.07075e-15
9.83585e-127
4.46441e-06
5.37893e-111
1.51388e-94
0
2.16017e-15
0
4.77392e-61
0
0
1.59985e-79
0
0
1.97297e-47
6.37381e-104
1.35755e-82
3.52948e-116
1.48137e-77
8.58718e-09
0
1.78217e-40
5.99271e-86
0
1.85832e-98
0
0
4.00841e-21
4.99599e-27
1.05108e-114
0
0
0
0.000972509
0
4.03201e-27
0.00419492
0
0
0
0
0.000437991
5.16412e-88
4.89601e-98
5.61047e-98
0
0.0040173
0
3.3336e-135
0
3.3422e-65
0
4.14514e-133
1.56156e-101
1.99566e-96
8.76995e-129
7.73399e-47
6.06046e-75
1.6342e-131
4.74361e-47
0
5.92477e-53
1.75249e-20
0
0
1.44472e-22
1.50296e-23
2.90136e-75
4.34662e-128
0
0
0
0
3.4795e-81
0
1.45107e-115
2.64365e-77
2.67062e-73
5.54282e-71
5.8445e-67
5.04527e-121
0
4.30071e-23
5.18679e-24
9.54136e-20
3.98029e-23
4.61262e-38
8.36456e-23
5.86407e-125
4.30885e-81
3.131e-23
5.45823e-128
0
0
8.27761e-124
3.10372e-24
0
1.86212e-125
6.47821e-34
4.44991e-84
2.64074e-29
1.00732e-90
3.62624e-27
1.69221e-64
3.16631e-93
1.03911e-21
1.42077e-129
5.34655e-09
5.42275e-106
1.78013e-74
0
4.07824e-38
6.99912e-23
2.29654e-98
5.15993e-25
3.28625e-31
1.02497e-22
9.78348e-96
0
7.53645e-123
4.71526e-11
8.9558e-63
2.82397e-34
2.64653e-63
0
0
6.50898e-59
3.20158e-56
0
5.20772e-120
1.59761e-123
1.49712e-62
7.37277e-33
8.9319e-54
0
1.3264e-64
0
3.24909e-92
9.18636e-105
1.71214e-102
2.17981e-50
3.94056e-62
4.45655e-64
2.9277e-93
3.89157e-105
0
3.62397e-100
2.49246e-96
2.67817e-91
0
7.77479e-155
3.10187e-109
1.36947e-21
0
1.50286e-20
0.00853569
4.99543e-165
3.81931e-103
6.41822e-33
1.29135e-105
8.76984e-139
3.82495e-91
0
8.3866e-108
3.55252e-29
4.02031e-20
4.82964e-55
4.03634e-86
2.85923e-45
0
2.67774e-41
4.72161e-22
1.82831e-165
0
1.6849e-33
6.04655e-165
3.35186e-109
2.31743e-26
2.37527e-115
0
7.93273e-55
0
1.04302e-167
2.73656e-42
1.58689e-22
0
1.02446e-70
2.32009e-127
8.37465e-162
3.74213e-119
0
8.86138e-95
7.42751e-130
2.94181e-123
4.85399e-89
9.66465e-60
6.32671e-108
3.49047e-121
1.10714e-118
4.77255e-48
4.83358e-58
1.56969e-25
0
2.31621e-50
1.22622e-104
1.52746e-32
0
9.21282e-111
1.295e-97
0.00010161
0
6.31813e-88
0
3.63503e-53
4.27147e-78
4.31177e-83
4.60162e-51
0
3.76868e-48
7.06479e-77
3.40601e-66
0
4.46261e-96
0
6.09723e-80
0
0
3.05771e-120
0
2.65873e-109
0
3.99565e-47
2.6596e-56
8.03071e-81
1.22814e-26
3.30036e-63
0
2.15344e-17
7.18211e-56
0
4.39185e-28
0
0
3.14504e-09
3.2143e-43
2.18496e-24
0
4.67246e-112
2.47026e-55
7.91964e-61
4.91854e-58
0
0
7.02184e-91
3.54163e-134
0
3.17533e-84
2.71857e-57
1.98238e-54
0
0
1.13253e-132
0
2.54059e-21
0
1.96964e-48
1.10552e-51
6.54815e-20
1.54861e-142
1.83443e-86
1.43541e-16
2.56769e-134
0
1.67093e-47
2.84251e-63
1.45302e-121
0
8.36799e-135
0
0
6.09193e-138
3.80414e-21
1.35912e-83
8.64838e-87
0
1.90903e-38
1.54191e-126
0
0
2.87988e-83
3.51671e-140
2.70771e-83
0
0
1.18785e-50
5.25218e-60
8.67717e-26
9.9226e-31
4.1929e-85
0
0.0251762
2.77278e-60
0
0
1.0457e-16
2.01995e-37
3.68873e-60
1.07426e-33
8.81366e-61
1.32306e-22
0
3.31728e-07
0
8.67007e-38
3.70965e-22
0
1.29264e-51
3.93183e-114
0
0
1.36465e-65
0
1.28516e-21
1.03723e-29
3.29628e-42
0
8.04014e-36
1.07679e-58
0
9.46305e-23
1.05557e-103
9.42741e-36
0
0
0.00230603
4.9941e-18
0
7.13769e-119
0
2.64761e-34
1.37431e-84
1.64637e-16
3.30617e-74
1.06541e-32
1.94441e-34
1.21414e-40
2.01987e-84
0.0389536
0
2.1014e-63
4.20186e-10
1.85487e-25
0
1.5088e-26
0
4.64262e-43
3.01495e-145
0
7.86271e-88
0
7.40336e-110
5.886e-93
6.26893e-81
2.1437e-10
2.46153e-60
1.95877e-66
1.36263e-122
3.1064e-36
7.45349e-52
0
4.19174e-69
4.65251e-90
0
9.39232e-61
0
3.81844e-57
0
1.73046e-48
2.0248e-88
1.32685e-56
1.41386e-67
1.59521e-15
0
5.00535e-23
1.15032e-64
0
2.65181e-157
7.87713e-113
0
7.03647e-156
0
8.83287e-11
1.45713e-88
7.39644e-48
2.17436e-150
0
8.59244e-65
8.79233e-72
3.30676e-157
0
8.51956e-48
5.39609e-119
3.34044e-33
0.00247066
7.26398e-155
5.04107e-39
0
2.82155e-43
2.07402e-52
0
8.86344e-151
0
0
1.15972e-149
8.34838e-170
2.19483e-105
4.342e-145
0
2.77244e-187
2.6487e-42
1.87282e-43
1.41157e-162
6.91253e-59
2.96602e-124
9.49946e-164
0
0
7.61175e-127
1.47769e-71
1.99181e-20
1.25192e-97
0
8.55403e-71
0
2.51295e-24
0
0
2.20851e-118
1.13864e-147
0
0
0
7.42702e-103
1.1975e-101
5.08477e-105
0
5.40788e-110
6.76645e-22
8.07013e-154
2.89856e-91
3.21996e-104
1.95179e-10
4.97347e-14
3.00665e-108
0
3.05551e-36
2.93306e-120
3.7543e-77
2.58999e-05
5.21058e-154
6.40275e-26
1.01458e-32
5.07714e-66
1.35558e-83
2.38214e-109
6.70256e-40
2.92676e-74
0
0
1.58776e-85
3.62498e-108
0
5.9288e-48
3.0262e-28
1.65666e-72
1.90521e-30
1.11616e-105
3.7183e-37
9.08987e-13
0
0
3.77507e-131
1.20063e-20
3.58608e-07
3.40529e-118
0
1.6248e-163
2.75418e-80
1.36099e-76
1.11226e-32
0
0
0
0
0
2.41597e-114
7.7421e-38
3.79624e-120
1.52796e-128
2.91154e-145
3.78787e-125
8.39608e-59
6.36886e-45
0
0
0
2.39803e-114
0
5.66438e-148
5.94693e-33
2.00326e-30
2.40442e-170
0
2.76015e-150
0
3.03148e-129
1.16232e-41
6.33505e-46
7.17406e-44
1.72459e-68
0
2.08358e-164
3.00994e-143
1.66033e-40
1.52989e-50
0.0747861
9.19614e-111
2.36875e-143
0
5.49786e-48
6.4638e-36
0
0
0.0841772
0.0774332
9.92152e-47
0.0348175
0.00180136
3.30757e-82
2.90461e-49
4.19818e-23
0
0
1.14733e-176
9.64946e-112
2.10454e-146
4.17802e-88
0.0268688
0
0.000104845
2.13685e-26
9.45683e-06
1.23188e-72
6.02183e-77
9.7969e-76
1.60033e-21
9.90427e-40
3.74065e-07
7.39362e-33
1.11523e-24
2.79447e-07
1.36414e-171
9.69187e-32
0.00035774
3.54621e-91
0
4.39365e-36
0
3.14469e-164
0.000180831
1.42151e-38
0
9.51436e-132
4.41051e-118
0
2.53758e-60
0
4.38711e-144
5.22397e-43
4.17452e-38
0
3.40219e-53
2.22222e-92
0.00080891
0
1.39634e-58
1.19524e-167
0
0.000869567
0
5.20031e-106
1.26165e-29
8.46472e-172
9.62423e-88
0
0
0
2.08866e-41
7.41352e-95
0
4.93894e-97
7.33725e-101
0
2.37028e-50
0
2.2037e-56
8.97983e-91
1.18329e-102
0
0
1.52773e-148
0
8.60703e-101
0
3.96507e-89
0
2.37001e-99
3.78e-92
2.4242e-64
0
0.0176733
0
0
0
1.77967e-143
0
0
0
0.00582585
9.05225e-55
0.0146749
3.98095e-132
6.13646e-34
3.7498e-45
0.00532472
0.0182341
1.62416e-34
3.11914e-37
8.11923e-77
0
0
1.46156e-74
5.18345e-149
1.81531e-114
0
3.54274e-06
0
0
4.4239e-94
1.26942e-56
0
0
0
0
0
8.46005e-35
0
5.87702e-128
0
1.72754e-59
5.78553e-51
2.17518e-82
0
7.4539e-14
0
4.78527e-15
3.35289e-187
1.12848e-172
1.51164e-56
4.5147e-12
1.9019e-13
1.72412e-13
0
0
6.77432e-40
2.92357e-51
1.93009e-49
7.35168e-13
0
0
4.50348e-139
0
1.53791e-50
6.40584e-30
2.13831e-37
2.63142e-74
5.18613e-28
1.54947e-29
0
2.12944e-31
1.15215e-12
0
0
4.22076e-142
2.62387e-19
2.13681e-14
1.53088e-46
0
1.20829e-17
3.29309e-38
3.11914e-45
7.68441e-41
7.06105e-18
4.75855e-13
0
0
7.42554e-16
0
4.21121e-51
2.8566e-155
1.5894e-84
1.74392e-72
1.8154e-147
5.71056e-131
0
0
4.83396e-110
3.12387e-07
7.22182e-146
0
7.05425e-18
1.9184e-139
5.44611e-47
1.34933e-19
5.0736e-18
0
6.51203e-19
1.47187e-25
1.03995e-15
3.22164e-74
0
1.37681e-16
1.08183e-25
3.07803e-19
2.76833e-20
0
0
5.32257e-34
2.24524e-63
1.75407e-40
2.09503e-166
2.95874e-78
1.92358e-25
0
3.03366e-51
2.90059e-156
3.39806e-95
0
4.45974e-26
0
0
0
0
0
2.92069e-25
6.07207e-24
4.40546e-39
0
3.90101e-16
2.56154e-46
3.38215e-50
5.37557e-175
0
2.88318e-14
0
7.26892e-45
6.6919e-102
1.48981e-60
0
6.94217e-89
0
0
0
1.47243e-97
1.16887e-134
7.90603e-48
1.41115e-190
1.14726e-78
8.21692e-125
0
1.53949e-152
7.42885e-169
0
4.94867e-37
5.06051e-51
1.1847e-155
6.75322e-134
0
5.37063e-124
1.88707e-48
5.45708e-39
8.27444e-136
0
2.7985e-100
2.95213e-132
2.3516e-75
9.15125e-51
3.11372e-40
9.94046e-129
4.55492e-72
3.18843e-105
1.73877e-137
8.96636e-124
0
0
0
1.55327e-139
1.92143e-173
0
0
0
1.74591e-27
6.58247e-162
2.45892e-83
2.46044e-123
9.93495e-48
1.31391e-120
1.52636e-47
5.98881e-63
3.05601e-18
2.52404e-138
3.09863e-140
2.96995e-142
0
3.68828e-44
0
0
0
0
0
0
3.0053e-124
0
0
4.85055e-135
1.08637e-83
4.84704e-49
3.03083e-132
0
1.41534e-119
0
1.51875e-90
2.09952e-102
4.40675e-104
2.02481e-71
6.8948e-135
0
1.6241e-58
5.36278e-38
3.19079e-149
2.06324e-119
0
1.01693e-87
1.001e-82
1.47847e-85
9.78565e-46
9.18283e-32
5.70179e-112
0
0
2.98109e-46
2.45444e-128
0
0
5.89968e-53
0
0
1.18739e-75
0
5.05428e-132
0
6.0014e-62
3.01473e-165
0
6.45901e-90
2.47889e-168
0
0
3.2682e-102
3.73013e-120
0.000178124
2.55197e-112
0
6.96295e-83
0
0
0
3.48647e-47
1.61377e-23
2.70922e-19
2.0576e-47
0
0
2.88262e-55
6.98579e-93
0
0
3.19434e-70
0.000328799
0
8.01232e-95
0
3.92209e-51
1.96813e-46
2.91011e-40
6.42453e-32
5.06724e-163
1.1574e-31
3.17205e-09
0
0
5.61829e-132
3.19876e-97
8.2814e-167
1.03062e-80
0
3.03012e-71
0
4.4269e-09
1.63961e-33
8.16838e-17
2.80903e-06
5.99379e-10
3.52272e-56
2.46554e-158
4.95789e-151
0
3.01076e-122
0
1.05115e-152
0
0
0.000256854
1.0413e-37
0
7.44096e-56
6.97419e-120
2.51732e-12
0
1.84032e-31
0
1.49896e-157
1.53234e-28
0
0
2.76282e-174
2.94941e-37
6.72989e-14
7.01335e-12
0
6.43103e-13
0
2.46051e-36
2.16007e-136
1.668e-21
0
0
4.14269e-47
0
0
0
2.13504e-35
0
1.601e-23
1.98235e-155
2.12717e-101
1.45732e-29
4.30052e-128
1.39373e-58
8.86498e-159
1.08289e-51
5.21436e-124
4.89133e-143
0
1.33434e-125
3.5981e-51
9.65495e-122
5.83321e-38
0
6.85886e-42
0
2.64369e-107
9.95421e-55
2.91989e-78
8.87899e-124
2.14488e-124
2.19819e-11
0
1.84693e-29
8.71581e-05
0
9.2157e-165
0
1.20078e-42
1.31426e-125
2.43016e-132
0
2.43717e-28
2.75455e-117
5.485e-93
0.00884911
1.58574e-46
0
1.13719e-57
0
6.55684e-143
1.69748e-142
1.08497e-100
0
0.0295359
3.16091e-162
0.0834159
1.51847e-92
2.5246e-44
3.70875e-161
0
7.38826e-38
1.58148e-163
0
2.78129e-84
1.56935e-122
0
1.75177e-08
0
4.90063e-21
0
7.08756e-36
0
4.70346e-62
3.01344e-92
8.53502e-119
0
4.27077e-15
5.06039e-53
0
2.01082e-35
6.76473e-18
0
1.7641e-42
1.20934e-32
1.37234e-121
6.0037e-23
0
2.76426e-80
9.43206e-134
2.08318e-13
0
0
2.58429e-36
3.08279e-28
5.04217e-31
1.10652e-06
1.87132e-50
5.79139e-14
8.20984e-39
0
1.92862e-111
0
1.17327e-08
6.09868e-70
1.06834e-51
1.08043e-20
0
4.77282e-62
1.25426e-17
6.27211e-164
5.30773e-151
8.07681e-09
4.37999e-48
0
2.47781e-69
2.19044e-154
0
2.90381e-110
0.00227217
2.5301e-16
0
0
1.22599e-10
1.28737e-48
1.54995e-33
1.20004e-27
1.3076e-05
0
6.72123e-111
0
1.7746e-61
3.91558e-115
3.16396e-117
1.89536e-39
2.47249e-32
1.00735e-82
6.37917e-10
0
1.05457e-63
1.06574e-37
2.85357e-50
1.60123e-156
1.09477e-103
6.21356e-08
2.58717e-64
0
9.2607e-56
0
2.1319e-156
2.02277e-46
2.5378e-34
1.61453e-15
0
0
2.2457e-37