/*--------------------------------*- C++ -*----------------------------------*\
| =========                 |                                                 |
| \\      /  F ield         | OpenFOAM: The Open Source CFD Toolbox           |
|  \\    /   O peration     | Version:  v2012                                 |
|   \\  /    A nd           | Website:  www.openfoam.com                      |
|    \\/     M anipulation  |                                                 |
\*---------------------------------------------------------------------------*/
FoamFile
{
    version     2.0;
    format      ascii;
    class       volScalarField;
    location    "2";
    object      G;
}
// * * * * * * * * * * * * * * * * * * * * * * * * * * * * * * * * * * * * * //

dimensions      [1 0 -3 0 0 0 0];


internalField   nonuniform List<scalar> 
108993
(
1837.26
1838.01
1837.22
1837.22
1837.23
1837.21
1837.56
1837.23
1837.22
1846.23
1837.25
1837.25
1837.22
1838.69
1837.27
1840.34
1849.48
1837.88
1837.22
1839.42
1837.3
1837.22
1854.92
1837.32
1837.22
1837.21
1837.21
1838.4
1839.37
1837.22
1837.21
1837.96
1837.21
1837.37
1837.22
1837.25
1837.21
1837.3
13335.5
5222.95
1837.4
1837.26
1838.34
1837.22
1910.28
2142.5
1837.21
1839
1837.51
1839.93
1837.22
3818.56
1837.79
1837.22
1838.58
1837.3
1837.22
1837.22
1837.23
1837.22
1837.22
1837.22
1837.22
1837.21
1837.22
1837.23
1837.22
1837.22
1838.19
1997.8
1837.32
1837.22
1837.26
1837.22
1837.43
1837.22
1837.21
1842.32
1837.22
1837.22
1837.22
1839.18
1837.23
1837.26
1837.8
1838.72
1837.28
1837.27
1837.22
1837.22
1837.22
1837.22
1837.22
1837.23
1837.22
1839.72
1837.22
1837.26
1837.22
1837.22
1837.22
1837.22
1837.28
1837.39
1837.26
1837.22
1837.22
1837.22
1837.22
8669.47
1968.41
1837.22
3619.7
8345.56
1837.25
4159.5
1837.23
1837.26
1879.67
1837.22
1840.56
1837.21
1877.48
1837.3
1837.29
1874.16
1837.35
1837.25
1837.21
1837.21
1838.24
1837.21
1837.23
10960.7
1837.26
1837.24
1837.22
1837.24
1837.22
1838.35
1837.31
1837.22
1840.34
1837.22
1837.22
1837.27
1837.25
6002.11
1837.31
8695.71
9532.71
1837.21
1837.25
10483.8
1837.23
2664.6
1837.27
1837.21
1837.22
1921.88
11096.4
1837.21
1837.22
1837.33
1837.52
4540.25
1837.22
1837.21
1837.21
1837.26
1837.23
1837.3
1974.63
1837.31
1839.45
1837.22
1838.59
1837.21
1837.24
1837.24
1852.43
1837.22
1837.22
1837.3
1837.91
1837.31
1837.22
1837.44
1837.38
1837.3
1837.25
1837.22
1837.25
1837.96
1837.24
1837.23
1837.43
1837.29
1837.26
1837.31
1837.22
1929.64
1837.33
1837.21
1986.28
4033.74
1837.22
2566.76
1837.23
17457.4
2678.91
1837.29
1838.52
1840.48
9169.14
1837.27
1837.28
1837.22
1837.22
1837.21
1837.34
8226.14
1837.27
1837.99
1837.21
1837.21
1837.22
1837.22
7585.75
1837.21
2930.53
1837.33
1837.21
1837.55
1837.23
1837.21
1837.22
1837.21
2303.67
1837.21
1837.21
1837.22
1837.22
1837.21
1837.21
1839.56
1845.42
1910.59
1837.21
1837.22
1837.22
1837.22
1837.22
1837.25
1837.22
1837.21
1837.21
1837.27
1837.21
1837.21
1837.22
1837.46
1873.02
1888.8
1837.22
1837.21
1837.22
1837.74
1837.21
1837.22
1837.22
1837.22
1849.54
19916.3
4315.95
1837.24
1837.22
1849.09
1837.26
1837.35
1837.36
3087.07
2988.82
1837.21
1837.21
1854.16
1837.22
1837.55
1837.26
7989.35
1840.93
1837.22
1837.73
1837.22
1837.21
1837.22
1837.22
1837.22
1869.51
1837.22
2059.43
6510.95
1837.25
1837.22
1837.22
1839.65
1837.43
1837.28
1839.46
1842.36
1837.22
1837.22
1851.76
1837.25
1839.38
4033.53
1837.21
1852.38
11079.5
1837.22
1839.18
1837.21
1837.75
1837.82
1837.28
13453.1
28605.7
4023.87
1837.22
1837.23
1837.24
2165.41
14777.1
1837.22
5496.35
1837.28
1837.26
1837.22
1837.23
1837.21
1837.23
2221.61
1838.6
1837.23
1837.25
1837.34
1837.22
1837.22
1837.23
1837.22
1837.23
1837.21
2999.56
1933.68
1837.3
1837.23
1837.23
5175.75
1837.27
1837.21
1839.42
1838.47
1837.22
1837.22
1837.46
1838.55
1837.22
1837.22
1837.26
57058.5
1837.25
1846.22
1837.22
18014.1
1838.76
7784.69
1837.4
1837.23
5677.02
1837.26
5389.82
5752.52
1838.46
1846.87
1837.33
1849.01
1851.84
11859.8
1837.22
2992.57
6244.27
1852.18
6128.24
1840.14
1873.99
1838.05
37095.7
1837.23
1920.97
1837.22
1838.08
1845.91
1861.51
1837.24
1837.37
1855
1852.85
1837.28
1837.22
22432.9
1838.22
1838.79
28828.3
1837.3
1837.37
1837.22
14377.5
1984.54
1914.44
1837.22
24226.7
1839.29
21762.1
1837.21
1837.22
15808.4
1837.3
2166.11
17854
1837.22
34975.4
7365.77
30065.8
1837.21
1837.27
1851.21
1837.56
1837.25
1837.21
1837.22
1837.36
1837.22
1837.22
1837.79
2939.84
1838.6
1838.72
1958.1
1837.22
1837.76
1839.1
1837.22
1837.22
1838.24
1837.21
1837.27
1837.39
1837.69
1837.26
1837.24
1857.25
1837.23
1857.44
5279.67
1864.45
1837.22
1837.27
1860.76
1837.22
1837.22
1943.74
1837.23
1837.21
1837.38
1837.36
1867.87
1837.22
2564.76
2346.61
1918.77
1837.24
1837.21
1837.22
1837.22
1837.25
1837.27
1837.22
1837.22
1885.67
1837.25
1837.46
1837.23
1939.07
1837.23
2013.32
1837.22
1837.3
1837.25
1837.22
1837.79
1837.21
1837.21
1837.22
1837.22
1902.28
3982.18
1837.22
1837.22
8010.58
1837.22
1846.84
1837.69
1837.22
1843.91
1837.22
1837.21
1837.21
1837.22
1837.64
1837.71
1840.25
1840.44
1838.48
1838.58
1837.79
1861.98
1870.97
1837.24
1856.05
1838.3
1838.83
1837.25
1860.91
1840.1
1837.28
1837.26
2498.1
1837.34
1847.49
1890.3
1837.22
2693.15
1837.22
1837.22
1837.26
1837.22
1837.22
1853.98
1837.25
1837.23
1995.71
1838.96
5369.74
1837.25
1837.41
1837.22
1837.22
1839.18
23473.8
1837.94
1838.08
1837.22
1837.28
1836.95
2384.95
2015.56
1837.27
1837.22
1837.68
1837.57
1837.33
1837.27
81690.1
2424.29
2053.96
1841.7
1837.25
2406.05
20867.4
1838.6
1838.84
1837.3
1837.22
1837.22
1837.28
2024.78
2193.67
2593.54
1839.13
1837.21
1837.78
1837.33
1837.69
1837.22
16599.4
1837.22
1837.22
1837.34
1837.44
1853.54
1837.22
1837.27
25092.8
1872.87
1838.76
1837.34
24259
1837.34
1849.03
1837.33
16775.5
1837.31
1839.51
1837.33
1837.56
1837.24
1843.65
1837.34
3038.62
1837.22
9312.34
1837.22
1837.26
6975.05
1838.11
1837.22
1837.22
1931.33
2898.12
1858.59
5060.25
1837.43
2046.81
4746.8
1843.7
1837.21
1837.34
19352.3
1951.39
2572.3
1841.06
2919.21
1837.25
1837.69
1837.22
1845.53
1840.52
2268.7
1855.67
1860.16
1857.47
2043.44
2174.95
2073.79
1965.09
1837.71
1968.4
2120.68
1948.14
2120.89
2109.52
1837.22
1849.83
1837.22
1837.21
1841.12
2103.99
1868.38
1994.2
1964.62
1878.95
1866.96
4608.8
2138.52
2076.69
1837.22
1837.66
1956.46
1837.23
7639.74
1837.82
3043.97
1905.1
1857.3
7966.55
1880.07
2818.83
1946.52
1925.91
48193
1837.21
1837.23
2017.53
1844.21
1837.73
80314.4
1856.51
2646.15
1851.25
16122.3
3728.9
1837.22
1837.21
1837.21
1856.56
1837.22
1882.86
1837.21
1837.23
1837.21
1854.33
2420.25
4427.04
1837.22
23233.8
1837.22
2234.97
1901.8
1837.22
2555.67
1837.66
1840.29
3141.47
1844.25
1838.41
1866.38
1901.55
2121.57
2075.8
1837.24
2091.85
1840.3
1842.59
1849.21
1838.5
1837.22
2015.48
1837.21
1837.22
1837.59
1837.27
1856.65
3126.81
3837.71
1840.12
1851.18
1839.85
1849.07
1840.91
1861.77
1837.27
1837.21
1837.21
1838.06
1837.21
1835.84
1837.21
1837.38
1872.54
1837.29
1837.9
1837.21
1838.08
1837.37
1838.13
1837.58
1837.64
1889.5
1837.22
1837.22
1837.34
2860.46
1837.24
1973.62
2682.86
1840.39
1837.49
32113.3
1917.46
1846.27
1837.22
2028.34
1837.52
1837.71
1845.28
1841.36
1837.06
1837.24
1837.23
1838
1837.23
9337.47
1837.24
1837.26
3243.61
1881.61
3666.13
1894.45
7531.96
1837.22
1838.25
1879.86
1837.22
1837.31
1870.92
1837.22
1837.28
1838.61
1837.22
1837.22
1837.31
1837.54
1837.23
1838.64
1837.26
5347.22
1838.34
1837.36
53689.3
1838.29
35103
1856.89
1839.37
1847.88
41568.7
1838.13
1838.79
1838.12
3234.43
1837.8
1935.44
2113.39
1841.77
1837.26
1893.7
1838.5
1837.23
1837.8
2727.12
1837.22
1837.25
1838.45
1838.27
1837.35
1839.44
1862.69
1837.87
1837.4
26923.2
1837.28
31540.8
1837.26
25020.6
1837.3
1837.58
1950.22
1932.71
4883.65
1837.72
1949.16
1957.99
2106.53
1848.5
2697.8
1837.28
1837.27
1837.4
1958.75
1868.06
1917.7
1837.22
1837.22
1964.72
2792.09
1837.3
1871.21
2014.72
1838.8
1837.7
3079.68
2610.74
2664.23
1929.05
3314.72
1846.24
17403.1
1837.22
19158.8
6779.88
28830.1
1837.21
1837.21
1840.49
1855.78
3386.07
1837.53
1837.25
1986.51
2833.58
1837.22
3207.64
1838.94
1837.58
17162.6
1837.23
1837.32
22788.5
45386.8
1837.48
1837.65
1837.24
1837.6
1882.67
4811.89
18709.5
1837.26
19645.7
1842.19
1879.97
1837.84
1838.97
1872.98
1928.73
1838.6
1837.22
1845.62
1837.22
5638.68
1837.72
1837.21
2002.14
1837.21
1911.58
1932.04
1870.36
1865.41
1837.22
5348.31
1837.3
3347.13
1838.28
1837.22
1837.21
3823.51
5284.96
1837.21
1845.76
16616.2
2886.06
2301.92
1837.23
1866.73
2144.15
5960.74
1837.96
1845.08
3595.26
1865.35
1846.11
1869.89
1837.25
4690.41
4266.12
3990.33
1889.32
1913.81
1855.78
1851.14
1839.14
1839.28
1920.45
4521.08
1845.78
1837.22
1838.45
1983.84
1837.22
1837.32
1837.22
1995.81
1837.24
1837.22
1837.24
1838.51
1837.26
1837.25
1837.68
7824.02
1837.25
1837.32
1854.7
1837.22
5596.01
1837.33
1837.22
1838.73
1837.23
1838.65
3787.69
1841.84
1838.02
1837.25
1837.22
4801.66
1837.56
3668.45
1839.68
1837.25
1983.2
1837.38
1837.81
1969.37
1971.94
1837.21
1837.24
1837.25
1837.33
1840.96
1853.25
1838.66
1837.21
1837.23
1837.22
1902.61
1837.23
1859.2
1837.21
1837.23
1886.15
2316.27
1943.78
1919.58
1837.23
1837.25
1844.56
2426.34
1837.26
1837.22
1837.21
30733.1
1839.99
1831.95
1837.27
1841.44
1837.68
1837.21
3084.62
2826.99
1843.91
1869.88
5977
1867.8
1955.3
1837.54
2773.32
1837.6
1837.31
1837.32
2218.37
1846.27
36420.8
1851.03
1861.92
1839.39
1837.32
1870.11
1837.3
1843.5
2716.25
1838.74
1843.25
3666.88
2163.42
1870.36
1837.22
1837.21
1837.21
1837.22
1837.21
1837.23
1837.34
11018.8
1838.44
3014.08
1838.34
1837.27
1837.23
1856.38
10145.3
1837.21
1838.27
1837.23
1849.23
1837.21
1859.83
13045.3
1958.63
1837.3
1957.65
1837.34
1837.22
1837.22
1837.21
1837.21
1837.37
160939
2012.12
1837.22
1837.22
1837.21
1839.74
1840.84
1837.21
1837.24
1837.22
1837.23
1837.22
1837.26
1837.26
1837.33
1837.23
1837.38
1837.22
1837.31
1837.24
1837.25
2198.1
7055.3
5756.71
10597.7
1837.25
1837.25
1839.72
1837.22
1840.97
1837.25
1837.81
1837.22
1837.26
4788.44
1840.84
1863.66
1837.79
1837.87
1837.25
1839.24
29368.4
19589.8
1837.29
1837.23
1837.22
1835.13
1837.4
1837.24
2638.28
1837.22
1837.21
1837.21
1837.22
1837.21
1985.33
1837.84
1837.92
2598.46
1838.14
1837.46
1837.53
5791.44
1840.27
1837.87
1837.21
1837.3
8308.37
1837.23
1929.07
1860.25
1863.1
1853.46
51525.4
1852.4
1837.22
1873.37
1837.22
1878.54
1860
1852.65
1837.22
1837.21
1837.37
1837.21
1838.64
1837.24
3625.35
10888.9
1845.68
1837.22
1837.22
1847.55
1837.91
1837.22
1837.93
1837.22
1837.79
58507.2
1988.3
1951.6
1837.26
1868.66
1837.24
1885.93
2006.59
1844.2
1837.3
1898.96
1841.12
2020.52
1861.67
2139.61
6971.42
1837.22
1837.23
1858.04
1837.22
1837.23
36541.2
1837.3
1837.23
1837.23
4813.29
1837.24
1837.22
1838.03
1837.22
2107.22
2810.77
1837.22
1932.16
1837.44
1997.37
1837.32
1837.78
1837.22
1859.69
1837.22
2750.04
1870.49
1837.32
3123.43
1837.31
1837.43
1837.22
1954.3
16487.1
1837.67
1848.68
2221.26
24941.8
1991.89
1838.93
1837.23
1961.97
1837.22
1900.89
1930.5
1900.45
2119.33
1904.07
1837.22
1933.09
1939.96
1845.37
1847.87
1837.23
2102.97
1837.22
1837.22
1837.24
1850.22
1837.21
1837.23
1837.23
2021.83
1837.22
1837.22
1840.21
1837.29
1840.21
1840.41
1837.22
3521.31
8071.54
1840.19
8907.61
1838.4
1837.93
1838.44
1837.96
1890.22
1837.26
1837.75
5683.97
1840.1
1837.25
1837.26
1837.57
1837.29
11255.1
1837.26
1878.56
1837.25
1857.27
2716.75
1839.39
1837.22
1838.88
1837.26
1839.03
1837.22
1837.21
1839.26
1838.93
1867.55
1839.01
4577.79
1838.02
2456.32
2024.64
1837.22
1850.66
1837.21
1839.07
1838.98
1840.68
1838.37
2459.49
1858.51
2108.85
1837.42
9040.92
2075.04
1837.24
1837.28
1837.24
1837.74
1839.55
1836.47
8769.86
1837.22
1837.22
1837.37
1847.26
1838.94
1837.22
1837.3
2423.47
2813.47
1845.21
1837.21
2476.59
1838.75
1837.58
1849.49
1837.3
2357.23
1837.32
1837.83
1837.36
1846.63
3985.16
1846.8
1847.63
2706.27
3036.85
1837.58
1928.91
8443.13
1837.55
1837.23
1840.67
3140.49
1876.2
1837.23
1840.02
3345.32
1973.84
1928.42
1839.07
1840.45
3729.58
1842.4
1837.23
2231.58
1842.39
1837.22
1842.83
1837.41
6758.34
1837.22
1837.32
9351.61
1843.1
8291.79
1842.84
8815.03
1842.47
1864.61
3132.11
1838.94
1865.15
2908.08
1851.76
1839.04
4825.47
1837.21
1837.23
1837.31
9783.69
2455.38
1837.22
1870.91
1837.22
2028.12
7959.6
8830.16
1848.63
2514.73
1837.22
95993.2
1837.22
1837.22
1837.61
1837.22
1837.21
1837.22
1837.22
1837.66
1854.41
11742.5
1933.2
1842.08
1837.8
1837.21
1837.23
1837.71
1837.84
1837.27
8954.98
2072.29
1837.21
1837.22
1837.21
4800.22
1837.26
1837.22
2956.46
1837.22
1837.22
1837.22
1837.44
2105.16
4869.88
1893.09
15031.1
1837.22
1837.29
11406.7
1837.23
1837.22
1837.33
2174.87
5339.01
2080.28
8135.38
1837.22
1837.22
24274.5
1837.22
1837.38
1837.31
1837.22
1837.27
1837.22
1837.33
1837.23
1837.32
31977.8
2332.61
1837.33
2017.58
2034.45
1837.22
5257.4
1837.22
1837.26
1837.22
1837.24
1837.21
1837.22
1836.06
1837.22
1897.13
3995.83
4893.52
1926.62
1837.5
1837.23
4008.72
10743.3
1837.22
1880.91
1837.22
1837.23
2005.52
2124.24
4628.47
1868.67
1837.22
5744.52
6262.41
4205.57
1837.21
1844.92
1988.41
1966.34
2172.7
1880.9
3267.02
1957.22
1840.06
1944.27
1856.19
1974.98
2041.37
3176.01
2104.41
1831.15
2785.77
8837.11
4358.48
1837.21
1837.22
5734.49
1837.22
1837.42
6012.08
1837.21
64207.3
2044.04
1837.22
1837.26
1837.22
1837.22
2073
1979.1
6786.44
1844.26
3361.55
1837.22
12521.2
2132.87
1883.62
1837.24
1835.74
1837.24
1837.22
1837.75
1837.22
2140.06
1837.22
1837.22
1863.52
8646.37
2085.51
1855.46
3705.99
1940.2
1838.09
1844.94
1837.22
1837.24
1838.38
1837.22
1837.22
1837.43
1841.01
6065.1
3886.69
10744.7
3721.91
1839.22
1837.24
3059.47
3454.38
1835.75
9559.78
1837.38
1839.28
1837.23
6289.28
1850.47
1927.44
1837.25
1837.21
1837.24
1837.22
7925.36
1837.22
3130.18
1837.22
15206.1
5164.38
1837.22
1837.45
3219.66
5883.14
2309.81
3135.24
1837.21
8511.98
6578.66
1837.22
1872.56
1931.11
1901.74
3080.68
1837.22
3119
16687.9
2070.17
2990.41
11781.8
1853.52
3162.78
1837.22
7437.38
183288
1909.75
19980.2
1849.11
1838.07
1957.32
1838.17
20401.7
1913.42
1868.11
1838.39
1837.73
1864.39
1839.33
1838.02
1838.24
1837.35
1837.21
1837.24
1837.86
1837.24
6669.1
12293.9
1872.07
64177.9
1837.37
1837.22
1905.3
7279.62
8694.38
1876.08
2011.93
2723.01
16159.6
17609.4
10343.5
1837.33
9039.02
1837.41
1837.23
1837.34
16690.9
1837.63
3694.49
1847.17
7549.41
9266.61
3019.96
1837.38
2304.55
1837.41
1837.88
1837.21
1837.28
1837.22
1837.41
1869.5
10476.9
37027.2
6354.75
1873
24602.6
2000.21
6583.63
1838.62
5380.4
8512.93
79988.8
1837.96
1837.22
1837.22
1837.21
1837.22
1837.4
1837.21
1902.77
2290.21
11177.5
2292.16
2211.74
13136.9
3071.69
5101.05
8170.44
1837.25
45569.5
2034.92
1837.27
1837.25
9890.49
3504.76
1837.21
1840.1
1837.86
1928.09
1837.24
81670.7
72313.3
57012
10844.4
1837.21
90474.1
5937.8
1837.21
2027.42
1837.22
1846.03
20109.1
1859.03
1846.29
32522.5
1908.97
1837.26
1846.89
1837.24
1837.21
1837.24
1875.36
1837.27
1839.69
4879.78
3104.69
2326.33
2017.91
1836.42
1838.07
1837.22
1837.24
1837.23
3252.81
6607.42
1837.27
1837.22
2101.85
1837.25
1837.22
1837.27
1837.28
10492.6
7747.52
3807.1
3193.91
5064.5
1837.22
2393.47
1837.28
1838.58
3138.73
1837.22
1965.81
1837.22
1837.22
6712.43
1837.22
1837.38
5921.81
2058.75
5637.94
7398.4
1837.21
1887.07
1902.41
2135.98
1866.98
1838.94
2585.62
5428.41
1865.24
10364
1837.32
1840.15
1877.62
11308.8
1884.92
5625.73
2059.96
7295.95
1837.22
1837.22
84111
4190.76
1895.24
3428.32
1846.75
9545.23
4126.58
1837.22
1997.6
1837.36
5602.89
1837.22
2475.67
4333.93
1837.22
7206.19
1837.22
4373.73
5932.69
1837.24
1837.22
2168.06
1837.22
1837.22
1837.21
1837.21
1988.94
1837.41
5959.44
2729.8
1837.21
1837.22
3974.6
1862.56
1838.43
1864.75
1838.5
1838.47
1837.23
1837.26
2207.39
2221.61
5311.84
1837.24
1837.22
2641.02
1837.22
2141.69
21918.8
1837.21
1837.21
1838.28
1839.34
2387.1
1837.22
1837.23
1837.22
1837.21
1837.21
9803.38
65211
1846.58
1837.41
48683
1839.4
3410.09
1837.22
1912.54
1837.22
2497.99
2158.74
1839.16
1837.28
1837.36
3483.95
3550.87
1837.22
1843.83
1845.35
1837.22
1851.35
1843.91
1837.22
1860.22
1837.22
4231.12
1837.22
1837.22
1837.27
1837.25
1837.21
2427.38
3182.43
1837.22
1837.22
4940.19
1837.21
1862.1
1838.11
1837.21
3424.98
3954.51
1842.69
1837.84
1837.28
1850.41
4200.76
1837.22
11152.9
1837.22
10437
2980.16
1837.23
17757.6
3800.18
7525.05
4019.94
4090.83
1837.27
1837.22
1837.22
2172.42
1840.48
1837.09
3427.92
1837.22
1922.55
1837.22
2009.32
4111.16
2561.9
1837.22
3331.85
2029.48
1837.21
2665.87
1837.23
1837.22
1837.21
7683.57
2095.02
1892
1837.21
1837.23
1837.22
3657.73
1837.47
5459.01
1837.21
1837.21
2747.93
4324.07
1837.28
1837.22
2021.3
1837.22
1837.26
1837.65
10296
4447.65
3053.32
1837.28
2317.74
6593.17
1850.18
10496.9
1908.48
180683
1839.24
2063.33
7618.45
6637.4
207875
167273
112487
216441
1837.27
129993
5483.26
10546.9
1837.28
18203.4
147435
1837.22
2072.87
207911
1837.22
14867.3
1837.27
5182.04
2256.63
4951.45
1907.48
3333.24
1837.22
1837.27
1837.31
1837.26
10905.4
1837.21
2187.1
3643.37
1837.56
1837.59
1837.55
1837.23
1837.27
1837.25
1838.04
1837.26
10505.8
1837.22
14210.8
1837.6
2039.07
1839.05
1875.6
1887.56
1837.55
1837.56
1837.22
1837.3
1852.27
13390.5
11894.7
12184.6
1943.6
1841
1838.5
1837.23
1846
1863.44
1842.42
1837.34
4746.19
2451.52
9688.79
1839.05
1840.28
1839.39
4297.23
1839.07
1837.53
1851.67
1850.16
1926.78
12055.8
2259.01
17909.3
1838.45
1852.51
10280.2
13468.3
1837.21
1943.38
2081.57
1839.01
2364.01
1878.63
1838.82
1888.79
1838.24
1839.22
1837.4
1853.03
6359.74
1837.22
1897.38
1839.64
1891.81
1837.22
1837.23
1911.69
1926.62
5359.09
1844.4
1837.24
1837.21
2137.17
22465.7
1837.38
1918.58
25806.4
1840.69
1859.11
1838.1
1944.77
23128.6
1840.44
1902.36
2015.9
1837.34
27996.2
1856.97
1837.7
1839.98
1837.69
1837.22
1837.73
1837.29
1837.22
1837.95
1839.06
1839.47
1837.74
1966.99
1838
1868.08
2034.11
1837.22
1837.86
2042.12
2003.61
1837.22
1982.08
1837.44
1837.33
3086.53
1839.24
1837.27
2646
1898.32
1837.22
1837.22
1837.22
1840.3
1837.27
1852.29
2113.52
10605.1
6783.99
7374.39
1857.4
1842.96
1972.83
1839.33
9409.65
1941.32
1842.74
4754.4
1945.3
6808.85
1838.51
1932.04
1837.42
1967.31
1854.99
1926.63
1855.73
1839.62
1920.16
1890.95
1837.41
2144.34
1837.26
1962.18
1981.25
1922.1
1890.44
1948.18
1846.87
1912.47
1851.26
1919.08
1837.81
1837.22
3873.22
1867.78
1839.2
1837.43
1839.98
1962.1
1838.69
1866.96
1842.66
1837.22
1837.22
1841.14
1869.94
1988.95
1837.22
1859.11
1837.31
1837.23
2051.95
1837.22
3037.77
1837.64
1838.25
1837.38
1837.22
2003.57
1837.22
1837.22
1837.22
1863.98
1840.08
1837.23
5099.62
1839.74
1893.29
38700.7
1837.21
1841.45
1845.67
1837.22
1837.22
1838.09
1837.21
1837.22
2047.1
1981.3
1871.71
1837.27
1838.59
1837.21
1881.23
3746.77
1837.21
1837.22
2149.93
1837.21
1837.22
2216.07
1837.22
1911.01
1932.24
1837.25
1837.21
1837.71
4373.8
2203.24
1837.32
1837.22
1837.21
1837.29
2595.74
1839.06
1837.22
1837.22
1844.41
2810.6
1837.22
1837.22
1837.22
2756.75
2446.62
1931.59
2847.15
2021.05
1840.08
1838.38
1858.31
1839.25
1853.23
17062.1
2447.57
1837.27
1898.23
2858.54
1837.26
1837.25
2647.58
5398.46
2598.76
1837.27
1877.5
1837.25
1836.59
3395.03
1837.26
3345.38
1851.07
1837.38
2920.96
1845.46
1837.81
2801.46
2961.35
1839.24
1910.21
2912.68
1842.81
1883.49
3346.69
1863.45
1840.99
1839.34
1871.28
11996.9
1860.71
3156.03
1837.21
1837.35
2350.13
1840.59
2203.21
1839.02
1838.5
1837.25
1838.08
1841.8
1837.78
1840.83
1839.74
1837.23
1873.42
1837.57
1840.93
11584.5
1837.53
1837.54
1849.54
11722.4
1838.1
2599.26
4644.53
1837.21
1838.15
1880.41
4286.17
1837.29
1845.02
1837.22
1837.22
1843.51
1837.22
7087.72
1913.73
1912.32
11500.5
5780.23
1837.95
1847.21
1924.75
1837.42
1837.33
1838.34
1917.49
1842.26
2053.08
1837.26
7397.02
10885.8
1929.47
1852.38
22388.5
3699.65
1838.86
1911.42
12006.2
2520.77
1964.24
1857.33
1965.09
1907.99
2005.03
16615.4
2088.63
1848.48
1867.92
2056.12
2559.67
1837.45
2042.34
2094.14
1881.3
1999.53
2363.32
3230.55
2978.13
1837.24
4246.58
1841.02
1837.63
4864.11
1837.31
3933.5
1837.22
19465.7
21676.4
9418.76
1837.24
1837.29
1837.25
5082.37
1854.14
16795.4
1837.35
5193.22
3923.41
4166.58
1837.22
84164.1
1990.39
2498.16
10160.4
5319.92
1837.27
1908.96
1838.91
1883.72
1837.31
1842.96
1837.22
1838.3
1843.88
1837.22
1837.33
12178.9
1837.31
1851
1837.45
6946.19
4188.59
1862.45
2423.01
1837.22
1839.76
1872.27
1841.16
1837.28
1837.78
1838.47
1837.22
1862.6
1841.2
7958.95
1837.22
1837.98
2325.02
3755.18
1837.21
3704.1
1849.84
1837.21
1837.51
12224.2
1837.22
1843.57
1837.21
1837.46
1837.28
1867.29
1837.21
1837.41
1837.29
1837.23
2537.92
20302.9
1837.21
1840.37
1837.21
4261.47
2553.2
1837.23
1837.21
5152.93
1839.79
1920.34
1837.23
3277.93
1887.81
1837.22
1837.22
2453.57
3653.46
1837.35
2219.49
1837.23
1837.49
1891.87
4349.44
1837.23
1837.83
1880.45
1838.06
1837.23
2086.06
1888.86
3677.86
4294.34
1838.57
1838.95
1915.58
2005.93
1837.23
1837.3
1837.22
1837.22
1837.22
1837.22
1837.22
7502.77
1910.2
1837.31
1851.65
5487.69
9145.49
1837.21
2365.43
2325.07
1837.59
2630.26
43608.5
1837.43
7811.52
3108.75
1837.78
1838.93
1840.54
7042.23
2662.21
1876.05
1880.04
1838.25
1837.3
1915.62
1916.56
1928.46
3192.26
1842.23
1837.26
1837.35
4399.07
1889.44
1839.93
1837.31
4159.9
14227
1837.22
1838.93
1837.32
1839.81
2054.68
10437
1835.42
4498.1
1871.69
2132.54
1837.22
1837.49
2315.33
1837.22
1837.22
1837.21
1837.22
1837.58
1843.52
1837.27
1861.78
1854.7
1836.95
1837.64
1837.21
7785.13
1838.99
1837.21
3602.06
1837.21
1837.21
1837.22
5629.76
1843.48
2146.36
1837.28
1837.31
1837.22
1838.25
1859.31
1837.35
167261
1837.34
1837.21
1848.16
2701.15
2770.98
1840.59
1837.21
194817
196273
2280.93
127727
7698.67
1837.5
3379.93
1956.45
1837.27
1837.68
1837.26
1839.54
1837.31
1838.5
40126.1
4993.79
8324
1877.1
6239.71
1837.26
1908.4
1952.35
6241.52
1836.02
3184.2
1837.24
13537.6
14985.2
1837.21
2134.88
6840.62
1845.63
1837.26
3200.08
1840.5
1837.21
8399.86
2053.38
1837.25
1837.49
1837.59
1838.39
1837.23
1837.21
1837.28
1957.43
2270.7
1837.24
1838.43
1849
6146.41
3370.21
1837.25
1837.21
1837.26
12645.2
1837.24
1838.07
2797.83
1837.21
1837.97
1837.21
1837.23
9799.06
1851.25
1837.22
1837.23
1837.22
1837.37
1838.29
1838.09
1837.21
1882.43
1836.38
1837.22
4365.77
1837.21
1837.32
1837.21
1839.66
1840.48
1837.24
1844.14
1837.22
1837.22
2776.09
1837.31
47526.3
1844.1
1837.22
1837.22
1837.29
1837.28
1844.25
3172.78
42523.7
2788.36
49463.7
2270.12
1989.25
1983.66
39715.6
50896
1967.69
1850.42
1837.22
1844.53
1837.22
1837.22
1837.21
1837.24
2019.67
15198.9
1837.22
1955.36
1837.53
1837.73
1845.14
1837.22
1892.55
1837.29
1879.31
2953.91
1899.93
1837.81
1837.22
1837.67
1849.92
1837.26
1859.8
17523.6
1845.43
16663.2
1837.26
1837.26
2034.99
13802.8
16487
16638.7
12343.1
6923.74
1968.25
2655.46
1845.07
15424.4
1837.39
1839.05
1837.22
1837.29
2010.08
5719.31
3317.76
2007.82
5548.36
5188.84
1841.82
5717.48
12827.8
1837.29
1837.23
1837.22
7024.95
2620.4
1996.39
1837.22
6831.79
9175.68
8038.32
2350.63
2546.47
4626.58
2169.44
1837.29
1999.71
2158.88
2282.26
1837.31
1837.97
4452.72
1837.21
1837.22
2181.02
1837.26
1837.22
21451.1
1838.36
2169.96
13893.7
1839.3
1837.6
2349.48
2303.36
1866.1
2352.28
3555.93
2385.48
1860.91
1837.25
2370.82
1869.53
2075.29
2088.09
1859.06
2918.81
1860.72
3397.03
2423.97
1837.22
1836.58
1904.34
1837.33
2597.29
1837.32
1837.22
1837.23
1916.11
1837.6
1872.08
1837.3
1837.23
3600.33
1888.24
1888.54
1894.74
1837.22
11113.5
2471.67
2223
1837.22
2036.98
7186.66
5492.78
2333.98
1840.1
2154.88
1837.28
1837.25
1837.3
1837.22
1837.29
1839.46
1837.21
2263.38
1837.45
1927.06
1837.22
1837.22
1837.21
1837.26
1837.23
3191.04
2212.13
1837.21
1837.21
6771.31
1838.48
2513.94
1872.44
1837.21
4727.2
1842.6
1837.21
1837.22
2379.27
1838.21
1837.22
1964.86
1843.91
1837.55
1837.22
1972.31
1837.28
1837.23
1837.23
1837.23
1837.22
1837.61
1843.34
1844.28
1837.22
1838.3
1837.22
1992.55
1837.22
1837.48
1840.51
7498.46
1837.72
1837.8
1837.64
1838.11
4233.16
1844.23
1837.22
1837.27
1837.22
1837.22
6586.02
1837.22
1837.22
1837.32
1837.77
1837.28
2272.9
1837.27
1837.27
1839.32
1857
1837.22
1841.52
1837.22
1838.81
1837.27
1837.23
1837.22
1961.41
1837.27
1837.41
1837.22
1837.31
1837.22
1837.37
4225.78
1877.89
1847.83
1837.34
1837.25
2846.73
1837.3
1837.89
2371.45
1876.12
4151.35
1837.27
1837.22
1837.22
1838.84
8162.41
1837.28
1837.23
8031.43
1837.39
1837.22
1837.21
1837.22
1837.44
1837.89
34633.7
1839.65
1837.23
1837.22
8392.17
9622.97
9542.72
2294.96
5605.9
7518.74
1841.13
1837.23
1838.6
9400.05
1837.22
1838.3
1837.22
1839.74
22053.8
1837.21
1837.22
1837.31
3435.62
1862.22
4800.33
2067.85
1837.45
3864.67
3033.98
1837.41
1870.11
1837.69
1837.22
1837.47
1841.16
1838.62
1837.56
1837.41
9014.69
5737.89
11746.7
15390.5
2383.83
1905.41
1837.43
1837.42
1838.14
1964.46
1837.43
1837.41
1837.44
1838.19
29265.8
1838.12
1847.96
2994.96
1837.22
2111.15
1906.5
1881.67
1838.59
1837.42
1851.36
1837.22
1837.41
1837.21
2350.85
2549.63
2401.42
1837.36
2187.62
1837.22
1837.65
1837.21
1850.6
1837.26
10116.1
2088.52
1837.22
1837.22
3697.99
2448.21
1837.22
8613.55
1837.39
1837.22
7071.87
1837.22
1837.78
1837.4
1983.26
1838.86
1837.26
1838.92
1837.22
1895.82
1838.24
2887.84
1837.23
1838.08
1838.91
1839.67
2047.14
1837.22
1838.23
1837.21
16296.9
1843.89
4545.03
17449.2
2023.46
1837.21
8651.26
2102.33
1838.31
1837.7
11470
2906.76
1837.22
2488.66
14263.4
1838.14
1840.17
1837.22
2882.75
1837.38
1837.26
1837.22
1838.75
112007
1838.78
171120
1838.25
7045.12
1838.89
1837.43
2505.13
1838.84
1875.97
1837.23
1837.23
1937.84
8265.91
2019.63
3724.51
2069.95
1905.92
2052.22
1837.28
1837.22
1837.22
2041.97
8735.98
2397.56
1839.28
1837.98
4347.51
2068.18
3965.85
5173.17
1837.22
4158.53
4151.04
2029.71
1837.21
3593.7
3714.98
3758.73
2115.04
1870.08
1856.26
7216.86
1838.4
6515.28
1837.5
3636.17
2381.33
7541.81
10608.3
1837.23
1840.08
2486.03
3859.21
1843.22
2163.02
1837.25
1837.21
11858.7
1837.99
1837.37
1838.74
1837.21
2592.14
1837.22
63055.5
2042.48
1837.21
1837.53
8649.27
1906.22
3121.25
4848.79
13920.6
1896.84
1837.22
1837.28
2504.25
1837.22
1837.22
1846.54
1837.44
1838.04
10282.3
1837.66
1837.26
6554.37
2469.97
1837.31
1838.64
18706.1
1837.54
1838.13
2504.86
1837.21
1837.21
1837.61
1937.36
11593.1
2449.3
1837.33
1838.47
1837.22
1902.4
19791.4
1848.9
4220.47
1837.22
1838.21
1837.22
1837.4
1837.22
32319
1897.19
1837.22
2463.61
1837.22
1837.22
1863.14
1837.25
2073.55
1837.36
3397.37
32709.1
1837.22
1837.22
2163.47
75058.6
1837.21
2124.73
9459.99
1837.22
1837.35
1838.45
1837.22
1837.22
1837.21
1837.22
1837.22
1839.84
1837.29
1837.94
23830.2
1837.22
1962.79
77807.8
2322.14
24032.7
1837.22
2685.65
1838.05
1837.22
23334.3
5065.98
2468.57
25508.7
16347.4
13600.3
1837.36
4198.41
27736
5345.14
10900.6
5617.97
1838.29
22617
1837.22
1837.22
1837.21
1922.21
6095.05
1837.87
6368.52
1837.21
1837.26
1837.28
10859.6
2074.89
1837.21
17633.4
9865.33
2422.06
13725.1
19999.5
1837.21
1837.55
13000
1838.38
1837.21
1837.21
1837.29
1837.21
1841.33
1837.22
41751.7
1986.46
22308.9
4373.25
1878.05
5713.82
1837.67
1837.21
1837.21
22296
1837.3
1837.21
1837.31
27154.5
1841.96
10939.7
12566
3455.04
2835.69
2079.61
1837.87
12784.2
1837.74
1837.64
2547.35
13320.7
7674.17
1838.59
1838.52
1834.84
9886.57
1837.76
18355.1
9093.32
8479.95
15172.7
1837.36
1837.27
15917.2
2696.23
1838.34
16978.3
4461.81
4083.24
1837.21
16775.2
1913.19
19144.1
1837.45
1837.21
1837.91
2331.35
1837.31
1837.27
6447.25
3860.93
11486.7
1838.83
1837.72
7795.75
10294.9
1838.03
1837.22
1837.21
2930.95
17525
27992.1
13073.7
1837.4
3957.02
3972.08
1835.82
1837.42
1837.7
1837.28
1837.38
1837.26
4868
1837.22
1838.31
1839.23
4798.39
1837.22
1837.24
1837.21
1837.22
2797.68
3179.31
1837.46
4814.45
1841.1
1852.72
1837.21
1837.92
1837.21
4916.69
7879.72
1837.97
1837.95
3728.45
1838.66
1837.98
1838.06
1837.21
1837.27
14706.3
1837.73
2018.5
1837.32
1837.21
1837.61
13555.5
1837.21
1837.58
4028.03
1837.39
1840.06
1837.29
1837.26
5076.56
1837.42
2089.91
1839.51
4087.76
1837.62
1838.5
1837.46
1837.22
1837.83
1838.83
1837.99
13346.5
5816.43
1837.26
1837.23
1838.45
1837.21
1838.84
1837.23
1837.54
1837.66
1838.86
1838.29
1838.61
1837.21
1897.79
2223.6
3679.32
1837.99
4699.58
1855.22
1838.32
3236.32
1838.64
17517.8
1836.93
2276.95
1837.62
1837.21
1837.34
1837.22
1838.67
1838.05
1991.51
10380.9
1837.34
1837.22
1837.65
1838.34
1838.36
1840.18
1837.33
1837.67
1837.25
2086.19
1981.82
1928.65
1838.24
1837.22
1998.96
1996.31
1888.93
1838.15
1837.34
1837.45
2821.05
1837.48
2382.59
2100.12
1837.6
1988.54
1910.79
13570.9
1978.44
18330.5
9088.83
1837.22
31938.5
1837.23
19448.3
1837.32
12977.1
4304.08
11279.9
3078.53
1837.22
1837.23
1837.78
1903.23
6685.55
1837.21
9021.27
1857.63
2825.15
1837.21
1837.63
1837.29
1837.29
12342.2
1837.24
1838.36
1837.39
1837.23
1839.29
1837.21
24457.9
27894.4
3626.11
1837.3
1837.21
4232.64
1837.22
1837.21
2230.6
2921.15
2403.55
1837.21
1837.42
4870.4
2259.55
1837.22
1837.21
1988.94
17534.2
2292.49
1837.45
21610.2
1903.94
1837.31
1838.19
1837.23
1837.22
1839.15
1838.44
1837.22
1837.21
1837.22
1838.16
1839.48
1837.24
1837.22
1837.44
1837.22
1837.22
1837.23
1837.31
1837.22
1837.22
1837.22
1837.22
2304.86
6363.26
3928.94
1837.22
1837.22
1837.21
1837.21
1862
1837.22
1837.71
1838.23
1837.21
1837.32
1837.21
1902.01
1837.21
1837.22
1837.38
1837.21
1837.26
1917.37
1837.41
1930.6
1933.58
1933.37
1837.21
1837.24
1978.97
1837.49
1837.22
1837.48
1837.21
1837.23
1837.24
1837.22
1837.62
1838.08
1837.73
3176.15
2392.93
1837.38
1837.82
1837.67
1837.23
1837.21
1837.22
1837.67
1837.23
1936.48
75984.8
1837.22
88926.9
1837.4
1837.21
185989
188730
1837.27
4462.67
1850.91
1837.29
1837.22
1837.22
1839.01
1837.21
168242
1837.86
167913
1837.62
1837.22
1837.58
13510.2
13733.4
12242.4
1837.44
1837.33
1837.22
1837.21
1837.24
1837.21
1837.22
1837.21
1837.22
1837.22
12080.5
1837.23
1837.59
1837.81
1837.69
1837.29
1837.27
1837.32
2630.56
2257.56
4544.57
1837.27
1839.27
1837.43
1837.38
1837.59
1837.28
1837.72
1837.3
1981.28
1838.73
1837.22
1837.9
2050.95
1837.21
1922.59
1837.86
1837.86
1934.54
1837.24
1937.06
3537.57
1838.25
1837.18
1837.23
1878.87
1837.99
1838.12
1837.21
1837.31
1837.53
1891.71
1839.56
1837.38
1837.79
2560.95
23733.9
8913.03
1837.23
1838.76
2544.4
1837.66
1838.02
1838.22
1837.22
1837.23
1838.09
25705.2
4342.15
21411.2
2117.65
1971.29
1837.28
1838.43
1837.78
2774.99
6659.1
1837.25
5254.35