/*--------------------------------*- C++ -*----------------------------------*\
| =========                 |                                                 |
| \\      /  F ield         | OpenFOAM: The Open Source CFD Toolbox           |
|  \\    /   O peration     | Version:  v2012                                 |
|   \\  /    A nd           | Website:  www.openfoam.com                      |
|    \\/     M anipulation  |                                                 |
\*---------------------------------------------------------------------------*/
FoamFile
{
    version     2.0;
    format      ascii;
    class       volScalarField;
    location    "2";
    object      H2O;
}
// * * * * * * * * * * * * * * * * * * * * * * * * * * * * * * * * * * * * * //

dimensions      [0 0 0 0 0 0 0];


internalField   nonuniform List<scalar> 
108993
(
4.0644e-96
1.15268e-71
1.10039e-61
0
1.3979e-181
7.18133e-178
0
0
4.87202e-138
4.98103e-104
0
4.08443e-115
0
0
1.65896e-141
1.41975e-24
9.50227e-99
0
2.04708e-175
8.69709e-104
2.25862e-186
5.84617e-155
3.27492e-97
0
9.20238e-186
1.51324e-138
0
1.62538e-108
8.52201e-117
3.10624e-143
1.23213e-148
0
0
0
5.14699e-175
0
5.08656e-160
0
6.31647e-16
1.14235e-38
0
1.56624e-131
0
6.99879e-186
3.02243e-33
4.41595e-43
0
0
0
1.51524e-94
0
2.96317e-33
2.01326e-68
4.67645e-169
7.44641e-136
0
1.75638e-165
1.61402e-165
0
0
2.28968e-154
0
0
1.19552e-173
3.03861e-177
3.03838e-115
1.76199e-182
6.90703e-167
0
0
1.01366e-146
7.25786e-172
9.22333e-169
1.96095e-171
2.51574e-113
0
0
8.91368e-83
0
8.83121e-183
0
0
0
1.94462e-128
0
0
6.28109e-117
0
9.01806e-172
0
4.20247e-172
8.63945e-149
1.47168e-175
0
0
0
2.7745e-151
1.14668e-131
0
0
5.16002e-167
0
0
0
0
0
5.84316e-133
3.52984e-163
8.39275e-177
0
1.10452e-47
6.68952e-173
8.52681e-63
3.2065e-35
2.33964e-136
5.23218e-38
2.0041e-176
0
1.84102e-28
3.1281e-147
1.95154e-125
1.26848e-147
2.62468e-31
3.21213e-77
0
6.46199e-39
6.65549e-85
0
7.78929e-150
8.00204e-154
6.02511e-92
1.73604e-152
0
8.54919e-17
7.1891e-144
0
1.4687e-147
0
3.08129e-137
0
2.80081e-77
6.94319e-143
0
6.80276e-150
7.38703e-152
6.91306e-166
2.22717e-141
0
2.7429e-75
2.55836e-13
2.73157e-13
0
3.18216e-65
6.6671e-10
0
3.1968e-52
2.7876e-106
1.7244e-163
4.87969e-157
4.84819e-36
1.7425e-11
2.34933e-160
7.43594e-148
0
0
4.35177e-39
6.36874e-181
0
4.35048e-171
7.20019e-134
0
1.22027e-127
7.07135e-36
0
0
1.7539e-124
1.1498e-24
7.5154e-175
1.48201e-114
1.82501e-158
0
0
3.73758e-162
8.08053e-83
4.34216e-108
0
0
0
0
7.91101e-81
0
8.83857e-161
2.74373e-131
1.02996e-28
3.49436e-140
4.07732e-65
2.66316e-87
0
5.80988e-144
6.82413e-82
9.13301e-177
1.86586e-30
5.41215e-176
1.12422e-164
0
1.21142e-22
0
0
5.5577e-123
1.37566e-06
1.04451e-50
0
1.98136e-23
2.65388e-35
6.27095e-17
0
1.96746e-126
0
3.4659e-161
0
2.91077e-118
0
6.56108e-49
1.18377e-28
0
5.17271e-175
3.69636e-163
5.84259e-90
1.76495e-14
3.02332e-126
5.89439e-38
2.58576e-136
5.05777e-173
0
1.44244e-148
0
1.78371e-150
3.21046e-151
0
0
3.89574e-154
0
0
0
2.39127e-158
2.20355e-24
1.31111e-39
2.39891e-28
1.21945e-158
0
0
4.45178e-168
0
1.46232e-138
1.08596e-160
0
6.37119e-161
1.98022e-87
3.18887e-139
2.46171e-180
6.815e-97
0
8.07778e-47
1.58873e-36
0
6.71881e-103
1.5384e-96
1.93101e-126
0
1.2866e-124
9.07792e-193
5.54224e-69
9.77235e-50
0.000267268
1.60327e-55
3.57956e-120
4.80292e-157
0
0
1.01338e-92
0
3.38928e-42
1.74123e-42
1.52724e-145
7.30686e-138
0
6.19291e-177
5.43973e-92
1.16946e-77
9.41594e-59
0
1.31581e-107
1.21893e-89
1.09991e-104
0
1.07568e-94
2.1524e-144
3.24104e-100
0
4.07039e-188
9.17227e-27
0
0
2.89603e-191
1.29646e-129
4.75117e-144
1.20805e-160
0
2.26556e-141
0
0
2.9324e-151
0
3.57782e-161
5.51303e-135
2.0159e-17
0
4.74369e-64
5.72711e-28
2.43626e-125
0
5.87462e-176
5.22321e-135
0
0
2.4607e-05
0.000701882
4.61064e-14
0
7.83051e-63
1.19071e-118
1.51603e-18
1.54323e-07
7.82487e-121
0
0
1.07301e-144
4.16008e-156
2.77162e-125
2.71241e-141
0
6.98868e-35
9.76578e-95
2.75034e-125
5.36906e-123
0
8.33602e-84
2.94111e-148
0
1.21131e-81
1.14835e-117
0
0
0
0
0
2.42624e-120
0
1.68711e-121
0
3.73701e-55
1.10213e-96
6.28462e-84
1.51523e-82
0
4.71641e-88
2.9675e-86
1.41841e-140
0
0.0290362
6.84586e-45
1.00104e-63
2.95725e-80
0.000139657
0
2.77129e-09
2.42733e-85
7.53589e-120
2.33744e-15
0
2.6136e-14
1.60278e-14
0
1.87453e-18
0
0
1.25212e-75
2.48015e-14
1.61964e-95
6.80489e-47
6.03536e-16
0
0
1.25226e-110
2.12392e-64
1.41198e-86
0.00159912
1.46569e-168
7.87281e-36
1.39522e-137
1.54405e-84
7.81812e-33
3.32366e-35
1.4947e-143
6.51221e-126
1.96533e-126
1.55728e-118
2.07394e-140
2.21822e-59
1.96517e-06
0
5.03275e-94
0
1.25142e-144
0
2.80906e-132
0.000212837
3.27489e-60
0
1.9826e-175
0.000224809
7.05541e-72
8.84571e-06
6.87342e-181
8.15818e-175
7.00558e-06
0
3.01748e-22
0
4.01691e-195
0.000364673
3.87818e-27
0.000325614
1.6521e-151
4.89116e-138
1.72692e-102
3.90296e-143
3.1478e-125
0
1.35053e-130
8.51192e-130
0
1.95928e-93
1.69194e-177
0
1.60546e-44
2.27166e-52
5.48187e-37
0
1.90266e-181
0
7.82445e-178
4.7131e-91
0
0
7.56051e-141
0
0
2.69829e-108
0
3.9285e-42
6.06605e-59
3.89825e-39
4.59129e-20
0
1.15905e-69
0
0
5.53514e-68
2.41863e-65
0
0
1.87725e-137
5.38875e-53
0
0
1.79473e-132
0
5.94058e-74
2.37277e-24
0
5.27261e-131
1.38382e-128
7.48032e-88
1.08672e-45
5.11952e-72
2.68828e-65
5.69026e-71
0
5.76671e-74
0
2.57571e-98
0
3.76209e-65
1.66178e-28
0
2.03406e-44
6.71486e-107
1.24532e-81
8.68139e-82
6.93809e-161
1.10023e-125
0
7.47265e-75
3.34072e-40
3.86978e-24
8.56641e-86
0
4.83289e-19
5.73829e-81
1.50998e-30
1.40159e-52
4.05851e-130
6.23788e-72
2.95732e-84
0
1.43104e-152
4.40069e-86
0
0
1.01565e-113
7.35042e-115
4.01025e-59
0
6.52291e-111
1.04914e-20
5.23561e-128
1.00738e-92
5.58556e-20
0
6.9699e-155
1.84073e-163
3.92212e-22
4.64524e-113
0
1.63141e-131
0
0
2.08104e-73
0
7.05831e-139
1.43897e-63
0
0
0
1.83538e-116
2.38733e-140
1.26876e-21
7.88383e-125
2.68028e-157
2.09331e-28
0
1.85582e-28
0
2.42745e-131
0
0
4.71752e-71
0
1.67655e-95
4.14134e-71
0
7.39252e-75
7.27866e-64
0
8.42802e-22
8.55512e-115
6.25717e-126
5.63075e-77
0
4.02172e-72
1.66152e-58
0.0475641
0
1.0917e-15
1.34928e-58
4.46387e-128
0
0.00578887
6.92417e-46
1.85559e-64
9.71639e-103
2.60979e-88
5.64739e-155
0
0
3.35025e-39
0
0
1.39756e-173
0
9.85048e-160
1.16333e-109
1.06576e-83
0.00161833
0
2.50062e-134
1.15343e-163
2.57102e-79
2.15016e-52
2.88107e-79
0
0.000224034
1.91149e-58
0
0
6.53793e-05
1.58699e-160
8.50135e-53
1.40036e-77
2.49703e-08
0
0
9.60677e-73
2.07261e-69
1.27791e-86
3.26068e-37
6.63283e-163
2.71663e-40
2.0412e-160
1.61084e-25
8.69092e-157
1.70443e-95
0
3.73111e-97
5.90198e-147
7.94155e-122
1.62565e-39
1.19492e-38
1.05115e-38
5.31228e-11
1.45893e-87
4.74353e-34
3.79251e-18
5.66632e-39
1.52731e-161
2.49707e-157
0
0
4.6276e-42
0
9.19796e-41
1.30522e-104
1.09221e-38
1.15632e-126
2.87573e-37
3.65453e-71
4.07472e-52
2.53603e-40
3.05171e-38
6.55506e-40
1.69498e-25
0
0
7.90909e-71
1.89985e-106
1.49956e-11
9.09594e-61
0
4.88337e-58
7.94047e-65
0
1.519e-56
8.30007e-107
4.69924e-141
0
4.07158e-142
3.01907e-48
4.98518e-56
0
2.06152e-46
0
9.03431e-41
2.90807e-60
0
0
2.4622e-29
1.00025e-79
4.96791e-158
0
6.94642e-72
2.6708e-56
4.05915e-45
5.32755e-42
2.43041e-54
1.21447e-42
6.13188e-29
0
0
0.0122588
0
1.03013e-77
4.36124e-42
2.03005e-122
2.96347e-130
0.0465871
3.60532e-92
2.58625e-26
0
6.88928e-05
1.40941e-37
2.30565e-119
0
0
8.65081e-41
1.50461e-175
8.42345e-41
3.43571e-98
1.09815e-129
0
8.67833e-42
0
1.28008e-19
3.05605e-105
9.40483e-09
3.58417e-82
0
4.89243e-32
4.43483e-191
1.22918e-47
0
1.88085e-32
0
2.07277e-25
0
1.24761e-33
9.76055e-42
0
9.74335e-35
0
3.16069e-37
3.58921e-31
2.41114e-23
1.1615e-28
0
7.01776e-188
3.28053e-67
2.45956e-176
2.84952e-72
0
0
4.4634e-27
4.69108e-27
1.58275e-25
8.72386e-48
2.65322e-50
6.17166e-41
5.20179e-40
2.10714e-45
0
2.71881e-111
0
7.44168e-175
8.59096e-48
2.11043e-179
5.84146e-45
2.53104e-172
1.77037e-32
1.22086e-30
0
8.74728e-38
2.14434e-171
1.10356e-45
0
1.1733e-54
0
0
1.27225e-62
0
0
2.7105e-60
5.94214e-36
0
1.50081e-25
1.84279e-20
0
3.42247e-58
0.00804481
1.98208e-27
2.3369e-79
4.98744e-83
0
3.0622e-58
2.79446e-60
6.65247e-57
9.39389e-96
5.53447e-45
0
2.76384e-126
1.61807e-58
8.8842e-155
1.30032e-35
4.08626e-132
4.59162e-99
0
2.75096e-41
1.17528e-11
1.09033e-85
1.94053e-13
5.56094e-137
0
2.07459e-40
1.0763e-170
1.53696e-66
7.76419e-45
1.61812e-122
4.57942e-110
0
1.99741e-104
3.18197e-100
4.42536e-54
0
0
0
2.35769e-106
1.939e-07
0
7.69391e-110
0.00165581
4.47143e-140
0.000425925
1.08488e-96
6.78602e-109
0
0.0129566
2.13693e-34
7.6329e-143
3.59733e-48
2.97192e-77
8.79247e-91
2.16716e-102
6.23792e-39
0
1.6434e-54
3.17571e-28
2.08027e-145
3.01823e-49
3.68686e-45
1.31133e-36
2.83459e-48
5.21109e-110
5.49098e-55
0
7.55574e-49
4.07543e-138
1.12989e-35
1.11573e-70
0
0.000559709
0
0.00230563
6.91754e-57
0.00034822
0
6.57963e-52
0
4.47181e-19
0
0
2.46771e-128
0
0
1.28142e-59
7.74625e-47
0
5.64105e-139
5.34943e-79
3.62416e-17
1.41444e-54
3.85194e-17
0
7.45112e-93
9.84524e-25
0
6.50487e-125
3.12544e-19
2.56366e-34
1.04102e-43
0
0
3.01e-52
4.81238e-46
1.15372e-43
2.31396e-29
2.22981e-70
4.85979e-07
3.23669e-171
0
8.99086e-42
0.00695119
0
0
9.06185e-23
1.62132e-46
3.9965e-50
1.34846e-138
0
1.82311e-33
1.03108e-25
0
6.96074e-13
1.25379e-44
0
2.21477e-06
6.03073e-151
2.05683e-137
0.000353277
0.0335947
2.68151e-109
1.85277e-80
1.92568e-209
0
2.48008e-38
3.08391e-30
0.000287515
1.05537e-89
0
8.36679e-30
1.43983e-40
2.51485e-104
0
2.57773e-38
1.63131e-120
5.41439e-134
7.00053e-166
3.78334e-42
1.10329e-92
2.16774e-31
0
0
5.02314e-40
7.61444e-147
7.85785e-36
5.56104e-38
4.22208e-42
3.75922e-48
4.14057e-127
1.19925e-12
4.41756e-137
1.51099e-27
0
1.61255e-86
2.26929e-159
0
7.74567e-38
4.22911e-144
6.86801e-101
1.76168e-05
0
3.06774e-40
3.80474e-149
8.02871e-54
2.42047e-32
1.38827e-16
1.63505e-120
2.46011e-33
1.3083e-20
7.25018e-50
0
1.74138e-49
0
1.03718e-62
7.11797e-51
1.81929e-42
3.31714e-14
9.72458e-18
7.4455e-79
5.99968e-34
5.75512e-64
4.09506e-50
1.82703e-16
4.58519e-16
0
8.80768e-150
0
3.13892e-15
0
0
2.03006e-158
1.18679e-13
0
1.2867e-64
0
0
2.04411e-77
0
9.83203e-122
3.23781e-22
2.47843e-85
5.61655e-79
0
0
1.17419e-38
0
0
3.62583e-166
0
0
1.18652e-26
0
3.82516e-108
0
0
2.57724e-51
1.40692e-41
1.01732e-53
0
0
1.32818e-45
0
9.37075e-40
2.47876e-18
1.37021e-44
4.66037e-177
0
0
5.68327e-143
1.67689e-64
2.4681e-45
0
7.79139e-180
4.62675e-73
1.30406e-123
3.52151e-23
8.45697e-76
0
2.30295e-159
5.28169e-76
1.2201e-48
1.76958e-31
0
0
3.73375e-78
3.09925e-105
1.62335e-61
0
2.03605e-126
5.20223e-177
2.95481e-127
0.000126533
2.26013e-80
9.70595e-44
7.39933e-136
6.91886e-32
7.11544e-29
2.66177e-143
1.54149e-44
1.77889e-56
0
3.0764e-60
1.2265e-33
9.27324e-55
5.15056e-23
1.90813e-42
0
1.59789e-138
0
0
1.05784e-43
8.99948e-32
0.00512381
1.84164e-25
0
2.43737e-47
0
1.61768e-23
6.57732e-50
4.46668e-25
4.6948e-60
6.03212e-26
1.99257e-61
7.78173e-10
1.63511e-26
5.38833e-33
2.20139e-107
0
0
2.571e-92
0
4.45849e-177
2.44274e-62
1.57189e-16
2.90622e-124
3.18973e-24
1.89916e-52
1.35295e-83
4.4128e-93
1.96121e-33
2.90724e-18
0
1.14666e-51
7.61035e-77
0
0
3.36263e-48
8.30236e-24
2.08307e-22
0
0
2.26187e-180
5.92481e-87
4.3745e-78
0
4.09361e-162
0
0.072396
4.43612e-40
4.92234e-176
0
0
8.71727e-87
3.78477e-106
0
6.45816e-77
9.08068e-77
6.86657e-84
0
1.45126e-81
1.71755e-80
0
0
0
2.78938e-92
0
6.03651e-79
0
2.30437e-44
2.15319e-37
1.55299e-54
8.9542e-39
8.17514e-70
3.55783e-181
1.93072e-39
0
1.23603e-138
0
1.90327e-133
1.4414e-58
4.21824e-87
1.8987e-24
3.63374e-85
2.32319e-61
3.23032e-138
3.02357e-136
0
2.64559e-98
0.00832231
0.000148654
0
0
4.61894e-107
6.46411e-79
6.49908e-53
0
0
1.28138e-138
0
0
0
0
5.76463e-152
3.70975e-48
3.13282e-110
0
2.12495e-55
9.58963e-56
8.49573e-47
0
0
3.92664e-45
0
2.12781e-82
6.50064e-17
1.22495e-188
2.46357e-44
0
4.9011e-126
2.28824e-126
0.0223607
3.63015e-35
0
1.94563e-18
3.87064e-140
5.46402e-15
7.37814e-22
0
9.00585e-101
0
3.17614e-54
0
4.39283e-58
7.54553e-171
1.81838e-23
8.02368e-20
7.34899e-27
1.08533e-107
9.66934e-181
2.99825e-26
0
0
0
2.25273e-156
2.33123e-172
0.0224978
6.45016e-24
0
0
0
0
0
1.30147e-48
1.80132e-92
6.53756e-150
4.4799e-19
1.42695e-36
0
1.32787e-16
0
1.10439e-17
2.61982e-84
0
0
4.35348e-145
1.46639e-80
0.0191508
1.7715e-115
0
0
7.19269e-15
0
2.87059e-110
2.65535e-51
6.44035e-52
2.3698e-37
4.82421e-22
0
1.10075e-51
3.53492e-71
1.09031e-107
0
0
0
9.53034e-45
0
1.72774e-26
0
8.56896e-144
7.78405e-44
8.34782e-133
7.14716e-144
0
0
4.78845e-07
0
8.11151e-36
6.30008e-48
0.00264047
0
2.83824e-108
3.24633e-133
8.8449e-27
3.5914e-95
7.61526e-57
5.18362e-60
2.72485e-59
7.45365e-49
4.7511e-63
4.61317e-156
1.90055e-58
1.61111e-55
0
0
0
0
3.43718e-93
9.59465e-128
2.87386e-117
1.22493e-115
6.8492e-155
3.62775e-73
5.57213e-77
6.25456e-25
5.7348e-145
1.0898e-85
0
4.96476e-60
0
3.02353e-116
1.49921e-92
0
6.20884e-17
0
2.2555e-23
1.89576e-37
0
4.10585e-118
2.97015e-128
9.88019e-29
6.32938e-119
1.08908e-71
3.18232e-68
0
2.854e-61
4.1663e-62
4.93636e-142
7.21277e-62
0.000133338
4.09158e-64
7.0676e-44
2.33949e-54
0
3.59693e-33
0
1.99792e-106
0
0
0
0
1.57842e-150
1.4824e-45
0
0
3.74381e-54
2.39348e-16
0
0
0
0
0
3.79141e-153
0
0
1.77337e-87
0
1.48391e-58
6.60936e-29
2.29387e-24
3.53275e-49
4.8967e-11
7.78074e-32
4.46731e-134
0
2.3716e-198
4.27319e-56
0
1.28912e-76
0
6.55119e-153
5.51073e-148
2.69498e-58
6.54421e-59
0
3.47975e-44
1.06868e-42
0
9.06337e-33
0
5.8568e-142
3.55074e-31
1.70744e-139
4.43774e-68
1.35456e-22
9.24197e-47
1.64851e-64
0
1.71109e-67
0
4.17027e-61
3.08253e-18
6.8063e-43
0
1.20318e-26
4.99874e-30
0
0
0
2.21648e-73
3.29401e-54
3.17344e-78
5.38903e-46
0
0
3.60024e-83
4.66501e-38
0
0
0
1.54018e-80
4.75435e-31
0
5.06038e-153
6.78895e-36
0
4.51252e-156
4.12119e-123
6.88988e-68
1.63086e-36
0
4.997e-132
1.71089e-13
0
2.57387e-45
8.91592e-126
4.11511e-51
0
6.48791e-75
3.91435e-64
4.07809e-57
0
0
0
4.82566e-58
2.39062e-27
4.14675e-175
2.31416e-156
1.37749e-138
7.61541e-36
6.91583e-36
0
9.61772e-36
0
1.57149e-24
4.05694e-28
3.98567e-09
4.3274e-43
0
1.96814e-122
0.0617283
2.42736e-91
2.9325e-109
0
0
1.25217e-152
0
1.53345e-128
1.10587e-185
4.10263e-39
5.39965e-28
1.1084e-42
0
0
1.30387e-118
1.82546e-152
0
0
1.2518e-132
0
1.0067e-34
2.21084e-130
3.3937e-100
9.77312e-96
1.0769e-29
1.30435e-66
0
2.1689e-62
1.69314e-90
2.63647e-109
0
3.45259e-69
0
1.2874e-81
6.00446e-35
1.20873e-09
3.03149e-107
0
4.283e-29
3.52013e-121
0
3.15368e-139
0
0
0
1.14398e-09
6.84434e-135
0
1.76635e-06
0
6.88646e-72
2.33016e-77
4.26433e-120
3.56242e-49
1.23134e-129
2.47621e-73
7.83452e-131
2.71043e-71
3.01697e-06
1.04663e-14
1.48136e-74
0
1.63112e-25
1.44762e-168
1.35533e-26
0
0
7.88026e-128
1.40314e-100
0
8.49879e-107
0
1.47024e-150
0
2.76633e-05
2.70349e-20
3.73893e-19
3.35539e-171
2.1218e-104
1.00319e-25
5.97271e-29
1.4705e-122
0
1.26971e-113
2.96135e-125
1.26372e-79
3.74585e-56
1.77829e-23
5.54516e-25
1.63428e-109
9.05076e-20
6.27851e-25
8.83857e-09
0
2.44831e-25
3.17544e-82
0
5.70678e-20
1.63755e-118
2.55853e-24
0
2.75574e-109
0
6.9795e-33
1.8968e-84
1.43429e-110
3.24932e-46
1.90477e-108
0
4.93831e-38
7.66577e-27
9.80634e-25
1.97658e-129
3.376e-145
9.77054e-17
0
0
1.20126e-33
9.11528e-150
0.0367104
5.87573e-113
9.71424e-99
7.05002e-87
6.3553e-86
3.61945e-93
0
2.54506e-23
2.64388e-45
3.80505e-28
2.40034e-13
0
1.89387e-12
0
0
7.71461e-98
2.06923e-99
6.63082e-87
0
8.05794e-102
2.09153e-81
1.1376e-51
2.04328e-85
1.8596e-95
2.63728e-41
0
0
1.08048e-30
9.83508e-31
8.68702e-26
0
1.88547e-38
6.1799e-97
1.3537e-90
8.89039e-119
6.84344e-106
0
0
1.45068e-28
8.90322e-21
9.34381e-35
2.20451e-15
0
5.59708e-45
0
0
8.19762e-17
2.66653e-41
0
0
8.0736e-26
0
0
0
5.78121e-46
3.89026e-98
0
4.4051e-172
4.61361e-163
1.31614e-08
1.0349e-159
3.04773e-72
0
3.915e-05
1.8855e-14
0
0
0
1.55902e-09
7.80185e-38
0
5.17769e-164
1.13378e-32
1.98722e-15
0
6.77928e-99
3.22813e-54
1.38721e-41
3.85029e-74
1.03978e-84
7.93797e-72
8.71439e-14
1.17132e-68
4.95973e-77
4.98355e-23
2.70976e-41
2.8755e-70
5.75701e-77
7.05099e-20
0.0359547
1.01989e-24
1.18128e-05
0
1.41702e-45
0
0
2.47157e-05
4.70221e-29
1.05769e-61
5.9617e-128
1.07756e-70
1.13704e-34
0
3.91357e-145
0
2.41018e-41
0
1.01259e-95
9.78966e-67
3.77124e-115
2.62349e-23
1.84895e-09
0
0.00910766
9.07595e-62
4.41157e-179
3.94428e-37
9.97227e-07
2.20991e-45
1.93676e-13
5.77739e-16
6.78224e-20
2.834e-06
6.15824e-07
1.22439e-16
5.43544e-43
1.01714e-25
7.77611e-96
3.28887e-56
1.56679e-62
0
6.29069e-37
7.62875e-22
0
1.15715e-23
1.43313e-09
0
9.87465e-40
0
3.7088e-82
0
2.55847e-134
2.76106e-41
5.61966e-114
4.05966e-38
0
0
0.01491
1.99327e-20
0
2.43682e-07
2.97724e-74
0
6.40408e-44
8.90692e-13
2.17948e-12
0.0101073
1.34561e-72
1.34802e-60
4.58656e-103
1.355e-140
5.15846e-171
0
5.52416e-42
0
0
4.90932e-14
1.55965e-67
7.6537e-41
3.96694e-15
0
2.71998e-28
6.57443e-11
4.48594e-173
0.00385656
8.70076e-49
0
8.0639e-94
7.32407e-16
5.5609e-39
5.88273e-170
2.51554e-125
0
4.50287e-89
0
0.0245391
0.0144334
0.0156463
0
0
0.00306118
4.47837e-29
9.00255e-171
0
5.58843e-88
0
8.6948e-05
1.58252e-87
8.68064e-103
0.000656949
3.06489e-87
2.08112e-52
5.94386e-98
1.53769e-58
3.88638e-155
1.05043e-114
5.86568e-29
4.79222e-52
1.02597e-64
5.05019e-20
0
7.1277e-50
0
7.15885e-74
2.76865e-113
3.35968e-53
2.61743e-63
1.75916e-72
4.53324e-33
4.85415e-32
1.63963e-77
0
9.15023e-39
1.46797e-65
0
8.88931e-67
1.03512e-64
1.10274e-26
0
1.32219e-31
4.34969e-20
9.48183e-37
3.70933e-171
1.75068e-31
1.72419e-67
3.91051e-36
0
6.41791e-132
1.88961e-35
0
6.77435e-106
6.54766e-40
0
4.12645e-68
4.41275e-65
0
1.62213e-55
3.82886e-61
1.53865e-85
7.19557e-22
5.26476e-33
1.58367e-51
4.7724e-90
2.23992e-31
1.42033e-59
0
2.26449e-52
0
0
1.82224e-104
5.29658e-35
3.89092e-07
4.57761e-57
9.26632e-11
9.97919e-30
7.35913e-63
7.99825e-138
0
0.00554651
0
1.92738e-22
2.46636e-34
3.92481e-25
2.54714e-05
0
0
3.0502e-38
3.65611e-167
6.69943e-54
1.43969e-95
1.25759e-41
6.94505e-37
2.18489e-101
1.84572e-49
1.38897e-101
4.6656e-69
6.24532e-62
9.44589e-142
6.7099e-91
8.04679e-45
1.59892e-95
1.60966e-86
0
9.37886e-175
5.64787e-66
0
2.55588e-60
2.56972e-36
0
6.42965e-152
1.15537e-32
8.0932e-93
0
4.96655e-38
1.1526e-128
3.47933e-124
0
1.92826e-83
0
3.98726e-80
5.43342e-35
1.85436e-80
2.75158e-145
6.55648e-62
3.67581e-110
4.28148e-26
0.00524812
7.78118e-136
0
8.2832e-41
1.54133e-69
4.44127e-19
1.4082e-201
3.41287e-123
1.27563e-191
2.40256e-152
0
9.11808e-09
0.0230249
1.52104e-40
8.26306e-87
0.00111566
1.26166e-59
2.52107e-36
0
7.81667e-25
4.14937e-132
5.38607e-08
1.44109e-54
8.86953e-121
0
0
3.60522e-31
0
0
2.00492e-26
0
0
3.53554e-41
4.45754e-28
2.28617e-103
0
1.17617e-94
2.47045e-35
8.31966e-96
3.66462e-202
4.99457e-139
2.24007e-73
0
1.26104e-34
7.28438e-27
6.04988e-197
4.19241e-194
4.29457e-42
0
0
0
0
1.31853e-32
7.39795e-44
0
0
6.08427e-101
8.16381e-51
2.08256e-49
1.30248e-72
2.30308e-40
8.48132e-80
0
0
3.38356e-129
8.0615e-06
7.84656e-56
3.53811e-24
1.10758e-31
1.23087e-43
1.21384e-46
9.34788e-85
4.72226e-148
1.08338e-22
1.51151e-42
1.87288e-34
8.37396e-51
1.52691e-79
1.54898e-32
1.06827e-82
3.96246e-10
1.63735e-58
1.47775e-56
8.41629e-83
1.5455e-26
0
0
0
3.84265e-65
2.05553e-148
1.29244e-156
0
1.9335e-47
6.84657e-38
1.67112e-115
0
0
0
3.71423e-56
5.34533e-35
3.69752e-177
0
0
3.63786e-24
0
5.95663e-70
1.76908e-41
5.08577e-64
3.84405e-64
0
0
2.14244e-26
5.96545e-28
4.47821e-184
0
1.39458e-14
1.98466e-37
3.24599e-27
0
0.0387481
0
0
3.02584e-22
1.42089e-12
0.0654325
0.0278929
0.0265728
0.0609281
1.01416e-189
0.0714429
0
4.91837e-32
1.17395e-186
1.68258e-07
0.0767349
3.56859e-171
0
0.0658371
0
0.00182534
0
3.12849e-42
2.68396e-38
1.45535e-20
2.32107e-59
0
1.19482e-122
0
3.3389e-79
0
1.62343e-10
0
1.29295e-21
0
1.561e-187
1.30841e-192
6.78644e-196
5.12275e-74
3.21965e-92
0
2.09525e-27
0
4.8261e-53
8.45546e-76
1.48825e-09
8.97492e-190
2.72279e-26
0
2.38984e-51
7.47208e-38
0
0
1.90676e-85
2.70476e-49
0
6.93076e-16
9.55732e-16
1.12176e-07
3.71321e-28
9.71719e-46
5.61931e-49
0
0
0
1.67491e-47
0
8.13457e-34
1.09209e-30
2.71437e-16
3.80831e-51
3.34637e-48
5.16339e-79
0
1.70999e-39
0
0
0
6.01221e-29
5.78876e-15
8.05252e-127
3.65497e-06
4.40368e-111
1.2394e-94
0
1.76851e-15
0
3.90836e-61
0
0
1.30978e-79
0
0
1.61526e-47
5.21819e-104
1.11142e-82
2.88956e-116
1.21279e-77
7.03025e-09
0
1.45904e-40
4.90618e-86
0
1.52139e-98
0
0
3.28165e-21
4.09017e-27
8.60507e-115
0
0
0
0.000796185
0
3.30097e-27
0.00343434
0
0
0
0
0.000358579
4.22782e-88
4.00832e-98
4.59324e-98
0
0.00328893
0
2.72919e-135
0
2.73623e-65
0
3.39359e-133
1.27844e-101
1.63383e-96
7.17988e-129
6.33175e-47
4.96164e-75
1.3379e-131
3.88355e-47
0
4.85056e-53
1.43475e-20
0
0
1.18278e-22
1.23046e-23
2.37532e-75
3.55854e-128
0
0
0
0
2.84864e-81
0
1.18798e-115
2.16434e-77
2.18641e-73
4.53786e-71
4.78484e-67
4.13051e-121
0
3.52095e-23
4.24638e-24
7.81143e-20
3.25863e-23
3.77631e-38
6.84799e-23
4.80086e-125
3.52762e-81
2.56333e-23
4.4686e-128
0
0
6.77681e-124
2.54099e-24
0
1.5245e-125
5.30365e-34
3.6431e-84
2.16195e-29
8.24681e-91
2.96877e-27
1.38539e-64
2.59223e-93
8.50713e-22
1.16317e-129
4.37717e-09
4.43955e-106
1.45738e-74
0
3.33882e-38
5.73011e-23
1.88016e-98
4.22439e-25
2.69042e-31
8.39135e-23
8.00965e-96
0
6.17003e-123
3.86034e-11
7.33203e-63
2.31196e-34
2.16669e-63
0
0
5.32885e-59
2.62111e-56
0
4.26352e-120
1.30795e-123
1.22568e-62
6.03602e-33
7.31247e-54
0
1.08592e-64
0
2.66e-92
7.52079e-105
1.40172e-102
1.78459e-50
3.2261e-62
3.64854e-64
2.39688e-93
3.186e-105
0
2.96691e-100
2.04056e-96
2.19259e-91
0
6.36515e-155
2.53948e-109
1.12118e-21
0
1.23038e-20
0.00698809
4.08971e-165
3.12684e-103
5.25454e-33
1.05722e-105
7.17979e-139
3.13145e-91
0
6.86604e-108
2.90842e-29
3.29139e-20
3.95398e-55
3.30451e-86
2.34082e-45
0
2.19225e-41
3.86554e-22
1.49682e-165
0
1.37942e-33
4.95026e-165
2.74414e-109
1.89726e-26
1.94461e-115
0
6.49446e-55
0
8.53913e-168
2.24039e-42
1.29918e-22
0
8.38715e-71
1.89944e-127
6.85625e-162
3.06365e-119
0
7.25473e-95
6.08084e-130
2.40844e-123
3.97392e-89
7.91236e-60
5.17962e-108
2.85761e-121
9.06409e-119
3.90724e-48
3.95721e-58
1.28509e-25
0
1.89626e-50
1.0039e-104
1.25052e-32
0
7.54246e-111
1.0602e-97
8.31871e-05
0
5.1726e-88
0
2.97597e-53
3.49702e-78
3.53001e-83
3.7673e-51
0
3.08539e-48
5.78388e-77
2.78847e-66
0
3.6535e-96
0
4.99174e-80
0
0
2.50332e-120
0
2.17667e-109
0
3.2712e-47
2.17739e-56
6.57467e-81
1.00547e-26
2.70198e-63
0
1.763e-17
5.87993e-56
0
3.59557e-28
0
0
2.57481e-09
2.63152e-43
1.78881e-24
0
3.8253e-112
2.02238e-55
6.48374e-61
4.02676e-58
0
0
5.74872e-91
2.8995e-134
0
2.59961e-84
2.22567e-57
1.62296e-54
0
0
9.27196e-133
0
2.07996e-21
0
1.61253e-48
9.05083e-52
5.36091e-20
1.26783e-142
1.50183e-86
1.17516e-16
2.10214e-134
0
1.36797e-47
2.32713e-63
1.18958e-121
0
6.8508e-135
0
0
4.98741e-138
3.11442e-21
1.1127e-83
7.08035e-87
0
1.56291e-38
1.26235e-126
0
0
2.35774e-83
2.8791e-140
2.21678e-83
0
0
9.72481e-51
4.29991e-60
7.10392e-26
8.12355e-31
3.43269e-85
0
0.0206115
2.27005e-60
0
0
8.56109e-17
1.65372e-37
3.01993e-60
8.79485e-34
7.21566e-61
1.08317e-22
0
2.71583e-07
0
7.09811e-38
3.03706e-22
0
1.05828e-51
3.21896e-114
0
0
1.11723e-65
0
1.05215e-21
8.49167e-30
2.69863e-42
0
6.5824e-36
8.81559e-59
0
7.74732e-23
8.64184e-104
7.71814e-36
0
0
0.00188792
4.08862e-18
0
5.84356e-119
0
2.16757e-34
1.12513e-84
1.34786e-16
2.70673e-74
8.72239e-33
1.59187e-34
9.94008e-41
1.65365e-84
0.031891
0
1.72039e-63
3.44002e-10
1.51857e-25
0
1.23524e-26
0
3.80087e-43
2.46831e-145
0
6.43713e-88
0
6.06107e-110
4.81882e-93
5.13232e-81
1.75503e-10
2.01524e-60
1.60363e-66
1.11557e-122
2.54318e-36
6.10211e-52
0
3.43174e-69
3.80897e-90
0
7.68941e-61
0
3.12612e-57
0
1.41672e-48
1.65768e-88
1.08628e-56
1.15752e-67
1.30599e-15
0
4.09783e-23
9.41755e-65
0
2.17102e-157
6.44893e-113
0
5.76069e-156
0
7.23139e-11
1.19294e-88
6.0554e-48
1.78013e-150
0
7.03455e-65
7.1982e-72
2.70721e-157
0
6.97489e-48
4.41774e-119
2.73479e-33
0.00202271
5.94696e-155
4.12708e-39
0
2.30997e-43
1.69798e-52
0
7.25642e-151
0
0
9.49449e-150
6.83474e-170
1.79689e-105
3.55476e-145
0
2.26978e-187
2.16847e-42
1.53326e-43
1.15564e-162
5.65922e-59
2.42826e-124
7.77712e-164
0
0
6.23167e-127
1.20977e-71
1.63067e-20
1.02494e-97
0
7.00311e-71
0
2.05733e-24
0
0
1.80809e-118
9.32195e-148
0
0
0
6.08043e-103
9.8038e-102
4.16285e-105
0
4.42738e-110
5.53963e-22
6.60694e-154
2.37303e-91
2.63615e-104
1.59791e-10
4.07174e-14
2.46152e-108
0
2.50152e-36
2.40127e-120
3.07361e-77
2.1204e-05
4.26586e-154
5.24188e-26
8.30628e-33
4.15661e-66
1.1098e-83
1.95024e-109
5.48732e-40
2.39612e-74
0
0
1.29988e-85
2.96774e-108
0
4.85385e-48
2.47752e-28
1.3563e-72
1.55978e-30
9.13791e-106
3.04414e-37
7.4418e-13
0
0
3.09062e-131
9.82946e-21
2.93589e-07
2.78788e-118
0
1.33021e-163
2.25483e-80
1.11423e-76
9.10601e-33
0
0
0
0
0
1.97793e-114
6.33839e-38
3.10795e-120
1.25092e-128
2.38365e-145
3.10109e-125
6.8738e-59
5.21413e-45
0
0
0
1.96324e-114
0
4.63737e-148
4.8687e-33
1.64005e-30
1.96848e-170
0
2.25971e-150
0
2.48184e-129
9.51584e-42
5.18645e-46
5.87334e-44
1.41191e-68
0
1.70581e-164
2.46421e-143
1.3593e-40
1.25251e-50
0.0612267
7.5288e-111
1.93927e-143
0
4.50105e-48
5.29186e-36
0
0
0.0689151
0.0633939
8.12266e-47
0.0285047
0.00147476
2.70788e-82
2.37798e-49
3.43701e-23
0
0
9.39311e-177
7.89992e-112
1.72297e-146
3.42051e-88
0.0219973
0
8.5836e-05
1.74942e-26
7.74222e-06
1.00853e-72
4.93002e-77
8.02064e-76
1.31018e-21
8.10854e-40
3.06243e-07
6.05309e-33
9.13028e-25
2.2878e-07
1.11681e-171
7.93465e-32
0.000292879
2.90325e-91
0
3.59705e-36
0
2.57453e-164
0.000148045
1.16377e-38
0
7.78933e-132
3.61085e-118
0
2.07749e-60
0
3.59169e-144
4.27682e-43
3.41765e-38
0
2.78535e-53
1.81931e-92
0.000662247
0
1.14317e-58
9.7853e-168
0
0.000711907
0
4.25745e-106
1.0329e-29
6.93e-172
7.87927e-88
0
0
0
1.70997e-41
6.06938e-95
0
4.04347e-97
6.00694e-101
0
1.94053e-50
0
1.80415e-56
7.35171e-91
9.68752e-103
0
0
1.25074e-148
0
7.0465e-101
0
3.24617e-89
0
1.94031e-99
3.09465e-92
1.98467e-64
0
0.014469
0
0
0
1.457e-143
0
0
0
0.00476957
7.411e-55
0.0120142
3.25917e-132
5.02386e-34
3.06993e-45
0.0043593
0.0149281
1.32969e-34
2.55361e-37
6.64714e-77
0
0
1.19656e-74
4.24365e-149
1.48617e-114
0
2.90041e-06
0
0
3.62181e-94
1.03926e-56
0
0
0
0
0
6.92617e-35
0
4.81146e-128
0
1.41432e-59
4.73656e-51
1.7808e-82
0
6.10244e-14
0
3.91766e-15
2.74498e-187
9.23876e-173
1.23757e-56
3.69615e-12
1.55707e-13
1.41152e-13
0
0
5.54608e-40
2.3935e-51
1.58015e-49
6.01876e-13
0
0
3.68696e-139
0
1.25908e-50
5.24441e-30
1.75062e-37
2.15432e-74
4.24584e-28
1.26854e-29
0
1.74335e-31
9.43254e-13
0
0
3.4555e-142
2.14814e-19
1.74938e-14
1.25332e-46
0
9.89218e-18
2.69603e-38
2.55361e-45
6.29116e-41
5.78082e-18
3.89578e-13
0
0
6.07922e-16
0
3.44768e-51
2.33868e-155
1.30123e-84
1.42774e-72
1.48625e-147
4.67519e-131
0
0
3.95752e-110
2.55749e-07
5.91244e-146
0
5.77525e-18
1.57058e-139
4.45869e-47
1.10469e-19
4.15371e-18
0
5.33134e-19
1.205e-25
8.51395e-16
2.63753e-74
0
1.12718e-16
8.85687e-26
2.51995e-19
2.26641e-20
0
0
4.35754e-34
1.83816e-63
1.43605e-40
1.71518e-166
2.4223e-78
1.57481e-25
0
2.48363e-51
2.37469e-156
2.78196e-95
0
3.65115e-26
0
0
0
0
0
2.39114e-25
4.97115e-24
3.60671e-39
0
3.19372e-16
2.09711e-46
2.76893e-50
4.40093e-175
0
2.36043e-14
0
5.951e-45
5.4786e-102
1.21969e-60
0
5.68349e-89
0
0
0
1.20547e-97
9.5694e-135
6.4726e-48
1.1553e-190
9.39248e-79
6.72712e-125
0
1.26036e-152
6.08193e-169
0
4.05143e-37
4.14299e-51
9.69906e-156
5.5288e-134
0
4.39689e-124
1.54493e-48
4.46766e-39
6.77421e-136
0
2.29111e-100
2.41688e-132
1.92523e-75
7.49204e-51
2.54917e-40
8.13817e-129
3.72907e-72
2.61034e-105
1.42352e-137
7.34068e-124
0
0
0
1.27164e-139
1.57306e-173
0
0
0
1.42936e-27
5.38901e-162
2.01309e-83
2.01434e-123
8.13366e-48
1.07568e-120
1.24962e-47
4.90299e-63
2.50193e-18
2.06641e-138
2.53683e-140
2.43148e-142
0
3.01956e-44
0
0
0
0
0
0
2.46041e-124
0
0
3.9711e-135
8.89405e-84
3.96823e-49
2.48131e-132
0
1.15873e-119
0
1.24339e-90
1.71886e-102
3.60777e-104
1.6577e-71
5.64472e-135
0
1.32963e-58
4.39046e-38
2.61227e-149
1.68916e-119
0
8.32548e-88
8.19512e-83
1.21041e-85
8.01142e-46
7.5179e-32
4.66801e-112
0
0
2.44059e-46
2.00943e-128
0
0
4.83001e-53
0
0
9.72107e-76
0
4.13789e-132
0
4.91329e-62
2.46813e-165
0
5.28793e-90
2.02944e-168
0
0
2.67565e-102
3.05382e-120
0.000145829
2.08928e-112
0
5.70051e-83
0
0
0
2.85434e-47
1.32118e-23
2.21802e-19
1.68454e-47
0
0
2.35997e-55
5.7192e-93
0
0
2.61518e-70
0.000269185
0
6.55962e-95
0
3.21098e-51
1.61129e-46
2.38248e-40
5.25971e-32
4.1485e-163
9.47555e-32
2.59693e-09
0
0
4.59964e-132
2.61879e-97
6.77991e-167
8.43761e-81
0
2.48073e-71
0
3.62426e-09
1.34234e-33
6.68738e-17
2.29972e-06
4.90706e-10
2.88402e-56
2.01852e-158
4.05898e-151
0
2.46488e-122
0
8.60571e-153
0
0
0.000210284
8.52505e-38
0
6.09185e-56
5.70971e-120
2.06091e-12
0
1.50666e-31
0
1.22718e-157
1.25451e-28
0
0
2.2619e-174
2.41466e-37
5.5097e-14
5.74176e-12
0
5.26503e-13
0
2.0144e-36
1.76843e-136
1.36557e-21
0
0
3.39159e-47
0
0
0
1.74794e-35
0
1.31073e-23
1.62294e-155
1.7415e-101
1.1931e-29
3.5208e-128
1.14103e-58
7.25768e-159
8.86552e-52
4.26895e-124
4.00449e-143
0
1.09241e-125
2.94573e-51
7.90442e-122
4.77559e-38
0
5.61529e-42
0
2.16437e-107
8.14943e-55
2.39049e-78
7.26915e-124
1.756e-124
1.79964e-11
0
1.51206e-29
7.13555e-05
0
7.54481e-165
0
9.83072e-43
1.07597e-125
1.98955e-132
0
1.99529e-28
2.25513e-117
4.49052e-93
0.00724469
1.29823e-46
0
9.31011e-58
0
5.36803e-143
1.38972e-142
8.88252e-101
0
0.0241807
2.58781e-162
0.0682919
1.24316e-92
2.06687e-44
3.03632e-161
0
6.0487e-38
1.29475e-163
0
2.27702e-84
1.28481e-122
0
1.43416e-08
0
4.01211e-21
0
5.80253e-36
0
3.85068e-62
2.46708e-92
6.98755e-119
0
3.49644e-15
4.1429e-53
0
1.64624e-35
5.53822e-18
0
1.44425e-42
9.90075e-33
1.12352e-121
4.91517e-23
0
2.26308e-80
7.72195e-134
1.70548e-13
0
0
2.11574e-36
2.52385e-28
4.12798e-31
9.05897e-07
1.53203e-50
4.74136e-14
6.72133e-39
0
1.57894e-111
0
9.60544e-09
4.99294e-70
8.74641e-52
8.84535e-21
0
3.90747e-62
1.02685e-17
5.13492e-164
4.34539e-151
6.61241e-09
3.58586e-48
0
2.02856e-69
1.7933e-154
0
2.37732e-110
0.00186021
2.07137e-16
0
0
1.00371e-10
1.05395e-48
1.26893e-33
9.82463e-28
1.07052e-05
0
5.50262e-111
0
1.45285e-61
3.20565e-115
2.59031e-117
1.55172e-39
2.0242e-32
8.24705e-83
5.22257e-10
0
8.63371e-64
8.72514e-38
2.33619e-50
1.31091e-156
8.96277e-104
5.08698e-08
2.11809e-64
0
7.58165e-56
0
1.74537e-156
1.65603e-46
2.07767e-34