/*--------------------------------*- C++ -*----------------------------------*\
| =========                 |                                                 |
| \\      /  F ield         | OpenFOAM: The Open Source CFD Toolbox           |
|  \\    /   O peration     | Version:  v2012                                 |
|   \\  /    A nd           | Website:  www.openfoam.com                      |
|    \\/     M anipulation  |                                                 |
\*---------------------------------------------------------------------------*/
FoamFile
{
    version     2.0;
    format      ascii;
    class       volScalarField;
    location    "2";
    object      ILambda_10_0;
}
// * * * * * * * * * * * * * * * * * * * * * * * * * * * * * * * * * * * * * //

dimensions      [1 0 -3 0 0 0 0];


internalField   nonuniform List<scalar> 
108993
(
146.201
146.206
146.201
146.201
146.201
146.201
146.203
146.201
146.201
146.201
146.201
146.201
146.201
146.201
146.201
146.201
146.201
146.201
146.201
146.27
146.201
146.201
146.345
146.201
146.201
146.201
146.201
146.28
146.208
146.201
146.201
146.201
146.201
146.201
146.201
146.201
146.201
146.201
146.335
146.231
146.32
146.201
146.201
146.201
146.201
146.213
146.201
146.202
146.201
149.621
146.201
146.206
146.211
146.201
146.201
146.201
146.201
146.201
146.201
146.201
146.201
146.201
146.201
146.201
146.201
146.201
146.201
146.201
146.201
146.203
146.201
146.201
146.201
146.201
146.201
146.201
146.201
146.201
146.201
146.201
146.201
146.201
146.201
146.201
146.201
146.201
146.201
146.201
146.201
146.201
146.201
146.201
146.201
146.201
146.201
146.201
146.201
146.201
146.201
146.201
146.201
146.201
146.201
146.201
146.201
146.201
146.201
146.201
146.201
146.239
146.204
146.201
146.291
146.212
146.201
2831.76
146.201
146.201
146.201
146.201
146.201
146.201
146.205
146.201
146.201
146.201
146.35
146.201
146.201
146.201
146.201
146.201
146.201
147.157
146.201
146.201
146.201
146.201
146.201
146.201
146.201
146.201
146.201
146.201
146.201
146.201
146.201
146.342
146.201
2307.48
2375.41
146.201
146.203
2887.83
146.201
146.276
146.201
146.201
146.201
146.203
3229.29
146.201
146.201
146.201
146.201
146.218
146.201
146.201
146.201
146.201
146.201
146.201
146.203
146.201
146.225
146.203
146.432
146.201
146.201
146.201
146.201
146.201
146.201
146.201
146.201
146.201
146.201
146.201
146.201
146.201
146.201
146.201
146.201
146.289
146.201
146.201
146.377
146.201
146.201
146.201
146.201
146.334
146.201
146.201
146.231
146.275
146.201
146.493
146.201
745.536
146.218
146.201
146.392
147.245
146.562
146.201
146.201
146.201
146.201
146.201
146.284
1270.81
146.201
146.436
146.201
146.201
146.201
146.201
146.213
146.201
146.24
146.201
146.201
146.215
146.201
146.201
146.201
146.201
146.242
146.201
146.201
146.201
146.201
146.201
146.201
146.201
147.094
146.208
146.201
146.201
146.201
146.201
146.201
146.201
146.201
146.201
146.201
146.201
146.201
146.201
146.201
146.201
146.201
146.201
146.201
146.201
146.201
146.202
146.201
146.201
146.201
146.201
146.276
281.776
146.316
146.201
146.201
146.262
146.201
146.226
146.248
146.249
146.244
146.201
146.201
146.201
146.201
146.334
146.201
146.463
146.201
146.201
146.404
146.201
146.201
146.201
146.201
146.201
146.202
146.201
146.21
174.178
146.201
146.201
146.201
146.202
146.472
146.201
146.203
146.292
146.201
146.201
146.201
146.201
146.204
155.455
146.201
146.201
146.417
146.201
146.285
146.201
146.201
146.201
146.201
3943.79
224.183
146.668
146.201
146.201
146.232
146.369
153.714
146.201
146.578
146.201
146.201
146.201
146.201
146.201
146.201
147.013
147.378
146.201
146.201
146.201
146.201
146.201
146.201
146.201
146.201
146.201
146.235
146.281
146.295
146.201
146.201
146.294
146.201
146.201
146.201
147.296
146.201
146.201
146.201
147.144
146.201
146.201
146.201
3531.66
146.201
146.201
146.201
3163.7
147.783
146.895
146.201
146.201
146.392
146.201
146.452
146.443
146.801
146.201
146.201
146.209
146.201
146.707
146.205
146.401
146.427
146.207
146.47
146.201
146.238
146.798
1128.43
146.201
146.201
146.201
146.804
146.214
146.21
146.201
146.392
146.206
146.211
146.201
146.201
226.987
146.201
148.098
145.758
146.201
146.201
146.201
1121.37
146.203
146.617
146.201
408.967
146.217
696.003
146.201
146.201
189.497
146.201
445.219
433.975
146.201
993.179
146.254
691.502
146.201
146.201
146.201
146.636
146.211
146.201
146.201
146.201
146.201
146.201
146.201
146.204
146.698
146.663
146.203
146.201
146.201
146.201
146.201
146.201
146.201
146.201
146.201
146.201
146.202
146.201
146.201
146.202
146.201
146.203
2491.08
146.201
146.201
146.201
146.204
146.201
146.201
146.203
146.201
146.201
146.215
146.391
146.201
146.201
146.22
146.314
146.201
146.201
146.201
146.201
146.201
146.201
146.201
146.201
146.201
146.203
146.201
146.201
146.201
146.201
146.201
146.201
146.201
146.201
146.201
146.201
146.206
146.201
146.201
146.201
146.201
146.201
296.246
146.201
146.201
146.571
146.201
146.201
146.294
146.201
146.201
146.201
146.201
146.201
146.201
146.201
146.206
150.061
150.299
146.305
146.253
146.205
146.201
146.228
146.201
146.201
146.254
146.201
146.201
146.201
146.201
146.201
146.201
146.292
146.201
146.201
146.302
146.201
146.296
146.201
146.201
146.201
146.201
146.201
146.201
146.201
146.201
146.208
146.202
146.331
146.201
146.201
146.201
146.201
148.425
8512.14
146.206
146.201
146.201
146.201
146.254
146.215
146.231
146.201
146.201
146.544
146.366
146.201
146.202
4458.77
146.212
215.483
146.93
146.201
146.225
969.681
146.213
146.201
146.201
146.201
146.201
146.201
146.201
146.216
146.214
146.201
146.201
146.531
146.201
146.201
146.201
282.517
146.201
146.201
146.201
146.201
146.201
146.201
146.201
523.8
146.201
146.201
146.201
279.775
146.201
146.201
146.201
146.295
146.201
146.201
146.201
146.313
146.201
146.201
146.201
182.282
146.201
146.214
146.201
146.201
146.333
146.203
146.201
146.201
146.072
146.238
146.201
193.286
146.209
150.464
2576.71
146.201
146.201
146.201
166.141
146.201
146.205
146.201
146.205
146.201
146.498
146.201
146.201
146.201
146.218
146.201
146.201
146.201
146.201
146.974
146.225
146.203
146.201
146.201
146.226
146.203
146.23
146.221
146.201
146.201
146.201
146.201
151.107
146.21
146.201
148.604
146.349
146.201
146.226
146.213
146.224
146.229
146.201
146.48
146.202
146.201
146.41
146.203
146.225
146.201
146.201
146.469
146.201
146.203
146.202
146.202
4885.75
146.201
146.201
146.205
146.201
146.202
1660.62
146.201
146.459
146.201
146.64
146.238
146.201
146.201
146.201
146.201
146.201
146.201
146.304
146.201
146.201
147.162
146.361
146.297
146.201
147.808
146.201
146.225
146.201
146.201
146.208
146.201
146.201
146.222
146.201
146.201
146.201
146.288
146.206
145.175
146.201
146.204
146.201
146.201
146.201
146.201
146.201
146.242
146.201
146.201
146.203
146.201
146.201
146.227
146.614
146.201
146.257
146.201
146.201
146.201
146.201
146.201
146.201
146.201
146.201
146.201
146.356
146.201
146.201
146.201
146.201
146.201
146.201
146.201
146.201
146.201
146.365
146.202
146.262
146.201
146.201
146.201
146.211
146.201
151.008
146.19
146.201
146.201
477.643
146.214
146.201
146.201
146.201
146.201
146.201
146.271
151.458
146.411
146.201
146.201
146.201
146.201
146.311
146.201
146.201
146.217
146.201
146.833
146.313
146.715
146.201
146.562
146.201
146.201
146.201
146.201
146.201
146.201
146.201
146.201
146.201
146.201
146.373
146.201
146.201
146.201
146.205
146.202
146.201
10053
146.203
11590.6
146.201
146.201
146.201
1274.23
146.706
146.203
146.201
146.216
146.203
146.206
146.52
146.201
146.201
146.201
146.202
146.201
146.201
146.22
146.201
146.201
146.201
146.212
146.201
146.205
146.201
146.201
146.201
160.722
146.201
876.706
146.201
160.657
146.201
146.412
146.206
146.201
146.288
146.201
146.205
146.205
146.202
146.626
146.236
146.28
146.273
146.201
146.201
146.201
146.201
146.201
146.201
146.201
146.235
146.201
146.201
146.201
146.205
146.212
146.227
146.226
146.237
146.455
146.203
146.399
332.689
146.201
155.404
146.261
208.477
146.201
146.201
146.201
146.201
146.239
146.608
146.201
146.201
146.242
146.201
146.202
146.957
146.201
265.743
146.228
146.201
446.786
1077.32
146.201
146.206
146.201
146.201
146.201
146.224
680.972
146.201
427.128
146.201
146.201
146.201
146.201
146.201
146.21
146.202
146.201
146.201
146.201
146.224
146.202
146.201
146.208
146.201
146.201
146.201
146.201
146.201
146.201
146.424
146.201
146.589
146.201
146.201
146.201
146.231
146.216
146.201
146.201
2664.36
146.224
317.376
146.201
146.201
145.314
148.323
146.201
146.201
146.517
146.201
146.201
146.201
146.214
146.244
146.277
146.211
146.201
146.201
146.201
146.201
148.524
148.365
146.201
333.914
146.201
146.201
146.201
146.201
146.201
146.201
146.201
146.201
146.201
146.201
146.201
146.201
146.201
146.201
146.201
146.228
146.201
146.201
146.201
146.201
146.232
146.201
146.201
146.201
146.201
146.201
150.838
146.202
147.106
146.201
146.201
146.209
146.201
146.241
149.316
146.201
311.803
146.201
146.209
146.201
146.217
146.201
146.201
146.201
146.201
146.201
146.765
146.201
146.201
146.201
146.201
205.734
146.201
146.554
146.201
146.201
146.409
146.202
146.276
146.292
146.201
146.201
146.667
146.228
146.201
146.201
146.201
146.824
146.201
146.29
146.201
146.201
146.201
146.201
146.238
146.212
146.201
146.228
146.322
146.201
146.201
146.429
146.232
146.202
146.201
146.201
146.208
146.201
611.058
146.201
146.239
146.201
146.328
146.201
146.201
146.201
146.252
146.201
146.201
146.202
146.202
146.202
146.201
146.201
146.201
146.201
146.201
146.201
146.201
146.224
146.213
146.248
146.201
146.201
146.201
146.201
146.213
146.201
146.201
146.201
146.201
146.201
146.201
10950.4
146.201
146.201
274.731
146.201
146.201
146.201
146.201
146.201
146.305
11772.8
146.201
146.201
146.201
146.201
146.201
146.201
146.201
146.201
146.201
146.201
146.201
146.201
146.201
146.201
146.201
146.405
146.201
146.201
146.201
146.201
146.203
146.211
146.22
146.534
146.201
146.201
146.201
146.201
146.201
146.201
146.201
146.201
146.201
146.205
146.201
146.435
146.201
146.201
146.201
146.201
484.006
251.468
146.201
146.201
146.201
146.268
146.221
146.201
146.331
146.201
146.201
146.201
146.201
146.201
146.206
146.201
146.201
146.367
147.057
146.365
146.476
146.386
146.234
146.201
146.201
146.201
1941.02
146.201
146.208
146.208
146.205
146.206
5106.32
146.249
146.201
146.201
146.201
146.201
146.201
146.211
146.201
146.201
146.201
146.201
146.201
146.201
526.739
146.459
146.201
146.201
146.201
146.201
146.201
146.201
146.201
146.201
146.201
9749.68
146.201
154.939
146.201
146.201
146.201
146.202
209.43
146.455
146.31
146.201
146.201
146.219
146.201
146.207
146.457
146.201
146.201
146.201
146.201
146.201
786.055
146.201
146.201
146.201
146.315
146.201
146.201
146.551
146.201
146.588
156.385
146.201
146.31
146.201
146.206
146.201
146.201
146.201
146.435
146.201
146.749
146.201
146.201
151.357
146.201
146.479
146.201
146.3
189.216
146.201
146.201
146.206
846.117
146.203
146.428
146.201
146.201
146.201
151.173
150.67
152.701
390.01
151.753
146.201
150.76
151.479
146.214
146.21
146.201
146.205
146.201
146.201
146.201
146.23
146.201
146.216
146.218
146.201
146.201
146.201
150.011
146.201
150.009
150.257
146.201
146.238
147.068
149.986
146.214
147.132
146.561
146.202
146.202
146.201
146.201
146.672
146.24
149.865
146.201
146.201
146.658
146.201
512.862
146.201
146.201
146.201
146.201
146.201
146.201
146.201
146.201
146.201
146.201
146.201
146.201
146.201
146.202
146.201
148.004
229.637
146.201
750.837
146.498
146.201
146.241
146.201
146.202
146.202
146.201
146.201
146.352
146.276
146.202
146.201
165.659
146.163
146.201
146.201
146.201
146.201
146.201
146.256
1016.53
146.201
146.201
146.239
146.201
146.201
146.201
146.201
146.232
146.22
146.201
146.201
155.954
146.214
146.64
146.201
146.201
146.262
146.201
146.933
146.201
146.201
149.848
146.201
146.201
146.251
146.22
146.643
146.201
7526.08
146.615
146.201
146.201
146.223
146.201
146.201
146.201
146.202
146.207
146.44
146.201
146.201
146.552
146.201
146.201
146.501
146.201
146.201
146.201
146.201
146.247
146.201
146.201
148.079
146.201
146.329
146.201
146.306
146.201
146.201
146.296
146.201
146.201
146.245
146.201
147.958
146.205
146.201
146.205
146.201
146.521
146.202
146.201
146.204
146.201
146.202
146.609
325.145
146.201
146.766
146.201
6119.31
146.201
146.201
146.201
146.201
146.201
146.201
146.201
146.201
156.102
10594.9
146.208
146.211
146.201
146.201
146.201
146.201
146.202
146.201
146.302
146.202
146.201
146.201
146.201
146.203
146.201
146.201
146.261
146.201
146.201
146.201
146.201
146.216
146.242
146.532
10781.5
146.201
146.201
10614.1
146.201
146.201
146.201
146.256
146.288
146.227
146.71
146.201
146.201
146.887
146.201
146.201
146.201
146.201
146.233
146.201
146.201
146.201
146.201
147.296
146.201
146.201
146.208
146.201
146.201
146.208
146.201
146.201
146.201
146.201
146.201
146.201
146.275
146.201
146.201
146.207
146.717
146.735
146.201
146.201
146.232
9685.44
146.201
146.203
146.201
146.201
146.222
146.566
146.275
146.256
146.201
229.793
146.23
856.261
146.201
146.409
146.223
146.221
146.754
146.205
146.242
146.214
149.819
146.212
146.208
146.214
146.206
146.217
146.207
146.249
160.678
146.256
146.244
146.201
146.201
146.314
146.201
146.201
4168.08
146.201
8170.02
146.207
146.201
146.201
146.201
146.201
146.207
146.227
146.408
147.628
146.724
146.201
146.292
146.207
146.326
146.201
146.304
146.201
146.201
146.377
146.201
146.272
146.201
146.201
146.201
146.931
146.207
146.202
146.265
146.201
146.201
146.204
146.201
146.201
146.201
146.201
146.201
146.201
146.45
154.977
146.234
146.241
146.315
146.201
146.201
146.244
148.912
146.43
256.454
146.405
146.201
146.221
161.74
146.312
146.213
146.201
146.201
146.201
146.201
2551.41
146.201
146.241
146.209
1184.01
151.842
146.201
146.38
146.377
153.621
147.748
147.825
146.201
7519.07
146.352
146.201
146.276
163.366
146.201
146.253
146.201
146.248
10047.1
146.303
146.25
146.374
146.21
146.241
146.201
146.413
19816.9
146.201
146.623
146.201
146.201
146.203
146.201
146.954
146.201
146.201
146.214
146.202
146.206
146.261
146.202
146.317
146.214
146.201
146.201
146.282
146.201
146.308
147.786
146.201
344.927
146.201
146.201
146.201
179.047
146.299
146.201
146.201
146.435
9484.75
146.562
145.537
146.201
146.263
146.201
146.201
146.201
1005.09
146.292
146.203
146.201
146.226
307.017
146.263
146.226
146.242
146.201
146.201
146.201
146.201
146.201
146.201
146.201
149.059
851.321
146.373
146.201
146.799
146.306
162.071
146.201
146.208
5776.81
18378.7
146.876
146.201
146.201
146.201
146.201
146.437
146.201
146.202
146.257
146.36
146.245
146.202
146.379
146.243
146.311
146.21
146.201
12486.9
373.645
146.201
146.201
6748.2
229.977
146.201
146.201
146.201
146.285
146.201
11924.3
11722.4
5117.95
7125.18
146.201
523.504
146.232
146.201
146.202
146.201
146.201
146.646
146.201
146.201
12555.8
146.293
146.201
146.201
146.201
146.201
146.201
146.313
146.201
149.212
205.616
162.296
146.44
146.304
146.26
146.202
146.201
146.201
146.201
1665.65
146.583
146.201
146.201
146.216
146.201
146.201
146.201
146.201
146.22
146.452
146.249
1507.78
3734.54
146.201
146.543
146.201
146.298
146.354
146.201
146.267
146.201
146.201
146.521
146.201
146.205
146.425
146.271
146.451
146.428
146.201
148.392
146.204
152.151
146.31
146.201
146.352
146.41
146.389
146.628
146.201
146.201
154.617
147.06
146.275
153.081
146.165
146.422
146.201
146.201
380.681
146.456
146.318
1825.87
151.764
385.52
146.219
146.201
325.652
146.201
146.447
146.201
892.351
3026.34
146.201
146.298
146.201
146.352
146.428
146.201
146.201
146.36
146.201
146.201
146.201
146.201
146.239
146.201
146.443
146.236
146.201
146.201
147.635
146.32
146.201
146.203
146.201
146.201
146.201
146.201
146.234
146.234
146.234
146.201
146.207
146.271
146.201
146.202
1196.53
146.201
146.201
147.007
148.835
159.595
146.201
146.201
146.201
146.201
146.201
147.002
1100.08
146.563
146.349
149.525
148.557
146.202
146.201
146.229
146.204
159.401
149.87
146.201
146.201
146.201
146.202
146.432
146.201
146.293
146.201
146.201
146.201
146.201
146.201
146.237
146.201
146.5
146.201
146.201
146.201
146.201
146.201
146.504
146.203
146.201
146.201
163.006
146.201
146.204
146.201
146.201
146.242
146.244
146.211
146.203
146.201
146.201
146.292
146.201
146.517
146.201
146.306
146.403
146.201
3919.57
146.407
146.357
146.249
152.309
146.212
146.201
146.202
146.201
146.201
146.201
146.25
146.201
146.202
146.201
146.201
146.331
146.321
146.201
146.202
146.24
146.201
146.241
146.201
146.201
146.201
146.449
146.571
146.587
146.201
146.203
146.201
146.222
146.201
146.226
146.201
146.201
146.238
2676.06
146.201
146.201
146.214
146.201
146.201
146.201
146.457
146.203
146.244
146.201
146.227
146.465
146.203
8217.13
146.297
15865.6
146.252
146.221
146.369
150.954
18998.8
16866.7
17047.5
13828.8
146.201
2599.14
146.334
9838.94
146.201
7184.21
3298.38
146.201
146.362
13680.8
146.201
150.598
146.201
146.247
570.177
232.875
146.515
146.51
146.201
146.201
146.203
146.201
146.62
146.201
146.647
146.234
146.202
146.202
146.202
146.201
146.201
146.201
146.877
146.201
146.435
146.201
146.21
146.202
146.621
146.201
146.201
146.211
146.202
146.202
146.201
146.201
146.201
146.334
146.334
146.211
146.644
150.685
147.625
146.201
146.225
146.201
147.333
146.201
146.206
146.201
146.343
146.879
149.805
148.804
146.225
146.201
146.263
146.205
146.201
146.201
146.418
146.215
9167.98
146.313
146.201
146.202
11123.3
146.201
146.29
146.24
146.539
146.253
146.266
146.216
146.206
146.202
148.628
146.201
146.201
1434.32
146.201
146.202
149.218
146.207
146.201
146.201
146.205
146.202
146.207
146.229
146.201
146.201
146.225
209.834
146.202
146.208
802.003
146.201
146.201
146.202
146.203
160.362
150.268
146.305
146.206
146.201
921.563
146.201
146.819
146.201
146.201
146.201
146.854
146.201
146.201
147.139
146.205
148.96
146.872
146.203
147.199
146.201
152.436
146.201
147.02
146.223
146.221
146.201
146.208
146.493
146.201
146.223
146.492
146.201
146.201
146.254
146.201
146.201
146.201
146.201
146.201
146.201
146.201
146.477
146.205
146.698
146.201
146.201
146.209
148.749
146.651
146.206
146.201
146.317
146.209
146.629
146.201
146.208
146.252
146.216
146.465
146.207
146.736
149.055
146.207
149.517
146.201
146.201
146.201
146.202
146.207
146.201
147.568
146.206
146.544
146.201
146.643
146.206
146.201
146.201
146.202
146.201
146.201
146.201
146.201
146.206
147.819
146.201
146.201
146.201
146.201
151.028
146.201
146.213
146.201
146.201
146.201
146.201
146.207
146.201
146.249
146.201
146.201
146.201
146.201
146.221
146.201
146.201
146.201
146.201
146.201
146.201
195.526
146.201
146.201
860.108
146.201
146.21
146.201
146.201
146.201
146.205
146.201
146.201
146.201
146.201
146.201
146.201
146.201
146.201
146.201
146.205
146.201
146.201
146.203
146.201
146.201
146.201
146.201
146.202
146.208
146.201
146.201
146.202
146.26
146.22
146.201
146.201
146.201
146.201
146.263
146.326
146.201
146.201
146.201
146.334
146.201
146.201
146.201
146.239
146.208
146.201
146.238
146.209
146.201
146.943
146.201
148.754
146.307
1154.62
146.25
146.201
146.217
146.236
146.201
146.201
146.233
146.28
146.235
146.201
146.201
146.201
146.244
146.255
146.201
146.245
146.201
146.201
146.23
146.201
146.201
146.217
146.231
146.201
146.201
146.233
146.201
146.201
146.236
146.202
146.201
146.209
146.203
139.295
146.202
146.733
146.201
146.201
146.213
150.265
146.214
146.201
146.201
146.201
146.203
146.202
146.202
150.597
147.239
146.201
146.201
146.644
146.201
146.289
146.201
146.201
146.202
146.328
146.201
146.285
146.31
146.201
146.201
146.201
146.251
146.201
146.202
146.201
146.201
146.201
146.201
146.21
146.202
146.202
146.296
146.212
146.201
146.201
146.202
146.201
146.201
146.935
146.202
146.201
146.203
146.201
146.222
146.245
146.202
146.23
303.59
146.239
146.218
146.202
146.725
146.202
146.203
146.201
146.237
146.201
146.227
147.042
146.205
146.201
146.201
146.206
146.226
146.201
146.334
146.204
146.201
146.26
146.201
146.234
146.262
146.201
146.274
150.869
146.201
146.206
146.201
146.269
146.201
11637.5
149.573
146.555
146.201
146.201
146.201
146.301
146.201
10628.9
146.201
146.297
146.284
146.219
146.201
17456.8
146.229
146.207
149.316
146.207
146.201
146.201
146.201
146.201
146.244
146.201
146.201
146.203
146.201
146.201
146.201
146.554
146.201
146.201
146.201
146.241
146.208
146.243
146.245
146.201
146.201
146.201
146.201
146.201
146.201
146.201
146.201
146.201
146.201
146.477
146.201
146.704
146.221
146.231
146.201
146.247
146.403
146.201
146.201
146.433
146.201
146.201
146.201
146.201
146.201
146.201
146.201
146.201
146.201
146.201
146.202
585.595
146.201
146.202
146.201
146.213
146.218
146.201
146.201
146.283
146.201
146.206
146.201
146.237
146.206
146.201
146.201
146.215
146.239
146.201
146.213
146.201
146.212
146.206
146.258
146.201
146.298
146.201
146.221
146.201
146.231
146.205
146.207
146.448
146.206
146.331
146.207
146.228
146.201
146.201
146.201
146.201
146.201
146.201
146.201
146.209
146.205
146.201
146.203
148.104
146.814
146.201
146.243
146.207
146.381
146.247
147.345
146.481
146.208
1258.1
146.722
146.554
150.421
146.21
146.245
146.224
146.226
147.081
146.201
146.216
146.217
146.202
146.221
146.201
146.201
146.201
146.925
146.219
147.615
146.201
146.709
146.868
146.201
146.201
146.262
146.227
146.229
146.247
146.293
146.253
146.201
146.205
146.201
146.201
146.222
146.201
146.201
146.201
146.201
146.201
146.201
146.201
146.201
146.201
146.236
146.201
146.201
146.273
146.886
146.201
146.221
146.201
146.201
146.201
146.288
146.226
146.214
146.201
146.201
146.201
146.201
146.202
146.201
7581.14
146.201
146.201
146.203
146.218
146.215
146.202
146.201
11672.7
15497.4
146.208
17292
857.659
146.202
146.572
233.486
146.201
146.201
146.201
146.201
146.201
146.201
191.208
146.238
2643.51
146.226
158.6
146.201
146.203
146.203
163.462
146.202
199.393
146.202
1218.64
146.304
146.201
146.203
3061.95
146.201
146.201
146.226
146.201
146.201
189.74
146.252
146.201
146.201
146.612
146.201
146.201
146.201
146.201
146.204
146.223
146.201
146.201
146.201
1999.52
146.204
146.201
146.201
146.201
399.928
146.201
146.205
146.331
146.201
146.206
146.201
146.201
146.436
146.202
146.201
146.201
146.201
146.201
146.202
146.202
146.201
146.226
146.278
146.201
146.315
146.201
146.201
146.201
146.201
146.201
146.201
146.201
146.201
146.201
146.316
146.201
11981.1
146.201
146.201
146.201
146.201
146.201
146.201
146.21
13701.2
146.37
15364.9
146.213
146.204
146.203
15417.4
14016.2
146.203
154.872
146.201
146.201
146.201
146.201
146.201
146.201
146.297
2282.77
146.201
146.22
146.599
146.247
146.201
146.201
146.284
146.201
146.205
146.231
146.219
146.202
146.201
146.202
146.202
146.201
146.201
146.642
146.201
146.543
146.201
146.201
146.226
148.204
146.444
147.364
146.539
148.358
146.211
146.24
146.333
149.024
146.201
146.236
146.201
146.201
146.216
146.593
146.207
146.234
146.597
146.584
146.201
146.558
146.336
146.201
146.201
146.201
152.408
146.543
146.206
146.201
163.497
146.298
146.217
146.213
146.258
146.202
146.226
146.201
146.201
146.226
146.21
146.201
146.209
146.254
146.201
146.205
146.222
146.201
146.201
14196.5
146.201
146.225
6930.08
146.207
146.204
146.245
146.282
146.202
146.259
146.239
146.495
146.44
146.201
146.434
146.201
146.267
146.233
146.201
146.278
146.201
146.23
146.228
146.201
146.262
146.225
146.201
146.23
146.201
146.201
146.201
146.214
146.427
146.202
146.313
146.201
146.347
146.229
146.239
146.205
146.201
146.315
146.23
146.223
146.201
146.301
146.294
859.315
146.22
146.201
146.34
146.201
146.201
146.201
146.201
146.201
148.999
146.201
146.224
146.201
146.226
146.201
146.201
146.201
146.201
146.201
146.206
146.219
146.201
146.201
146.411
146.223
146.229
146.201
146.201
146.333
146.201
146.201
146.201
146.221
147.254
146.201
146.203
146.214
146.201
146.201
146.21
146.201
146.201
146.201
146.201
146.201
146.201
146.201
146.299
146.201
146.21
146.201
333.347
146.201
146.201
150.228
146.206
146.202
146.202
146.201
147.316
146.22
146.553
146.201
146.201
146.201
146.201
146.324
146.201
146.201
146.201
146.201
146.201
146.217
146.201
146.201
146.209
146.201
146.201
146.201
146.201
146.201
146.201
146.201
146.201
146.212
146.201
146.201
146.201
146.201
146.201
146.201
146.256
146.201
146.201
146.201
146.201
146.216
146.201
146.207
146.245
146.201
146.233
146.201
146.201
146.201
146.203
146.458
146.201
146.201
146.445
146.201
146.201
146.201
146.201
146.201
146.201
148.586
146.201
146.201
146.201
146.46
146.455
146.455
146.22
917.984
149.633
150.816
146.201
146.205
146.458
146.201
146.201
146.201
149.244
147.295
146.201
146.201
146.201
146.223
146.222
146.213
372.546
146.234
1805.32
146.204
146.243
146.202
146.798
146.201
146.236
151.176
146.714
146.201
146.249
155.948
146.208
146.255
1599.72
188.286
146.221
146.253
146.201
146.304
146.206
146.255
146.439
146.482
146.201
15760.6
146.212
146.204
146.209
146.201
168.067
206.465
181.378
146.235
146.459
146.257
146.206
146.443
146.201
146.51
151.023
195.492
146.201
175.073
146.201
146.381
146.201
146.201
146.201
146.318
260.482
146.201
146.201
146.203
146.216
146.201
7359.19
146.412
146.201
146.237
146.201
146.202
146.417
218.141
148.294
146.201
148.372
146.201
146.223
147.501
146.231
146.201
146.201
148.362
146.208
146.33
146.201
147.496
146.201
146.499
146.261
3161.03
5932.59
153.744
146.201
146.425
442.747
147.589
146.204
146.276
146.25
146.201
146.333
576.751
147.015
146.204
146.201
146.342
146.201
146.201
146.201
146.201
17082.4
146.202
5482.93
146.267
146.211
146.202
146.201
146.204
146.202
146.225
146.201
146.201
146.234
147.303
146.422
146.211
146.422
146.338
146.412
146.223
146.201
146.201
146.361
165.626
146.229
146.205
146.533
146.208
146.413
146.242
148.252
146.201
146.282
146.227
146.457
146.201
146.711
146.271
146.379
146.252
151.661
164.662
162.113
147.212
147.092
146.411
146.329
146.219
146.311
167.955
146.222
149.385
147.109
146.442
146.221
146.202
146.201
146.201
154.208
146.201
146.201
146.304
146.201
146.212
146.201
204.035
146.202
146.201
146.201
164.14
146.22
146.232
147.285
216.097
146.217
146.201
146.201
146.355
146.201
146.201
146.201
146.201
146.229
167.63
146.201
146.201
170.408
146.228
146.201
146.602
146.523
146.594
146.224
146.224
146.201
146.201
146.201
146.332
146.603
146.52
146.201
146.391
146.201
146.643
146.539
147.426
146.276
146.201
146.201
146.201
146.201
146.201
8664.29
146.28
146.201
146.22
146.201
146.201
178.799
146.201
146.219
146.201
146.33
352.531
146.201
146.201
146.201
14109.2
146.201
146.26
146.54
146.201
146.202
146.201
146.201
146.201
146.201
146.201
146.201
149.534
146.201
146.231
146.453
146.201
146.401
1240.09
252.249
147.942
146.201
146.218
146.741
146.201
147.709
146.406
146.221
146.898
2294.53
10644.4
146.207
146.249
148.634
1076.36
1731.65
146.206
146.526
1523.33
146.201
146.201
146.201
146.202
145.955
146.215
146.359
146.201
146.201
146.201
146.644
146.24
146.201
1414.65
266.247
146.23
763.198
2750.7
146.201
146.633
2489.84
146.258
146.201
146.201
146.299
146.201
146.202
146.201
857.2
146.316
10296.4
146.238
146.227
146.225
146.203
146.201
146.201
9083.51
146.201
146.201
146.201
13073.9
146.96
146.235
146.286
146.202
146.235
146.556
146.251
146.298
146.203
146.212
146.363
148.048
153.188
147.77
146.234
146.294
150.621
146.866
8540.09
146.838
146.207
267.116
146.201
146.201
4989.2
146.204
146.201
146.27
146.234
146.291
146.201
153.753
146.29
11217.1
146.201
146.201
146.204
146.214
146.201
146.201
146.228
146.474
146.207
148.055
146.201
146.29
146.202
146.201
146.201
146.201
146.222
7227.99
146.813
146.318
146.201
146.475
146.482
146.242
146.201
146.264
146.201
146.201
146.201
179.022
146.201
146.254
146.274
146.438
146.201
146.201
146.201
146.204
146.29
146.876
146.201
146.45
146.225
146.201
146.201
146.201
146.201
146.469
146.203
146.201
146.201
146.203
147.968
146.74
146.201
146.203
146.238
146.215
146.625
146.235
146.201
146.203
146.201
146.224
146.201
146.201
152.296
146.201
146.208
146.295
146.201
146.249
146.44
146.229
146.222
146.219
146.201
147.791
146.201
146.201
146.201
146.369
146.214
146.221
158.299
146.203
146.213
146.734
146.201
146.201
146.201
146.201
146.201
146.201
147.234
146.201
146.201
146.201
146.224
156.572
146.583
3296.21
146.381
146.453
147.594
146.202
2762.07
146.38
566.526
146.466
146.201
146.356
146.201
146.201
146.205
146.203
9412.83
146.201
146.207
146.751
146.22
147.239
149.569
146.337
146.765
146.204
146.201
146.203
146.201
146.645
146.204
146.203
146.203
146.201
146.558
146.253
146.302
146.24
146.202
146.21
146.263
146.205
146.204
179.842
11810.2
146.204
713.464
174.885
146.202
147.033
146.22
779.448
146.332
743.982
146.261
896.448
148.93
146.201
146.215
146.915
146.579
146.221
146.201
584.022
146.204
146.227
146.201
146.201
146.201
146.243
145.208
146.237
147.469
146.318
146.206
148.823
146.201
146.332
9796
146.267
146.208
146.201
530.464
146.203
146.201
146.21
146.23
146.209
146.201
146.468
2900.74
146.222
146.201
146.201
146.356
146.232
146.32
146.492
146.288
146.204
146.201
147.232
146.201
146.201
146.218
146.213
146.201
146.201
146.201
146.274
146.215
146.201
146.203
146.486
146.201
146.203
146.201
146.312
146.201
146.201
146.201
146.201
445.232
393.628
195.579
146.201
146.201
146.201
146.201
171.304
146.201
146.201
146.21
146.201
146.201
146.201
146.224
146.203
146.201
146.222
146.201
146.222
146.201
146.452
146.201
146.201
158.252
146.201
146.232
146.201
146.556
146.201
146.202
146.201
146.201
146.232
146.201
146.388
146.202
146.324
153.818
152.666
146.412
146.314
146.765
146.201
146.201
146.201
146.208
146.201
146.275
948.484
146.201
1708.37
146.201
146.201
8028.66
10129.2
146.201
146.316
154.536
146.201
146.201
146.201
146.232
146.201
6437.34
147.017
6508.15
146.203
146.201
146.664
146.228
146.244
146.242
146.213
146.345
146.201
146.201
146.201
146.201
146.201
146.201
146.201
146.201
147.282
146.218
146.264
146.309
146.211
146.22
146.201
146.201
146.267
146.202
146.24
146.201
146.262
146.302
146.407
146.299
146.201
146.267
146.201
146.202
148.035
146.201
146.206
146.21
146.201
147.67
146.377
146.203
146.201
146.224
146.201
146.232
146.201
146.523
146.201
146.201
146.201
147.341
146.201
146.325
146.201
146.201
149.167
146.201