/*--------------------------------*- C++ -*----------------------------------*\
| =========                 |                                                 |
| \\      /  F ield         | OpenFOAM: The Open Source CFD Toolbox           |
|  \\    /   O peration     | Version:  v2012                                 |
|   \\  /    A nd           | Website:  www.openfoam.com                      |
|    \\/     M anipulation  |                                                 |
\*---------------------------------------------------------------------------*/
FoamFile
{
    version     2.0;
    format      ascii;
    class       volScalarField;
    location    "2";
    object      ILambda_15_0;
}
// * * * * * * * * * * * * * * * * * * * * * * * * * * * * * * * * * * * * * //

dimensions      [1 0 -3 0 0 0 0];


internalField   nonuniform List<scalar> 
108993
(
146.206
146.216
146.201
146.201
146.201
146.201
146.24
146.202
146.201
146.201
146.201
146.201
146.201
146.201
146.201
146.201
146.201
146.201
146.201
146.201
146.203
146.201
146.202
146.204
146.201
146.201
146.201
146.201
146.201
146.201
146.201
146.201
146.201
146.206
146.201
146.203
146.201
146.201
12743.6
170.109
146.202
146.201
146.201
146.201
146.202
405.982
146.201
146.244
146.201
146.201
146.201
146.242
146.215
146.201
146.201
146.203
146.201
146.202
146.201
146.201
146.201
146.201
146.206
146.201
146.201
146.201
146.201
146.201
146.201
146.204
146.202
146.201
146.201
146.201
146.203
146.201
146.201
146.202
146.201
146.201
146.201
146.201
146.201
146.201
146.201
146.201
146.201
146.201
146.202
146.201
146.201
146.201
146.201
146.201
146.201
146.201
146.201
146.201
146.201
146.201
146.201
146.201
146.201
146.201
146.201
146.201
146.205
146.201
146.201
578.488
146.209
146.201
146.314
146.352
146.201
146.4
146.202
146.201
146.202
146.201
146.201
146.201
146.229
146.201
146.201
146.201
146.203
146.203
146.201
146.201
146.201
146.201
146.201
146.515
146.201
146.201
146.201
146.201
146.201
146.201
146.201
146.201
146.201
146.201
146.201
146.201
146.201
5376.45
146.201
146.88
146.948
146.201
146.201
146.925
146.201
146.266
146.201
146.201
146.201
146.207
146.924
146.201
146.201
146.203
146.201
146.279
146.202
146.201
146.201
146.201
146.201
146.202
146.212
146.201
146.201
146.201
146.315
146.201
146.201
146.201
146.201
146.201
146.201
146.201
146.201
146.201
146.201
146.201
146.201
146.201
146.201
146.201
146.201
146.294
146.201
146.201
146.202
146.201
146.201
146.201
146.201
146.299
146.203
146.201
146.309
146.357
146.201
171.798
146.201
207.779
146.244
146.201
146.315
146.471
245.29
146.201
146.201
146.201
146.201
146.201
146.201
146.877
146.202
146.317
146.201
146.201
146.201
146.201
146.27
146.201
146.237
146.203
146.201
146.201
146.201
146.201
146.201
146.201
146.218
146.201
146.201
146.201
146.201
146.201
146.201
146.202
146.85
146.248
146.201
146.201
146.201
146.201
146.201
146.201
146.201
146.201
146.201
146.201
146.201
146.201
146.201
146.203
146.201
146.201
146.201
146.201
146.201
146.201
146.201
146.201
146.202
146.201
154.793
174.519
3014.49
146.201
146.201
145.813
146.201
146.201
146.201
146.386
151.123
146.201
146.201
146.201
146.201
146.201
146.201
7929.58
146.201
146.201
146.201
146.201
146.201
146.201
146.201
146.201
146.202
146.201
146.368
146.429
146.202
146.201
146.201
146.204
146.201
146.21
146.206
147.968
146.202
146.201
146.201
146.203
146.205
146.449
146.201
146.201
11380.8
146.201
146.205
146.201
146.201
146.201
146.201
146.482
2738.3
145.949
146.201
146.201
146.201
146.115
147.079
146.201
3408.98
146.208
146.201
146.201
146.201
146.201
146.201
146.213
146.201
146.202
146.201
146.201
146.201
146.203
146.201
146.201
146.201
146.201
146.309
202.403
146.201
146.202
146.201
149.511
146.201
146.201
146.201
146.201
146.201
146.201
146.202
146.201
146.201
146.201
146.201
2682.36
146.215
146.201
146.201
213.39
146.201
186.212
146.201
146.201
146.907
146.201
147.733
148.618
146.201
146.205
146.201
146.203
146.201
150.43
146.201
1020.17
152.912
146.203
154.925
146.201
176.738
146.201
3232.43
146.201
146.202
146.201
146.201
145.041
140.779
146.201
146.201
146.203
146.203
146.201
146.201
147.405
146.201
146.201
6475.04
146.207
146.201
146.201
185.305
146.202
146.58
146.203
232.758
146.21
231.002
146.201
146.201
153.291
146.202
146.562
156.853
146.202
3758.4
6907.4
1555.08
146.201
146.201
146.201
146.201
146.201
146.201
146.201
146.201
146.201
146.201
146.201
146.211
146.245
146.215
146.212
146.201
146.201
146.201
146.201
146.201
146.202
146.201
146.201
146.201
146.201
146.201
146.201
146.156
146.201
146.189
146.68
146.201
146.201
146.203
146.189
146.201
146.201
146.203
146.201
146.201
146.201
146.201
146.201
146.201
146.253
150.736
146.202
146.201
146.201
146.201
146.201
146.201
146.201
146.201
146.201
146.206
146.21
146.201
146.21
146.202
146.201
146.202
146.201
146.201
146.201
146.201
146.204
146.201
146.201
146.201
146.201
146.201
146.361
146.201
146.201
147.318
146.201
146.202
146.228
146.201
146.201
146.201
146.201
146.201
146.201
146.204
146.202
146.201
146.201
146.22
146.207
146.201
146.202
146.209
146.201
146.202
146.206
146.201
146.203
146.202
146.201
146.201
146.201
146.237
146.201
146.201
204.335
146.211
1207.43
146.203
146.205
146.201
146.201
146.203
146.202
146.201
146.201
146.357
146.201
167.995
146.204
146.201
146.211
146.201
146.201
212.488
146.203
146.202
146.201
146.201
146.217
146.222
141.686
146.201
146.201
146.201
146.201
146.201
146.23
3560.64
146.222
146.355
146.204
146.201
146.224
736.886
146.265
146.201
146.202
146.201
146.201
146.21
146.202
387.377
146.229
146.201
146.201
146.203
146.203
146.204
146.201
208.381
146.201
146.201
146.203
146.228
146.201
146.201
146.201
173.739
146.201
146.201
146.203
174.651
146.204
146.201
146.201
146.692
146.201
146.201
146.201
146.208
146.201
146.201
146.204
146.451
146.201
146.313
146.201
146.204
155.497
146.206
146.201
146.201
146.205
149.593
146.201
146.773
146.201
146.223
146.29
146.201
146.201
146.203
8733.96
146.202
146.228
146.201
146.229
146.201
146.206
146.201
146.201
146.201
146.238
146.201
146.201
146.201
146.203
146.327
146.225
146.203
146.205
146.228
146.218
146.212
146.227
146.217
146.201
146.201
146.201
146.201
146.201
146.213
146.201
146.255
151.916
146.201
146.219
146.268
146.235
146.236
146.201
146.297
146.203
146.201
7347.34
146.223
146.22
146.201
146.201
7896.25
146.201
146.223
146.203
146.203
593.263
146.201
146.201
146.211
146.201
146.201
10119.5
146.201
810.672
146.201
1976.21
146.333
146.201
146.201
146.201
146.201
146.201
146.201
146.202
146.201
146.201
146.235
868.86
1090.45
146.205
12911.3
146.201
146.231
146.201
146.201
146.226
146.204
146.201
146.265
146.202
146.201
146.201
146.264
146.219
146.21
146.201
146.214
146.201
146.201
146.201
146.201
146.201
146.242
146.201
146.201
146.218
146.201
146.202
1380.43
2276.08
146.201
146.245
146.201
146.201
146.201
146.203
146.201
146.201
146.201
146.201
146.201
146.254
146.201
146.201
146.201
146.203
146.201
146.201
146.201
146.201
146.303
146.201
146.208
197.369
146.201
146.201
146.201
146.274
146.201
146.279
146.265
146.201
146.201
1496.81
143.622
146.201
146.201
146.264
146.201
146.201
146.229
146.201
146.25
146.202
146.201
146.379
146.201
9571.63
146.201
146.201
480.655
146.201
488.053
146.211
151.496
146.203
146.249
146.201
146.201
146.201
146.201
146.201
146.201
146.201
146.201
146.201
146.201
146.201
146.201
146.303
146.201
146.262
146.202
146.201
226.05
146.203
169.52
146.201
146.201
146.201
2987.91
146.276
146.202
146.419
146.285
146.209
146.254
173.367
146.241
146.201
146.203
146.201
146.201
146.425
232.27
146.201
146.219
146.201
146.284
146.201
146.204
146.385
146.201
146.201
172.809
146.201
176.272
146.201
164.197
146.201
146.236
146.205
146.203
146.307
146.201
146.205
146.205
146.226
146.215
146.598
146.201
146.201
146.201
146.203
146.201
146.205
146.201
146.201
146.203
146.681
146.201
146.207
146.205
146.258
146.201
146.244
146.226
147.128
146.234
146.268
146.202
146.878
146.202
145.127
6352.92
7971.92
146.201
146.201
146.211
146.201
146.294
146.201
146.201
146.202
146.277
146.201
146.225
146.228
146.203
146.906
146.201
146.202
152.256
9952.18
146.205
146.22
146.202
146.201
146.201
146.308
147.003
146.201
146.862
146.209
146.201
146.205
146.201
146.201
146.206
146.201
146.201
146.201
146.202
146.307
146.201
146.201
146.207
146.201
146.205
146.201
146.201
146.201
146.201
146.922
146.202
146.259
146.209
146.215
146.201
146.292
146.267
146.201
146.201
146.794
146.265
146.243
146.201
146.201
146.21
146.402
146.201
146.354
1114.23
146.201
146.201
146.201
146.201
146.293
2055.84
146.253
146.219
146.207
146.201
146.201
146.201
146.204
146.215
146.618
146.201
146.201
146.201
146.208
146.201
146.202
146.201
146.21
146.201
146.201
146.201
146.201
146.201
146.201
146.202
146.6
146.201
146.201
146.201
146.201
1230.62
146.201
146.205
146.201
146.203
146.201
146.476
146.203
146.201
146.201
146.202
146.335
146.201
146.256
146.201
146.201
146.223
146.201
146.268
146.204
146.274
146.201
146.201
146.201
146.201
146.201
146.226
146.201
146.201
146.201
146.201
146.515
146.201
146.229
146.201
146.201
146.235
146.212
146.22
146.214
146.201
146.201
146.205
146.247
146.201
146.201
146.201
10438.1
146.201
146.258
146.201
146.244
146.201
146.201
146.347
146.256
146.201
146.224
161.448
146.201
146.202
146.252
146.656
146.201
146.201
146.201
146.223
146.205
394.24
146.201
146.203
146.201
146.202
146.206
146.201
146.217
146.251
146.224
146.202
146.282
146.216
146.205
146.201
146.201
146.201
146.201
146.201
146.201
146.207
146.319
146.201
180.293
146.204
146.201
146.201
146.203
146.619
146.201
146.207
146.203
146.201
146.201
146.201
146.596
146.202
146.201
146.232
146.201
146.202
146.202
146.201
146.201
146.202
10483.2
146.203
146.201
146.202
146.201
146.201
146.201
146.201
146.217
146.203
146.203
146.201
146.201
146.201
146.201
146.201
146.201
146.201
146.201
146.22
146.201
146.206
146.403
146.31
11100.5
146.201
146.201
146.201
146.207
146.201
146.201
146.201
146.201
146.201
146.262
146.201
146.224
146.201
146.201
146.201
146.201
1125.62
3097.07
146.201
146.202
146.201
146.208
146.201
146.201
146.45
146.201
146.201
146.201
146.201
146.201
146.207
146.205
146.204
147.208
146.203
146.204
146.212
146.639
146.24
146.205
146.201
146.21
146.814
146.202
146.215
146.203
146.202
146.202
1242.83
146.276
146.201
146.221
146.201
146.245
146.22
146.202
146.202
146.201
146.201
146.201
146.201
146.201
146.479
294.77
146.225
146.201
146.201
146.242
146.201
146.201
146.201
146.202
146.201
1045.06
146.227
146.41
146.201
146.202
146.203
146.202
146.222
146.202
146.201
146.234
146.201
146.271
146.288
146.233
146.35
146.201
146.214
146.201
146.201
146.212
833.688
146.201
146.212
146.201
165.604
146.201
146.201
146.226
146.201
146.209
151.202
146.201
146.252
146.203
146.217
146.202
146.203
146.202
146.239
146.201
146.224
146.201
146.203
146.518
146.203
146.201
146.201
146.238
154.803
146.201
146.201
146.224
673.623
146.209
146.201
146.201
146.202
146.207
146.238
146.227
146.226
146.238
146.222
146.201
146.243
146.243
146.204
146.204
146.201
146.214
146.207
146.201
146.201
146.204
146.201
146.201
146.201
146.207
146.201
146.202
146.201
146.204
146.201
146.201
146.201
146.297
146.418
146.201
146.277
146.202
146.201
146.207
146.201
146.201
146.201
146.201
146.318
146.201
146.205
146.205
146.201
146.205
389.434
146.206
146.201
146.202
146.201
146.214
146.202
146.201
146.201
146.201
146.203
146.201
146.201
146.201
146.201
146.201
146.201
146.517
146.203
146.273
274.37
146.202
146.204
146.201
146.201
146.201
146.201
146.201
751.553
137.066
146.213
146.205
629.398
146.213
146.202
146.206
146.201
146.203
146.203
146.208
146.995
146.201
146.201
146.201
146.202
146.201
146.201
146.201
188.776
412.929
146.202
146.201
146.231
146.201
146.201
146.201
146.201
146.233
146.201
146.201
146.201
146.202
149.364
146.201
146.202
146.24
146.278
146.201
146.202
146.294
146.201
146.201
146.202
146.272
146.201
146.201
146.202
146.237
146.207
187.915
146.202
146.202
2305.7
146.201
146.201
413.945
146.201
146.201
146.201
146.201
6093.25
146.201
146.202
146.415
146.201
8307.67
146.201
183.585
146.201
146.201
201.85
146.243
146.201
157.549
146.201
146.201
146.292
146.201
146.201
146.202
10062.6
146.224
146.205
146.23
146.201
146.292
7435.03
150.626
146.221
146.36
146.21
6073.33
146.201
146.206
146.201
146.201
146.201
146.201
146.201
146.201
146.251
146.635
146.203
146.272
146.201
146.201
146.201
146.201
146.201
146.201
146.322
146.216
146.201
146.201
146.201
146.248
146.252
146.203
146.25
146.201
146.202
146.201
146.261
228.283
146.318
168.382
146.368
146.202
146.214
146.644
146.214
146.201
146.201
167.861
417.567
146.267
922.555
146.201
146.201
3600.21
146.201
146.262
146.201
146.201
146.209
146.201
146.256
146.201
146.259
16472.3
146.213
146.261
146.224
146.204
146.201
146.262
146.201
146.208
146.201
146.201
146.201
146.201
146.208
146.202
146.201
146.294
146.319
146.291
146.201
146.201
2647.98
146.675
146.201
146.243
146.201
146.208
146.213
146.773
3167.65
140.187
146.201
146.291
5456.4
146.63
146.201
138.623
146.212
146.213
352.677
146.203
1562.16
146.212
146.201
146.209
144.907
146.211
146.216
146.284
146.22
146.205
146.502
8673.05
2974.55
146.201
146.201
1920.39
146.201
146.22
146.575
146.201
4546.39
146.212
146.207
146.221
146.206
146.204
146.218
146.236
154.848
146.117
450.881
146.202
146.563
146.225
146.212
146.201
146.203
146.222
146.21
146.201
146.206
146.222
146.203
146.202
146.201
189.501
146.222
146.202
215.675
146.203
146.201
146.261
146.203
146.216
146.201
146.206
146.201
146.202
144.315
146.41
146.37
146.323
151.902
146.201
146.217
146.242
146.42
146.258
146.423
146.201
146.21
146.201
146.745
146.21
146.267
146.201
146.201
146.203
146.202
146.469
146.201
146.239
146.201
146.462
146.303
146.205
146.201
147.16
146.269
147.674
146.176
146.201
146.605
1405.58
146.202
146.208
146.208
146.201
146.239
146.201
146.236
146.52
156.573
146.244
912.478
139.592
146.235
146.204
209.531
5114.1
146.201
161.368
146.201
146.294
146.207
146.201
168.178
146.202
146.201
146.201
146.227
146.265
146.206
146.201
146.205
146.201
146.201
146.201
146.214
146.213
151.923
146.384
146.201
20461.7
146.314
146.203
146.202
151.922
250.916
146.218
146.208
504.599
146.407
4062.73
146.585
146.201
6466.72
146.204
146.201
146.201
208.133
146.201
146.219
146.255
146.595
146.811
146.252
146.201
146.217
146.237
146.201
146.201
146.201
146.202
146.201
146.201
962.573
178.634
334.367
146.201
225.996
146.219
146.473
146.201
146.263
146.378
437.133
146.201
146.201
146.201
146.201
146.201
146.201
146.201
146.233
146.228
146.409
146.226
146.209
9703.23
146.24
155.551
146.243
146.204
237.875
146.231
146.201
146.201
146.591
146.433
146.201
146.201
146.201
146.212
146.201
2674.97
975.502
802.951
146.607
146.201
5826.33
146.487
146.201
146.204
146.201
146.201
146.397
146.202
146.201
149.946
146.212
146.201
146.201
146.201
146.201
146.201
146.215
146.259
146.201
146.374
146.374
155.811
146.219
146.208
146.201
146.201
146.205
146.204
146.461
5689.4
146.208
146.201
313.147
146.206
146.201
146.206
146.206
146.288
7630.51
146.714
146.617
146.458
146.201
699.679
146.206
145.409
1752.92
146.201
177.845
146.201
146.201
6233.28
146.201
146.218
5318.51
304.301
4934.36
7193.01
146.201
146.263
146.159
146.252
146.208
146.201
1082.38
4667.1
159.976
146.357
146.249
146.202
146.236
674.657
196.899
146.635
146.215
7060.78
146.201
146.203
12257.1
3098.61
146.11
146.492
145.703
212.687
276.768
146.201
146.295
146.201
4890.58
146.202
146.287
146.431
146.201
347.851
146.202
3342.4
5331.59
146.201
146.202
495.157
146.202
146.201
146.201
146.201
305.402
146.201
5365.15
183.99
146.201
146.201
147.751
146.207
146.201
145.571
146.201
146.201
146.201
146.201
146.219
146.218
1910.21
146.201
146.201
342.647
146.201
146.237
5341.73
146.201
146.201
146.201
146.201
154.687
146.202
146.202
146.201
146.201
146.201
3766.92
10422.9
146.206
146.201
9666.7
146.201
146.238
146.203
146.176
146.201
179.077
146.249
146.201
146.207
146.22
146.257
148.08
146.203
145.41
146.209
146.201
146.201
146.249
146.201
146.234
146.201
2606.33
146.201
146.203
146.201
146.223
146.203
816.403
146.207
146.202
146.202
146.386
146.201
146.242
146.203
146.201
148.971
1995.57
146.286
146.203
146.203
146.236
2773.98
146.201
11827.5
146.201
10679.8
147.773
146.207
158.077
2605.83
146.444
147.345
146.347
146.216
146.201
146.201
146.218
146.365
146.201
148.209
146.207
146.201
146.201
146.231
2891.98
543.173
146.201
146.261
146.252
146.201
146.232
146.201
146.207
146.201
7548.12
149.427
166.786
146.201
146.201
146.201
165.524
146.248
4503.21
146.201
146.201
146.232
146.278
146.203
146.201
263.106
146.201
146.201
146.253
10810.6
146.267
146.245
146.204
152.217
222.903
146.254
146.708
146.209
7274.24
146.201
146.215
146.525
146.7
11590
6200.94
3855.43
13041.3
146.203
12618.4
161.955
146.667
146.204
146.628
17138
146.201
414.996
18308.5
146.202
814.437
146.203
4258.98
146.329
146.355
147.796
1735
146.204
146.203
146.207
146.245
1594.69
146.201
356.837
146.222
146.201
146.201
146.201
146.201
146.24
146.206
146.287
146.203
11130.1
146.201
146.252
146.201
146.35
146.201
146.201
146.273
146.201
146.201
146.201
146.201
146.201
12587.8
10889.6
146.261
146.347
146.201
146.201
146.201
146.204
146.201
146.209
146.201
146.346
146.218
8208.6
146.204
146.201
146.201
146.287
146.201
146.201
146.274
146.201
146.203
10662.3
146.229
146.425
146.201
146.201
146.42
146.324
146.201
146.209
146.218
146.201
146.231
146.208
146.207
146.203
146.203
146.201
146.201
146.201
146.527
146.204
146.244
146.201
146.203
146.205
146.201
146.204
146.202
146.256
146.208
146.201
146.201
146.219
173.359
146.201
146.27
178.206
146.201
146.201
146.202
146.202
162.306
146.201
146.215
146.249
146.201
166.997
146.201
146.201
146.201
146.201
146.206
146.201
146.201
146.205
146.201
146.256
146.201
146.201
146.204
146.201
146.201
146.324
146.204
146.201
144.184
145.068
146.203
146.206
146.201
146.212
146.322
146.201
146.201
146.223
146.212
146.204
146.204
146.205
146.201
146.201
146.201
146.203
10298.6
146.293
5930.43
146.201
146.202
146.206
146.201
8944.89
146.205
146.201
148.041
146.206
5879.94
146.201
146.205
146.226
146.213
146.205
146.212
146.183
146.201
146.21
146.267
146.201
146.218
146.201
146.203
146.221
146.201
146.28
146.212
145.34
146.202
145.457
146.208
146.205
146.201
146.238
146.201
146.201
146.201
146.201
146.22
146.201
146.201
146.201
146.201
146.201
146.201
146.202
146.238
146.201
146.201
146.209
146.201
146.249
146.201
146.262
146.201
146.201
146.201
146.201
146.218
146.201
146.201
146.201
146.201
146.201
146.201
146.364
146.201
146.207
6809.02
146.201
146.215
146.203
146.201
146.204
146.203
146.201
146.201
146.203
146.202
146.201
146.201
146.202
146.201
146.201
146.241
146.201
146.202
146.211
146.201
146.202
146.204
146.202
146.202
146.209
146.211
146.201
146.202
456.288
146.219
146.203
146.201
146.201
146.201
146.222
146.205
146.201
146.201
146.201
1347.43
146.202
146.201
146.201
146.547
146.217
146.202
146.578
146.215
146.201
146.279
146.201
146.201
146.204
1180.31
146.228
146.201
146.268
146.628
146.201
146.201
146.846
146.292
147.253
146.201
146.201
146.201
146.203
147.431
146.201
147.434
146.201
146.201
146.963
146.201
146.201
146.278
147.421
146.201
146.201
146.732
146.201
146.208
148.214
146.022
146.203
146.201
146.179
146.795
146.193
146.287
146.201
146.202
146.237
146.201
146.234
146.24
146.201
146.237
146.201
146.238
146.212
146.201
146.204
146.205
146.204
146.201
146.244
690.722
146.201
146.266
146.239
695.618
146.201
146.268
265.641
146.201
146.247
146.201
146.298
146.201
146.244
146.201
146.201
146.202
146.201
146.248
146.202
146.203
219.674
146.269
146.201
146.201
146.203
146.201
146.202
146.201
146.203
146.201
146.206
146.201
146.513
474.281
146.203
146.203
9566.53
146.223
146.201
146.203
146.459
146.217
146.209
146.201
146.275
146.202
146.297
7782.96
146.212
146.201
146.204
146.211
146.231
146.201
146.218
146.211
146.201
146.225
146.209
206.741
146.308
146.205
147.937
146.201
146.207
146.232
146.202
153.625
146.204
146.416
7722.2
146.937
146.201
146.201
146.202
146.978
146.201
146.541
146.211
148.658
153.109
146.275
146.201
1961.53
146.268
146.218
1339.08
146.217
146.201
146.201
146.201
146.201
146.201
146.201
146.201
146.205
146.201
146.201
146.202
1273.43
146.201
146.201
146.201
146.387
146.275
146.203
146.221
146.201
146.201
146.201
146.201
146.201
146.201
146.201
146.201
146.201
146.202
560.634
146.201
146.359
146.231
2506.96
146.201
146.249
146.201
146.201
146.201
4584.37
146.201
146.201
146.201
146.201
146.201
146.201
146.201
146.201
146.201
146.21
146.224
156.66
146.201
146.203
146.201
146.26
146.236
146.214
146.201
3018.9
146.201
146.209
146.202
146.27
146.209
146.201
146.201
856.703
2061.65
146.201
146.218
146.217
146.201
146.207
146.273
146.218
146.21
146.269
146.204
146.213
146.281
146.207
146.23
147.366
146.201
146.201
146.211
146.251
146.212
146.22
146.203
146.201
146.201
146.202
146.202
146.256
146.206
146.229
146.248
2760.71
6490.97
146.201
146.218
146.215
146.201
146.23
2853.7
146.201
146.253
146.45
146.201
146.201
146.201
146.26
146.228
146.203
146.203
146.201
146.201
146.205
146.277
146.203
146.304
146.201
146.202
146.291
1713.47
146.203
146.203
146.201
2618.12
8919.81
146.201
146.21
146.201
146.21
146.216
229.051
146.202
146.293
146.206
146.207
146.201
146.201
157.233
146.201
146.202
146.201
146.201
146.338
146.202
146.243
146.201
146.201
146.201
146.202
146.201
730.548
146.208
146.201
146.32
146.201
146.201
146.203
4498.19
139.095
349.847
146.204
146.201
146.201
146.201
146.202
146.237
21795.1
146.207
146.201
146.203
150.259
1034.81
146.203
146.201
21575.1
20626.4
146.21
5858.85
428.697
146.242
148.38
146.475
146.201
146.201
146.201
146.201
146.202
146.201
15825.4
1191.7
147.4
143.182
677.24
146.221
146.203
146.203
146.413
146.202
376.308
146.202
146.605
146.379
146.201
146.232
144.952
146.201
146.201
1787.54
146.201
146.201
2043.34
146.344
146.203
146.201
146.201
146.201
146.204
146.201
146.203
146.227
187.203
146.202
146.201
146.201
219.317
146.209
146.201
146.201
146.201
936.204
146.208
146.202
146.342
146.201
146.209
146.201
146.201
162.12
146.202
146.201
146.201
146.201
146.201
146.21
146.203
146.201
146.24
146.203
146.201
146.315
146.201
146.202
146.201
146.201
146.201
146.201
146.201
146.201
146.201
1317.75
146.201
434.331
146.201
146.201
146.201
146.201
146.202
146.201
146.214
164.037
190.872
354.126
146.222
146.24
146.205
159.781
502.716
146.204
146.382
146.201
146.201
146.206
146.201
146.201
146.209
146.22
148.758
146.201
146.376
146.201
146.221
146.201
146.201
146.216
146.202
146.253
1481.46
146.27
146.201
146.201
146.238
146.246
146.241
146.201
2245.88
146.201
2381.25
146.202
146.202
146.243
2770.04
5872.99
2897.59
2058.45
146.36
146.266
146.418
154.31
1046.2
146.201
146.201
146.205
146.203
146.214
4887.71
146.23
146.218
4557.89
4142.75
146.201
4880.48
146.367
146.201
146.201
146.201
146.359
148.106
146.206
146.207
146.366
175.606
146.286
697.719
146.136
146.25
146.224
146.203
146.204
146.229
146.229
146.202
146.208
146.269
146.201
146.201
146.219
146.201
146.201
146.342
146.201
146.221
146.555
146.201
146.268
146.349
146.354
146.203
146.451
146.468
148.071
146.207
146.203
146.307
146.35
146.21
146.346
146.201
146.255
146.202
146.224
167.143
146.204
146.205
141.605
146.202
147.776
146.204
146.201
146.208
141.75
146.201
146.203
146.201
146.207
146.346
141.406
141.969
146.208
146.201
146.374
152.467
146.594
146.201
381.848
4500.41
146.637
190.72
146.201
155.041
146.201
146.237
146.206
146.201
146.201
146.201
146.201
158.93
146.201
146.237
146.201
146.201
146.202
146.204
146.213
146.228
146.265
146.201
146.201
148.461
146.201
155.237
146.201
146.201
176.804
146.201
146.201
146.201
156.347
146.205
146.201
146.203
146.214
146.201
146.201
146.283
146.201
146.201
146.206
146.201
146.201
146.201
146.201
145.686
146.201
146.229
146.201
146.22
146.201
146.208
146.201
146.272
146.201
146.201
146.201
146.201
146.267
146.202
146.206
146.201
146.201
146.201
6153.96
146.201
146.201
146.203
146.202
146.201
146.265
146.201
146.201
146.201
146.201
146.201
146.201
146.201
146.202
146.201
146.201
146.201
146.275
146.201
146.201
146.201
146.201
146.202
146.201
2681.68
146.201
146.201
146.203
146.201
146.283
146.204
146.279
146.219
146.201
146.315
146.201
146.201
146.204
146.201
8159.16
146.201
146.201
7991.75
146.201
146.201
146.201
146.201
146.206
146.205
6742.56
146.201
146.201
146.201
8452.38
10020.1
9917.39
146.252
146.666
146.36
146.201
146.205
146.206
9735.37
146.201
146.201
146.203
146.201
4498.53
146.201
146.202
146.203
146.255
146.249
146.276
146.361
146.201
146.466
146.224
146.201
146.223
146.201
146.202
146.201
146.201
146.201
146.263
146.201
146.413
146.246
146.318
146.687
192.332
146.244
146.201
146.201
146.201
146.205
146.201
146.201
146.201
146.201
146.639
146.268
146.204
146.215
146.201
185.168
146.217
146.478
146.233
146.201
139.889
146.201
146.201
146.202
687.974
548.17
151.851
146.201
154.198
146.201
146.203
146.201
146.204
146.202
170.532
146.222
146.201
146.201
146.254
146.27
146.201
146.429
146.201
146.201
4977.31
146.201
146.252
146.201
146.221
146.201
146.201
146.201
146.201
146.243
146.201
146.581
146.204
146.348
146.201
146.209
394.539
146.201
146.201
146.201
7721.79
146.203
146.558
147.999
146.53
146.201
8779.94
146.247
146.201
146.201
365.943
146.231
146.201
146.391
1821.11
146.201
146.217
146.201
146.991
146.201
146.201
146.205
146.201
2791.26
146.201
18776.3
146.201
146.35
146.201
146.201
146.222
146.201
146.204
146.216
146.201
146.304
3563.81
146.347
146.253
146.842
174.991
146.672
146.204
146.201
146.201
324.587
156.447
147.316
146.259
146.288
146.223
146.819
2005.08
148.047
146.201
180.161
280.418
146.417
146.201
245.501
146.25
146.255
146.41
146.833
146.345
2871.11
146.201
3710.37
146.213
146.249
146.255
161.709
1175.46
146.201
146.201
146.33
146.273
146.235
146.207
146.201
146.201
3613.94
146.204
146.224
146.204
146.201
146.274
146.201
3199.88
146.205
146.201
146.211
1146.75
146.249
147.675
149.059
1089.95
146.248
146.201
146.205
803.016
146.201
146.201
146.201
146.232
146.209
1063.19
146.244
146.255
146.427
146.226
146.202
146.201
13166.9
146.201
146.204
146.224
146.201
146.201
146.211
175.333
183.754
162.053
146.216
146.269
146.208
146.817
8836.23
146.223
1597.8
146.201
146.205
146.201
146.266
146.201
848.104
208.235
146.201
147.017
146.201
146.201
146.222
146.238
146.28
146.205
2098.94
824.163
146.201
146.201
146.22
1019.82
146.202
146.216
158.152
146.201
146.293
146.206
146.201
146.204
146.201
146.204
146.203
146.201
146.201
146.205
146.386
146.211
272.346
5528.43
146.281
146.456
146.201
146.236
146.201
146.203
146.482
543.565
147.132
146.464
144.585
146.541
146.201
146.333
8287.26
146.502
146.739
146.316
146.201
146.71
146.203
146.202
146.201
146.202
146.54
146.203
148.076
146.201
146.254
146.212
10503.6
146.32
146.201
146.785
146.866
146.218
146.919
146.781
146.201
146.201
146.86
146.238
146.201
146.201
146.201
146.201
146.223
146.201
7159.06
182.616
147.236
146.486
146.307
146.296
146.202
146.201
146.201
146.619
146.201
146.201
146.201
146.553
146.216
269.158
146.613
146.231
146.243
283.412
146.225
146.563
146.201
146.203
146.354
147.527
146.401
146.202
146.201
146.202
146.414
146.201
146.811
146.342
146.284
147.005
146.201
146.216
147.107
146.208
146.201
146.799
146.316
146.382
146.201
146.693
146.22
146.882
146.201
146.201
146.257
146.214
146.202
146.202
146.342
147.293
146.429
146.205
146.201
146.469
146.358
146.201
146.203
146.201
442.412
147.197
413.674
146.551
146.201
147.286
147.357
146.202
146.201
146.223
146.223
146.23
146.251
146.303
146.201
146.23
146.202
146.707
146.202
146.201
146.201
146.201
163.975
159.896
146.201
146.986
146.231
146.202
146.201
146.201
146.201
147.587
146.381
146.201
146.201
146.239
146.201
146.201
146.202
146.201
146.201
146.366
146.201
146.316
146.201
146.201
146.201
146.404
146.201
146.201
146.392
146.201
146.211
146.201
146.253
3680.06
146.201
146.26
146.215
146.29
146.201
146.201
146.201
146.213
146.201
146.244
146.207
146.401
146.487
146.201
146.201
146.201
146.202
146.201
146.201
146.201
146.205
146.201
146.201
146.201
146.201
146.202
155.766
146.406
146.34
146.248
146.204
146.201
146.279
146.201
146.603
146.262
146.287
146.201
146.201
146.201
146.201
146.201
146.201
146.203
146.636
146.201
146.201
146.201
146.211
146.201
146.203
146.201
146.201
146.201
146.206
146.203
146.203
146.201
146.201
146.203
146.203
146.202
146.201
146.205
146.201
146.238
146.201
146.248
146.219
146.254
146.203
146.214
146.465
146.203
146.729
146.444
146.202
637.557
146.201
146.803
146.201
146.906
146.412
146.848
188.427
146.203
146.201
146.201
146.501
316.63
146.201
146.809
146.261
147.477
146.201
146.204
146.202
146.202
146.787
146.201
146.201
146.201
146.201
146.201
146.201
146.464
146.74
146.385
146.201
146.201
146.354
146.201
146.201
146.222
147.395
146.22
146.201
146.201
146.657
146.222
146.201
146.201
148.283
146.527
273.677
146.201
146.646
146.203
146.201
146.201
146.201
146.201
146.201
146.205
146.201
146.201
146.202
146.201
146.201
146.201
146.201
146.201
146.201
146.201
146.214
146.201
146.205
146.201
146.202
146.202
146.248
146.46
146.35
146.201
146.201
146.201
146.201
146.268
146.211
146.201
146.201
146.201
146.201
146.201
146.267
146.201
146.201
146.201
146.201
146.201
146.202
146.201
146.203
146.203
146.231
146.201
146.201
146.204
146.201
146.201
146.201
146.201
146.201
146.201
146.203
146.201
146.202
146.201
146.602
146.718
146.201
146.202
146.201
146.201
146.201
146.201
146.201
146.201
188.657
2937.52
146.201
6382.46
146.227
146.201
14362.7
13226.7
146.247
146.316
146.48
146.247
146.204
146.201
146.211
146.201
12968.6
146.201
10031.6
146.201
146.201
146.201
146.371
146.395
146.391
146.201
146.201
146.201
146.201
146.201
146.202
146.201
146.201
146.211
146.201
146.448
146.201
146.202
146.202
146.201
146.201
146.202
146.201
146.257
146.227
146.318
146.249
146.204
146.201
146.201
146.201
146.249
146.201
146.248
146.225
146.201
146.206
146.208
146.214
146.201
146.208
146.201
146.21
146.205
146.201
146.206
280.033
146.437
146.258
146.202
146.21
146.489
146.201
146.201
146.201
146.201
146.208
146.201
146.277
146.402
1051.81