/*--------------------------------*- C++ -*----------------------------------*\
| =========                 |                                                 |
| \\      /  F ield         | OpenFOAM: The Open Source CFD Toolbox           |
|  \\    /   O peration     | Version:  v2012                                 |
|   \\  /    A nd           | Website:  www.openfoam.com                      |
|    \\/     M anipulation  |                                                 |
\*---------------------------------------------------------------------------*/
FoamFile
{
    version     2.0;
    format      ascii;
    class       volScalarField;
    location    "2";
    object      ILambda_14_0;
}
// * * * * * * * * * * * * * * * * * * * * * * * * * * * * * * * * * * * * * //

dimensions      [1 0 -3 0 0 0 0];


internalField   nonuniform List<scalar> 
108993
(
146.231
146.202
146.201
146.206
146.217
146.201
146.207
146.218
146.201
146.201
146.202
146.202
146.211
146.201
146.238
146.205
146.201
146.203
146.208
146.201
146.307
146.203
146.202
146.324
146.21
146.201
146.201
146.201
146.201
146.201
146.201
146.201
146.201
146.221
146.205
146.249
146.201
146.305
1907.52
146.22
146.201
146.203
146.201
146.207
146.203
154.069
146.201
146.208
146.201
146.201
146.201
146.271
146.201
146.201
146.202
146.303
146.201
146.201
146.216
146.201
146.201
146.201
146.203
146.201
146.203
146.201
146.204
146.213
146.202
146.216
146.331
146.213
146.25
146.213
146.201
146.201
146.201
146.203
146.201
146.207
146.201
146.205
146.209
146.202
146.206
146.201
146.203
146.201
146.205
146.205
146.201
146.201
146.201
146.222
146.201
146.201
146.201
146.25
146.201
146.201
146.201
146.204
146.283
146.204
146.253
146.201
146.206
146.202
146.205
147.055
146.212
146.201
146.316
146.295
146.207
146.323
146.218
146.219
146.206
146.201
146.202
146.201
146.534
146.205
146.3
146.202
146.201
146.24
146.201
146.201
146.201
146.201
146.214
146.326
146.203
146.201
146.201
146.229
146.201
146.201
146.205
146.201
146.201
146.201
146.202
146.269
146.248
156.936
146.205
146.574
146.557
146.201
146.201
146.482
146.212
146.223
146.254
146.201
146.201
146.226
146.483
146.201
146.201
146.346
146.201
146.242
146.201
146.201
146.201
146.214
146.215
146.309
146.231
146.202
146.201
146.201
146.223
146.201
146.214
146.205
146.202
146.208
146.202
146.206
146.201
146.32
146.204
146.21
146.218
146.206
146.223
146.202
146.231
146.22
146.219
146.21
146.201
146.285
146.252
146.207
146.201
146.218
146.344
146.201
146.243
144.439
146.201
147.228
146.216
917.41
146.26
146.293
146.223
146.353
174.069
146.27
146.246
146.201
146.202
146.201
146.201
146.657
146.24
146.216
146.201
146.201
146.202
146.201
146.276
146.201
146.23
146.34
146.201
146.201
146.202
146.201
146.202
146.201
146.217
146.201
146.201
146.204
146.201
146.201
146.201
146.22
146.306
146.124
146.201
146.205
146.201
146.203
146.203
146.216
146.202
146.201
146.202
146.202
146.201
146.201
146.201
146.201
146.201
146.202
146.202
146.201
146.201
146.201
146.201
146.21
146.204
146.201
153.365
2862.09
151.837
146.218
146.201
148.714
146.211
146.201
146.201
146.307
146.399
146.201
146.201
146.201
146.209
146.201
146.213
191.546
146.201
146.201
146.201
146.201
146.201
146.201
146.201
146.201
146.202
146.201
143.083
146.603
146.238
146.201
146.203
146.201
146.201
146.201
146.201
151.023
146.201
146.201
146.201
146.24
146.201
146.634
146.201
146.201
645.674
146.203
146.201
146.201
146.201
146.201
146.276
146.342
8707.67
144.119
146.201
146.209
146.201
145.407
146.993
146.201
1516.71
146.276
146.201
146.201
146.213
146.201
146.203
146.246
146.201
146.221
146.224
146.216
146.201
146.201
146.201
146.201
146.201
146.201
146.241
147.145
146.201
146.222
146.215
146.276
146.201
146.201
146.201
146.201
146.201
146.201
146.201
146.201
146.201
146.201
146.214
7782.41
146.205
146.201
146.201
147.863
146.201
275.606
146.207
146.205
154.585
146.212
144.017
157.78
146.201
146.244
146.222
146.203
146.201
146.448
146.201
151.131
203.118
146.203
181.96
146.201
162.694
146.201
8942.52
146.202
146.202
146.202
146.201
150.934
170.388
146.202
146.201
146.203
146.202
146.276
146.202
1731.06
146.201
146.201
17396.7
146.298
146.201
146.202
146.646
146.203
146.228
146.201
2336.93
146.201
2559.07
146.201
146.201
1596.29
146.311
146.535
5302.84
146.204
7558.86
269.706
6886.27
146.201
146.203
146.201
146.201
146.201
146.201
146.201
146.217
146.201
146.204
146.201
146.223
146.204
146.202
146.228
146.201
146.201
146.201
146.201
146.202
146.213
146.201
146.268
146.211
146.201
146.215
146.201
147.112
146.202
147.116
146.633
146.201
146.201
146.201
147.089
146.201
146.201
146.203
146.219
146.201
146.201
146.201
146.201
146.201
146.246
146.298
146.208
146.231
146.201
146.201
146.201
146.201
146.201
146.201
146.201
146.212
146.235
146.211
146.205
146.202
146.201
146.204
146.201
146.201
146.202
146.201
146.201
146.201
146.201
146.201
146.201
146.202
146.483
146.201
146.201
146.303
146.201
146.21
146.203
146.201
146.201
146.201
146.201
146.201
146.201
146.201
146.201
146.201
146.201
146.202
146.204
146.201
146.208
146.206
146.205
146.209
146.205
146.201
146.242
146.206
146.201
146.278
146.205
146.231
146.202
146.203
147.903
146.203
151.79
146.208
146.203
146.205
146.21
146.202
146.206
146.23
146.201
144.265
146.201
155.666
146.24
146.213
146.202
146.201
146.201
149.681
146.201
146.223
146.201
146.201
146.203
146.227
243.664
146.246
146.201
146.201
146.201
146.203
146.202
7002.26
146.231
146.758
146.202
146.229
146.231
6878.89
146.245
146.203
146.301
146.201
146.204
146.271
146.202
156.556
146.237
146.201
146.201
146.201
146.35
146.201
146.201
2185.64
146.201
146.201
146.358
146.204
146.201
146.201
146.205
2679.34
146.201
146.201
146.356
2881.12
146.357
146.201
146.201
146.51
146.201
146.204
146.201
146.201
146.201
146.206
146.36
146.366
146.201
146.269
146.201
146.257
146.338
146.201
146.202
146.201
146.233
146.235
146.202
146.489
146.201
146.343
146.282
146.202
146.201
146.353
2996.34
146.206
146.237
146.201
146.243
146.201
146.207
146.201
146.202
146.201
146.269
146.201
146.202
146.202
146.206
146.24
146.213
146.204
146.201
146.254
146.214
146.234
146.214
146.214
146.201
146.201
146.201
146.201
146.201
146.209
146.201
146.225
146.292
146.201
146.212
146.249
146.213
146.214
146.201
146.217
146.203
146.201
172.092
146.204
146.224
146.202
146.201
193.845
146.201
146.275
146.203
146.203
863.624
146.201
146.204
146.217
146.201
146.201
4338.98
146.202
496.784
146.202
272.692
146.319
146.201
146.201
146.201
146.201
146.201
146.201
146.201
146.201
146.201
146.211
159.937
185.436
146.203
1036.05
146.201
146.237
146.203
146.201
146.232
146.201
146.204
146.241
146.209
146.205
146.203
146.209
146.222
146.246
146.238
146.235
146.206
146.206
146.205
146.201
146.201
146.23
146.201
146.201
146.203
146.201
146.21
152.618
540.87
146.202
146.205
146.206
146.202
146.203
146.213
146.25
146.201
146.201
146.207
146.201
146.205
146.201
146.202
146.201
146.201
146.221
146.201
146.209
146.206
146.238
146.201
146.202
162.109
146.21
146.201
146.206
146.277
146.204
146.501
146.325
146.202
146.206
9078.3
155.364
146.205
146.201
146.365
146.205
146.205
146.203
146.201
146.205
146.227
146.208
146.239
146.201
231.636
146.201
146.217
146.561
146.201
927.599
146.204
807.803
146.201
146.204
146.201
146.203
146.201
146.201
146.201
146.273
146.201
146.206
146.205
146.201
146.201
146.201
146.238
146.22
146.304
146.201
146.204
165.186
146.201
147.242
146.201
146.201
146.201
9226.15
146.208
146.201
146.244
146.266
146.202
146.219
148.111
146.239
146.206
146.208
146.201
146.203
146.259
146.237
146.202
146.223
146.205
146.228
146.211
146.201
146.256
146.202
146.201
168.2
146.213
170.023
146.229
161.464
146.214
146.203
146.204
146.216
146.286
146.202
146.204
146.204
146.237
146.202
146.251
146.201
146.201
146.201
146.211
146.201
146.228
146.21
146.203
146.205
146.248
146.202
146.232
146.209
146.264
146.201
146.237
146.221
146.25
146.221
146.29
146.202
146.769
146.201
145.289
172.028
11170
146.201
146.201
146.267
146.201
146.291
146.201
146.244
146.202
145.665
146.201
146.259
146.203
146.201
146.784
146.201
146.33
152.314
11953.4
146.201
146.204
146.231
146.201
146.201
146.237
146.857
146.25
146.728
146.25
146.201
146.201
146.201
146.202
146.204
146.201
146.203
146.202
146.201
146.243
146.201
146.201
146.196
146.201
146.209
146.201
146.201
146.201
146.201
149.565
146.311
146.236
146.201
146.201
146.201
146.276
146.269
146.201
146.201
146.581
146.291
146.292
146.201
146.201
146.248
146.403
146.202
146.262
1378.37
146.201
146.201
146.201
146.201
146.28
148.37
146.285
146.262
146.224
146.202
146.201
146.201
146.203
146.229
146.638
146.201
146.201
146.201
146.225
146.201
146.332
146.202
146.228
146.218
146.201
146.221
146.201
146.211
146.235
146.201
146.519
146.225
146.201
146.201
146.207
147.525
146.201
146.201
146.201
146.201
146.201
146.23
146.204
146.201
146.221
146.208
146.326
146.202
146.258
146.201
146.23
146.215
146.201
146.234
146.214
146.276
146.201
146.22
146.228
146.345
146.201
146.205
146.201
146.201
146.214
146.201
146.483
146.215
146.205
146.201
146.212
146.212
146.247
146.214
146.204
146.216
146.203
146.203
146.221
146.249
146.201
146.201
15410.6
146.201
146.209
146.205
146.299
146.209
146.201
146.243
146.269
146.201
146.21
146.233
146.201
146.206
146.205
146.244
146.201
146.324
146.331
146.257
146.217
516.407
146.204
146.202
146.204
146.201
146.222
146.203
146.25
146.251
146.26
146.206
146.364
146.231
146.214
146.202
146.201
146.201
146.201
146.201
146.215
146.223
146.273
146.201
146.262
146.212
146.22
146.201
146.207
146.506
146.201
146.22
146.212
146.201
146.201
146.201
146.664
146.205
146.202
146.217
146.201
146.202
146.205
146.201
146.201
146.201
11598.3
146.204
146.209
146.207
146.201
146.201
146.201
146.201
146.213
146.202
146.214
146.202
146.24
146.241
146.34
146.208
146.201
146.201
146.312
146.212
146.229
146.216
146.356
146.28
334.79
146.225
146.241
146.201
146.202
146.201
146.225
146.201
146.201
146.211
146.258
146.201
146.204
146.201
146.201
146.229
146.202
9267.67
3788.86
146.287
146.215
146.201
146.202
146.201
146.201
146.288
146.201
146.201
146.201
146.201
146.201
146.206
146.217
146.201
146.283
146.201
146.201
146.203
174.542
146.211
146.224
146.201
146.201
146.677
146.213
146.226
146.202
146.202
146.202
2670.68
146.216
146.201
146.236
146.206
146.256
146.236
146.202
146.201
146.201
146.203
146.201
146.204
146.227
146.604
146.478
146.25
146.201
146.201
146.251
146.201
146.201
146.201
146.201
146.201
1277.79
146.241
146.309
146.204
146.202
146.229
146.202
146.244
146.201
146.201
146.252
146.207
146.274
146.27
146.218
146.254
146.201
146.208
146.202
146.202
146.202
3711.18
146.203
146.203
146.224
118.569
146.22
146.201
146.202
146.201
146.231
146.771
146.201
146.208
146.231
146.213
146.336
146.223
146.204
146.211
146.201
146.276
146.202
146.337
146.288
146.314
146.201
146.203
146.206
922.016
146.201
146.202
146.233
7192.63
146.223
146.201
146.224
146.203
146.202
146.219
146.215
146.215
146.231
146.213
146.201
146.219
146.22
146.204
146.204
146.201
146.22
146.202
146.201
146.201
146.204
146.201
146.201
146.201
146.215
146.202
146.204
146.201
146.274
146.201
146.201
146.201
146.231
146.42
146.201
146.294
146.203
146.201
146.201
146.201
146.202
146.201
146.201
146.308
146.201
146.234
146.246
146.201
146.277
149.634
146.245
146.201
146.224
146.201
146.218
146.231
146.201
146.201
146.202
146.221
146.201
146.201
146.203
146.201
146.201
146.201
146.624
146.242
146.253
155.426
146.201
146.487
146.201
146.201
146.201
146.201
146.201
149.127
176.33
146.235
146.246
207.318
146.242
146.234
146.235
146.226
146.223
146.221
146.202
146.627
146.204
146.202
146.201
146.204
146.201
146.201
146.201
146.36
146.535
146.203
146.201
146.309
146.201
146.201
146.205
146.201
146.22
146.201
146.201
146.217
146.205
146.234
146.201
146.203
146.248
146.244
146.201
146.203
146.304
146.201
146.204
146.203
146.235
146.201
146.219
146.204
146.25
146.182
148.981
146.203
146.203
376.871
146.201
146.201
157.968
146.201
146.201
146.201
146.202
166.154
146.201
146.338
146.364
146.201
185.841
146.201
146.378
146.201
146.201
146.519
146.223
146.201
147.371
146.202
146.201
146.318
146.201
146.201
146.315
306.568
146.24
146.201
146.374
146.201
146.277
592.963
146.194
146.218
146.22
146.202
3188.86
146.204
146.201
146.201
146.201
146.201
146.201
146.201
146.201
146.251
146.64
146.209
146.252
146.201
146.201
146.201
146.201
146.201
146.202
146.313
146.232
146.201
146.201
146.201
146.259
146.204
146.201
146.251
146.202
146.201
146.201
146.221
146.277
146.296
150.596
146.313
146.201
146.226
146.659
146.203
146.201
146.201
146.416
147.055
146.241
150.545
146.201
146.201
4290.64
146.201
146.221
146.201
146.201
146.203
146.201
146.215
146.224
146.221
3228.57
146.25
146.221
146.057
146.208
146.201
146.258
146.201
146.248
146.201
146.201
146.201
146.205
146.202
146.204
146.202
146.272
146.419
146.614
146.201
146.202
238.962
146.642
146.201
146.207
146.201
146.21
146.211
146.258
463.263
161.565
146.201
146.261
242.189
146.518
146.201
156.963
146.211
146.21
243.019
146.202
247.149
146.209
146.201
146.208
153.999
146.209
146.21
146.301
146.217
146.204
146.362
322.098
319.684
146.201
146.201
329.148
146.201
146.202
146.573
146.201
6344.95
146.209
146.201
146.235
146.201
146.201
146.21
143.451
146.302
146.638
839.999
146.209
146.364
146.216
146.206
146.215
146.202
146.204
146.201
146.201
146.201
146.227
146.201
146.201
146.201
447.55
146.213
146.21
148.897
146.207
146.201
146.277
146.201
146.214
146.201
146.201
146.209
146.221
151.258
146.396
146.337
146.262
146.216
146.201
146.215
146.244
146.607
146.206
146.349
146.201
146.286
146.201
146.519
146.203
146.27
146.22
146.201
146.236
146.211
146.415
146.202
146.239
146.201
146.359
146.476
146.201
146.201
146.228
146.17
146.325
145.28
146.201
146.549
201.087
146.201
146.202
146.213
146.201
146.238
146.201
146.233
146.536
146.321
146.242
151.702
167.86
146.235
146.202
153.142
7985.99
146.204
146.375
146.201
146.24
146.226
146.202
146.458
146.204
146.201
146.201
146.203
146.275
146.201
146.201
146.202
146.202
146.201
146.215
146.202
146.201
146.36
146.351
146.201
18861.2
146.235
146.201
146.202
146.082
146.464
146.27
146.235
877.378
146.305
1032.26
146.393
146.201
189.939
146.201
146.204
146.208
920.971
146.203
146.265
146.331
146.484
146.651
146.23
146.202
146.217
146.205
146.201
146.201
146.201
146.201
146.202
146.201
157.632
178.389
169.964
146.201
151.422
146.212
146.373
146.205
146.266
146.299
823.665
146.201
146.202
146.207
146.201
146.201
146.201
146.202
146.232
146.222
146.293
146.227
146.215
599.062
146.233
146.731
146.292
146.244
199.119
146.217
146.204
146.218
146.684
146.361
146.201
146.201
146.201
146.204
146.23
3403.06
2355.12
2112.89
146.704
146.201
483.222
146.42
146.201
146.205
146.201
146.201
146.326
146.202
146.201
146.884
146.204
146.206
146.201
146.206
146.201
146.201
146.516
146.203
146.201
146.517
146.346
146.397
146.21
146.202
146.201
146.201
146.227
146.21
146.367
666.798
146.254
146.202
148.422
146.232
146.201
146.264
146.265
146.272
182.739
146.267
146.592
146.435
146.202
215.944
146.268
148.817
194.989
146.204
273.012
146.201
146.201
228.632
146.204
146.202
170.613
266.777
191.542
175.672
146.201
146.632
144.267
146.228
146.203
146.202
161.336
194.192
147.783
146.351
146.211
146.203
146.339
261.431
156.454
145.875
146.275
178.388
146.201
146.201
16883.8
172.537
147.865
146.465
147.259
673.915
146.319
146.205
146.246
146.201
167.972
146.201
146.245
146.387
146.201
146.679
146.201
177.836
170.395
146.201
146.201
216.732
146.201
146.201
146.201
146.201
179.67
146.201
170.501
148.896
146.201
146.203
146.255
146.202
146.201
148.447
146.201
146.201
146.201
146.213
146.216
146.216
148.872
146.206
146.201
146.985
146.201
146.283
3709.38
146.201
146.201
146.203
146.201
149.476
146.209
146.201
146.201
146.201
146.201
6082.5
14724
146.209
146.201
21273.8
146.201
146.25
146.205
145.059
146.201
335.93
146.227
146.201
146.278
146.202
146.283
146.315
146.208
149.589
146.212
146.201
146.201
146.276
146.201
146.205
146.201
191.962
146.201
146.207
146.201
146.202
146.201
201.262
146.239
146.209
146.209
146.33
146.201
146.249
146.208
146.201
146.247
147.809
146.236
146.201
146.257
146.226
150.185
146.201
314.262
146.201
230.146
146.313
146.201
146.3
158.669
146.329
146.279
146.298
146.204
146.201
146.201
146.248
146.253
146.202
146.234
146.201
146.205
146.201
146.259
153.877
147.758
146.201
146.283
146.23
146.201
146.225
146.201
146.202
146.201
178.733
146.304
150.026
146.201
146.201
146.204
146.214
146.208
162.547
146.201
146.201
146.223
146.293
146.279
146.201
147.445
146.201
146.202
146.216
246.748
146.287
146.165
146.277
146.243
146.331
146.276
146.651
146.207
9256.03
146.201
146.217
146.339
146.309
10979.1
7664.09
5488.76
10168.5
146.263
13683
146.341
146.645
146.281
146.446
9108.85
146.201
171.733
17371
146.201
146.605
146.263
155.223
146.282
146.342
146.275
448.39
146.201
146.263
146.201
146.204
820.122
146.201
269.246
146.228
146.201
146.201
146.201
146.211
146.204
146.233
146.221
146.201
193.244
146.204
146.298
146.201
146.233
146.201
146.201
146.27
146.201
146.201
146.209
146.204
146.201
2025.48
1830.23
146.284
146.233
146.201
146.203
146.201
146.204
146.201
146.205
146.202
146.347
146.233
1779.22
146.204
146.202
146.201
146.237
146.201
146.201
146.218
146.201
146.205
2359.18
146.218
146.31
146.201
146.201
146.389
146.312
146.201
146.209
146.206
146.201
146.211
146.204
146.201
146.21
146.201
146.201
146.21
146.201
146.395
146.206
146.271
146.201
146.205
146.208
146.217
146.207
146.218
146.264
146.204
146.201
146.201
146.215
161.065
146.201
146.279
167.458
146.201
146.201
146.202
146.203
160.964
146.201
146.212
146.221
146.207
167.53
146.201
146.201
146.201
146.202
146.207
146.201
146.201
146.207
146.201
146.263
146.201
146.201
146.204
146.201
146.201
146.547
146.207
146.201
249.966
146.478
146.202
146.205
146.201
146.201
146.265
146.201
146.214
146.255
146.208
146.205
146.202
146.205
146.201
146.202
146.201
146.21
468.066
146.324
1385.97
146.201
146.211
146.205
146.201
919.778
146.204
146.202
142.788
146.205
514.243
146.201
146.204
146.214
146.211
146.664
146.211
146.718
146.201
146.208
146.617
146.204
146.243
146.227
146.203
146.213
146.201
146.615
146.209
149.513
146.202
149.622
146.207
146.208
146.201
146.269
146.202
146.209
146.203
146.201
146.212
146.201
146.201
146.201
146.201
146.201
146.201
146.205
146.239
146.201
146.201
146.221
146.201
146.223
146.201
146.244
146.212
146.202
146.202
146.201
146.218
146.201
146.201
146.201
146.201
146.201
146.202
146.359
146.201
146.221
4665.86
146.201
146.205
146.212
146.201
146.201
146.201
146.201
146.201
146.203
146.211
146.201
146.214
146.21
146.201
146.201
146.253
146.201
146.201
146.244
146.201
146.201
146.204
146.201
146.202
146.212
146.201
146.201
146.203
148.697
146.215
146.274
146.201
146.201
146.294
146.219
146.201
146.201
146.201
146.203
183.447
146.201
146.201
146.201
146.248
146.226
146.206
146.248
146.22
146.204
146.209
146.201
146.201
146.202
534.252
146.214
146.215
146.228
146.248
146.213
146.217
146.247
146.281
146.247
146.212
146.201
146.228
146.202
146.24
146.217
146.24
146.201
146.205
146.225
146.201
146.201
146.272
146.225
146.201
146.204
146.231
146.201
146.237
146.228
146.784
146.238
146.201
146.749
146.543
146.915
146.239
146.201
146.222
146.242
146.201
146.231
146.249
146.202
146.203
146.201
146.249
146.201
146.201
146.203
146.212
146.205
146.201
146.25
146.754
146.201
146.259
146.249
146.919
146.203
146.266
147.096
146.201
146.249
146.201
146.306
146.245
146.251
146.201
146.201
146.209
146.201
146.305
146.203
146.203
146.365
146.32
146.201
146.202
146.203
146.207
146.339
146.201
146.209
146.201
146.216
146.239
146.402
146.673
146.203
146.202
11930.9
146.228
146.201
146.203
146.288
146.22
146.229
146.202
146.252
146.206
146.266
10798.1
146.221
146.203
146.215
146.214
146.241
146.203
146.217
146.219
146.201
146.211
146.22
146.245
146.224
146.201
146.453
146.201
146.201
146.288
146.201
147.131
146.201
146.385
11846.3
146.342
146.201
146.249
146.25
146.368
146.201
146.544
146.212
146.586
147.312
146.253
146.201
3271.11
146.242
146.232
147.78
146.28
146.202
146.204
146.203
146.201
146.201
146.201
146.201
146.201
146.201
146.201
146.235
250.448
146.206
146.201
146.204
146.274
146.293
146.202
146.217
146.201
146.201
146.201
146.201
146.217
146.202
146.209
146.201
146.201
146.204
256.921
146.201
146.227
146.235
157.548
146.201
146.245
146.4
146.201
146.201
1524.94
146.201
146.201
146.201
146.204
146.21
146.201
146.201
146.201
146.203
146.206
146.244
146.478
146.201
146.205
146.201
146.25
146.235
146.204
146.201
151.129
146.204
146.206
146.212
146.244
146.204
146.201
146.201
156.343
148.436
146.201
146.225
146.205
146.201
146.204
146.266
146.207
146.201
146.279
146.201
146.205
146.248
146.204
146.301
146.371
146.201
146.201
146.207
146.21
146.206
146.202
146.201
146.201
146.201
146.201
146.201
146.279
146.205
146.203
146.21
1541.62
2970.06
146.201
146.217
146.245
146.201
146.226
4861.09
146.201
146.296
146.46
146.201
146.201
146.201
146.317
146.222
146.203
146.203
146.201
146.205
146.204
146.252
146.215
146.265
146.209
146.201
146.22
1592.61
146.203
146.202
146.201
525.976
6389.05
146.201
146.202
146.201
146.204
146.213
146.338
146.201
146.286
146.207
146.215
146.201
146.201
146.268
146.201
146.201
146.201
146.201
146.235
146.21
146.205
146.203
146.201
146.201
146.201
146.201
148.042
146.736
146.201
146.274
146.201
146.201
146.201
154.69
160.41
154.15
146.276
146.325
146.203
146.201
146.205
146.233
18208.9
146.201
146.201
146.202
146.21
147.314
146.204
146.201
17932.1
18195.9
146.22
4324.04
1482.64
146.208
146.3
146.496
146.201
146.208
146.201
146.206
146.317
146.213
14002.1
147.788
150.774
161.107
843.967
146.231
146.203
146.203
146.414
146.203
801.471
146.207
146.612
146.316
146.201
146.287
148.909
146.201
146.25
177.38
146.201
146.201
4161.95
146.213
146.243
146.201
146.201
146.201
146.212
146.201
146.281
146.257
146.335
146.231
146.206
146.201
238.447
146.227
146.201
146.201
146.246
1085.71
146.22
146.201
146.23
146.201
146.202
146.201
146.211
146.324
146.204
146.201
146.216
146.201
146.209
146.202
146.203
146.201
146.219
146.201
146.204
146.298
146.201
146.332
146.201
146.201
146.201
146.203
146.201
146.201
146.202
169.31
146.203
416.231
146.201
146.201
146.202
146.294
146.28
146.201
146.224
161.846
146.732
484.891
146.216
146.288
146.211
158.153
552.07
146.22
146.275
146.201
146.201
146.204
146.202
146.201
146.219
146.211
146.928
146.201
146.209
146.201
146.202
146.201
146.201
146.212
146.201
146.215
176.649
146.235
146.201
146.201
146.203
146.253
146.204
146.203
180.711
146.201
171.386
146.252
146.256
146.224
206.952
307.304
214.83
184.193
146.319
146.282
146.239
148.427
149.534
146.202
146.201
146.201
146.201
146.227
281.739
146.277
146.213
398.686
396.403
146.202
301.056
146.281
146.288
146.222
146.201
146.339
136.151
146.204
146.203
146.339
146.325
146.319
154.214
144.313
146.279
146.215
146.297
146.219
146.215
146.234
146.317
146.202
146.258
146.201
146.201
146.215
146.201
146.201
146.33
146.201
146.215
146.703
146.201
146.25
138.763
138.579
146.204
136.615
146.4
135.804
146.203
146.242
138.282
146.277
144.162
143.198
146.202
146.256
146.203
146.23
146.602
146.204
146.201
172.387
146.351
146.283
146.337
146.204
146.208
159.9
146.201
146.204
146.201
146.211
146.341
163.932
163.162
146.218
146.201
146.268
146.573
146.214
146.202
149.063
798.806
146.485
147.43
146.205
146.347
146.202
146.203
146.304
146.201
146.201
146.201
146.201
146.599
146.201
146.219
146.201
146.201
146.201
146.256
146.202
146.284
146.277
146.201
146.201
146.355
146.201
146.629
146.201
146.201
146.417
146.204
146.201
146.201
146.627
146.205
146.201
146.203
146.207
146.201
146.201
146.228
146.208
146.212
146.209
146.201
146.201
146.201
146.202
148.863
146.201
146.208
146.201
146.213
146.201
146.243
146.201
146.287
146.201
146.201
146.201
146.201
146.255
146.201
146.204
146.207
146.203
146.201
178.791
146.201
146.201
146.327
146.201
146.225
146.275
146.209
146.21
146.201
146.201
146.202
146.201
146.201
146.213
146.203
146.207
146.201
146.276
146.224
146.201
146.205
146.202
146.205
146.202
148.852
146.205
146.201
146.245
146.225
146.282
146.303
146.247
146.217
146.202
146.232
146.227
146.203
146.202
146.201
182.182
146.207
146.208
182.303
146.201
146.203
146.201
146.201
146.201
146.201
16147.4
146.202
146.207
146.201
180.885
181.202
181.374
146.233
146.654
146.321
146.201
146.216
146.201
181.125
146.201
146.201
146.202
146.201
5027.39
146.201
146.201
146.201
146.245
146.218
146.297
146.332
146.201
146.501
146.258
146.201
146.238
146.201
146.201
146.201
146.201
146.201
146.221
146.201
146.382
146.315
146.265
146.439
165.756
146.221
146.201
146.201
146.201
146.204
146.201
146.201
146.201
146.201
146.578
146.231
146.206
146.23
146.201
159.362
146.212
146.362
146.207
146.201
161.552
146.201
146.201
146.201
172.098
254.686
154.094
146.227
154.554
146.201
146.209
146.201
146.222
146.262
146.272
146.248
146.201
146.201
146.295
146.247
146.201
146.356
146.201
146.201
168.013
146.201
146.216
146.201
146.223
146.201
146.235
146.201
146.201
146.221
146.201
146.242
146.201
146.253
146.201
146.203
163.033
146.201
146.201
146.201
622.198
146.202
146.456
148.264
146.334
146.201
175.068
146.224
146.201
146.201
146.695
146.231
146.201
146.288
234.422
146.201
146.204
146.202
146.309
146.215
146.237
146.203
146.201
3957.91
146.201
8605.24
146.201
146.299
146.201
146.201
146.262
146.201
146.202
146.201
146.201
146.242
4435.09
146.24
146.301
146.247
201.623
146.248
146.201
146.201
146.201
148.965
146.389
146.218
146.252
146.208
146.284
146.25
148.088
146.272
146.201
146.842
146.289
146.237
146.201
272.179
146.24
146.24
146.214
146.604
146.306
1122.8
146.201
500.463
146.207
146.242
146.227
146.256
331.525
146.201
146.201
146.553
146.249
146.212
146.241
146.243
146.201
474.28
146.243
146.202
146.201
146.201
146.239
146.201
557.57
146.229
146.201
146.201
235.317
146.223
146.267
146.236
286.542
146.222
146.201
146.201
148.838
146.201
146.201
146.203
146.217
146.203
211.099
146.209
146.204
146.372
146.22
146.32
146.201
4589.94
146.201
146.201
146.221
146.201
146.201
146.294
238.139
155.05
146.879
146.201
146.207
146.203
146.228
926.043
146.415
393.419
146.201
146.242
146.201
146.232
146.201
858.874
160.384
146.201
146.216
146.201
146.201
146.211
146.204
146.255
146.228
156.305
6126.85
146.201
146.201
146.238
1297.42
146.201
146.212
149.073
146.201
146.213
146.218
146.201
146.201
146.201
146.201
146.201
146.201
146.299
146.202
146.349
146.201
158.458
10650.8
146.42
146.359
146.202
146.236
146.201
146.201
146.366
150.504
146.218
146.394
211.453
146.606
146.201
146.268
9214.74
146.613
146.5
146.315
146.201
146.548
146.201
146.201
146.201
146.207
146.371
146.201
146.33
146.201
146.204
146.201
1169.82
146.214
146.201
146.526
146.74
146.224
146.802
146.531
146.201
146.201
146.893
146.203
146.201
146.201
146.201
146.201
146.204
146.205
3810.63
147.038
146.691
146.394
146.243
146.334
146.201
146.201
146.201
146.366
146.311
146.201
146.319
146.366
146.211
146.379
146.651
146.245
146.134
284.096
146.203
146.618
146.201
146.201
146.239
146.312
146.362
146.201
146.201
146.202
146.427
146.201
146.562
146.312
146.317
146.843
146.201
146.201
146.884
146.225
146.201
146.755
146.236
146.31
146.201
146.639
146.206
146.358
146.201
146.201
146.256
146.213
146.323
146.201
146.245
146.369
146.371
146.203
146.201
146.299
146.347
146.201
146.201
146.201
146.39
147.076
150.519
146.363
146.202
146.37
146.369
146.201
146.202
146.203
146.202
146.204
146.203
146.263
146.201
146.205
146.201
146.382
146.201
146.201
146.201
146.201
146.397
146.793
146.201
146.372
146.211
146.209
146.201
146.209
146.201
146.372
146.393
146.203
146.204
146.25
146.201
146.201
146.201
146.201
146.201
146.347
146.201
146.256
146.201
146.201
146.204
146.355
146.201
146.205
146.334
146.201
146.203
146.201
146.204
150.577
146.201
146.24
146.204
146.26
146.205
146.201
146.201
146.201
146.204
146.204
146.202
146.353
146.273
146.201
146.201
146.201
146.201
146.201
146.201
146.201
146.201
146.201
146.201
146.201
146.201
146.204
146.228
146.331
146.22
146.263
146.202
146.201
146.233
146.201
146.299
146.207
146.267
146.201
146.201
146.201
146.201
146.201
146.201
146.203
146.61
146.201
146.201
146.201
146.204
146.201
146.206
146.201
146.201
146.201
146.215
146.203
146.207
146.201
146.201
146.203
146.203
146.206
146.201
146.201
146.201
146.236
146.201
146.227
146.214
146.207
146.203
146.213
146.578
146.203
146.507
146.372
146.202
156.809
146.201
146.633
146.201
146.777
146.318
146.641
151.346
146.201
146.201
146.201
146.228
146.386
146.201
146.599
146.214
146.219
146.201
146.201
146.295
146.201
146.558
146.201
146.201
146.201
146.201
146.201
146.201
146.431
146.46
146.33
146.201
146.201
146.32
146.201
146.201
146.224
146.225
146.229
146.201
146.201
146.679
146.224
146.201
146.201
146.256
146.41
146.942
146.201
146.51
146.203
146.32
146.201
146.224
146.201
146.201
146.202
146.201
146.201
146.201
146.201
146.201
146.201
146.201
146.201
146.201
146.201
146.202
146.201
146.204
146.201
146.208
146.201
146.274
146.391
146.348
146.201
146.201
146.201
146.201
146.227
146.201
146.201
146.201
146.201
146.201
146.201
146.224
146.201
146.213
146.201
146.201
146.201
146.205
146.201
146.205
146.209
146.22
146.201
146.201
146.216
146.201
146.201
146.201
146.201
146.201
146.201
146.207
146.201
146.201
146.201
146.335
146.427
146.201
146.201
146.201
146.214
146.201
146.201
146.201
146.219
146.755
2471.12
146.201
3274.37
146.203
146.201
13101.1
13376.4
146.206
146.308
146.439
146.207
146.201
146.204
146.201
146.201
11002.1
146.201
11242.5
146.201
146.201
146.201
146.287
146.289
146.269
146.201
146.201
146.201
146.201
146.201
146.201
146.201
146.201
146.201
146.201
146.286
146.201
146.201
146.201
146.201
146.201
146.273
146.201
146.254
146.244
146.293
146.208
146.201
146.201
146.201
146.201
146.208
146.201
146.207
146.244
146.201
146.201
146.201
146.216
146.201
146.232
146.201
146.201
146.227
146.201
146.23
146.309
146.246
146.206
146.212
146.276
146.245
146.201
146.202
146.201
146.201
146.25
146.201
146.218
146.239
161.637
146.434
583.027
146.202