/*--------------------------------*- C++ -*----------------------------------*\
| =========                 |                                                 |
| \\      /  F ield         | OpenFOAM: The Open Source CFD Toolbox           |
|  \\    /   O peration     | Version:  v2012                                 |
|   \\  /    A nd           | Website:  www.openfoam.com                      |
|    \\/     M anipulation  |                                                 |
\*---------------------------------------------------------------------------*/
FoamFile
{
    version     2.0;
    format      ascii;
    class       volScalarField;
    location    "2";
    object      ILambda_6_0;
}
// * * * * * * * * * * * * * * * * * * * * * * * * * * * * * * * * * * * * * //

dimensions      [1 0 -3 0 0 0 0];


internalField   nonuniform List<scalar> 
108993
(
146.224
146.201
146.201
146.201
146.201
146.201
146.201
146.201
146.201
157.536
146.201
146.201
146.201
146.724
146.236
146.203
161.155
147.038
146.201
146.201
146.201
146.201
146.201
146.201
146.201
146.201
146.201
146.201
146.201
146.201
146.201
146.406
146.201
146.361
146.201
146.201
146.201
146.201
163.032
146.285
146.201
146.201
146.289
146.201
146.322
147.94
146.201
146.201
146.201
146.201
146.201
146.219
146.201
146.201
147.921
146.202
146.201
146.201
146.201
146.201
146.201
146.201
146.201
146.201
146.201
146.201
146.201
146.201
147.119
146.559
146.201
146.201
146.201
146.201
146.201
146.201
146.201
152.518
146.201
146.201
146.201
148.665
146.201
146.201
146.936
146.239
146.201
146.201
146.201
146.201
146.201
146.201
146.201
146.201
146.201
146.323
146.201
146.201
146.201
146.201
146.201
146.201
146.203
146.329
146.201
146.201
146.201
146.201
146.201
146.314
146.299
146.201
146.215
146.216
146.201
146.309
146.201
146.201
182.503
146.201
150.292
146.201
146.202
146.201
146.201
146.222
146.201
146.201
146.201
146.201
146.231
146.201
146.201
146.454
146.201
146.201
146.201
146.201
146.201
146.684
146.201
146.201
147.159
146.201
146.201
146.201
146.201
146.261
146.201
146.436
146.442
146.201
146.201
146.463
146.201
146.201
146.209
146.201
146.201
146.219
146.461
146.201
146.201
146.201
146.228
146.207
146.201
146.201
146.201
146.201
146.201
146.202
146.218
146.201
146.201
146.201
146.201
146.201
146.201
146.201
165.427
146.201
146.201
146.201
146.548
146.201
146.201
146.466
146.383
146.201
146.201
146.201
146.201
146.201
146.201
146.201
146.201
146.201
146.201
146.201
146.201
146.201
146.201
146.201
146.201
146.225
146.201
146.223
146.201
131.644
146.21
146.201
146.201
146.209
5468.09
146.201
146.243
146.201
146.201
146.201
146.201
146.407
146.218
146.201
146.201
146.201
146.201
146.201
146.301
146.201
146.228
146.201
146.201
146.201
146.201
146.201
146.201
146.201
146.203
146.201
146.201
146.201
146.201
146.201
146.201
146.202
146.211
146.202
146.201
146.201
146.201
146.201
146.201
146.201
146.201
146.201
146.201
146.201
146.201
146.201
146.201
146.201
148.973
146.222
146.201
146.201
146.201
146.201
146.201
146.201
146.201
146.201
146.209
560.028
146.256
146.201
146.201
146.201
146.201
146.201
146.201
159.477
159.563
146.201
146.201
146.239
146.201
146.201
146.213
146.242
150.687
146.201
146.201
146.201
146.201
146.201
146.201
146.201
154.345
146.201
146.203
146.308
146.201
146.201
146.201
146.201
146.201
146.201
146.201
146.208
146.201
146.201
156.852
146.201
146.201
146.251
146.201
152.756
146.74
146.201
146.201
146.201
146.201
146.201
146.201
146.414
355.433
146.217
146.201
146.201
146.201
146.208
146.768
146.201
146.223
146.201
146.201
146.201
146.201
146.201
146.201
146.21
146.201
146.201
146.214
146.342
146.201
146.201
146.201
146.201
146.201
146.201
159.688
146.229
146.201
146.201
146.201
146.315
146.201
146.201
146.227
146.201
146.201
146.201
146.201
146.201
146.201
146.201
146.234
5934.29
146.201
146.248
146.201
146.726
146.201
146.263
146.355
146.201
146.246
146.201
146.221
146.233
146.201
146.257
146.323
146.202
163.491
151.743
146.201
146.238
146.226
146.202
146.224
148.926
146.214
146.201
207.452
146.201
146.251
146.201
146.201
146.202
146.202
146.201
146.201
146.202
146.202
146.201
146.201
163.449
147.313
146.201
4579.97
146.201
146.202
146.201
146.66
148.302
146.221
146.201
172.905
146.201
144.354
146.201
146.201
146.414
146.201
146.22
145.453
146.201
207.123
147.207
181.699
146.201
146.201
163.907
146.201
146.201
146.201
146.201
146.362
146.201
146.201
146.201
146.21
146.201
146.201
146.216
146.201
146.201
146.203
146.201
146.201
147.471
146.201
146.206
146.402
146.201
146.201
146.201
146.202
146.201
146.202
146.369
161.711
146.201
146.201
146.202
146.201
146.201
147.641
146.201
146.201
146.201
146.201
146.207
146.201
146.207
146.289
158.455
146.201
146.201
146.201
146.201
146.201
146.201
146.201
146.201
146.215
146.202
146.489
146.201
146.215
146.201
146.467
146.201
146.201
146.201
146.201
146.201
146.201
146.201
146.201
146.201
146.224
146.267
146.201
146.201
146.259
146.201
147.306
146.201
146.201
146.401
146.201
146.201
146.201
146.201
146.201
146.201
146.201
146.201
146.201
146.201
146.201
155.165
146.206
146.201
153.083
146.201
146.201
146.201
154.403
149.214
146.201
146.201
146.202
146.24
159.14
146.214
146.201
146.237
146.201
146.201
146.201
146.201
146.201
149.38
146.201
146.201
146.203
146.201
406.363
146.201
146.423
146.201
146.201
146.201
146.588
146.201
147.27
146.201
146.201
146.201
146.208
146.203
146.221
146.201
146.201
146.201
146.201
146.201
5083.63
146.208
146.221
146.201
146.21
146.207
181
146.201
146.598
146.202
146.201
146.201
146.201
146.223
150.352
146.207
146.245
146.201
146.201
146.201
146.201
146.201
554.339
146.201
146.201
146.201
146.201
165.256
146.201
146.202
1146.78
146.632
147.441
146.201
616.961
146.201
151.894
146.201
146.344
146.201
147.161
146.201
146.201
146.201
146.296
146.201
146.298
146.201
146.214
146.201
146.201
146.313
146.201
146.201
146.201
146.204
153.971
146.282
146.252
146.201
146.208
146.301
146.243
146.201
146.201
197.636
146.413
146.212
151.08
146.213
146.201
146.201
146.201
146.26
146.222
146.218
146.317
146.331
146.354
146.456
146.236
146.212
146.519
146.201
251.009
146.214
146.202
146.213
146.213
146.201
156.959
146.201
146.201
146.201
146.204
146.225
146.217
146.243
146.54
146.201
146.209
146.211
146.211
146.201
146.201
148.044
146.201
146.249
146.201
146.204
173.467
146.313
146.241
146.385
146.232
148.654
148.671
723.94
146.201
146.201
146.214
155.021
146.201
16391.2
152.071
146.212
153.748
336.09
146.249
146.201
146.201
146.201
150.608
146.201
146.273
146.201
146.201
146.201
146.201
146.217
181.18
146.201
148.997
146.201
146.209
217.126
146.201
146.213
146.201
146.208
146.204
146.211
147.707
146.326
146.201
146.305
146.207
146.201
146.214
146.209
146.208
146.243
146.21
146.201
146.202
146.201
146.201
146.201
146.201
146.258
146.693
146.218
146.397
146.201
146.745
147.058
147.151
174.722
146.219
146.201
146.201
146.345
146.201
146.201
146.201
146.201
147.075
146.201
146.245
146.201
146.35
146.203
146.202
146.201
146.201
146.212
146.201
146.201
146.203
146.201
146.201
146.209
146.209
149.525
146.21
1321.94
146.202
157.582
146.201
146.312
146.215
146.222
146.201
146.201
146.201
146.201
146.201
146.201
146.201
146.429
146.201
146.201
146.317
146.313
146.224
146.201
146.403
146.201
146.201
146.222
146.201
146.201
146.218
146.201
146.207
147.633
146.201
146.201
146.201
146.201
146.201
146.203
146.201
146.404
146.201
146.261
152.767
146.201
147.351
170.779
148.359
146.505
6512.43
146.201
146.201
146.204
146.204
146.201
146.201
146.217
146.698
146.201
146.234
146.201
146.201
146.201
146.278
146.201
146.201
146.318
146.201
146.217
146.201
146.21
146.227
146.202
1690.62
146.202
4308.39
146.204
1239.66
146.206
146.201
146.203
153.962
146.205
146.254
146.204
146.204
146.801
146.201
146.274
146.201
146.201
146.201
166.58
146.371
166.965
146.201
146.201
146.259
146.3
146.201
164.027
146.329
146.201
146.201
146.205
146.214
146.274
146.201
146.407
146.201
146.601
146.201
146.778
146.325
3813.32
146.201
146.201
146.572
156.726
146.242
146.201
146.201
146.278
146.212
146.201
146.405
146.201
146.201
146.52
146.201
146.201
147.076
5119.53
146.201
146.201
146.201
146.588
149.518
146.205
146.807
146.202
146.667
151.948
149.519
146.201
146.216
148.202
146.203
146.201
146.201
147.381
146.201
146.208
146.201
146.201
146.203
146.201
146.226
146.225
148.127
152.031
146.201
146.227
146.201
146.232
146.201
146.201
146.201
146.254
146.211
146.201
155.945
146.529
146.214
146.228
146.201
148.247
146.208
146.277
146.933
146.344
146.213
149.519
156.095
148.554
146.201
146.28
146.291
146.214
183.375
209.755
169.498
148.64
146.201
146.201
218.006
146.27
156.208
146.201
146.201
265.458
146.201
146.201
146.201
267.249
146.203
146.201
146.203
146.201
146.201
146.203
146.201
146.428
146.204
146.201
168.395
146.201
146.318
146.201
146.201
146.201
146.201
146.201
146.253
146.38
146.201
146.203
146.201
146.335
146.251
146.207
146.201
146.203
146.214
146.201
146.201
146.426
146.201
146.201
146.203
146.203
146.201
146.204
146.201
146.202
146.201
146.201
146.201
146.213
146.201
146.201
146.201
146.201
146.201
146.22
146.202
146.201
146.201
146.201
146.201
146.202
146.201
146.201
146.201
5792.19
146.213
146.201
146.201
150.254
146.201
146.201
161.227
146.3
147.801
146.201
146.276
147.335
146.531
146.201
154.493
146.201
146.201
146.201
146.216
157.037
1870.07
155.994
146.201
146.593
146.201
183.21
146.201
153.524
146.206
147.949
153.234
146.456
146.22
146.218
146.201
146.201
146.201
146.201
146.201
146.201
146.32
146.367
146.201
146.355
147.549
146.201
146.201
146.217
146.419
146.201
147.37
146.201
147.226
146.201
147.602
146.629
146.241
146.201
146.211
146.201
146.201
146.201
146.201
146.201
146.201
12584.8
146.24
146.201
146.201
146.201
146.258
146.275
146.201
146.201
146.201
146.201
146.201
146.201
146.201
146.201
146.201
146.201
146.201
146.201
146.201
146.201
146.25
146.289
146.232
146.255
146.201
146.201
146.204
146.201
150.932
146.201
146.201
146.201
146.201
146.22
146.244
146.201
146.201
146.201
146.201
147.923
344.074
364.69
146.201
146.201
146.201
146.201
146.201
146.201
146.287
146.201
146.201
146.201
146.201
146.201
146.204
146.861
146.201
146.283
146.201
146.201
146.201
146.262
146.201
146.935
146.201
146.201
146.419
146.201
146.216
146.202
146.202
146.202
1755.77
146.201
146.201
186.452
146.201
195.064
165.345
146.202
146.201
146.201
146.204
146.201
147.341
146.201
146.297
146.34
154.636
146.201
146.201
152.675
146.201
146.201
146.201
146.201
146.201
977
165.054
146.219
146.201
146.29
146.201
146.893
146.214
146.201
146.201
162.998
146.369
146.201
174.564
146.201
146.298
146.201
146.201
172.628
146.201
146.201
1699.04
146.201
146.201
146.201
146.219
146.201
146.201
146.201
146.201
146.208
146.254
146.201
146.201
146.456
146.201
146.201
146.879
146.201
146.201
146.201
146.22
183.062
146.201
146.258
146.201
146.201
146.201
146.201
146.883
146.201
146.22
146.309
190.874
146.379
146.201
146.201
146.235
146.201
146.214
146.213
146.214
146.223
146.213
146.201
146.213
146.214
146.202
146.203
146.201
146.307
146.201
146.201
146.201
146.202
146.201
146.201
146.201
146.337
146.201
146.201
146.201
146.203
146.201
146.201
146.201
146.202
146.435
146.201
146.204
146.201
146.201
146.201
146.201
146.492
146.201
146.201
146.206
146.201
146.203
146.202
146.201
146.204
146.453
146.203
146.265
146.204
162.069
146.264
148.911
146.201
146.201
146.201
148.482
146.201
146.201
146.262
146.201
146.377
146.201
146.256
147.165
146.242
146.215
146.201
146.201
146.201
146.201
146.201
146.208
146.24
146.24
146.204
146.223
146.403
146.359
146.206
146.201
146.237
146.201
146.828
149.107
146.201
146.406
146.201
146.201
146.201
155.609
146.201
146.201
146.201
146.728
146.301
152.32
146.201
146.217
146.201
146.201
146.226
146.201
146.202
146.201
146.201
146.288
155.723
146.27
147.931
159.175
146.21
146.201
146.201
146.387
146.423
146.201
146.201
150.076
146.204
146.24
146.201
149.432
146.229
146.204
146.216
148.203
149.782
146.218
152.692
146.201
146.22
152.671
146.201
153.206
146.201
146.305
146.201
146.201
146.402
153.572
146.289
153.213
146.282
152.75
146.217
146.272
146.297
146.213
158.435
164.313
146.201
146.319
146.201
146.201
146.202
146.247
146.227
146.201
146.202
146.201
146.41
146.24
146.306
146.945
146.22
146.201
15843.3
146.201
146.201
146.201
146.201
146.201
146.201
146.201
146.201
146.204
146.652
146.203
146.201
146.201
146.201
146.201
146.201
146.201
146.201
146.307
146.906
146.201
146.201
146.201
146.217
146.201
146.201
146.206
146.201
146.201
146.201
146.201
146.35
146.207
146.211
146.554
146.201
146.226
146.654
146.201
146.201
146.201
146.26
146.285
146.201
165.442
146.201
146.201
13354.1
146.201
146.201
146.201
146.201
146.201
146.201
146.201
146.201
146.201
180.394
146.417
146.201
146.203
146.403
146.201
146.218
146.201
146.201
146.201
146.201
146.201
146.201
146.201
146.201
217.188
299.073
146.242
146.206
146.201
146.201
149.576
146.644
146.201
146.202
146.201
146.201
146.202
146.224
163.183
146.202
146.201
146.293
148.183
146.27
146.201
146.204
146.202
146.202
146.214
146.202
164.144
146.202
146.201
146.202
146.202
146.202
146.202
146.203
146.202
146.203
146.268
147.213
156.812
146.201
146.201
261.493
146.201
146.201
146.485
146.201
4020.97
146.202
146.201
146.201
146.201
146.201
146.202
146.203
146.297
146.202
146.238
146.201
146.33
146.202
146.201
146.202
146.201
146.201
146.201
146.201
146.201
146.207
146.201
146.201
146.287
146.238
146.201
146.305
178.465
146.367
146.201
146.201
146.201
146.201
146.201
146.201
146.201
146.456
146.205
146.367
146.289
146.379
146.249
147.327
146.201
146.205
146.229
146.201
146.293
146.201
147.669
146.201
146.258
146.201
146.201
146.202
146.201
146.201
146.201
146.432
146.201
146.205
146.201
146.34
146.236
146.201
146.201
146.248
146.253
146.221
146.217
146.201
146.532
262.084
146.201
146.201
146.208
146.22
146.205
146.201
146.204
146.618
146.254
146.205
146.333
146.204
146.205
146.201
617.117
3611.66
146.974
257.65
161.226
146.203
146.21
146.229
261.765
146.376
183.787
146.201
146.201
146.202
146.201
146.201
146.201
146.201
146.201
146.203
146.201
146.201
153.958
146.303
189.272
5215.38
146.201
146.201
146.217
146.269
146.314
146.36
147.846
146.209
146.569
2488.99
146.354
146.201
146.353
146.201
146.201
146.206
116.084
146.201
146.226
146.25
146.289
146.38
146.216
146.201
146.203
146.201
146.201
146.201
146.201
146.201
146.201
146.211
146.251
423.839
414.96
146.219
2497.24
146.201
146.37
146.263
146.377
146.482
628.108
146.201
146.201
146.201
146.201
146.201
146.201
146.322
146.244
146.201
146.281
146.202
146.285
146.47
146.222
248.424
149.694
146.201
187.824
146.213
146.201
146.203
146.51
146.335
146.201
146.286
146.202
146.201
146.201
2835.9
1834.68
1390.69
146.609
146.201
5442.44
146.277
146.201
146.223
146.201
155.029
148.055
151.497
155.148
147.392
146.201
146.201
156.535
146.201
146.201
146.201
146.203
146.201
146.201
146.277
146.275
146.224
146.201
146.201
146.201
146.201
146.201
146.201
146.267
146.235
146.201
146.201
147.027
146.202
146.201
146.201
146.202
146.208
146.242
148.185
146.251
146.424
146.201
146.213
146.201
146.205
146.216
146.201
146.206
146.201
146.201
146.231
146.201
146.201
146.236
146.208
146.23
146.241
146.201
146.206
146.202
146.223
146.201
146.226
146.217
146.227
146.216
146.305
146.201
149.832
146.205
146.268
146.21
146.241
146.205
146.237
146.201
146.201
12851.1
146.227
146.203
146.28
146.203
146.343
146.305
146.201
146.217
146.201
146.233
146.201
146.233
146.315
146.201
146.304
146.201
146.223
146.235
146.201
146.201
146.211
146.201
146.201
146.201
146.201
146.213
146.201
146.24
159.036
146.201
146.201
146.265
146.201
146.202
146.202
146.202
146.202
146.201
146.201
146.202
146.202
146.314
146.201
146.201
146.266
146.201
146.224
763.912
146.201
146.201
146.201
146.201
146.243
146.201
146.201
146.201
146.201
146.201
148.628
6449.93
146.201
146.201
4104.87
146.201
146.225
146.201
146.203
146.201
146.226
146.226
146.315
146.201
146.201
146.319
146.275
146.201
146.202
148.142
146.201
159.944
150.39
146.201
146.201
146.201
146.23
146.201
146.201
146.201
146.201
146.201
146.214
146.769
146.201
146.201
146.322
146.201
146.201
147.263
146.201
153.458
146.315
146.201
146.201
146.222
146.223
146.272
146.201
146.297
146.201
146.419
146.273
146.201
146.476
146.233
146.352
148.195
146.292
146.201
146.201
146.201
162.788
146.205
146.411
146.254
146.201
153.855
146.201
252.118
146.25
146.255
146.201
146.339
146.201
146.201
146.218
146.201
146.201
146.201
146.244
146.217
146.212
146.201
146.201
146.201
146.275
146.201
146.412
146.201
146.201
146.215
146.302
146.201
146.201
146.836
146.201
146.201
146.201
146.289
146.266
146.221
146.201
149.609
146.655
146.202
146.6
146.201
8845.9
146.201
146.207
146.346
146.254
13082.3
5373.12
4038.71
9987.47
146.201
20437.2
146.265
146.641
146.201
146.587
20101
146.201
146.212
19260.3
146.201
147.923
146.201
146.318
146.239
146.334
146.222
146.216
146.201
146.201
146.201
146.201
6851.74
146.201
146.211
146.205
146.201
146.201
146.201
146.201
146.201
146.201
146.201
146.201
146.261
146.201
151.228
146.201
146.201
148.354
147.085
146.201
146.201
146.201
146.201
146.202
153.374
178.439
186.302
146.71
146.201
146.201
146.201
146.201
146.202
146.25
146.201
146.203
146.396
146.35
187.289
146.201
146.201
146.201
146.204
146.587
146.201
146.201
146.25
146.326
180.309
146.203
146.51
146.201
153.29
146.396
146.576
146.201
146.204
146.201
146.201
146.201
146.201
146.201
146.202
146.201
146.201
146.395
146.223
146.38
146.201
146.202
146.201
146.202
146.201
146.201
146.202
148.6
146.219
146.201
146.201
146.201
146.214
1412.91
146.201
146.206
3527.43
146.642
173.009
146.342
147.194
1272.56
146.201
146.201
146.201
146.32
4251.23
171.168
146.201
146.408
146.204
146.201
146.201
146.201
146.201
146.201
146.201
146.201
146.201
146.234
146.201
146.816
146.211
146.201
146.201
146.204
146.203
146.201
146.205
146.201
146.201
146.202
146.201
146.201
146.412
146.202
146.201
146.201
146.201
146.219
146.202
146.304
146.433
146.382
146.296
146.267
146.335
146.366
146.203
146.201
146.281
146.204
153.185
146.217
146.203
146.243
147.326
146.203
146.201
146.203
146.202
146.202
146.202
146.201
146.202
146.207
146.382
301.516
146.223
147.989
146.201
146.267
146.204
146.202
146.202
146.527
146.203
146.202
146.682
146.201
146.38
184.476
146.214
146.205
146.232
146.201
146.201
147.249
146.972
146.201
146.201
146.201
147.031
146.201
146.201
170.426
146.273
146.201
146.201
146.201
146.205
146.459
146.228
146.202
146.201
146.209
146.201
146.201
146.201
146.209
149.844
146.201
146.345
149.401
207.391
152.202
146.201
146.201
155.088
146.201
146.201
146.201
146.201
146.201
146.248
151.598
146.347
146.201
147.477
146.201
146.387
146.223
146.201
146.201
146.221
146.201
146.201
146.237
146.201
148.778
146.218
146.201
146.201
146.254
146.558
146.214
146.251
146.201
146.201
146.201
146.211
146.201
146.201
146.201
155.301
146.217
146.201
146.201
146.201
146.23
146.21
219.058
146.24
146.216
149.813
146.201
146.548
146.201
146.201
146.647
146.202
146.201
146.201
146.245
146.201
146.201
146.255
146.257
146.261
146.201
197.091
146.201
146.201
146.254
146.201
146.247
146.295
146.354
146.232
156.605
146.655
146.201
146.24
146.222
149.232
146.234
146.282
146.767
146.246
146.202
146.451
146.201
146.202
146.3
146.202
146.226
146.201
146.349
146.311
146.201
146.289
146.201
147.671
146.201
146.201
146.201
146.201
146.201
146.201
146.201
148.567
146.201
146.201
146.34
146.201
146.201
146.201
146.344
147.318
146.203
150.103
146.201
146.201
146.227
146.215
146.245
146.201
146.201
146.201
154.173
146.201
146.22
149.099
149.335
146.317
146.207
146.792
158.713
149.112
146.37
146.201
146.201
146.682
149.78
146.792
146.201
146.233
146.319
149.122
146.201
551.854
146.205
146.201
148.773
146.462
146.267
146.212
146.234
146.201
146.255
146.201
168.887
146.211
148.001
146.241
146.219
146.203
146.34
146.202
146.214
201.878
146.201
146.434
146.293
146.202
146.201
185.578
146.201
146.201
146.218
146.201
185.774
146.201
146.651
186.828
146.335
146.201
146.245
146.201
215.586
167.017
146.632
146.326
220.345
188.621
146.207
146.201
2416.29
146.201
146.208
146.429
146.244
146.201
155.511
148.091
146.984
146.201
153.411
146.201
146.201
146.273
146.201
146.301
4896.53
146.201
154.042
146.422
146.205
146.331
146.201
146.202
146.201
147.845
146.367
151.195
146.201
146.663
146.531
146.201
173.195
150.708
2265.41
146.201
146.201
146.213
146.358
146.201
146.204
146.202
146.201
146.201
1252.19
146.201
146.324
146.201
146.437
146.201
146.286
146.201
146.201
146.201
146.201
146.356
146.512
146.201
146.223
146.201
146.209
146.225
146.201
146.201
146.279
149.441
146.203
146.201
146.203
146.202
146.201
146.201
147.656
146.32
146.201
146.209
146.201
146.201
146.204
146.208
146.201
146.201
152.373
146.201
146.201
146.202
146.203
146.213
146.354
146.201
146.201
146.203
146.21
146.201
146.201
146.201
146.201
146.201
146.201
146.201
146.221
146.203
146.201
146.201
146.244
146.3
146.201
146.203
146.211
146.201
146.203
19169.6
146.201
146.217
146.304
146.201
146.201
146.201
146.215
146.203
146.202
146.202
146.201
146.26
146.203
146.201
146.407
146.203
146.211
146.201
146.201
146.233
146.203
146.201
146.201
146.226
151.058
146.201
146.201
146.201
146.201
146.203
146.308
146.201
146.206
147.266
146.217
146.201
146.214
146.668
146.201
146.201
146.201
146.201
146.201
153.957
146.201
176.809
168.371
146.201
146.201
146.201
146.285
146.205
146.201
146.203
146.201
146.201
146.201
146.28
146.206
149.454
146.201
146.201
146.201
146.201
146.45
146.235
12713.1
146.201
146.201
146.202
146.234
146.336
146.316
146.201
12614.7
9753.82
146.213
3794.78
148.125
146.201
146.295
146.214
146.201
146.776
146.201
149.132
146.201
147.814
7035.36
146.321
146.355
146.202
146.698
146.209
146.529
146.502
146.352
146.279
146.241
146.385
146.619
146.31
146.201
146.204
146.389
155.63
146.206
147.646
146.512
146.201
146.837
146.212
146.201
146.314
146.201
146.201
146.201
146.201
146.201
146.201
146.907
146.201
146.695
157.577
146.482
146.22
146.201
146.201
146.201
157.269
146.201
146.201
146.201
146.201
146.201
146.201
146.201
146.364
146.688
146.201
146.201
146.201
146.351
146.201
146.383
146.201
146.201
146.201
146.201
146.205
146.201
146.201
146.201
146.446
150.322
146.201
154.487
146.201
146.201
146.217
146.201
360.965
154.457
146.201
146.201
146.203
146.203
154.589
146.207
160.66
146.238
411.126
146.203
146.202
146.23
156.175
404.917
146.219
146.209
146.201
154.566
146.201
146.201
146.201
146.201
146.201
146.803
146.201
146.209
146.201
146.201
155.342
146.201
146.201
146.201
146.201
148.041
146.201
146.201
146.201
146.201
146.201
146.201
174.451
146.477
155.402
146.435
146.201
146.201
146.201
146.412
146.655
146.529
146.384
146.277
146.201
146.212
146.21
146.432
146.282
146.201
146.201
146.201
146.209
146.229
146.217
146.202
146.229
146.229
151.644
146.227
146.43
146.201
146.201
146.201
146.33
146.21
146.204
146.201
146.287
146.295
146.208
146.788
146.208
146.388
146.215
146.201
146.383
146.214
146.216
146.201
146.201
146.218
146.201
146.201
146.215
146.201
146.201
146.663
146.201
146.214
146.699
146.201
146.201
146.205
146.205
146.594
146.205
146.292
146.209
146.201
146.201
146.207
147.665
146.205
146.205
163.502
146.205
146.229
146.206
151.619
146.201
146.201
146.202
146.201
154.535
146.201
146.201
146.201
146.202
146.201
146.312
146.201
146.201
146.209
146.202
146.203
146.218
146.201
146.268
152.557
146.219
146.201
146.224
217.902
146.291
152.167
149.847
146.244
146.201
146.201
146.201
146.201
146.201
146.201
146.201
151.91
146.201
146.201
146.201
146.201
146.201
146.201
146.201
146.218
146.203
146.201
146.201
146.372
146.201
155.05
163.036
146.201
146.246
152.989
146.201
146.201
154.421
146.201
146.201
148.219
146.201
146.201
146.201
146.201
146.201
146.201
146.201
146.201
146.201
146.201
153.88
146.201
146.201
146.201
146.201
146.213
146.201
146.456
146.201
146.26
146.201
146.201
146.201
146.201
146.206
146.201
146.201
146.201
146.201
146.201
146.34
146.201
146.201
146.201
146.201
146.242
146.202
146.201
146.201
146.201
147.761
146.201
146.203
146.201
148.193
146.201
146.201
146.201
146.201
146.247
146.204
146.201
146.202
146.201
146.201
146.308
170.704
159.643
146.306
146.217
146.202
146.201
146.201
146.203
163.546
146.202
146.243
146.201
146.201
146.201
146.243
146.201
146.201
146.246
146.203
146.201
146.201
146.201
146.201
146.201
1799.68
148.911
146.201
146.201
146.246
146.248
146.251
146.201
146.518
146.284
146.201
146.201
146.201
146.25
146.201
146.201
146.201
146.201
456.508
146.201
146.201
146.201
146.203
146.201
146.203
146.215
146.201
146.354
148.516
146.201
146.218
146.201
146.201
146.201
146.201
146.201
146.201
146.201
146.284
146.213
146.35
146.323
146.239
146.201
146.201
146.201
146.201
146.202
146.201
146.201
146.201
146.201
146.719
146.201
146.239
146.206
146.201
146.225
146.208
146.212
146.201
146.201
146.202
146.201
146.201
146.201
146.215
146.225
146.24
146.352
146.228
146.201
146.201
146.201
146.213
146.201
146.355
146.219
146.201
146.201
179.67
146.201
146.201
146.536
146.201
146.201
146.33
146.201
146.201
146.201
146.213
146.201
146.221
146.201
146.201
146.201
146.201
149.133
146.201
146.202
146.201
146.201
146.212
146.201
146.201
146.201
146.557
146.201
146.295
146.704
146.218
146.201
146.253
146.221
146.201
146.201
146.305
146.218
146.201
146.287
179.319
146.201
146.201
146.201
146.287
146.398
146.221
146.201
146.201
4592.19
146.201
20735.1
146.201
146.239
146.201
146.201
146.219
146.201
146.201
146.201
146.201
146.201
146.751
146.24
146.242
146.237
146.207
146.241
146.201
146.201
146.201
146.228
146.401
146.22
146.201
146.201
146.273
146.239
146.319
146.288
146.201
151.531
146.316
146.236
146.201
146.217
146.238
146.239
146.212
146.212
146.205
146.296
146.201
146.264
146.201
146.241
146.202
146.339
146.378
146.201
146.201
146.214
146.245
146.201
146.451
146.201
146.201
146.389
147.124
146.201
146.201
146.201
146.202
146.201
13627.1
149.932
146.201
146.201
146.342
146.201
147.536
146.264
146.537
146.201
146.201
146.201
146.245
146.201
146.201
146.383
146.201
146.201
146.365
146.201
146.201
146.362
146.217
146.201
146.201
167.518
146.201
146.201
146.217
146.201
146.201
146.588
146.207
4855.59
146.221
146.201
146.201
146.201
146.217
332.89
146.202
195.537
146.201
147.357
146.201
146.201
146.201
663.547
146.21
146.201
146.221
146.201
146.201
146.208
146.201
146.201
146.322
146.235
906.337
146.201
146.201
146.259
1255.35
146.201
146.202
2061.69
146.201
146.201
147.45
146.201
146.201
146.201
146.201
146.201
146.201
146.201
146.201
146.358
146.201
146.213
11513.2
146.227
146.357
146.201
146.206
146.201
146.201
146.348
146.258
146.223
146.378
145.764
146.66
146.201
146.206
1182.45
146.346
146.385
146.305
146.201
146.42
146.201
146.201
146.201
147.518
146.427
146.201
146.352
146.201
146.201
146.201
146.451
146.211
146.201
146.401
146.479
146.204
146.597
146.456
146.201
146.201
146.727
146.201
146.201
146.201
146.201
146.201
146.201
146.201
599.858
146.232
146.977
146.219
146.201
146.213
146.201
146.201
146.201
146.612
146.201
146.201
146.201
146.685
146.201
146.317
146.617
146.351
146.214
146.209
146.201
146.764
146.201
146.201
146.201
146.294
146.318
146.201
146.201
146.201
146.342
146.201
146.613
146.301
146.381
146.519
146.201
146.201
146.764
146.219
146.201
146.603
146.205
146.204
146.201
146.719
146.201
146.796
146.201
146.201
146.201
146.204
146.201
146.201
146.207
146.335
146.322
146.201
146.201
146.22
146.376
146.201
146.201
146.201
146.314
147.011
5330.32
146.334
146.201
146.352
146.353
146.201
146.201
146.201
146.201
146.201
146.201
146.244
146.201
146.201
146.201
146.378
146.201
146.201
146.201
146.201
146.287
146.234
146.201
146.376
146.201
146.227
146.201
146.202
146.201
146.357
146.362
147.159
147.134
146.215
146.201
146.201
146.201
146.201
146.201
146.398
146.201
146.201
146.201
146.201
146.703
146.396
146.201
146.665
146.296
146.201
146.201
146.201
146.201
146.302
146.201
146.201
146.201
146.202
146.705
146.201
146.201
146.201
146.972
146.201
146.201
146.366
146.302
146.201
146.201
146.201
146.201
146.201
146.201
146.201
146.201
146.201
146.201
146.201
146.201
146.295
146.239
146.293
146.201
146.321
146.201
146.201
146.232
146.201
146.569
146.201
146.225
146.201
146.201
146.201
146.201
146.201
146.201
147.249
146.603
146.201
146.201
146.201
146.201
146.201
146.201
146.201
146.201
146.201
146.42
147.444
146.36
146.201
146.201
147.214
147.007
146.281
146.201
146.201
146.201
146.204
146.201
146.202
146.202
146.201
147.104
146.208
146.694
147.174
146.367
146.291
146.201
2528.79
146.201
146.395
146.201
146.569
146.214
146.485
146.256
146.201
146.201
146.201
146.221
146.314
146.201
146.383
146.201
146.234
146.201
146.201
146.201
146.201
146.323
146.201
146.201
146.201
146.201
146.201
146.201
146.36
146.68
146.217
146.201
146.201
146.282
146.201
146.201
146.211
146.234
146.21
146.201
146.201
146.332
146.21
146.201
146.201
146.242
146.324
146.248
146.201
146.344
146.202
146.201
146.201
146.201
146.201
146.201
146.201
146.201
146.201
146.201
146.201
146.201
146.201
146.201
146.201
146.201
146.201
146.201
146.201
146.201
146.201
146.201
146.201
146.23
146.287
146.335
146.201
146.201
146.201
146.201
146.205
146.201
146.201
146.201
146.201
146.201
146.201
146.201
146.201
146.201
146.201
146.201
146.201
146.34
146.201
146.377
146.39
146.218
146.201
146.201
146.278
146.201
146.201
146.201
146.201
146.201
146.201
146.201
146.201
146.201
146.201
146.275
146.242
146.201
146.201
146.201
146.201
146.201
146.201
146.201
146.201
146.229
9932.34
146.201
10963.5
146.201
146.201
16988.5
17587.7
146.201
146.206
146.209
146.201
146.201
146.201
146.201
146.201
11431.4
146.201
14496.7
146.201
146.201
146.201
146.242
146.314
146.218
146.201
146.201
146.201
146.201
146.201
146.201
146.201
146.201
146.201
146.201
146.362
146.201
146.201
146.201
146.201
146.201
146.201
146.201
146.203
253.281
146.206
146.201
146.201
146.201
146.201
146.201
146.201
146.201
146.201
192.75
146.201
146.201
146.201
146.281
146.201
146.205
146.201
146.201
153.204
146.201
153.952
146.316
146.203
146.201
146.201
153.806
146.201
146.201
146.201
146.201
146.201
151.809
146.201
146.201
146.201