/*--------------------------------*- C++ -*----------------------------------*\
| =========                 |                                                 |
| \\      /  F ield         | OpenFOAM: The Open Source CFD Toolbox           |
|  \\    /   O peration     | Version:  v2012                                 |
|   \\  /    A nd           | Website:  www.openfoam.com                      |
|    \\/     M anipulation  |                                                 |
\*---------------------------------------------------------------------------*/
FoamFile
{
    version     2.0;
    format      ascii;
    class       volScalarField;
    location    "2";
    object      ILambda_8_0;
}
// * * * * * * * * * * * * * * * * * * * * * * * * * * * * * * * * * * * * * //

dimensions      [1 0 -3 0 0 0 0];


internalField   nonuniform List<scalar> 
108993
(
146.201
146.35
146.201
146.201
146.201
146.202
146.315
146.201
146.201
146.201
146.201
146.201
146.201
146.201
146.201
146.201
146.201
146.201
146.201
146.23
146.201
146.201
146.203
146.201
146.201
146.203
146.201
146.228
146.256
146.201
146.201
146.201
146.201
146.201
146.201
146.201
146.201
146.201
299.755
4393.38
146.23
146.201
146.201
146.201
146.201
148.002
146.201
146.296
146.371
146.201
146.201
146.209
146.308
146.201
146.201
146.201
146.201
146.201
146.201
146.201
146.201
146.201
146.201
146.201
146.201
146.208
146.201
146.201
146.201
146.202
146.201
146.201
146.201
146.201
146.407
146.201
146.201
146.201
146.201
146.201
146.201
146.201
146.201
146.201
146.201
146.201
146.201
146.201
146.201
146.201
146.201
146.201
146.201
146.201
146.201
146.201
146.201
146.201
146.201
146.201
146.201
146.201
146.201
146.201
146.201
146.201
146.201
146.201
146.201
8399.6
146.205
146.201
146.308
146.285
146.201
146.467
146.201
146.201
146.201
146.201
146.201
146.201
146.226
146.201
146.201
146.201
146.234
146.201
146.201
146.201
146.201
146.201
146.201
146.446
146.201
146.201
146.201
146.201
146.201
146.201
146.201
146.201
146.201
146.201
146.201
146.201
146.201
206.532
146.201
147.352
147.675
146.202
146.201
155.548
146.201
146.337
146.201
146.201
146.201
146.202
148.562
146.201
146.201
146.201
146.201
146.23
146.201
146.201
146.201
146.201
146.201
146.201
146.204
146.201
146.209
146.202
146.249
146.201
146.201
146.201
146.201
146.201
146.201
146.201
146.201
146.201
146.201
146.201
146.201
146.201
146.201
146.201
146.201
146.242
146.201
146.201
146.23
146.201
146.201
146.201
146.201
146.263
146.201
146.201
146.261
146.296
146.201
1014.27
146.201
171.49
146.211
146.201
146.244
146.183
147.721
146.201
146.201
146.201
146.201
146.201
146.201
147.498
146.201
146.25
146.201
146.201
146.201
146.201
146.22
146.201
146.681
146.201
146.201
146.222
146.201
146.201
146.201
146.201
146.219
146.201
146.201
146.201
146.201
146.201
146.201
146.201
147.5
146.237
146.201
146.201
146.201
146.201
146.201
146.201
146.201
146.201
146.201
146.201
146.201
146.201
146.201
146.459
146.201
146.201
146.201
146.201
146.201
146.289
146.202
146.201
146.201
146.201
145.53
183.935
427.054
146.201
146.201
146.322
146.201
146.212
146.205
146.272
146.341
146.201
146.201
146.201
146.201
146.202
146.201
148.184
146.201
146.201
146.202
146.201
146.201
146.201
146.201
146.201
146.202
146.201
146.23
146.434
146.201
146.201
146.201
146.234
146.201
146.276
146.234
145.334
146.201
146.201
146.201
146.201
146.242
146.372
146.201
146.201
169.644
146.201
146.294
146.201
146.238
146.238
146.201
131.484
522.048
146.831
146.201
146.201
146.201
146.669
146.969
146.201
155.559
146.201
146.201
146.201
146.201
146.201
146.201
146.213
146.201
146.201
146.201
146.201
146.201
146.201
146.201
146.201
146.201
146.201
146.243
211.209
146.201
146.201
146.201
4330.77
146.201
146.201
146.201
146.201
146.201
146.201
146.419
146.202
146.201
146.201
146.201
1979.42
146.21
146.201
146.201
1089.2
146.201
147.216
146.201
146.201
146.538
146.201
146.587
146.64
146.203
146.201
146.201
146.204
146.201
230.358
146.202
736.908
146.569
146.204
146.662
146.201
145.468
146.201
271.591
146.201
146.201
146.201
146.201
146.319
146.229
146.201
146.201
146.204
146.204
146.201
146.201
147.794
146.201
146.201
345.138
146.201
146.201
146.201
1086.67
146.202
168.059
146.201
152.919
146.314
152.321
146.201
146.201
147.51
146.201
146.841
147.851
146.201
857.346
263.577
278.049
146.201
146.201
146.201
146.201
146.201
146.201
146.201
146.201
146.201
146.201
146.218
146.205
146.328
146.328
146.204
146.201
146.218
146.201
146.201
146.201
146.201
146.201
146.201
146.201
146.214
146.201
146.201
146.206
146.201
146.213
146.662
146.201
146.201
146.267
146.21
146.201
146.201
146.203
146.201
146.201
146.201
146.201
146.201
146.201
146.218
781.07
146.201
146.201
146.201
146.201
146.201
146.201
146.201
146.201
146.201
146.203
146.201
146.201
146.201
146.202
146.201
146.202
146.201
146.201
146.201
146.201
146.318
146.201
146.201
146.201
146.201
146.201
146.343
146.201
146.201
160.903
146.201
146.201
146.295
146.201
146.201
146.201
146.201
146.201
146.201
146.42
146.248
146.201
146.201
146.304
146.245
146.267
146.201
146.223
146.201
146.201
146.244
146.235
146.201
146.201
146.201
146.201
146.201
146.247
146.201
146.201
153.415
146.201
168.443
146.201
146.201
146.201
146.201
146.201
146.201
146.201
146.201
146.227
146.234
146.482
146.201
146.201
146.201
146.201
146.207
327.262
146.321
146.201
146.201
146.201
146.276
146.216
146.427
146.201
146.201
146.217
146.22
146.201
146.234
3101.96
146.216
148.605
146.227
146.201
146.22
409.911
146.292
146.201
146.201
146.201
146.201
146.201
146.202
147.186
146.218
146.201
146.201
146.235
146.201
146.431
146.201
214.112
146.201
146.201
146.201
146.447
146.201
146.201
146.201
166.828
146.201
146.201
146.201
164.262
146.201
146.201
146.201
146.437
146.201
146.201
146.201
146.291
146.201
146.201
146.201
152.377
146.201
146.235
146.201
146.201
6631.17
146.353
146.201
146.201
146.205
146.674
146.201
146.825
146.254
146.222
146.398
146.201
146.201
146.201
8571.13
146.202
146.208
146.201
146.209
146.201
146.231
146.201
146.201
146.201
146.22
146.201
146.201
146.201
146.202
226.758
149.435
146.203
146.495
146.199
146.973
146.21
148.643
147.606
146.205
146.201
146.201
146.201
146.201
146.213
146.201
149.863
296.198
146.201
146.269
146.223
151.333
150.29
146.201
146.298
146.202
146.208
305.335
146.415
146.216
146.201
146.201
150.34
146.201
146.25
146.203
146.202
7325.74
146.201
146.201
146.206
146.201
146.237
12853
146.201
151.087
146.201
3735.89
146.329
146.201
146.201
146.201
146.201
146.201
146.201
146.225
146.201
146.201
146.34
151.264
264.085
146.201
11884.2
146.201
146.226
146.201
146.201
146.214
146.47
146.201
146.238
146.201
146.201
146.201
146.273
146.215
146.21
146.201
146.207
146.201
146.201
146.201
146.201
146.201
146.215
146.201
146.201
146.286
146.201
146.201
415.368
161.355
146.201
146.292
146.201
146.201
146.201
146.201
146.201
146.201
146.201
146.201
146.201
146.294
146.201
146.201
146.201
146.291
146.201
146.201
146.201
146.201
146.203
146.208
146.289
145.136
146.201
146.201
146.201
146.233
146.201
146.291
146.356
146.201
146.201
413.937
146.338
146.201
146.201
146.204
146.201
146.201
146.308
146.201
146.285
146.201
146.201
146.208
146.201
178.739
146.201
146.201
1586.37
146.201
157.182
146.235
146.721
146.201
146.304
146.201
146.201
146.201
146.201
146.201
146.201
146.201
146.201
146.201
146.201
146.218
146.201
146.203
146.201
146.214
146.241
146.201
1223.39
146.241
1169.9
146.201
146.201
146.201
1559.88
146.33
146.236
146.202
146.249
146.301
146.259
460.126
146.201
146.201
146.201
146.237
146.201
146.229
1081.28
146.201
146.201
146.201
146.346
146.201
146.235
146.207
146.201
146.201
169.708
146.201
174.008
146.201
164.197
146.201
146.302
146.208
146.201
146.323
146.201
146.206
146.206
146.205
146.297
147.867
146.201
146.201
146.201
146.201
146.201
146.201
146.201
146.201
146.202
147.642
146.201
146.201
146.203
146.528
146.235
146.244
146.238
152.5
146.313
146.246
146.202
146.087
146.201
145.088
202.457
468.324
146.201
146.201
146.201
146.201
146.294
146.201
146.201
146.202
146.267
146.201
146.206
146.337
146.406
146.421
146.201
146.201
157.322
1872.67
146.477
146.303
146.201
146.201
146.201
146.244
152.874
146.201
152.234
146.201
146.201
146.498
146.201
146.201
146.208
146.243
146.201
146.201
146.206
146.243
146.219
146.201
146.209
146.201
146.202
146.201
146.201
146.201
146.201
146.758
146.201
151.141
146.289
146.202
146.201
146.299
146.224
146.201
146.201
149.172
146.234
146.233
146.209
146.201
146.21
146.454
146.201
146.202
151.133
146.201
146.201
146.201
146.201
146.281
1325.26
146.22
146.199
146.201
146.201
146.201
146.201
146.219
146.201
146.496
146.201
146.201
146.228
146.201
146.201
146.201
146.201
146.201
146.201
146.201
146.201
146.228
146.201
146.201
146.395
146.593
146.201
146.201
146.201
146.201
3838.49
146.201
146.211
146.232
146.217
146.23
741.182
146.202
146.201
146.201
146.201
146.338
146.201
146.25
146.201
146.201
146.27
146.201
146.308
146.202
146.235
146.202
146.201
146.201
146.201
146.201
146.329
146.201
146.201
146.201
146.201
146.673
146.201
146.334
146.201
146.201
146.337
146.203
146.241
146.254
146.201
146.201
146.236
146.253
146.201
146.201
146.201
343.824
146.201
146.271
146.201
146.201
146.201
146.201
146.25
146.255
146.201
146.254
5163.01
146.201
146.201
146.313
146.264
146.241
146.201
146.201
146.21
146.201
412.661
146.201
146.204
146.201
146.23
146.201
146.201
146.201
146.248
146.201
146.201
146.208
146.203
146.202
146.201
146.201
146.201
146.201
146.201
146.201
146.201
146.189
146.236
475.231
146.201
146.201
146.201
146.201
146.583
146.201
146.201
146.201
146.201
146.201
146.201
146.734
146.202
146.201
146.232
146.214
146.201
146.201
146.201
146.201
146.231
10338.4
146.203
146.201
146.201
146.201
146.201
146.201
146.201
146.201
146.201
146.201
146.201
146.201
146.201
146.201
146.201
146.201
146.201
146.201
146.201
146.201
146.203
146.373
146.277
154.5
146.201
146.201
146.201
146.201
146.201
146.201
146.239
146.201
146.201
146.213
146.201
146.302
146.238
146.239
146.201
146.201
555.432
556.949
146.201
146.201
146.201
146.253
146.201
146.201
1141.55
146.201
146.201
146.201
146.201
146.201
146.208
146.201
146.428
1089.53
146.249
146.24
146.271
146.427
146.253
146.201
146.203
146.269
146.866
146.201
146.209
146.204
146.203
146.203
6714.64
146.251
146.201
146.202
146.201
146.204
146.202
146.204
146.201
146.201
146.201
146.201
146.201
146.201
146.443
11153.4
146.201
146.201
146.201
146.202
146.219
146.201
146.22
146.201
146.218
1781.12
146.203
148.564
146.201
146.201
146.201
146.202
146.218
146.209
146.201
146.202
146.201
146.219
146.204
146.234
146.249
146.201
146.201
146.201
146.201
146.201
683.451
146.201
146.201
146.201
146.475
146.201
146.201
146.326
146.201
146.209
871.83
146.201
146.331
146.201
146.215
146.201
146.201
146.201
146.356
146.201
146.224
146.201
146.201
296.267
146.201
146.201
146.201
146.297
147.257
146.201
146.201
146.216
165.039
146.202
146.201
146.201
146.202
146.201
146.573
146.921
146.518
146.232
146.576
146.201
147.188
147.191
146.205
146.205
146.217
146.209
146.201
146.201
146.201
146.207
146.201
146.201
146.201
146.202
146.201
146.201
146.201
146.201
146.201
146.201
146.201
146.342
146.165
146.201
146.223
146.202
146.204
146.286
146.292
146.201
146.201
146.205
146.311
146.201
146.201
146.201
146.201
146.201
272.524
146.201
146.201
146.201
146.201
146.214
146.201
146.201
146.232
146.201
146.201
146.201
146.201
146.201
146.232
146.201
146.201
146.46
146.201
146.271
244.541
146.201
146.234
146.201
146.234
146.235
146.201
146.201
329.291
146.494
146.203
146.201
6909.3
146.214
146.201
146.201
146.201
146.201
146.201
146.25
149.431
146.201
146.201
146.201
146.201
146.237
146.201
146.201
194.702
1048.89
146.201
146.201
146.234
146.218
146.202
146.201
146.201
146.254
146.201
146.202
146.201
146.201
1336.07
146.201
146.201
146.245
146.242
146.203
146.201
146.382
146.201
146.201
146.201
146.242
146.201
146.201
146.201
146.209
146.208
215.649
146.201
146.201
162.287
146.201
146.21
366.149
146.201
146.201
146.201
146.201
440.207
146.208
146.201
146.184
146.201
160.352
146.201
8976.53
146.201
146.201
1736.74
146.201
146.201
146.428
146.201
146.201
146.253
146.201
146.201
146.201
184.479
146.207
146.208
146.216
146.201
146.212
202.552
148.711
146.201
374.523
146.201
11747.6
146.201
146.201
146.236
146.201
146.201
146.201
146.201
146.215
146.233
146.695
146.203
146.347
146.215
146.201
146.222
146.217
146.214
146.201
146.547
146.204
146.201
146.201
146.201
146.21
146.21
146.201
146.245
146.201
146.201
146.201
146.408
216.868
146.303
187.546
147.536
146.201
146.201
146.693
146.201
146.201
146.298
552.884
4329.12
146.225
2304.31
146.201
146.201
309.312
146.201
146.332
146.201
146.201
146.224
146.201
146.285
146.201
146.26
12465.4
146.204
146.267
146.215
146.203
146.201
146.217
146.201
146.201
146.201
146.201
146.201
146.201
146.258
146.201
146.201
146.182
146.315
146.623
146.223
146.201
201.024
146.761
146.201
146.212
146.201
146.201
146.215
377.836
156.717
146.536
146.201
194.792
273.024
193.549
146.201
147.15
146.215
146.213
259.553
146.205
155.242
146.212
146.201
146.211
146.25
146.213
146.216
146.22
146.22
146.21
171.713
317.738
163.764
146.201
146.201
200.871
146.201
146.421
146.561
146.201
7766.2
146.212
146.201
146.201
146.201
146.201
146.218
146.345
6194.79
146.39
154.391
146.201
146.527
146.225
146.238
146.201
146.223
146.201
146.201
146.201
146.201
146.238
146.201
146.201
146.201
147.337
146.225
146.201
146.953
146.201
146.232
146.489
146.201
146.201
146.313
146.201
146.201
146.201
146.379
146.458
146.403
146.173
2363.19
146.201
146.201
146.238
146.521
146.301
163.262
146.201
146.201
146.201
146.356
146.25
146.276
146.201
146.201
146.201
146.201
146.615
146.201
146.235
146.201
165.633
146.645
146.204
146.201
1509.01
147.359
528.493
147.825
146.201
146.695
304.127
146.201
146.228
146.208
146.201
146.24
146.201
146.237
151.497
429.226
146.242
11892.8
146.201
146.237
146.201
148.434
13055.2
146.201
166.975
146.201
146.201
146.203
146.201
266.533
146.201
146.201
146.23
146.403
146.618
146.296
146.249
146.226
146.201
146.201
146.201
146.289
146.225
151.077
145.715
146.201
12729.5
146.201
146.201
146.201
159.922
8760.32
146.202
146.202
149.432
138.339
478.28
146.569
146.201
2936.15
146.319
146.201
146.201
156.828
146.201
146.204
146.203
146.596
146.913
149.062
146.201
146.22
146.411
146.226
146.201
146.201
146.201
146.201
146.201
231.897
402.377
150.744
146.201
212.246
146.246
279.424
146.201
146.215
146.464
4224.86
146.206
146.201
146.201
146.201
146.201
146.201
146.201
146.203
146.259
146.68
146.217
146.209
4490.61
147.106
146.689
146.244
146.201
5526.81
146.239
146.201
146.201
148.626
149.058
146.201
146.201
146.201
146.241
146.201
8302.99
8019.07
7172.71
147.593
146.201
9994.78
146.501
146.201
146.204
146.201
146.201
150.031
146.201
146.201
411.623
146.241
146.201
146.201
146.201
146.201
146.23
146.257
146.207
146.201
146.347
146.435
747.068
146.246
146.257
146.321
146.201
146.201
146.201
146.512
152.472
146.201
146.201
160.138
146.201
146.201
146.201
146.201
146.228
148.197
146.351
146.893
146.508
146.201
229.094
146.201
145.257
146.584
146.201
146.497
146.201
146.201
181.897
146.201
146.279
148.097
146.513
149.961
148.333
146.201
146.644
146.216
149.264
146.234
146.201
146.863
147.937
164.942
147.103
146.281
146.201
146.244
149.521
145.395
148.437
146.215
147.411
146.202
146.201
3255
162.644
146.685
146.412
146.62
151.674
2899.87
146.201
146.281
146.23
173.029
146.201
146.319
146.463
146.201
6775.36
146.201
146.385
149.266
146.237
146.201
146.656
146.201
146.201
146.201
146.201
146.107
146.221
149.616
146.689
146.201
146.201
1611.43
146.223
146.201
146.211
146.201
146.201
146.206
146.201
146.224
146.223
2795.5
146.201
146.201
971.354
146.201
146.271
7568.09
146.201
146.201
146.202
146.201
579.367
146.201
146.221
146.201
146.201
146.201
193.251
3726.09
146.207
146.201
1240.47
146.201
146.209
146.201
146.426
146.201
202.031
153.952
146.201
146.201
146.369
146.229
2295.43
146.201
146.504
146.201
146.201
146.201
146.202
146.201
146.286
146.201
686.44
146.201
146.201
146.219
146.226
146.202
170.822
146.204
146.201
146.201
212.644
146.201
146.317
146.201
146.201
146.901
987.897
146.285
146.271
146.201
146.202
522.403
146.201
154.689
146.201
471.709
1575.51
146.222
876.486
172.144
163.978
149.064
292.876
146.226
146.201
146.202
146.203
146.219
146.201
2094.81
146.201
146.201
146.201
146.196
286.843
669.176
146.201
146.239
146.218
146.201
146.592
146.201
146.201
146.203
153.4
406.367
187.619
146.201
146.202
146.201
2416.08
146.327
368.177
146.201
146.201
146.961
146.319
146.201
146.201
163.185
146.201
146.201
146.65
148.308
146.222
146.24
146.201
147.244
587.24
146.641
146.772
146.216
22267
146.206
146.214
178.326
212.501
23379.2
16535.8
7737.63
27187.4
146.201
5500.27
4732.09
146.729
146.201
152.829
14191
146.201
151.019
19662.8
146.201
4624.18
146.201
278.668
146.422
146.473
216.048
156.367
146.201
146.201
146.253
146.212
152.994
146.201
244.58
146.22
146.208
146.209
146.206
146.201
146.236
146.201
146.361
146.254
149.812
146.201
146.285
146.21
146.401
146.201
146.201
146.305
146.206
146.206
146.201
146.201
146.201
312.511
203.417
146.195
146.433
146.201
146.202
146.217
146.205
146.201
146.26
146.201
146.31
146.211
176.535
146.206
146.205
146.201
146.265
146.201
146.201
146.287
146.201
146.201
178.765
146.231
133.532
146.207
146.201
146.27
146.852
146.201
146.217
146.239
146.207
146.255
146.218
146.28
146.204
146.324
146.201
146.201
146.201
146.786
146.201
146.563
146.201
146.203
146.201
146.201
146.204
146.201
146.211
146.235
146.231
146.201
146.292
182.373
146.226
146.374
185.682
146.201
146.201
146.201
146.202
161.33
146.201
146.234
146.245
146.201
172.444
146.201
146.201
146.201
146.201
146.201
146.201
146.201
146.201
146.201
146.516
146.201
146.201
146.203
146.201
146.201
146.456
146.201
146.201
146.4
146.446
146.201
146.207
146.201
146.325
146.283
146.203
146.201
146.206
146.239
146.201
146.201
146.201
146.201
146.201
146.201
146.202
829.893
146.253
161.906
146.201
146.201
146.208
146.201
210.745
146.207
146.201
146.382
146.208
371.057
146.201
146.208
146.227
146.212
146.274
146.211
146.354
146.201
146.209
146.571
146.201
146.2
146.201
146.202
146.213
146.201
146.423
146.211
146.758
146.201
146.913
146.208
146.201
146.201
146.207
146.201
146.201
146.201
146.201
146.214
146.201
146.201
146.201
146.201
146.201
146.201
146.201
146.237
146.201
146.201
146.201
146.201
146.254
146.201
146.317
146.201
146.201
146.201
146.201
146.218
146.201
146.201
146.201
146.201
146.201
146.201
146.474
146.201
146.201
17892.4
146.201
146.287
146.201
146.201
146.214
146.333
146.201
146.201
146.203
146.201
146.201
146.201
146.201
146.201
146.201
146.208
146.201
146.201
146.203
146.201
146.201
146.204
146.201
146.202
146.206
146.24
146.201
146.202
2565.19
146.225
146.201
146.201
146.201
146.201
146.226
146.235
146.201
146.201
146.201
146.033
146.201
146.201
146.201
149.669
146.211
146.201
147.667
146.209
146.201
146.331
146.201
146.201
146.208
746.786
146.253
146.201
146.219
146.883
146.201
146.201
149.149
146.3
152.15
146.201
146.201
146.201
146.235
2074.04
146.201
1998.24
146.201
146.201
1479.91
146.201
146.201
146.234
1529.8
146.201
146.201
1464.16
146.201
146.202
2000.91
146.206
146.201
146.238
146.21
146.802
146.204
164.858
146.201
146.201
146.228
146.201
146.226
146.442
146.201
146.208
146.258
146.395
146.467
146.201
146.217
146.201
146.201
146.201
146.496
11837.4
146.285
146.458
146.432
11908.4
146.201
146.27
395.74
146.201
146.539
146.201
146.274
146.201
146.48
146.201
146.201
146.201
146.201
146.212
146.202
146.202
12205
146.213
146.201
146.201
146.202
146.201
146.201
146.201
146.201
146.201
146.202
146.201
146.544
11287.9
146.202
146.209
2662.78
146.219
146.246
146.202
146.369
146.218
146.203
146.201
146.219
146.201
146.241
191.993
146.208
146.201
146.201
146.208
146.212
146.201
146.248
146.207
146.201
146.257
146.205
1523
146.318
146.216
146.31
146.201
146.529
146.207
146.252
146.455
146.201
148.218
321.294
158.019
146.227
146.201
146.201
146.31
146.201
147.129
146.201
146.382
146.511
146.231
146.201
2985.29
146.225
146.208
7009.53
146.212
146.201
146.201
146.201
146.201
146.201
146.201
146.201
146.34
146.201
146.201
146.201
177.273
146.201
146.201
146.201
146.364
146.255
146.207
146.224
146.201
146.201
146.201
146.201
146.201
146.201
146.201
146.201
146.201
146.201
149.66
146.201
146.279
146.224
207.175
146.201
146.252
146.232
146.201
146.201
244.653
146.201
146.201
146.201
146.201
146.201
146.201
146.201
146.201
146.201
146.201
146.216
540.305
146.201
146.202
146.201
146.225
146.224
146.201
146.201
1488.2
146.201
146.211
146.201
146.286
146.221
146.201
146.201
149.14
536.491
146.258
146.212
146.201
146.202
146.213
146.273
146.201
146.283
146.204
146.259
146.201
146.227
146.213
146.206
3236.59
146.256
146.202
146.215
163.425
146.201
146.292
146.201
146.201
146.201
146.201
146.201
146.214
146.21
146.29
146.296
638.691
234.616
146.201
146.228
146.204
146.201
146.235
322.049
146.201
146.213
146.366
146.201
146.219
146.201
146.215
146.233
146.205
146.203
146.204
146.201
146.206
146.253
146.202
146.249
146.201
146.24
146.218
302.492
146.204
146.22
146.272
241.759
711.894
146.201
146.292
146.201
146.256
146.217
10915.4
146.21
146.288
146.201
146.204
146.201
146.201
154.909
146.201
146.201
146.201
146.201
146.202
146.201
146.23
146.201
146.201
146.216
146.256
146.201
7125.25
145.995
146.202
146.303
146.201
146.201
146.201
612.548
146.102
146.684
146.201
146.201
146.201
146.245
146.202
146.201
28037.6
146.348
146.201
146.223
1207.79
423.375
146.202
146.201
27879.8
27127.6
146.206
17853.6
642.663
146.356
1592.5
146.572
146.215
146.201
146.216
146.201
146.201
146.201
1581.24
3113.31
732.196
146.437
327.22
146.201
146.203
146.203
146.487
146.201
568.865
146.201
154.739
145.87
146.201
146.408
760.561
146.201
146.201
163.653
146.201
146.201
943.14
198.045
146.201
146.201
146.201
146.239
146.201
146.201
146.201
146.26
160.829
146.201
146.201
146.201
1230.46
146.205
146.201
146.201
146.201
632.079
146.201
146.269
146.359
146.201
146.3
146.201
146.201
10243.6
146.202
146.201
146.201
146.201
146.201
146.291
146.202
146.201
146.243
146.235
146.201
146.339
146.201
146.201
146.201
146.201
146.201
146.201
146.201
146.201
146.201
146.098
146.201
925.381
146.201
146.201
146.201
146.201
146.201
146.201
146.208
846.067
1309.68
1280.18
146.225
146.368
146.202
763.589
1375.12
146.202
146.11
146.201
146.201
146.201
146.201
146.201
146.201
146.25
146.272
146.201
196.913
146.201
146.306
146.201
146.201
146.248
146.289
146.273
152.7
146.229
146.294
146.201
146.309
146.519
146.214
146.201
17572.9
146.201
16487.2
146.201
146.201
146.253
12195.4
12698.8
15818
11406.9
150.824
146.251
149.192
145.014
15587.1
146.201
146.229
146.206
146.294
146.208
209.357
146.206
146.216
204.36
163.999
146.201
195.05
146.254
146.201
146.201
146.201
146.382
148.083
146.206
146.201
146.35
9367.87
146.223
161.505
146.543
146.211
146.622
146.201
146.202
146.594
146.213
146.201
146.279
146.269
146.201
146.201
146.622
146.212
146.201
150.358
146.246
146.531
147.597
146.224
146.427
146.374
146.624
146.203
146.609
146.519
148.406
146.222
146.201
146.731
146.204
146.589
146.415
146.201
146.253
146.201
146.225
146.779
146.201
146.254
146.325
146.201
146.294
146.201
146.201
146.201
146.325
146.205
146.202
146.201
146.201
146.347
146.441
146.68
146.204
146.201
146.259
146.421
581.768
146.201
161.464
292.861
193.76
146.554
146.201
535.794
146.201
146.214
146.201
146.201
146.259
146.201
146.201
146.833
146.211
146.284
146.201
146.201
146.202
146.201
146.201
146.205
146.213
146.201
146.201
6363.18
146.228
146.498
146.201
146.201
3784.74
146.201
146.201
146.201
146.533
146.236
146.201
146.202
146.279
146.24
146.201
146.278
146.201
146.201
146.201
146.201
146.201
146.241
146.201
146.457
146.201
146.28
146.201
146.255
146.201
146.201
146.201
146.225
146.238
146.24
146.24
146.201
146.234
146.211
146.201
146.201
146.201
146.201
148.868
146.201
146.201
146.201
146.244
146.201
146.214
146.201
146.201
146.239
146.201
146.201
146.201
146.201
146.201
146.201
146.201
146.201
146.276
146.201
146.201
146.201
146.201
146.201
146.201
646.636
146.201
146.201
146.201
146.201
146.234
146.201
146.362
146.224
146.201
146.329
146.201
146.201
146.201
146.253
148.413
146.201
146.201
148.958
146.201
146.201
146.201
146.201
146.442
146.27
704.861
146.201
146.201
146.201
149.018
147.659
148.149
146.235
149.542
148.657
146.201
146.201
146.339
148.937
146.201
146.25
146.201
146.202
381.504
146.201
146.201
146.282
146.244
146.246
146.226
146.291
146.201
146.433
146.194
146.201
146.204
146.201
146.201
146.201
146.201
146.201
146.559
146.201
145.71
146.208
146.207
146.487
521.614
146.243
146.201
146.261
146.201
146.206
146.201
146.201
146.201
146.268
392.728
146.304
146.204
146.208
146.204
344.414
146.213
146.298
146.25
146.201
146.543
146.201
146.201
146.202
230.883
479.655
547.647
146.201
415.885
146.201
146.206
146.201
146.201
146.201
10638.3
146.22
146.201
146.201
146.202
146.238
146.201
146.514
146.201
146.201
1939.93
146.201
146.612
146.201
146.216
146.201
146.201
146.201
146.201
146.241
146.201
147.623
146.218
146.202
146.201
146.283
147.569
146.201
146.201
146.201
10168.5
146.208
146.545
2106.9
163.56
146.201
157.235
146.319
146.201
146.236
12147.3
146.23
146.201
943.994
631.141
146.201
146.301
146.201
1452.03
146.201
146.201
146.201
146.23
7150.96
146.233
17823
146.234
146.327
146.23
146.222
146.205
146.232
146.211
146.203
146.218
146.255
335.715
289.829
146.29
331.587
147.708
347.39
146.233
146.201
146.201
224.959
4126.17
801.23
146.509
146.271
146.207
361.128
991.643
2902.58
146.201
183.393
2943.34
290.461
146.201
149.516
146.816
150.434
180.947
159.481
146.296
2446.37
146.201
2118.77
146.24
146.61
146.291
7369.3
8059.25
146.201
146.201
146.421
148.75
146.247
146.203
146.201
146.201
8045.69
146.201
146.365
146.297
146.201
146.28
146.201
2551.51
146.202
146.201
146.497
6305.91
146.235
148.388
2305.68
7633.4
146.238
146.201
146.284
335.059
146.201
146.201
146.201
146.247
146.256
8121.33
146.63
146.208
198.283
146.431
146.201
146.201
3865.92
146.203
146.258
146.248
146.201
146.201
146.201
148.332
147.062
857.546
146.338
146.273
146.201
170.594
6306.66
146.315
160.466
146.201
146.201
146.201
146.336
146.201
3658.09
145.718
146.201
901.726
146.201
146.201
146.173
146.213
146.24
146.201
168.792
203.339
146.201
146.204
146.205
5524.93
146.201
146.228
146.672
146.201
146.213
146.201
146.201
146.201
146.201
146.201
146.201
146.201
146.201
146.259
146.21
146.202
166.601
2056.06
146.255
146.22
146.201
146.228
146.201
146.201
146.288
3834.32
905.131
146.284
142.892
146.357
146.233
146.391
550.468
146.456
146.756
146.263
146.204
148.529
146.201
146.201
146.201
146.201
146.636
146.249
5856.18
146.201
146.206
146.267
246.276
171.043
146.201
148.118
146.931
146.214
146.921
159.456
146.201
146.201
146.846
146.286
146.201
146.201
146.201
146.201
146.303
146.201
2887.82
298.072
147.652
146.522
146.24
146.244
146.311
146.201
146.201
196.877
146.201
146.201
146.201
243.052
146.283
11582.3
146.393
146.224
146.239
164.805
146.262
146.354
146.221
146.285
146.416
254.271
146.418
146.217
146.216
146.214
146.049
146.201
159.723
146.917
146.216
147.002
146.232
146.25
148.766
146.204
146.273
146.455
146.244
146.466
146.202
145.573
146.262
147.024
146.201
146.201
146.573
146.215
146.201
146.269
146.265
2671.87
146.314
146.253
146.201
146.411
146.238
146.201
146.201
146.201
1229.09
147.379
279.596
146.442
146.201
2786.16
2798.62
146.222
146.201
146.275
146.248
146.379
146.206
157.726
146.204
146.265
146.21
3863.92
146.214
146.228
146.201
146.201
1348.33
1703.76
146.313
3882.18
146.256
146.201
146.201
146.201
146.201
4006.11
146.241
146.201
146.201
146.209
146.201
146.201
146.332
146.201
146.203
146.251
146.207
146.247
146.248
146.201
146.201
146.304
146.201
146.201
286.32
146.249
146.282
146.201
146.21
728.973
146.201
146.226
146.271
146.231
146.201
146.201
146.265
146.204
146.201
146.288
146.264
146.291
464.428
146.212
146.204
146.221
146.201
146.242
146.207
146.227
146.38
146.244
146.201
146.241
146.202
146.201
294.028
260.276
146.265
146.271
146.212
146.201
160.497
146.239
249.664
146.28
146.263
146.201
146.201
146.201
146.201
146.244
146.207
146.203
146.742
146.29
146.201
146.201
146.266
146.209
146.222
146.201
146.201
146.21
146.203
146.203
146.201
146.201
146.201
146.203
146.203
146.201
146.201
146.265
146.201
146.249
146.205
146.237
146.239
146.262
146.203
146.211
146.496
146.203
147.382
144.454
146.201
879.784
146.201
147.011
146.201
146.889
146.474
146.854
1414.8
146.202
146.201
146.201
174.493
6130.04
146.201
146.832
146.298
1361.5
146.201
146.499
146.201
146.215
146.787
146.201
146.201
146.205
146.202
146.201
146.201
146.265
259.525
146.513
146.218
146.201
146.596
146.201
146.201
146.216
1480.23
146.213
146.201
146.201
152.141
146.222
146.201
146.201
317.884
146.323
596.609
146.201
146.39
146.204
146.201
146.201
146.201
146.201
146.215
146.259
146.201
146.201
146.204
146.201
146.218
146.225
146.201
146.201
146.201
146.201
146.203
146.201
146.201
146.201
146.201
146.211
146.236
146.639
146.443
146.201
146.201
146.204
146.204
146.223
146.201
146.221
146.235
146.203
146.271
146.203
146.286
146.201
146.201
146.214
146.204
146.201
146.201
146.201
146.201
146.201
146.158
146.201
146.201
146.202
146.201
146.201
146.206
146.201
146.212
146.201
146.201
146.211
146.33
146.232
276.435
303.286
146.201
146.249
146.201
146.201
146.203
146.201
146.203
146.201
229.028
5818.79
146.211
6629.6
146.407
146.201
23139.4
23065.2
146.224
146.324
147.221
146.242
146.202
146.201
146.323
146.201
19276.4
146.201
16340
146.207
146.201
146.201
146.255
146.271
146.279
146.255
146.201
146.201
146.201
146.207
146.201
146.206
146.201
146.203
146.201
146.345
146.201
146.239
146.253
146.203
146.201
146.201
146.222
146.258
146.198
146.302
146.215
146.301
146.201
146.201
146.213
146.228
146.201
146.26
146.201
146.201
146.201
146.333
146.212
146.201
146.207
146.227
146.379
146.201
146.201
146.202
2166.34
146.211
146.3
146.201
146.201
146.222
146.201
146.201
146.201
146.389
146.201
146.201
146.239
146.208
145.978
142.154
146.841
146.201