/*--------------------------------*- C++ -*----------------------------------*\
| =========                 |                                                 |
| \\      /  F ield         | OpenFOAM: The Open Source CFD Toolbox           |
|  \\    /   O peration     | Version:  v2012                                 |
|   \\  /    A nd           | Website:  www.openfoam.com                      |
|    \\/     M anipulation  |                                                 |
\*---------------------------------------------------------------------------*/
FoamFile
{
    version     2.0;
    format      ascii;
    class       volScalarField;
    location    "2";
    object      ILambda_7_0;
}
// * * * * * * * * * * * * * * * * * * * * * * * * * * * * * * * * * * * * * //

dimensions      [1 0 -3 0 0 0 0];


internalField   nonuniform List<scalar> 
108993
(
146.203
146.201
146.201
146.201
146.201
146.201
146.201
146.201
146.201
146.332
146.201
146.201
146.201
146.201
146.201
146.2
146.853
146.202
146.201
146.201
146.201
146.201
146.201
146.201
146.201
146.201
146.201
146.201
146.201
146.201
146.201
146.201
146.201
146.214
146.201
146.201
146.201
146.201
242.011
146.573
146.201
146.201
146.201
146.201
146.212
263.153
146.201
146.201
146.201
146.201
146.201
146.238
146.201
146.201
146.209
146.201
146.201
146.201
146.201
146.201
146.201
146.201
146.201
146.201
146.201
146.201
146.201
146.201
146.201
346.725
146.201
146.201
146.201
146.201
146.201
146.201
146.201
146.381
146.201
146.201
146.201
146.202
146.201
146.201
146.202
146.201
146.201
146.201
146.201
146.201
146.201
146.201
146.201
146.201
146.201
146.201
146.201
146.201
146.201
146.201
146.201
146.201
146.201
146.201
146.201
146.201
146.201
146.201
146.201
146.51
146.241
146.201
146.223
146.316
146.201
146.297
146.201
146.201
146.36
146.201
146.202
146.201
146.202
146.201
146.201
146.201
146.201
146.201
146.201
146.201
146.201
146.201
146.201
146.384
146.201
146.201
146.201
146.201
146.201
146.201
146.201
146.201
146.462
146.201
146.201
146.201
146.201
146.285
146.201
146.453
146.498
146.201
146.201
146.481
146.201
146.202
146.201
146.201
146.201
146.325
146.48
146.201
146.201
146.201
146.201
146.211
146.201
146.201
146.201
146.201
146.201
146.201
146.275
146.201
146.201
146.201
146.201
146.201
146.201
146.201
146.22
146.201
146.201
146.201
146.201
146.201
146.201
146.201
146.201
146.201
146.201
146.201
146.201
146.201
146.201
146.201
146.201
146.201
146.201
146.201
146.201
146.201
146.201
146.201
146.201
146.25
146.201
146.216
146.201
104.401
146.225
146.201
146.201
146.207
3943.84
146.201
146.201
146.201
146.201
146.201
146.201
146.407
146.201
146.201
146.201
146.201
146.201
146.201
146.39
146.201
146.325
146.201
146.201
146.201
146.201
146.201
146.201
146.201
146.227
146.201
146.201
146.201
146.201
146.201
146.201
146.2
146.21
146.203
146.201
146.201
146.201
146.201
146.201
146.201
146.201
146.201
146.201
146.201
146.201
146.201
146.201
146.201
146.21
146.201
146.201
146.201
146.201
146.201
146.201
146.201
146.201
146.201
146.208
149.748
146.231
146.201
146.201
146.201
146.201
146.201
146.201
1724.41
1594.72
146.201
146.201
146.201
146.201
146.201
146.201
146.232
146.201
146.201
146.201
146.201
146.201
146.201
146.201
146.201
179.165
146.201
146.205
146.321
146.201
146.201
146.201
146.201
146.201
146.201
146.201
146.205
146.201
146.201
146.212
146.201
146.201
146.265
146.201
146.207
152.706
146.201
146.201
146.201
146.201
146.201
146.201
146.618
235.333
146.236
146.201
146.201
146.201
146.209
146.983
146.201
146.219
146.201
146.201
146.201
146.201
146.201
146.201
146.211
146.201
146.201
146.201
146.201
146.201
146.201
146.201
146.201
146.201
146.201
1612.32
146.219
146.201
146.201
146.201
146.316
146.201
146.201
146.201
146.201
146.201
146.201
146.201
146.201
146.201
146.201
146.201
1711.15
146.201
146.201
146.201
146.764
146.201
146.308
146.201
146.201
146.295
146.201
146.257
146.289
146.201
146.201
146.202
146.202
146.209
1366.12
146.201
146.22
146.27
146.202
146.263
146.201
146.214
146.201
211.99
146.201
146.202
146.201
146.201
146.202
146.202
146.201
146.201
146.202
146.201
146.201
146.201
147.4
146.201
146.201
982.184
146.201
146.201
146.201
146.67
331.625
146.217
146.201
147.035
146.201
147.262
146.201
146.201
147.111
146.201
146.212
147.041
146.201
244.142
175.495
162.882
146.201
146.201
146.292
146.201
146.201
146.201
146.201
146.201
146.201
146.201
146.201
157.941
146.201
146.201
146.292
146.201
146.201
146.201
146.201
146.201
146.203
146.201
146.201
146.201
146.201
146.201
146.201
146.202
146.201
146.202
146.353
165.359
146.201
146.201
146.202
146.201
146.201
280.364
146.201
146.201
146.201
146.201
146.201
146.201
146.218
146.275
146.521
146.201
146.201
146.201
146.201
146.201
146.201
146.201
146.201
146.316
146.202
146.201
146.201
146.202
146.201
146.213
146.201
146.201
146.201
146.201
146.201
146.201
146.201
146.201
146.201
146.202
146.277
146.201
146.201
224.518
146.201
146.208
146.201
146.201
146.201
146.201
146.201
146.201
146.201
146.201
146.201
146.201
146.201
146.201
146.201
146.201
150.63
146.204
146.201
149.812
146.201
146.201
146.201
148.54
146.201
146.201
146.201
146.205
146.201
146.33
146.212
146.201
146.213
146.201
146.201
146.201
146.201
146.201
148.409
146.201
146.201
146.204
146.201
4350.43
146.201
146.201
146.201
146.201
146.201
145.575
146.201
146.204
146.201
146.201
146.201
152.434
146.203
146.201
146.201
146.201
146.201
146.201
146.201
3587.38
152.264
146.211
146.201
146.201
152.031
157.266
146.201
146.202
146.201
146.201
146.201
146.201
146.203
342.993
150.802
146.201
146.201
146.201
146.201
146.201
146.201
150.563
146.201
146.201
146.201
146.201
147.086
146.201
146.201
160.54
146.201
146.201
146.201
150.309
146.201
146.209
146.201
146.46
146.201
147.864
146.201
146.201
146.201
146.201
146.201
146.274
146.201
146.26
146.201
146.201
146.247
146.201
146.201
146.201
146.204
1348.31
146.201
146.253
146.201
146.208
146.368
146.201
146.201
146.201
310.957
146.385
146.319
146.21
146.284
146.201
146.201
146.201
146.201
146.201
146.236
146.219
146.201
146.201
146.217
146.228
146.86
308.455
146.201
147.435
146.823
159.45
147
146.553
146.201
146.209
146.201
146.201
146.201
146.203
146.201
146.215
146.233
146.202
146.201
146.218
148.057
147.285
146.201
146.201
296.157
146.201
146.311
146.201
146.561
205.196
146.201
146.246
146.201
167.631
282.89
256.629
551.732
146.201
146.201
146.374
146.277
146.201
17396.1
164.897
146.207
156.52
4347.9
146.285
146.201
146.201
146.201
146.35
146.201
146.204
146.201
146.201
146.201
146.201
146.21
1831.9
146.201
665.961
146.201
146.28
153.752
146.201
146.338
146.201
146.201
146.205
146.2
146.206
146.201
146.201
146.262
146.207
146.201
146.286
146.201
146.2
146.2
146.201
146.201
146.208
146.201
146.201
146.201
146.201
146.2
228.661
146.215
146.201
146.201
146.202
146.201
146.202
148.7
146.201
146.201
146.201
146.201
146.201
146.201
146.201
146.201
146.3
146.201
146.201
146.201
146.201
146.201
147.209
146.201
146.201
146.212
146.201
146.201
146.201
146.203
146.201
146.207
146.214
146.201
146.201
311.521
146.202
146.223
146.201
146.301
146.201
146.201
146.201
146.201
146.201
146.201
146.201
146.968
146.201
150.004
146.201
146.201
149.486
146.201
146.212
146.201
146.552
146.201
146.201
146.201
146.201
146.201
146.201
146.201
146.201
146.201
146.201
146.201
146.201
146.201
146.201
147.85
146.201
146.53
146.201
146.201
209.37
146.201
160.783
146.207
146.201
146.201
3477
146.201
146.201
147.067
146.208
146.201
146.201
146.209
151.402
146.201
146.468
146.201
146.201
146.622
153.9
146.201
146.201
146.201
146.201
146.201
146.201
178.359
146.201
146.201
221.738
146.201
501.44
146.201
190.745
146.201
146.201
146.203
146.381
146.206
146.201
146.204
146.204
423.253
146.201
237.487
146.201
146.201
146.201
150.051
146.201
146.452
146.201
146.201
146.202
255.27
146.201
146.256
146.234
146.216
146.201
146.211
147.282
227.337
146.201
146.419
146.202
146.93
146.201
146.93
148.892
728.467
146.201
146.201
146.202
146.401
146.283
146.201
146.201
146.203
146.229
146.201
146.576
146.201
146.201
146.886
146.201
146.201
147.452
1693.85
146.201
146.201
146.201
146.201
146.233
146.21
147.006
146.201
146.962
146.669
146.249
146.201
146.201
146.206
146.203
146.201
146.201
146.202
146.201
146.213
146.201
146.201
146.205
146.201
146.392
146.203
146.203
146.217
146.201
146.265
146.201
146.359
146.201
146.201
146.201
146.289
146.215
146.201
147.335
146.685
146.227
146.227
146.201
146.202
146.208
146.319
146.201
155.82
146.209
146.21
147.631
146.207
146.201
146.335
146.369
146.222
146.153
147.15
146.526
146.527
146.201
146.201
147.11
146.272
147.094
146.201
146.201
170.103
146.201
146.201
146.201
172.703
146.201
146.201
146.201
146.201
146.201
146.201
146.201
146.568
146.201
146.201
146.232
146.201
147.354
146.201
146.201
146.201
146.201
146.201
146.373
151.701
146.201
146.201
146.201
146.35
146.478
146.209
146.201
146.201
146.212
146.201
146.201
146.6
146.203
146.201
146.201
146.201
146.201
146.201
146.201
146.201
146.201
146.201
146.201
146.207
146.201
146.201
146.201
146.201
146.201
146.269
146.201
146.201
146.201
146.201
146.201
146.202
146.201
146.201
146.201
478.007
146.201
146.201
146.201
147.344
146.2
146.201
1720.02
146.264
146.335
146.201
146.416
146.205
146.316
146.201
1329.11
146.201
146.201
146.201
146.253
146.591
1484.76
148.968
146.201
146.201
146.201
149.977
146.201
146.357
146.257
146.217
146.844
146.775
146.332
146.33
146.201
146.201
146.201
146.201
146.201
146.201
146.206
146.398
146.201
232.865
146.264
146.201
146.201
146.398
146.629
146.201
146.339
146.201
146.201
146.201
146.201
146.611
146.202
146.201
146.21
146.201
146.201
146.201
146.201
146.201
146.201
11756.2
146.205
146.201
146.201
146.201
146.201
146.201
146.201
146.201
146.201
146.201
146.201
146.201
146.201
146.201
146.201
146.201
146.201
146.201
146.201
146.201
166.645
146.456
146.344
146.412
146.201
146.201
146.201
146.201
146.244
146.201
146.201
146.201
146.201
146.316
146.201
146.201
146.201
146.201
146.201
146.201
242.74
209.46
146.201
146.201
146.201
146.201
146.201
146.201
146.282
146.201
146.201
146.201
146.201
146.201
146.204
146.305
146.201
146.279
146.201
146.201
146.201
146.34
146.201
146.251
146.201
146.201
146.459
146.201
146.265
146.202
146.202
146.202
1215.53
146.201
146.201
150.938
146.201
149.553
155.825
146.201
146.201
146.201
146.201
146.201
146.202
146.201
146.272
147.184
148.37
146.201
146.201
152.756
146.201
146.201
146.201
146.201
146.201
971.673
319.756
146.209
146.201
146.234
146.201
207.799
146.212
146.201
146.201
207.86
146.201
146.208
147.948
146.202
146.338
146.201
146.201
146.23
146.201
146.201
625.623
146.201
146.201
146.201
146.231
146.201
146.201
146.201
146.201
146.209
146.216
146.201
146.201
146.203
146.203
146.201
146.21
146.201
146.201
146.201
146.221
151.538
146.201
146.245
146.201
146.201
146.201
146.201
147.03
146.201
146.403
146.282
157.357
341.074
146.201
146.201
146.202
146.201
146.212
146.212
146.212
146.22
146.212
146.201
146.212
146.212
146.202
146.202
146.201
146.283
146.201
146.201
146.201
146.201
146.201
146.201
146.201
146.334
146.201
146.201
146.201
146.201
146.201
146.201
146.201
146.206
146.397
146.201
146.225
146.201
146.201
146.201
146.201
146.28
146.201
146.201
146.208
146.201
146.201
146.201
146.201
146.201
146.418
146.201
146.204
146.201
147.132
146.216
146.199
146.201
146.201
146.201
146.194
146.201
146.201
146.201
146.201
146.201
146.201
146.268
146.2
146.233
146.206
146.201
146.202
146.201
146.201
146.201
146.201
146.201
146.214
146.202
146.326
146.2
146.483
146.207
146.201
146.203
146.201
146.205
146.192
146.201
146.418
146.201
146.201
146.201
149.57
146.201
146.201
146.201
278.053
166.963
150.257
146.201
146.219
146.201
146.201
146.2
146.201
146.203
146.201
146.201
146.201
148.659
146.744
146.333
146.479
146.217
146.201
146.201
146.214
146.523
146.201
146.201
146.727
146.207
146.201
146.201
146.54
146.408
146.205
146.208
146.554
146.735
146.215
146.313
146.201
146.209
146.315
146.201
146.348
146.201
148.677
146.201
146.201
146.371
146.317
147.349
146.353
146.24
146.333
146.201
146.232
148.236
146.201
1484.77
146.608
146.201
146.535
146.201
146.201
146.201
146.398
146.405
146.201
146.202
146.201
244.413
146.378
146.337
159.931
146.27
146.201
15418.9
146.201
146.201
146.201
146.201
146.201
146.201
146.201
146.201
146.203
146.666
146.203
146.203
146.201
146.201
146.201
146.201
146.201
146.201
146.428
355.378
146.201
146.201
146.201
146.363
146.201
146.201
146.238
146.201
146.201
146.201
146.201
197.082
146.21
146.204
146.696
146.201
146.224
146.646
146.201
146.201
146.201
146.256
146.257
146.208
819.734
146.201
146.201
4044.37
146.201
146.201
146.201
146.201
146.201
146.201
146.201
146.201
146.201
1765.7
146.417
146.201
146.205
146.23
146.201
146.245
146.201
146.201
146.201
146.201
146.201
146.201
146.201
146.201
146.819
792.552
146.269
146.205
146.201
146.201
249.091
146.673
146.201
146.202
146.201
146.201
146.211
146.216
331.352
146.202
146.201
146.375
232.517
146.246
146.201
146.202
146.216
146.208
146.206
146.202
418.87
146.207
146.201
146.208
146.202
146.213
146.203
146.208
146.202
146.202
146.242
175.695
322.665
146.201
146.201
2778.29
146.201
146.201
146.492
146.201
3290.9
146.202
146.201
146.201
146.201
146.201
146.202
146.203
146.279
146.201
146.212
146.201
146.3
146.202
146.201
146.201
146.201
146.201
146.201
146.201
146.201
146.216
146.201
146.201
146.201
146.329
146.202
147.594
2414.98
146.348
146.201
146.25
146.201
146.201
146.201
146.201
146.201
146.203
146.202
146.331
146.356
146.433
146.519
147.828
146.201
147.112
146.226
146.201
147.948
146.201
146.202
146.201
146.285
146.201
146.224
146.201
146.201
146.201
146.201
146.5
146.201
147.07
146.201
146.534
146.251
146.201
146.201
146.3
146.273
146.211
146.216
146.201
146.5
3386.59
146.201
146.201
146.208
146.202
146.601
146.201
146.621
146.564
146.249
147.032
146.603
146.203
146.87
146.201
6693
3330.87
146.342
4174.87
146.209
147.137
191.715
146.201
4635.84
146.279
146.525
146.201
146.201
146.273
146.201
146.201
146.201
146.201
146.201
146.201
146.201
146.201
1745.89
146.408
146.277
8117.71
146.242
146.201
146.202
146.287
146.25
146.201
146.261
146.206
146.693
10873.7
146.313
146.201
152.115
146.201
146.201
146.201
55.0114
146.201
146.325
146.245
146.477
146.583
149.401
146.201
146.225
146.201
146.201
146.201
146.201
146.201
146.201
146.201
146.275
660.795
5352.34
146.201
13362.5
146.201
146.366
146.201
146.389
146.534
392.564
146.201
146.201
146.201
146.201
146.201
146.201
146.534
221.135
146.202
208.893
146.211
146.216
152.306
148.984
4145
356.163
146.201
162.172
146.211
146.201
146.201
146.378
146.301
146.201
146.201
146.201
146.201
146.201
2918.23
935.823
925.751
146.445
146.201
5389.75
146.394
146.201
146.204
146.201
148.59
250.259
168.676
148.801
151.312
146.201
146.201
148.187
146.201
146.201
146.201
146.202
146.201
146.201
146.292
146.279
146.215
146.201
146.201
146.201
146.201
146.201
146.201
146.239
146.276
146.201
146.201
292.144
146.201
146.201
146.201
146.201
146.211
146.247
973.074
146.237
146.421
146.201
146.212
146.201
146.205
146.211
146.201
146.203
146.201
146.201
146.259
146.201
146.201
146.224
146.204
146.22
146.244
146.201
146.204
146.202
146.219
146.201
146.448
146.211
146.218
146.21
148.061
146.201
146.297
146.204
146.296
146.209
146.249
146.206
146.234
146.201
146.201
7914.37
146.213
146.203
146.271
146.202
146.519
148.83
146.201
146.211
146.201
146.22
146.201
146.225
146.299
146.201
146.256
146.201
146.217
146.223
146.201
146.201
146.206
146.201
146.201
146.201
146.201
146.213
146.201
146.23
1229.1
146.201
146.201
146.312
146.201
146.201
146.202
146.201
146.201
146.201
146.201
146.231
146.228
147.99
146.201
146.201
146.227
146.201
175.703
1463.29
146.201
146.201
146.201
146.201
146.229
146.201
146.201
146.201
146.201
146.201
146.285
3751.81
146.201
146.201
1672.86
146.201
146.409
146.201
146.203
146.201
146.212
146.22
146.201
146.201
146.201
146.451
146.237
146.201
146.201
154.584
146.201
146.948
150.371
146.201
146.201
146.201
146.252
146.201
146.201
146.201
146.201
146.201
146.208
213.944
146.201
146.201
146.307
146.201
146.34
146.265
146.201
1664.69
147.339
146.202
146.201
146.201
162.909
146.361
146.201
146.747
146.201
150.053
146.258
146.201
146.734
146.213
289.843
851.364
146.292
146.201
146.201
146.201
556.581
150.093
146.585
146.285
146.201
249.007
146.201
147.622
146.226
146.219
146.201
146.456
146.207
146.201
147.108
146.201
146.201
146.201
146.242
146.212
146.205
146.201
146.201
146.201
146.688
146.201
159.155
146.201
146.201
148.031
146.332
146.201
146.201
236.921
146.201
146.201
146.201
146.822
146.522
146.23
146.201
693.547
715.445
146.242
146.618
146.202
6470.17
146.201
146.227
312.37
146.956
12544
3789.16
3821.68
7689.17
146.201
23678.2
146.228
146.644
146.201
146.795
21456.2
146.201
146.206
15772.6
146.201
474.722
146.201
149.161
146.224
146.322
146.218
146.213
146.201
146.201
146.201
146.201
2663.84
146.201
146.205
147.124
146.201
146.201
146.201
146.201
146.201
146.201
146.201
146.201
146.458
146.201
578.942
146.201
146.201
146.201
146.201
146.201
146.201
146.201
146.201
146.201
158.191
306.533
391.244
152.521
146.201
146.201
146.201
146.201
146.201
146.201
146.201
146.201
146.468
146.289
353.124
146.201
146.201
146.201
146.222
146.499
146.201
146.201
146.201
146.306
340.685
146.202
146.664
146.201
158.576
146.792
146.693
146.201
146.208
146.203
146.201
146.205
146.201
146.201
146.202
146.201
146.201
146.201
146.201
146.438
146.201
146.55
146.201
146.202
146.201
146.201
146.203
186.675
146.245
146.201
146.201
146.201
147.128
206.368
146.201
146.231
224.76
146.201
147.253
150.191
282.123
197.863
146.201
146.201
146.202
146.201
333.433
146.36
146.201
146.201
146.201
146.201
146.201
146.201
146.201
146.201
146.22
146.201
146.201
146.208
146.201
146.202
146.208
146.201
146.201
146.203
146.203
146.201
146.205
146.201
146.201
146.203
146.201
146.201
146.628
146.201
146.201
146.201
146.201
146.201
146.201
146.269
146.289
147.921
146.538
146.303
146.231
146.599
146.204
146.201
146.691
146.204
146.227
146.243
146.203
146.388
146.201
146.203
146.201
146.214
146.202
146.204
146.202
146.201
146.205
146.204
146.201
207.486
146.201
303.493
146.204
146.203
146.203
146.203
146.202
146.206
146.202
146.205
146.464
146.201
146.641
146.78
146.201
146.201
146.201
146.203
146.201
146.203
146.439
146.201
146.201
146.201
146.202
146.35
146.201
146.264
146.216
146.201
146.202
146.201
146.216
146.201
146.201
146.201
146.201
146.206
146.201
146.201
146.201
146.201
146.206
146.201
146.321
146.209
146.561
331.098
146.201
146.201
146.227
146.201
146.201
146.201
146.201
146.201
146.204
146.368
146.201
146.201
146.203
146.201
146.202
146.278
146.201
146.201
146.269
146.201
146.201
146.205
146.201
237.625
149.318
146.201
146.201
146.612
203.552
146.865
146.201
146.201
146.201
146.201
146.219
146.201
146.201
146.201
146.217
146.211
146.201
146.201
146.201
191.204
153.313
189.141
197.221
146.243
146.212
146.201
146.201
146.201
146.201
146.745
146.206
146.201
146.202
201.174
146.201
146.201
209.778
146.291
210.611
146.201
146.371
146.201
146.201
146.281
146.201
146.278
146.201
146.201
146.263
146.29
146.201
146.202
146.278
146.201
146.377
146.249
146.201
146.208
146.282
146.202
146.204
146.201
146.202
146.424
146.202
146.323
146.201
146.202
146.262
146.201
146.25
146.319
146.201
146.201
146.201
146.492
146.201
146.201
146.201
146.201
189.93
146.201
146.26
147.616
146.201
146.219
146.548
147.795
146.205
146.204
740.048
146.201
146.214
146.201
146.224
146.201
146.343
146.201
146.201
146.203
146.201
146.712
240.706
238.668
146.539
146.214
146.201
146.403
254.72
146.201
146.201
146.201
246.546
146.202
419.752
146.201
146.381
146.664
260.698
146.201
551.035
147.612
146.201
238.087
146.444
146.219
189.272
146.331
146.205
146.201
146.202
147.314
160.358
162.402
146.201
162.649
146.242
146.201
146.202
165.776
146.247
146.201
146.273
155.357
146.203
146.201
3171.63
146.201
146.201
146.33
146.201
2766.28
146.201
146.649
148.463
245.459
146.201
146.201
146.201
4206.65
146.92
146.597
146.228
4341.05
2750.74
146.209
146.201
1650.42
146.206
156.627
277.224
170.385
146.201
146.466
146.201
146.201
146.201
146.201
146.201
146.201
146.201
146.201
146.201
7128.31
146.201
146.208
146.201
146.216
146.339
146.201
146.22
146.201
146.201
146.201
146.223
146.201
146.201
146.201
146.201
151.372
146.766
5264.24
146.201
146.201
146.226
153.319
146.201
146.205
146.202
146.201
146.201
6005.56
146.201
146.201
146.201
146.201
146.201
146.201
146.201
146.201
146.201
146.201
146.315
162.632
146.201
146.377
146.201
146.219
146.349
146.201
146.201
146.472
146.201
146.203
146.201
146.203
146.202
146.201
146.201
205.192
149.079
146.201
149.704
146.201
146.201
146.203
146.213
146.201
146.201
194.885
146.201
146.201
146.205
146.203
146.527
146.301
146.201
146.201
146.202
146.57
146.201
146.201
146.201
146.201
146.201
146.201
146.201
146.278
146.203
146.201
146.201
146.238
146.338
146.201
146.242
146.682
146.201
146.289
14421.9
146.201
146.23
146.286
146.201
146.201
146.201
146.223
146.283
146.202
146.202
146.201
146.201
146.203
146.201
152.05
146.206
146.2
146.201
146.201
146.235
146.203
146.201
146.201
146.221
148.519
146.201
146.201
146.201
146.201
146.218
146.532
146.201
146.209
189.012
149.173
146.201
146.201
360.176
146.201
146.201
146.201
146.201
146.489
146.162
146.201
146.841
146.233
146.201
146.201
146.201
146.527
146.203
146.201
146.205
146.201
146.201
146.201
146.648
146.206
324.374
146.201
146.201
146.201
146.201
167.497
146.257
11141.9
146.201
146.201
146.201
146.682
161.46
148.838
146.201
10797.9
8566.2
147.379
3668.52
147.345
146.201
146.28
146.208
146.201
146.205
146.201
146.213
146.201
146.206
5964.83
146.862
146.308
146.202
146.238
146.204
236.312
292.208
146.317
147.134
146.221
149.863
146.627
146.456
146.201
146.984
146.33
146.202
146.201
187.233
146.201
146.201
146.348
146.384
146.201
146.201
146.201
146.201
146.201
146.201
146.201
147.451
368.537
146.201
146.202
149.823
146.446
160.776
146.201
146.201
146.201
147.285
146.201
146.201
146.201
146.201
146.201
146.201
146.201
146.28
166.044
146.201
146.201
146.201
146.201
146.201
150.465
146.201
146.201
146.201
146.201
146.206
146.201
146.201
146.201
146.201
146.202
146.201
146.729
146.201
146.201
146.214
146.201
436.28
146.702
146.201
146.201
146.201
146.201
146.767
149.773
163.28
146.22
315.32
146.202
146.627
151.141
156.245
405.632
146.993
146.207
146.201
147.153
146.201
146.201
146.201
146.201
146.201
146.968
146.201
146.755
146.201
146.201
147.143
146.201
146.201
146.201
146.201
192.783
146.203
146.201
146.201
146.201
146.282
146.201
146.675
158.745
147.457
154.48
146.201
146.201
146.201
149.037
180.704
159.979
148.038
146.378
146.235
166.174
146.209
148.604
146.201
146.201
146.201
146.201
146.28
146.236
146.238
146.21
146.255
146.25
146.203
146.252
146.416
146.201
146.201
146.201
146.317
146.211
146.205
146.201
146.296
146.272
146.213
221.623
146.215
146.607
146.622
146.201
146.557
147.034
146.232
146.201
146.201
146.293
146.201
146.201
146.503
146.201
146.201
146.643
146.201
147.02
146.677
146.201
146.201
146.207
146.206
172.365
146.207
146.402
146.208
146.201
146.201
146.208
185.614
146.206
146.206
156.702
146.222
146.339
147.347
861.958
146.201
146.201
146.202
146.201
1105.4
146.201
146.201
146.201
146.202
146.201
186.4
146.201
146.201
146.212
146.202
146.202
146.264
146.201
146.356
941.366
146.272
146.201
146.213
1495.79
146.288
727.262
146.211
146.229
146.201
146.201
146.201
146.201
146.201
146.201
146.201
671.083
146.201
146.201
146.201
146.201
146.201
146.201
146.201
146.236
146.21
146.201
146.201
146.337
146.201
991.127
146.272
146.201
146.225
146.255
146.201
146.201
818.179
146.201
146.201
306.683
146.201
146.201
146.201
146.201
146.201
146.201
146.201
146.201
146.201
146.201
146.31
146.201
146.201
146.201
146.201
146.211
146.201
146.223
146.201
146.453
146.201
146.201
146.201
146.201
146.209
146.201
146.201
146.201
146.201
146.201
148.08
146.201
146.201
146.201
146.201
146.201
146.214
146.201
146.201
146.201
146.202
146.201
146.201
146.201
146.204
146.201
146.201
146.201
146.202
146.201
146.201
146.201
146.201
146.201
146.201
147.393
146.279
146.259
146.203
146.201
146.203
146.201
146.201
146.241
178.376
146.207
146.201
146.201
146.201
146.201
146.257
146.201
146.201
146.267
146.201
146.201
146.201
146.201
146.201
146.201
930.953
146.201
146.201
146.201
146.274
146.28
146.303
146.201
146.445
146.376
146.201
146.201
146.201
146.298
146.201
146.201
146.201
146.201
311.695
146.201
146.201
146.201
146.204
146.201
146.205
146.21
146.201
146.333
150.213
146.201
176.514
146.201
146.201
146.201
146.201
146.201
146.201
146.201
146.322
146.227
146.399
146.414
146.218
146.201
146.201
146.201
146.201
146.203
146.201
146.201
146.201
146.201
146.745
146.201
147.844
157.935
146.201
146.209
146.208
146.206
146.201
146.201
146.202
146.201
146.201
146.201
146.208
146.211
146.219
146.201
146.212
146.201
146.201
146.201
146.2
146.201
146.294
146.218
146.201
146.201
174.762
146.201
146.201
146.576
146.201
146.201
155.089
146.201
146.201
146.201
146.211
146.201
146.201
146.201
146.201
146.201
146.201
1030.67
146.201
147.076
146.201
146.201
146.208
146.201
146.201
146.201
167.681
146.201
146.265
146.62
146.209
146.201
146.302
146.218
146.201
146.201
146.329
146.227
146.201
146.281
174.094
146.201
146.201
146.201
146.28
146.201
146.201
146.201
146.201
3502.42
146.201
20455.7
146.201
146.371
146.201
146.201
146.248
146.201
146.201
146.201
146.201
146.201
146.323
146.237
156.128
146.23
146.203
146.237
146.201
146.201
146.201
146.213
146.555
146.256
146.219
146.201
160.757
146.23
147.987
146.356
146.201
1415.77
147.256
146.231
146.201
146.213
146.348
146.421
147.34
146.205
146.204
146.903
146.201
146.26
146.201
146.272
146.202
146.3
146.595
146.201
146.201
146.216
146.394
146.201
151.572
146.201
146.201
153.219
146.192
146.201
146.201
146.201
146.203
146.201
17379.9
215.024
146.201
146.201
146.328
146.201
780.286
146.406
155.205
146.201
146.201
146.201
146.215
146.201
146.201
146.201
146.201
146.201
146.592
146.201
146.201
146.352
146.78
146.201
146.201
242.6
146.201
146.201
146.632
146.201
146.201
146.195
146.203
7771.14
146.212
146.201
146.201
146.201
146.217
2576.13
146.202
1389.27
146.201
146.2
146.201
146.201
146.201
765.41
146.209
146.201
146.306
146.201
146.201
146.208
146.201
146.201
146.201
146.214
284.155
146.201
146.201
146.424
1046.96
146.201
146.205
7909.97
146.201
146.201
146.202
146.201
146.201
146.201
146.201
146.201
146.201
146.201
146.201
146.786
146.201
146.206
7281.43
146.227
147.053
146.201
146.216
146.201
146.201
146.43
146.286
146.253
146.496
144.886
146.669
146.201
146.219
275.17
146.343
146.48
146.454
146.201
146.572
146.201
146.201
146.201
253.418
146.395
146.201
146.344
146.201
146.201
146.201
146.781
146.561
146.201
146.52
146.848
146.249
146.854
146.601
146.201
146.201
146.809
146.201
146.201
146.201
146.201
146.201
146.201
146.201
538.823
146.221
147.245
146.32
146.201
146.221
146.201
146.201
146.201
146.706
146.201
146.201
146.201
146.924
146.201
146.513
146.975
146.266
146.224
146.204
146.201
147.029
146.201
146.201
146.202
206.271
146.315
146.201
146.201
146.201
146.322
146.201
146.828
146.466
146.443
146.867
146.201
146.201
146.833
159.946
146.201
146.921
146.206
146.244
146.201
146.981
146.201
146.942
146.201
146.201
146.21
146.212
146.201
146.201
146.214
146.279
146.537
146.201
146.201
146.257
146.66
146.201
146.201
146.201
149.285
147.16
15503.9
146.307
146.201
146.289
146.303
146.201
146.201
146.201
146.201
146.201
146.201
146.309
146.201
146.201
146.201
146.352
146.201
146.201
146.201
146.201
146.262
146.219
146.201
146.322
146.201
146.2
146.201
146.201
146.201
146.295
146.698
146.203
146.204
146.366
146.201
146.201
146.201
146.201
146.201
146.421
146.201
146.202
146.201
146.201
146.202
146.417
146.201
146.202
146.301
146.201
146.201
146.201
146.201
147.514
146.201
146.241
146.201
146.203
146.202
146.201
146.201
146.201
146.203
146.201
146.201
146.42
146.408
146.201
146.201
146.201
146.201
146.201
146.201
146.201
146.201
146.201
146.201
146.201
146.201
146.282
157.011
146.272
146.201
146.349
146.201
146.201
146.282
146.201
146.614
146.201
146.224
146.201
146.201
146.201
146.201
146.201
146.201
341.556
146.597
146.201
146.201
146.201
146.201
146.201
146.201
146.201
146.201
146.201
146.345
329.017
146.343
146.201
146.201
351.017
347.845
146.372
146.201
146.201
146.201
146.203
146.201
146.205
146.206
146.201
337.828
146.209
146.671
324.968
146.505
146.42
146.201
14109.6
146.201
146.574
146.201
146.837
146.27
146.597
146.269
146.201
146.201
146.201
146.221
147.039
146.201
146.491
146.201
146.283
146.201
146.201
146.201
146.201
146.512
146.201
146.201
146.201
146.201
146.201
146.201
146.507
147.182
146.266
146.201
146.201
146.305
146.201
146.201
153.404
146.28
153.584
146.201
146.201
146.264
152.335
146.201
146.201
146.238
146.408
146.222
146.201
146.513
146.202
146.201
146.201
146.201
146.201
146.201
146.201
146.201
146.201
146.201
146.201
146.201
146.201
146.201
146.201
146.201
146.201
146.201
146.201
146.201
146.201
146.201
146.201
146.234
146.307
146.306
146.201
146.201
146.201
146.201
146.204
146.201
146.201
146.201
146.201
146.201
146.201
146.201
146.201
146.201
146.201
146.201
146.201
146.248
146.201
146.281
146.524
146.216
146.201
146.201
146.54
146.201
146.201
146.201
146.201
146.201
146.201
146.201
146.201
146.201
146.201
146.248
146.217
146.201
146.201
146.201
146.201
146.201
146.201
146.201
146.201
146.224
13441
146.201
14675.1
146.201
146.201
18108.4
13975.3
146.201
146.207
146.204
146.201
146.201
146.201
146.201
146.201
15751.5
146.201
14567
146.201
146.201
146.201
146.333
146.38
146.285
146.201
146.201
146.201
146.201
146.201
146.201
146.201
146.201
146.201
146.201
146.397
146.201
146.201
146.201
146.201
146.201
146.201
146.201
146.21
483.736
146.209
146.201
146.201
146.201
146.201
146.201
146.201
146.201
146.201
241.33
146.201
146.201
146.201
146.282
146.201
146.205
146.201
146.201
146.334
146.201
146.438
147.608
147.214
146.201
146.201
146.26
146.823
146.201
146.201
146.201
146.201
146.244
146.201
146.201
146.683
146.224
152.917
146.693
146.201
146.201
146.22
146.201