/*--------------------------------*- C++ -*----------------------------------*\
| =========                 |                                                 |
| \\      /  F ield         | OpenFOAM: The Open Source CFD Toolbox           |
|  \\    /   O peration     | Version:  v2012                                 |
|   \\  /    A nd           | Website:  www.openfoam.com                      |
|    \\/     M anipulation  |                                                 |
\*---------------------------------------------------------------------------*/
FoamFile
{
    version     2.0;
    format      ascii;
    class       volScalarField;
    location    "2";
    object      ILambda_9_0;
}
// * * * * * * * * * * * * * * * * * * * * * * * * * * * * * * * * * * * * * //

dimensions      [1 0 -3 0 0 0 0];


internalField   nonuniform List<scalar> 
108993
(
146.201
147.042
146.201
146.201
146.201
146.201
146.37
146.201
146.201
146.201
146.201
146.201
146.201
146.201
146.201
146.201
146.201
146.201
146.201
148.906
146.201
146.201
146.226
146.201
146.201
146.202
146.201
147.606
148.89
146.201
146.201
146.201
146.201
146.201
146.201
146.201
146.201
146.201
146.435
172.792
146.38
146.201
146.201
146.201
146.201
146.215
146.201
146.269
146.414
146.232
146.201
146.205
146.804
146.201
146.201
146.201
146.201
146.201
146.201
146.201
146.201
146.201
146.201
146.201
146.201
146.215
146.201
146.201
146.201
146.202
146.201
146.201
146.201
146.201
146.271
146.201
146.201
146.201
146.201
146.201
146.201
146.201
146.201
146.201
146.201
146.201
146.201
146.201
146.201
146.201
146.201
146.201
146.201
146.201
146.201
146.201
146.201
146.201
146.201
146.201
146.201
146.201
146.201
146.201
146.201
146.201
146.201
146.201
146.201
156.423
146.204
146.201
146.296
146.218
146.201
220.62
146.201
146.201
146.201
146.201
146.201
146.201
146.204
146.201
146.201
146.201
146.372
146.201
146.201
146.201
146.201
146.201
146.201
146.104
146.201
146.201
146.201
146.201
146.201
146.201
146.201
146.201
146.201
146.201
146.201
146.201
146.201
146.445
146.201
576.876
602.391
146.201
146.201
1408.48
146.201
146.243
146.201
146.201
146.201
146.202
1668.33
146.201
146.201
146.201
146.201
146.217
146.201
146.201
146.201
146.201
146.201
146.201
146.202
146.201
149.022
146.208
146.708
146.201
146.201
146.201
146.201
146.201
146.201
146.201
146.201
146.201
146.201
146.201
146.201
146.201
146.201
146.201
146.201
146.84
146.201
146.201
146.408
146.201
146.201
146.201
146.201
146.4
146.201
146.201
146.23
146.277
146.201
179.407
146.201
249.234
146.209
146.201
146.672
148.478
146.57
146.201
146.201
146.201
146.201
146.201
146.279
364.209
146.201
146.684
146.201
146.201
146.201
146.201
146.21
146.201
148.433
146.201
146.201
146.594
146.201
146.201
146.201
146.201
146.228
146.201
146.201
146.201
146.201
146.201
146.201
146.201
153.263
146.209
146.201
146.201
146.201
146.201
146.201
146.201
146.201
146.201
146.201
146.201
146.201
146.201
146.201
146.261
146.201
146.201
146.201
146.201
146.201
146.78
146.201
146.201
146.201
146.201
146.259
244.471
146.504
146.201
146.201
146.215
146.201
146.337
146.335
146.264
146.258
146.201
146.201
146.201
146.201
146.495
146.201
146.458
146.201
146.201
146.655
146.201
146.201
146.201
146.201
146.201
146.202
146.201
146.211
146.574
146.201
146.201
146.201
146.246
146.203
146.202
146.25
146.293
146.201
146.201
146.201
146.201
146.274
147.64
146.201
146.201
146.484
146.201
148.526
146.201
146.844
146.929
146.201
3618.03
352.916
146.352
146.201
146.201
146.201
146.4
149.585
146.201
146.584
146.201
146.201
146.201
146.201
146.201
146.201
146.298
146.786
146.201
146.201
146.201
146.201
146.201
146.201
146.201
146.201
146.201
146.235
146.412
146.219
146.201
146.201
207.282
146.201
146.201
146.201
146.704
146.201
146.201
146.29
146.963
146.201
146.201
146.201
2331.15
146.201
146.201
146.201
1460.07
146.59
146.451
146.201
146.201
146.392
146.201
146.43
146.408
147.19
146.201
146.201
146.206
146.201
153.095
146.21
146.718
146.431
146.205
146.455
146.201
146.231
146.663
396.465
146.201
146.201
146.201
146.695
146.209
146.209
146.201
146.205
146.204
146.207
146.201
146.201
148.767
146.201
146.203
144.518
146.201
146.201
146.201
1017.31
146.202
221.319
146.201
163.874
148.696
198.114
146.201
146.201
147.401
146.201
204.787
147.429
146.201
365.85
146.296
322.763
146.201
146.201
146.201
146.203
146.244
146.201
146.201
146.201
146.201
146.201
146.915
146.203
147.296
147.499
146.202
146.201
146.882
146.201
146.201
146.201
146.201
146.201
146.201
146.201
146.791
146.201
146.201
146.202
146.201
146.203
435.267
146.201
146.201
146.203
146.203
146.201
146.201
146.203
146.201
146.201
146.201
146.201
146.201
146.201
146.214
154.03
146.201
146.201
146.201
146.201
146.201
146.201
146.201
146.201
146.201
146.203
146.201
146.201
146.201
146.201
146.201
146.201
146.201
146.201
146.201
146.201
146.808
146.201
146.201
146.201
146.201
146.201
147.876
146.201
146.201
154.287
146.201
146.201
146.908
146.201
146.201
146.201
146.201
146.201
146.201
146.529
146.479
146.202
146.202
147.627
146.337
146.866
146.201
146.261
146.201
146.201
146.342
148.228
146.201
146.201
146.201
146.201
146.201
146.257
146.201
146.201
146.299
146.201
146.418
146.201
146.201
146.201
146.201
146.201
146.201
146.201
146.201
146.208
148.39
146.335
146.201
146.201
146.201
146.201
146.427
2681.5
146.996
146.201
146.201
146.201
146.45
146.211
146.224
146.201
146.201
146.449
146.403
146.201
146.205
3407.06
146.211
169.467
146.269
146.201
146.218
825.699
146.412
146.201
146.201
146.201
146.201
146.201
146.202
146.216
146.214
146.201
146.201
146.388
146.201
146.574
146.201
256.013
146.201
146.201
146.201
146.208
146.201
146.201
146.201
244.243
146.201
146.201
146.201
236.8
146.201
146.201
146.201
146.262
146.201
146.201
146.201
146.606
146.201
146.201
146.201
1632.35
146.201
146.212
146.201
146.201
191.639
147.178
146.201
146.201
146.225
146.242
146.201
170.953
146.413
146.47
169.674
146.201
146.201
146.201
2093.78
146.201
146.205
146.201
146.205
146.201
146.221
146.201
146.201
146.201
146.216
146.201
146.201
146.201
146.201
494.095
147.345
146.203
146.54
146.201
146.366
146.202
146.715
146.414
146.204
146.201
146.201
146.201
146.202
146.211
146.201
339.509
151.618
146.201
146.324
146.21
147.167
147.483
146.201
146.172
146.202
146.217
146.514
146.726
146.215
146.201
146.201
146.477
146.201
146.203
146.202
146.202
5476.02
146.201
146.201
146.204
146.201
146.806
6080.72
146.201
146.459
146.201
187.592
146.369
146.201
146.201
146.201
146.201
146.201
146.201
146.305
146.201
146.201
146.259
146.364
146.512
146.201
308.202
146.201
146.224
146.201
146.201
146.208
146.494
146.201
146.227
146.201
146.201
146.201
146.292
146.207
146.243
146.201
146.203
146.201
146.201
146.201
146.201
146.201
146.223
146.201
146.201
146.462
146.201
146.201
146.452
146.589
146.201
146.254
146.201
146.201
146.201
146.201
146.201
146.201
146.201
146.201
146.201
146.439
146.201
146.201
146.201
146.206
146.201
146.201
146.201
146.201
146.201
146.491
146.559
146.238
146.201
146.201
146.201
146.336
146.201
147.026
146.357
146.201
146.201
435.036
146.212
146.201
146.201
146.201
146.201
146.201
146.29
146.203
146.891
146.201
146.201
146.201
146.201
146.361
146.201
146.201
149.34
146.201
146.941
146.249
146.697
146.201
146.738
146.201
146.201
146.201
146.201
146.201
146.201
146.201
146.201
146.201
146.201
146.415
146.201
146.201
146.201
146.204
146.284
146.201
4724.78
146.283
8407.29
146.201
146.201
146.201
1306.91
146.599
146.261
146.201
146.224
146.807
146.216
153.898
146.201
146.201
146.201
146.28
146.201
146.201
150.183
146.201
146.201
146.201
146.271
146.201
146.265
146.201
146.201
146.201
161.566
146.201
194.372
146.201
161.522
146.201
146.563
146.209
146.201
146.312
146.201
146.206
146.206
146.202
146.24
146.263
146.201
146.201
146.201
146.201
146.201
146.201
146.201
146.201
146.201
146.245
146.201
146.201
146.201
146.231
146.752
146.232
146.282
146.362
146.341
146.225
146.225
151.385
146.201
151.51
146.297
181.699
146.201
146.201
146.201
146.201
146.321
146.201
146.201
146.201
146.247
146.201
146.202
147.407
146.458
150.518
146.201
146.201
173.891
829.103
146.261
146.56
146.201
146.201
146.201
146.221
194.118
146.201
177.298
146.201
146.201
146.7
146.201
146.201
146.212
147.928
146.201
146.201
146.206
146.22
146.822
146.201
146.209
146.201
146.201
146.201
146.201
146.201
146.201
146.395
146.201
168.701
146.34
146.201
146.201
146.316
146.214
146.201
146.201
575.221
146.222
146.426
146.21
146.201
146.243
146.456
146.201
146.201
146.468
146.201
146.201
146.201
146.201
146.255
146.726
146.211
146.201
146.201
146.201
146.201
146.225
146.32
146.201
165.942
146.201
146.201
147.743
146.201
146.201
146.201
146.201
146.201
146.201
146.201
146.201
147.829
146.201
146.201
146.602
146.378
146.201
146.201
146.201
146.201
150.705
146.201
146.201
148.103
146.201
148.002
1941.44
146.202
146.224
146.201
146.201
146.281
146.201
146.232
146.211
146.201
162.197
146.201
146.701
146.201
146.214
146.201
146.201
146.201
146.201
146.201
146.246
146.201
146.201
146.201
146.201
157.911
146.201
146.238
146.201
146.201
146.272
146.202
146.288
146.245
146.201
146.201
146.261
146.234
146.201
146.201
146.201
147.072
146.201
146.422
146.201
146.201
146.201
146.201
146.241
146.239
146.201
146.31
371.4
146.201
146.201
146.404
146.233
146.658
146.201
146.201
146.206
146.201
520.007
146.201
146.229
146.201
146.325
146.201
146.201
146.201
146.245
146.201
146.201
146.202
146.201
146.201
146.201
146.201
146.201
146.201
146.201
146.201
146.201
146.217
147.712
154.137
146.201
146.201
146.201
146.201
146.341
146.201
146.201
146.201
146.201
146.201
146.201
2714.41
146.202
146.201
146.587
146.355
146.201
146.201
146.201
146.201
146.332
10565.4
146.202
146.201
146.201
146.201
146.201
146.201
146.201
146.201
146.201
146.201
146.201
146.201
146.201
146.201
146.201
146.201
146.201
146.201
146.201
146.201
146.202
146.26
146.23
146.569
146.201
146.201
146.201
146.201
146.201
146.201
146.92
146.201
146.201
146.204
146.201
146.23
146.883
146.986
146.201
146.201
702.713
338.762
146.201
146.201
146.201
146.283
146.201
146.201
169.288
146.201
146.201
146.201
146.201
146.201
146.207
146.201
146.87
169.796
146.448
146.292
146.217
146.379
146.457
146.201
146.201
146.238
434.545
146.201
146.207
146.205
146.204
146.204
5653.57
146.4
146.201
146.201
146.201
146.201
146.201
146.205
146.201
146.201
146.201
146.201
146.201
146.201
160.809
397.653
146.201
146.201
146.201
146.201
147.069
146.201
147.093
146.201
146.923
12410.1
146.201
279.857
146.201
146.201
146.201
146.202
146.213
146.267
146.204
146.201
146.201
146.21
146.201
146.214
146.468
146.201
146.201
146.201
146.201
146.201
526.38
146.201
146.201
146.201
146.319
146.201
146.201
146.712
146.201
146.239
643.686
146.201
146.223
146.201
146.209
146.201
146.201
146.201
146.244
146.201
146.262
146.201
146.201
1627.52
146.201
146.203
146.201
146.231
147.302
146.201
146.201
146.207
452.694
146.202
146.202
146.201
146.201
146.201
221.505
259.386
219.485
146.286
225.016
146.201
262.294
270.32
146.208
146.207
146.202
146.205
146.201
146.201
146.201
146.215
146.201
146.201
146.201
146.201
146.201
146.201
146.201
146.201
146.202
146.201
146.201
146.222
146.925
146.203
146.241
146.224
146.285
146.315
147.057
146.201
146.201
146.406
146.263
146.204
146.201
146.201
146.201
146.201
534.152
146.201
146.201
146.201
146.201
146.21
146.201
146.201
148.288
146.201
146.201
146.201
146.201
146.201
148.356
146.201
146.282
161.909
146.201
146.767
148.267
146.201
146.206
146.201
148.526
148.412
146.201
146.201
146.493
146.238
146.202
146.201
1986.14
146.229
146.201
146.201
146.201
146.201
146.201
146.298
371.967
146.201
146.201
146.201
146.201
148.365
146.201
146.201
146.394
149.178
146.201
146.201
146.546
148.122
146.222
146.201
146.201
146.253
146.201
146.237
146.201
146.201
1138.45
146.201
146.201
146.259
146.637
146.216
146.201
296.936
146.212
146.201
146.201
146.222
146.201
146.201
146.201
146.203
146.207
147.615
146.201
146.201
146.564
146.201
146.211
147.96
146.201
146.201
146.201
146.201
146.588
146.201
146.201
146.294
146.201
146.364
146.201
160.913
146.201
146.201
147.324
146.201
146.201
146.266
146.201
146.274
146.216
146.201
146.213
146.201
146.596
146.202
146.201
146.204
146.201
146.202
146.704
263.584
146.201
674.321
146.201
9459.11
146.201
146.201
146.614
146.201
146.201
146.201
146.201
146.761
146.026
857.111
146.206
146.218
146.931
146.201
146.208
146.822
146.99
146.201
148.129
146.202
146.203
146.201
146.201
146.204
146.201
146.201
146.247
146.201
146.201
146.201
146.202
146.402
146.263
148.507
1664.43
146.201
146.201
850.071
146.201
146.201
146.247
146.834
148.399
146.21
179.898
146.201
146.201
147.191
146.201
146.201
146.201
146.201
146.198
146.201
146.201
146.201
146.201
411.178
146.201
146.201
146.21
146.201
146.201
146.209
146.201
146.201
146.201
146.201
146.201
146.201
146.303
146.201
146.201
146.207
146.382
146.557
146.55
146.201
146.255
337.302
146.201
146.203
146.201
146.201
146.22
278.291
146.276
146.235
146.201
4520.99
146.264
400.348
146.201
146.377
146.22
146.218
148.085
146.205
146.256
146.216
146.202
146.215
146.206
146.215
146.209
146.224
146.212
146.23
1312.8
146.342
146.261
146.201
146.201
146.376
146.201
146.22
164.715
146.201
6094.99
146.209
146.201
146.201
146.201
146.201
146.209
146.214
388.728
146.258
146.528
146.201
145.556
146.214
146.268
146.201
146.287
146.201
146.201
146.71
146.201
146.302
146.201
146.201
146.201
146.402
146.213
146.201
146.277
146.201
147.283
146.256
146.201
146.201
147.573
146.201
146.201
146.201
146.485
146.31
146.409
146.338
241.45
146.201
146.201
146.238
147.193
146.377
499.888
146.207
146.201
146.201
158.055
146.268
146.212
146.201
146.201
146.201
146.201
441.596
146.201
146.233
146.201
3077.51
147.056
146.201
146.317
524.073
147.675
361.871
147.484
146.201
577.682
146.62
146.201
146.231
146.186
146.201
146.242
146.201
146.238
6089.49
148.333
146.242
284.906
146.208
146.236
146.201
146.495
22089.5
146.201
146.641
146.201
146.201
146.202
146.201
182.765
146.201
146.201
147.662
146.63
146.318
148.728
147.177
146.255
146.201
146.201
146.201
146.888
146.201
146.338
160.941
146.201
2374.49
146.201
146.201
146.201
210.928
156.026
146.201
146.201
146.427
4829.48
146.79
146.019
146.201
152.298
146.333
146.201
146.201
323.175
146.202
146.203
146.201
146.407
150.024
147.045
146.201
146.228
146.202
147.02
146.201
146.201
146.201
146.201
146.201
179.459
900.535
146.453
146.201
148.389
146.272
6038.61
146.201
146.207
286.656
17941
146.464
146.201
146.201
146.201
146.201
146.201
146.201
146.201
146.27
146.279
146.225
146.205
168.095
146.725
146.342
146.213
146.201
9367.68
147.255
146.201
146.201
3296.59
2181.28
146.201
146.201
146.201
146.237
146.201
10441.7
10985.1
6438.59
4324.62
146.201
3187.88
146.396
146.201
146.203
146.201
146.201
149.302
146.201
146.201
7716.43
146.239
146.201
146.201
146.201
146.201
146.209
146.23
146.201
146.302
146.891
146.452
157.189
146.272
146.323
147.171
146.201
146.201
146.201
365.279
146.586
146.201
146.201
146.239
146.201
146.201
146.201
146.201
146.225
146.462
146.253
229.664
198.262
146.201
146.905
146.201
146.318
146.34
146.201
146.253
146.201
146.201
146.574
146.201
146.307
146.432
146.267
146.452
146.462
146.201
146.535
146.204
517.103
146.259
146.201
146.352
146.398
147.084
149.252
146.201
146.201
146.365
146.795
146.262
149.793
146.236
146.442
146.205
146.201
890.396
146.47
146.27
172.045
146.348
242.743
153.328
146.201
166.115
146.357
146.482
146.201
157.03
215.736
146.201
149.269
146.201
146.352
146.431
146.204
146.201
146.337
146.201
146.201
146.201
146.201
146.239
146.431
146.454
146.249
146.201
146.201
1387.65
146.259
146.201
146.203
146.201
146.201
146.22
146.201
146.231
146.233
149.712
146.201
146.204
146.559
146.201
146.202
4156.92
146.201
146.201
146.278
146.224
384.263
146.201
146.202
146.201
146.201
146.201
147.051
1115.89
146.277
146.298
288.023
146.27
146.203
146.201
146.22
146.202
151.556
543.629
146.201
146.201
146.203
146.208
175.236
146.201
146.263
146.201
146.201
146.201
146.201
146.201
146.269
146.201
146.845
146.201
146.201
146.255
146.207
146.201
146.559
146.202
146.201
146.201
4012.53
146.201
146.204
146.201
146.201
146.252
146.919
146.213
146.852
146.201
146.201
146.473
146.201
146.519
146.201
146.547
169.041
146.201
12818.6
146.449
147.492
146.26
2861.7
146.199
146.201
146.208
146.201
146.201
146.201
214.341
146.201
146.201
146.201
146.201
146.48
146.573
146.201
146.208
146.221
146.201
146.445
146.201
146.201
146.202
146.478
209.88
149.154
146.201
146.22
146.201
157.645
146.338
146.32
146.201
146.201
146.454
201.4
146.201
146.201
146.243
146.201
146.201
146.243
146.456
146.204
146.25
146.201
146.246
192.846
146.219
523.446
146.277
21891.8
148.72
146.217
150.24
377.05
24916.1
22916.8
17529.9
22647.8
146.201
3840.99
185.122
385.431
146.201
1837.98
7498.28
146.201
146.339
13790.7
146.201
1150.3
146.201
146.289
243.242
143.701
163.114
146.516
146.201
146.201
146.261
146.201
146.705
146.202
147.522
146.217
146.632
146.671
146.627
146.201
146.201
146.201
146.12
146.213
146.459
146.201
146.216
146.679
146.202
146.201
146.201
146.314
146.627
146.639
146.201
146.201
146.201
146.405
146.396
146.224
146.212
146.271
146.286
146.204
146.212
146.201
146.297
146.201
146.247
146.203
146.396
146.316
146.307
146.296
146.218
146.201
146.544
146.234
146.201
146.201
146.478
146.228
5871.31
147.652
146.201
146.208
1586.9
146.201
146.268
146.233
146.268
146.244
146.266
148.127
146.206
147.38
146.273
146.201
146.201
188.082
146.201
146.203
146.254
146.205
146.201
146.201
146.206
146.201
146.207
146.326
146.206
146.201
146.236
187.508
146.388
146.367
222.677
146.201
146.201
146.201
146.203
163.61
146.227
146.305
146.214
146.201
211.276
146.201
146.201
146.201
146.201
146.201
146.201
146.201
146.201
146.201
146.222
146.222
146.201
146.203
146.202
146.201
147.574
146.201
146.201
146.223
146.221
146.201
146.208
146.202
146.213
146.235
146.265
146.201
146.202
146.302
146.201
146.201
146.201
146.201
146.201
146.201
146.201
147.51
146.211
146.718
146.201
146.201
146.211
146.311
146.852
146.208
146.201
146.315
146.212
147.01
146.201
146.211
146.201
146.215
146.232
146.209
146.249
146.289
146.208
146.633
146.201
146.201
146.201
146.202
146.209
146.201
146.413
146.207
146.327
146.201
146.377
146.207
146.201
146.201
146.202
146.201
146.201
146.201
146.201
146.209
146.214
146.201
146.201
146.201
146.201
146.215
146.201
146.205
146.201
146.201
146.201
146.201
146.224
146.201
146.324
146.201
146.201
146.201
146.201
146.221
146.201
146.201
146.201
146.201
146.201
146.201
144.509
146.201
146.201
10165.6
146.201
146.32
146.201
146.201
146.201
147.174
146.201
146.201
146.202
146.201
146.201
146.201
146.201
146.201
146.201
146.204
146.201
146.201
146.202
146.201
146.201
146.203
146.201
146.202
146.206
146.203
146.201
146.202
179.094
146.234
146.201
146.201
146.201
146.201
146.246
146.255
146.201
146.201
146.201
146.332
146.201
146.201
146.201
146.281
146.208
146.201
146.249
146.208
146.201
146.663
146.201
146.239
146.264
455.62
146.27
146.201
146.227
146.251
146.201
146.201
146.26
146.298
146.384
146.201
146.201
146.201
146.377
196.71
146.201
207.601
146.201
146.201
184.253
146.201
146.201
146.302
185.253
146.201
146.201
191.118
146.201
146.201
203.935
146.202
146.201
148.857
146.203
147.647
146.202
199.051
146.201
146.201
146.214
146.207
146.214
146.202
146.201
146.201
147.245
146.202
146.641
146.229
146.316
146.201
146.201
146.215
146.202
260.534
146.519
146.201
146.202
289.732
146.201
146.28
154.878
146.201
146.202
146.201
146.256
146.201
146.202
146.201
146.201
146.201
146.201
146.211
146.202
146.202
307.296
146.21
146.201
146.201
146.202
146.201
146.201
146.212
146.202
146.201
146.202
146.201
146.327
188.295
146.202
146.213
563.284
146.21
148.23
146.202
146.063
146.21
146.203
146.201
146.215
146.201
146.254
147.072
146.205
146.201
146.201
146.205
146.213
146.201
146.294
146.204
146.201
146.259
146.203
162.116
146.219
146.218
146.299
146.261
146.4
146.205
146.274
146.291
146.201
6580.1
159.588
154.33
146.205
146.201
146.201
146.301
146.201
5558.45
146.201
146.303
146.297
146.219
146.201
16478.2
146.212
146.203
467.389
146.206
146.201
146.201
146.201
146.201
146.287
146.201
146.201
147.441
146.201
146.201
146.201
146.654
146.201
146.201
146.201
146.231
146.228
146.228
146.231
146.201
146.201
146.201
146.201
146.201
146.201
146.201
146.201
146.201
146.201
146.508
146.201
146.187
146.221
146.243
146.201
146.25
146.216
146.201
146.201
146.556
146.201
146.201
146.201
146.201
146.201
146.201
146.201
146.201
146.201
146.201
146.205
1354.69
146.201
146.202
146.201
146.211
146.218
146.201
146.201
146.907
146.201
146.208
146.201
146.266
146.224
146.201
146.201
146.218
146.557
146.317
146.213
146.201
146.545
146.214
146.26
146.201
146.886
146.201
146.919
146.201
146.219
146.212
146.205
181.134
147.869
148.283
146.212
149.061
146.201
146.201
146.201
146.201
146.201
146.201
146.201
146.209
146.209
146.201
146.236
159.699
147.268
146.201
146.236
146.204
146.494
146.241
147.653
146.201
146.207
164.264
146.203
148.014
146.203
146.208
146.239
146.215
146.211
146.626
146.201
146.211
146.346
146.201
146.22
146.201
146.223
146.227
148.277
146.209
146.3
146.255
147.285
149.938
146.201
146.294
146.272
146.536
146.225
234.207
146.26
146.267
146.201
146.203
146.201
146.201
146.25
146.201
146.201
146.201
146.201
146.201
146.201
146.201
146.201
146.201
146.392
146.382
146.201
152.301
146.726
146.201
146.246
146.201
146.201
146.201
146.536
146.217
146.214
146.201
146.201
146.201
147.479
146.201
146.201
7645.08
146.205
146.201
146.228
158.3
146.356
146.202
146.201
17558.5
15271.9
146.205
16101.2
189.484
146.342
660.264
154.289
146.254
146.201
146.242
146.201
146.201
146.201
321.839
149.05
831.667
146.223
164.192
146.201
146.203
146.203
146.254
146.201
179.296
146.201
13949.6
146.245
146.201
146.205
910.603
146.201
146.201
146.232
146.201
146.201
326.095
158.529
146.201
146.201
146.272
147.664
146.201
146.201
146.201
146.203
146.265
146.201
146.201
146.201
859.901
146.203
146.201
146.201
146.201
359.877
146.201
147.21
146.223
146.201
147.026
146.201
146.201
167.61
146.201
146.201
146.201
146.201
146.201
146.312
146.202
146.201
146.399
146.332
146.201
146.339
146.201
146.201
146.201
146.201
146.201
146.201
146.201
146.201
146.201
146.302
146.201
9501.55
146.201
146.201
146.201
146.201
146.201
146.201
146.206
10984.4
147.538
12500.3
146.226
146.205
146.202
9807.94
12107.9
146.202
153.615
146.201
146.201
146.201
146.201
146.201
146.201
146.268
511.061
146.201
151.265
146.203
146.675
146.201
146.201
146.32
146.21
146.223
146.238
146.214
146.864
146.201
146.629
146.204
146.201
146.201
438.704
146.201
390.01
146.201
146.201
146.379
630.127
272.518
426.667
300.128
159.095
146.211
146.365
146.468
1057.93
146.201
148.482
146.201
146.207
146.209
146.784
146.204
146.229
146.766
146.602
146.201
146.709
146.215
146.201
146.201
146.201
145.411
146.536
146.206
146.201
144.414
236.915
146.214
146.219
146.317
146.203
146.284
146.201
146.201
146.396
146.209
146.201
147.035
146.262
146.201
146.201
146.345
146.251
146.201
8517.65
147.619
146.36
8597.51
148.828
146.275
146.237
146.28
146.202
146.285
146.495
146.798
146.273
146.201
146.386
146.201
146.289
146.242
146.201
146.261
146.201
146.219
146.253
146.201
146.327
146.215
146.201
146.233
146.201
146.201
146.201
146.213
146.323
146.202
146.201
146.201
146.346
146.218
146.226
146.204
146.201
146.219
146.233
179.923
146.201
146.366
146.625
394.909
146.224
146.201
151.037
146.201
146.201
146.201
146.201
146.24
146.262
146.203
146.229
146.487
146.312
146.201
146.201
146.201
146.201
146.201
146.203
146.21
146.201
146.201
207.053
147.761
146.232
146.201
146.201
155.101
146.201
146.201
146.201
146.226
146.204
146.201
146.203
146.34
146.381
146.201
146.228
146.201
146.201
146.201
146.201
146.201
146.413
146.201
146.254
146.201
146.414
146.201
150.894
146.201
146.201
146.259
146.207
146.343
146.356
146.381
146.222
146.22
146.272
146.201
146.201
146.201
146.201
146.32
146.201
146.201
146.201
146.372
146.201
146.209
146.201
146.201
148.841
146.201
146.201
146.201
146.201
146.201
146.201
146.201
146.201
146.256
146.201
146.201
146.201
146.201
146.201
146.201
146.598
146.201
146.201
146.201
146.201
146.281
146.201
146.729
146.234
146.201
146.222
146.201
146.201
146.201
148.222
146.472
146.201
146.201
146.474
146.201
146.201
146.201
146.201
146.247
146.387
179.153
146.201
146.201
146.201
146.48
146.471
146.466
146.336
4156.17
159.144
146.259
146.201
147.817
146.475
146.201
147.532
146.201
146.355
152.734
146.201
146.201
146.237
146.245
147.332
146.275
152.053
146.475
155.201
146.209
146.415
146.202
146.206
146.201
146.495
146.203
146.214
146.208
146.409
161.408
146.206
146.918
172.098
336.543
146.567
146.419
146.405
147.277
146.207
146.42
146.208
146.211
147.379
11956.4
147.089
146.204
146.204
146.206
204.465
145.949
164.77
147.063
146.211
146.237
146.201
146.208
146.201
146.908
186.256
381.513
146.201
257.96
146.201
146.203
146.201
146.201
146.201
168.372
146.202
146.201
146.201
146.202
146.622
146.201
196.332
146.22
146.201
148.208
146.201
146.442
146.221
146.179
146.201
146.201
146.201
146.201
146.749
146.202
146.236
146.201
146.201
146.201
146.382
146.304
146.201
146.202
146.201
420.215
146.222
395.223
9898.4
357.446
146.201
146.463
178.327
146.201
146.784
187.356
146.237
146.201
176.449
866.09
146.21
146.313
146.201
169.404
146.201
146.201
146.201
148.126
18093
148.166
8409.76
147.427
146.225
148.302
146.45
146.204
148.24
146.221
146.201
146.209
146.243
148.054
233.819
146.213
255.538
146.318
217.36
146.222
146.201
146.201
146.399
4770.34
190.645
146.21
146.621
146.207
223.733
146.97
1630.21
146.201
146.378
151.066
245.897
146.201
146.578
154.805
172.301
155.34
167.711
145.532
872.183
146.204
195.906
146.201
152.526
146.262
168.602
2148.77
146.203
146.215
146.677
159.652
146.775
146.202
146.201
146.201
1172.64
146.201
146.208
147.944
146.201
146.238
146.201
364.349
146.202
146.201
146.295
1545.75
146.59
146.242
1775.02
6696.66
146.782
146.201
146.202
146.488
146.201
146.201
146.201
146.203
146.58
1912.64
146.285
146.201
6074.33
146.367
146.201
146.216
223.638
146.209
146.817
146.284
146.201
146.201
146.201
146.303
146.639
196.648
146.204
147.401
146.201
203.159
177.106
146.257
146.315
146.201
146.201
146.201
146.201
146.201
6011.48
146.257
146.201
175.661
146.201
146.201
145.34
146.201
146.329
146.201
146.419
236.098
146.201
146.201
146.202
14436.9
146.201
146.275
146.556
146.201
146.227
146.201
146.201
146.201
146.201
146.201
146.201
146.206
146.201
146.709
146.249
146.201
146.553
1069.95
147.459
146.293
146.201
146.22
146.729
146.201
146.464
166.24
180.227
146.494
681.75
4394.49
146.344
146.309
158.963
156.466
213.183
146.213
147.238
277.913
146.201
146.201
146.201
146.202
146.384
146.522
201.776
146.201
146.202
146.211
146.732
152.87
146.201
278.835
148.819
146.218
185.961
414.409
146.201
146.202
270.36
147.487
146.201
146.201
146.205
146.201
146.26
146.201
1915.43
146.483
3051.38
146.472
146.224
146.226
146.665
146.201
146.201
6354.06
146.201
146.201
146.201
7259.44
146.338
171.234
146.278
146.215
146.241
146.604
146.988
146.291
146.854
146.644
146.226
214.194
144.376
146.327
147.816
146.271
154.273
146.227
842.363
150.752
146.206
149.438
146.359
146.209
714.609
146.203
147.559
146.283
146.23
146.322
146.201
150.496
146.256
1962.38
146.201
146.201
146.224
146.216
146.201
146.206
146.218
194.102
146.222
146.264
146.201
146.239
146.206
146.201
146.201
146.201
147.551
748.718
148.498
144.752
146.201
202.064
208.756
146.345
146.201
146.869
146.219
146.207
146.204
561.032
146.203
147.334
146.231
196.102
146.201
146.212
146.201
146.205
147.884
281.782
146.398
198.026
147.202
146.201
146.201
146.201
146.201
203.658
146.206
146.201
146.201
146.203
146.271
146.638
147.143
146.201
146.201
146.214
146.412
146.225
146.29
146.201
146.201
146.194
146.201
146.201
2788.13
146.377
146.336
146.201
146.202
147.024
146.231
146.209
146.49
146.279
146.201
146.245
146.446
146.201
146.201
147.923
146.693
146.203
4874.76
146.253
146.212
147.224
146.201
148.234
146.211
146.587
146.587
148.251
146.534
147.933
146.202
146.201
148.232
2366.09
146.422
177.018
146.274
147.36
245.952
147.981
16704.5
146.795
147.907
146.456
146.201
146.202
146.201
148.007
147.257
146.203
961.038
146.27
146.204
146.206
146.648
146.605
146.285
146.214
146.222
146.239
146.201
146.203
146.201
147.058
146.203
146.203
146.203
146.201
147.04
146.421
146.403
146.249
146.538
146.217
146.277
146.554
146.203
146.117
3018.55
146.203
219.981
173.488
146.201
305.395
146.201
180.227
146.201
212.437
146.362
210.079
407.168
146.201
146.201
146.21
200.675
155.394
146.201
155.978
146.235
179.078
146.201
146.435
146.201
146.24
146.351
146.201
146.209
146.306
146.214
146.223
146.201
146.291
4569.85
146.47
146.291
146.201
142.414
146.201
146.201
146.211
182.518
146.209
146.201
146.201
1097.99
146.222
146.201
146.201
164.564
146.22
146.498
146.201
146.265
146.204
146.201
146.41
146.201
146.201
148.64
146.402
146.201
146.201
146.202
147.337
149.051
146.208
146.202
146.209
146.201
146.204
146.201
146.214
146.201
146.201
146.201
146.201
146.284
128.369
146.132
146.201
146.201
146.201
146.201
145.566
146.201
146.81
147.451
146.201
146.265
146.201
146.261
146.201
146.201
146.375
146.201
146.241
146.201
146.202
146.201
146.201
256.184
146.201
146.207
146.201
146.203
146.201
146.537
146.201
146.208
146.201
146.201
146.318
147.176
146.701
1711.88
688.893
146.201
146.817
146.214
146.201
146.201
146.201
146.769
146.201
146.261
2732.16
146.204
2835.76
146.208
146.201
16419.6
17370.8
146.201
146.325
152.687
146.201
146.201
146.201
148.318
146.201
12554.1
146.201
13489.8
146.714
146.201
146.207
146.221
146.216
146.219
146.425
146.203
146.201
146.201
146.224
146.201
146.201
146.201
146.201
146.201
146.106
146.201
146.575
146.801
146.799
146.281
146.201
146.317
146.262
146.202
146.264
146.201
148.654
146.373
146.201
146.581
146.201
146.777
146.201
146.202
146.302
146.201
146.926
146.212
146.201
146.231
146.822
146.84
146.201
146.209
146.201
148.39
146.201
146.457
146.201
146.201
146.201
146.208
146.201
146.201
146.413
146.201
146.205
146.267
146.201
146.281
147.837
146.799