/*--------------------------------*- C++ -*----------------------------------*\
| =========                 |                                                 |
| \\      /  F ield         | OpenFOAM: The Open Source CFD Toolbox           |
|  \\    /   O peration     | Version:  v2012                                 |
|   \\  /    A nd           | Website:  www.openfoam.com                      |
|    \\/     M anipulation  |                                                 |
\*---------------------------------------------------------------------------*/
FoamFile
{
    version     2.0;
    format      ascii;
    class       volScalarField;
    location    "2";
    object      ILambda_2_0;
}
// * * * * * * * * * * * * * * * * * * * * * * * * * * * * * * * * * * * * * //

dimensions      [1 0 -3 0 0 0 0];


internalField   nonuniform List<scalar> 
108993
(
146.201
146.201
146.201
146.201
146.201
146.201
146.201
146.201
146.201
146.201
146.201
146.201
146.201
146.201
146.201
146.201
146.201
146.201
146.201
146.201
146.201
146.201
168.497
146.201
146.201
146.201
146.201
146.202
146.201
146.201
146.201
146.201
146.201
146.201
146.201
146.201
146.201
146.201
146.571
146.3
146.314
146.201
146.201
146.201
146.066
146.215
146.201
146.201
146.201
146.202
146.201
688.733
146.201
146.201
146.201
146.201
146.201
146.201
146.201
146.201
146.201
146.201
146.201
146.201
146.201
146.201
146.201
146.201
146.201
146.201
146.201
146.201
146.201
146.201
146.201
146.201
146.201
146.201
146.201
146.201
146.201
146.201
146.201
146.201
146.201
146.201
146.201
146.201
146.201
146.201
146.201
146.201
146.201
146.201
146.201
146.201
146.201
146.201
146.201
146.201
146.201
146.201
146.201
146.201
146.201
146.201
146.201
146.201
146.201
146.328
172.297
146.201
184.017
7941.05
146.201
146.21
146.201
146.201
146.201
146.201
146.201
146.201
146.203
146.201
146.201
146.201
146.317
146.201
146.201
146.201
146.201
146.201
146.201
8938.49
146.201
146.201
146.201
146.201
146.201
146.201
146.201
146.201
146.201
146.201
146.201
146.201
146.201
146.343
146.201
146.501
147.005
146.201
146.201
146.965
146.201
1182.47
146.201
146.201
146.201
148.615
147.116
146.201
146.201
146.201
146.201
1155.47
146.201
146.201
146.201
146.201
146.201
146.201
226.45
146.201
146.201
146.201
146.902
146.201
146.201
146.201
146.201
146.201
146.201
146.201
146.201
146.201
146.201
146.201
146.201
146.201
146.201
146.201
146.201
146.201
146.201
146.201
146.279
146.201
146.201
146.201
146.201
164.689
146.201
146.201
146.222
146.266
146.201
146.23
146.201
145.88
146.633
146.201
146.907
146.208
146.549
146.201
146.201
146.201
146.201
146.201
146.201
146.244
146.201
146.201
146.201
146.201
146.201
146.201
4241.95
146.201
147.044
146.201
146.201
146.207
146.201
146.201
146.201
146.201
146.235
146.201
146.201
146.201
146.201
146.201
146.201
146.201
146.21
146.203
146.201
146.201
146.201
146.201
146.201
146.201
146.201
146.201
146.201
146.201
146.201
146.201
146.201
146.201
146.201
146.201
146.201
146.201
146.201
146.201
146.201
146.201
146.201
146.201
146.212
317.837
146.312
146.201
146.201
146.202
146.201
146.201
146.201
146.231
146.227
146.201
146.201
146.201
146.201
146.201
146.201
146.441
146.201
146.201
146.201
146.201
146.201
146.201
146.201
146.201
146.201
146.201
146.207
146.259
146.201
146.201
146.201
146.202
146.201
146.201
146.202
146.209
146.201
146.201
146.201
146.201
146.204
146.212
146.201
146.201
146.486
146.201
146.202
146.201
146.201
146.201
146.201
5441.33
167.122
146.241
146.201
146.201
146.201
146.207
8032.45
146.201
146.546
146.201
146.201
146.201
146.201
146.201
146.201
146.202
146.201
146.201
146.201
146.201
146.201
146.201
146.201
146.201
146.201
146.201
146.231
146.216
146.201
146.201
146.201
146.392
146.201
146.201
146.201
146.201
146.201
146.201
146.201
146.201
146.201
146.201
146.201
2763.94
146.201
146.201
146.201
150.377
146.201
146.503
146.201
146.201
146.314
146.201
146.309
146.319
146.201
146.2
146.201
162.846
146.201
146.481
146.201
146.279
146.403
165.543
146.411
146.201
146.22
146.201
588.579
146.201
146.201
146.201
146.201
146.203
146.206
146.201
146.201
168.752
167.096
146.201
146.201
147.524
146.201
146.272
147.153
146.201
146.201
146.201
152.813
146.201
146.227
146.201
149.311
146.201
161.781
146.201
146.201
147.438
146.201
146.204
175.219
146.201
459.821
146.358
377.541
146.201
146.201
146.201
146.201
146.201
146.201
146.201
146.201
146.201
146.201
146.201
146.203
146.26
146.214
221.06
146.201
146.201
146.201
146.201
146.201
146.201
146.201
146.201
146.201
146.201
146.201
146.201
146.202
146.201
146.202
146.246
146.201
146.201
146.201
146.202
146.201
146.201
146.203
146.201
146.201
146.201
146.201
146.201
146.201
146.452
146.286
146.201
146.201
146.201
146.201
146.201
146.201
146.201
146.201
146.201
191.915
146.201
146.201
146.201
146.201
146.201
146.201
146.201
146.201
146.201
146.201
146.201
146.201
146.201
146.201
146.201
146.178
146.207
146.201
146.201
146.888
146.201
146.201
146.274
146.201
146.201
146.201
146.201
146.201
146.201
146.201
146.202
146.201
146.201
146.208
146.571
146.201
146.201
146.349
146.201
146.201
146.593
146.201
146.201
146.201
146.201
146.201
146.201
482.449
146.201
146.201
146.214
146.201
146.25
146.201
146.201
146.201
146.201
146.201
146.294
146.201
146.201
146.205
146.201
146.321
146.201
146.201
146.201
146.201
146.229
145.166
146.201
146.201
146.201
146.201
146.345
146.216
146.219
146.201
146.201
146.225
146.37
146.201
146.201
3576.02
146.21
146.206
151.049
146.201
146.222
301.726
146.201
146.201
146.201
146.201
146.201
146.201
146.201
146.215
146.21
146.201
146.201
146.66
146.201
146.201
146.201
292.948
146.201
146.201
146.201
146.201
146.201
146.201
146.201
254.976
146.201
146.201
146.201
255.783
146.201
146.201
146.201
6777
146.201
146.235
146.201
146.29
146.201
146.201
146.201
146.214
146.201
7555.7
146.201
146.201
146.344
146.201
146.201
146.201
146.202
146.218
146.201
146.219
146.201
146.202
1030.8
146.201
146.201
146.201
146.927
146.201
720.463
146.201
828.225
146.201
146.201
146.201
146.201
146.201
183.324
146.202
146.201
146.201
146.201
146.237
146.215
146.203
146.201
146.201
146.218
146.202
146.218
146.216
146.201
146.201
146.201
146.201
146.205
146.228
146.201
146.217
146.238
146.201
146.51
1938.27
146.215
146.217
146.201
146.201
146.202
146.201
146.431
146.201
146.218
146.201
146.201
146.438
146.201
146.202
146.202
146.202
2723.83
146.201
146.201
335.548
146.201
146.201
1238.27
146.201
146.342
146.201
147.727
2537.96
146.201
146.201
146.201
146.201
146.201
146.118
146.794
146.201
146.201
165.999
146.258
146.282
146.201
146.775
146.201
454.532
146.201
146.201
875.079
146.201
146.201
214.569
146.201
146.201
146.201
180.48
379.319
146.202
146.201
330.054
146.201
146.201
146.201
146.201
146.201
146.215
146.201
146.201
146.201
146.201
146.201
146.298
146.422
146.201
166.581
146.201
146.201
146.201
146.201
146.201
146.201
146.201
146.201
146.201
151.299
146.201
146.201
146.201
146.201
146.201
146.201
146.201
146.201
146.201
146.216
146.201
146.223
146.201
146.201
146.201
146.389
146.201
146.202
146.208
146.201
146.201
762.66
146.208
146.201
146.201
146.2
146.201
146.201
162.425
146.201
146.527
146.201
146.201
146.201
146.201
146.447
146.201
146.201
146.281
146.201
146.318
187.729
146.642
146.201
147.696
146.201
146.201
146.201
146.201
146.201
146.201
146.201
146.201
146.201
146.201
146.324
146.201
146.201
146.201
246.677
146.202
146.201
6284.4
146.203
504.814
146.201
146.201
146.201
1070.96
146.201
146.203
146.201
146.326
146.201
146.206
146.225
146.201
146.201
149.955
146.202
146.201
146.201
146.266
146.201
146.201
146.201
146.201
146.201
146.205
146.201
146.201
146.201
687.804
146.201
730.586
146.201
692.993
146.201
146.479
290.231
146.201
147.375
146.201
288.917
300.109
146.201
160.569
146.22
146.201
146.201
146.201
146.201
146.201
146.201
146.201
146.201
146.201
146.226
146.201
146.201
144.345
146.201
146.202
146.353
146.235
146.22
259.544
607.458
157.153
8348.37
146.201
9751.01
146.367
154.178
146.201
146.201
146.201
146.201
2106.07
146.201
146.201
146.201
146.219
146.201
224.483
146.275
146.201
8582.12
146.201
146.201
9933.51
1031.41
146.201
146.201
146.201
146.201
146.201
1686.04
7765.58
146.201
8389.19
146.201
146.201
146.201
146.201
146.201
262.785
146.201
146.201
146.201
146.201
2599.37
146.201
146.201
146.204
146.201
194.262
146.201
146.201
146.201
146.201
146.3
146.201
152.648
146.201
146.201
146.201
2668.18
675.02
146.201
146.201
1815.52
303.399
146.203
146.201
146.201
146.202
146.27
146.201
146.201
146.432
146.201
146.201
146.201
146.201
3741.4
146.3
522.588
146.201
146.201
146.201
146.201
146.201
146.412
146.201
146.21
146.201
146.201
146.201
146.201
146.201
146.201
146.201
146.201
146.201
146.201
146.201
146.201
146.201
146.201
146.201
5496.41
146.201
146.201
146.201
146.201
146.333
146.201
146.201
146.201
146.201
146.201
146.936
146.202
146.274
146.201
146.201
3819.33
146.36
438.886
146.202
146.201
146.206
146.201
146.201
146.202
146.202
146.201
146.201
146.201
146.201
146.201
166.273
146.201
146.201
146.201
146.201
146.204
146.201
174.882
146.201
146.201
206.649
272.065
147.71
247.868
146.201
146.201
154.958
200.285
146.201
146.201
146.201
148.252
146.201
152.232
146.201
146.201
146.201
146.201
146.231
1258.72
146.201
148.828
146.335
146.201
146.201
152.753
146.231
146.201
146.201
146.201
245.876
146.201
5435.81
146.201
177.599
146.201
146.529
146.201
146.201
146.201
892.543
146.201
146.201
146.201
413.677
182.03
146.201
146.201
146.201
146.201
146.201
146.201
146.201
3135.44
146.201
146.273
146.201
146.201
146.201
169.285
6139.91
146.201
146.201
146.201
146.201
146.201
146.201
148.138
146.201
146.201
146.205
146.201
146.201
146.201
146.201
146.201
146.745
12532.4
143.453
146.201
146.201
146.201
146.201
146.201
146.201
146.201
146.201
146.201
146.201
146.201
146.201
146.201
146.201
146.201
146.201
146.201
146.201
146.201
146.202
6603.26
5069.53
146.547
146.201
146.201
146.201
146.201
146.201
146.201
146.201
146.201
146.201
2572.26
146.201
179.786
146.201
146.201
146.201
146.201
485.709
161.073
146.201
146.201
146.201
148.134
146.201
146.201
146.303
146.201
146.201
146.201
146.201
146.201
146.21
146.201
146.201
146.296
146.201
146.201
146.201
146.359
146.658
146.201
146.201
146.201
146.388
146.201
188.521
176.798
180.59
168.443
2034.64
155.385
146.201
146.201
146.201
146.201
146.201
167.317
146.201
146.201
146.201
146.201
146.201
146.201
146.206
146.449
146.201
146.201
146.201
146.201
146.201
146.201
146.201
146.201
146.201
13392
146.201
146.21
146.201
146.37
146.201
146.201
146.203
154.748
146.201
146.201
146.201
146.203
146.201
146.218
3180.44
146.201
146.201
146.201
146.201
146.201
637.791
146.201
146.201
146.201
146.304
146.201
146.201
146.258
146.201
146.202
146.226
146.201
265.41
146.201
146.207
146.201
146.201
146.201
172.559
146.201
146.205
146.201
146.201
146.225
146.201
146.201
146.201
279.056
147.054
146.201
152.041
498.486
468.261
146.201
148.117
146.201
146.201
146.201
146.212
146.212
146.212
146.204
146.212
146.201
146.213
146.212
159.925
161.419
146.201
366.663
146.201
146.201
146.201
158.021
146.201
146.201
146.201
146.183
146.201
146.201
146.201
146.201
146.201
146.201
146.201
2194.96
5946.88
146.201
178.776
146.201
146.679
146.203
146.201
146.201
146.201
146.201
151.968
146.201
146.201
146.201
146.201
146.201
146.712
146.201
146.054
146.201
146.201
140.712
146.201
146.201
146.201
146.201
146.201
146.201
146.201
146.201
146.201
146.201
146.495
146.209
146.201
146.204
146.23
146.201
146.202
146.201
146.201
146.201
146.201
146.201
146.251
146.212
264.949
146.201
146.402
146.204
146.201
146.201
146.201
146.201
146.201
147.909
146.336
146.201
146.201
146.201
146.201
146.201
146.201
146.201
146.238
146.288
146.201
146.201
146.203
146.201
146.201
146.201
146.201
234.498
146.201
146.201
146.201
146.201
150.537
146.201
146.201
146.21
146.409
146.201
146.201
314.32
146.201
146.201
146.201
418.956
146.201
146.201
146.201
1759.25
146.205
146.219
146.201
146.201
146.399
146.201
146.201
146.244
146.201
146.201
146.201
146.201
146.406
146.201
146.201
7272.49
146.201
146.408
146.201
146.28
146.201
146.201
146.237
146.201
146.201
146.227
146.201
146.606
2714.98
146.201
146.201
146.201
146.541
794.324
146.201
146.202
146.201
146.201
146.544
146.267
146.201
146.806
146.201
3799.95
146.201
146.201
146.201
146.201
146.201
146.201
146.201
146.201
146.202
147.724
146.202
146.201
146.201
146.201
146.201
146.201
146.201
146.201
214.881
146.201
146.201
146.201
146.201
3280.1
146.201
146.201
838.76
146.201
146.201
146.201
146.201
146.221
147.166
146.214
2040.96
146.201
146.201
147.654
146.201
146.201
146.201
146.241
146.281
146.207
146.578
146.201
146.201
146.901
146.201
146.201
146.201
146.201
146.201
146.201
146.201
146.201
146.201
147.588
146.2
146.201
146.205
146.186
146.201
1881.7
146.201
146.201
146.201
146.201
146.201
146.201
147.655
146.201
146.201
204.539
146.226
146.204
146.201
146.201
146.281
147.412
146.201
146.203
146.201
146.201
146.228
146.233
146.286
146.207
146.201
153.927
146.354
146.241
146.201
146.21
146.225
146.227
146.274
202.551
146.26
146.22
146.201
146.216
146.204
146.22
146.208
146.441
146.218
148.381
146.215
146.415
146.279
146.201
146.201
146.286
146.201
146.201
146.274
146.201
3033.07
146.208
146.201
146.201
146.201
146.201
146.209
146.205
146.285
146.201
146.328
146.201
8158.28
146.226
170.225
146.201
147.766
146.201
146.201
146.201
146.201
528.528
146.201
146.201
146.201
146.71
146.217
146.308
146.235
146.205
146.201
146.202
146.201
146.201
146.201
146.201
146.201
146.201
146.208
4660.78
2730.74
2105.06
146.325
146.201
146.201
146.244
146.211
158.307
1204.35
146.201
146.201
146.201
146.232
157.92
146.201
146.201
146.201
146.201
146.201
271.627
146.201
146.237
146.201
6280.45
146.22
146.201
146.201
146.34
146.265
146.219
146.218
146.201
146.34
146.285
146.201
191.018
146.205
146.201
146.252
146.201
146.244
170.931
146.247
146.249
146.386
146.207
146.238
146.201
146.318
21786.4
146.201
150.121
146.201
146.201
146.202
146.201
150.141
146.203
146.201
146.201
146.201
146.202
146.202
146.201
152.491
146.201
146.201
146.201
146.225
146.201
146.241
3447.2
146.201
338.524
146.201
146.201
146.201
146.288
146.316
146.2
146.2
146.287
2060.27
146.442
6061
146.201
146.475
146.201
146.201
146.201
144.274
146.201
359.028
146.2
5477.44
3477.76
146.278
146.201
146.237
146.201
146.201
146.201
146.201
146.201
146.201
146.201
146.571
17172.1
146.281
146.201
148.009
183.821
146.247
146.201
2673.46
186.458
6957.6
146.201
146.201
146.201
146.201
146.201
146.201
146.302
146.201
161.418
153.896
146.225
143.972
146.614
146.595
146.24
152.74
146.201
732.558
146.205
146.201
146.201
147.123
146.216
146.201
146.201
146.201
254.058
146.201
6626.85
4628.98
2971.11
148.234
146.201
11310.1
5005.42
146.201
140.775
146.201
146.201
2888.89
146.201
146.201
457.468
227.265
146.201
146.201
146.201
146.201
146.201
146.202
146.201
146.202
146.212
895.759
146.22
193.185
147.857
146.201
146.201
146.201
146.201
146.206
146.561
146.201
146.201
146.216
146.201
146.201
146.201
146.201
369.076
146.426
146.22
146.206
146.237
146.201
146.271
146.201
146.206
146.317
146.201
146.243
146.201
146.201
146.439
146.201
146.201
146.389
146.258
146.391
146.415
146.201
146.203
146.204
146.215
183.9
146.619
146.273
146.391
146.211
359.115
146.201
146.201
146.202
146.746
146.219
146.238
146.203
146.42
146.201
146.201
369.106
146.333
146.204
146.206
146.203
146.666
146.279
146.201
146.205
146.201
146.374
146.201
146.204
146.211
146.201
146.299
146.201
146.352
146.389
146.201
146.201
146.271
146.201
146.201
146.201
146.201
146.236
146.201
146.39
146.224
146.201
146.201
146.337
178.35
146.201
146.203
146.201
146.201
146.201
146.201
146.238
146.239
146.375
146.201
146.201
146.244
146.201
146.201
249.377
146.201
146.201
146.331
146.201
146.226
146.201
146.201
146.201
146.201
146.201
146.804
3276.62
156.439
146.201
172.671
146.474
1768.85
146.201
146.204
146.201
146.265
146.219
146.201
146.201
146.201
1464.97
146.298
146.201
146.203
146.201
146.201
146.201
146.201
146.201
178.152
146.201
146.365
146.201
146.201
146.201
146.201
146.201
146.28
146.203
146.201
146.201
146.225
146.201
146.201
146.201
146.201
146.219
146.283
146.201
146.201
146.201
146.201
146.308
146.201
146.527
146.201
146.495
146.311
146.201
364.15
146.321
146.278
146.222
146.233
146.201
146.201
146.201
146.201
146.201
146.237
146.327
146.201
146.201
146.201
146.201
146.309
146.254
146.201
719.982
146.211
146.201
146.316
146.201
146.201
146.201
146.44
146.223
146.217
146.201
146.201
146.201
146.265
146.201
146.348
146.201
146.201
146.235
558.84
146.201
146.201
146.214
146.201
146.201
146.201
146.459
2241.69
146.219
146.201
146.215
146.394
146.202
147.04
236.432
17011.6
146.201
146.247
146.291
236.398
20657.6
17297.6
11075.9
26006.4
146.201
4356.7
146.262
147.046
146.201
474.581
4864.56
146.201
146.241
17933.1
146.201
148.903
146.201
146.306
146.206
3663.65
146.227
146.373
146.201
146.201
146.201
146.201
146.542
146.201
146.27
146.231
146.201
146.201
146.201
146.201
146.201
146.201
146.201
146.201
146.46
146.201
150.721
146.201
386.897
146.201
146.201
146.21
146.201
146.201
146.201
146.201
146.201
146.546
146.468
1131.9
261.885
146.211
145.991
146.201
159.924
146.201
151.313
146.201
3098.74
163.759
146.474
147.365
146.226
146.255
2667.09
146.203
146.201
146.202
146.201
146.235
146.516
146.259
2789.41
146.201
146.201
1158.36
304.61
146.201
278.901
443.273
148.097
786.612
198.702
146.201
146.202
146.201
146.233
146.201
146.201
753.103
146.201
146.201
146.204
146.202
146.201
146.201
146.202
146.202
1091.26
146.308
146.201
146.201
146.221
652.67
146.201
146.208
776.078
146.201
146.201
146.208
146.202
737.214
146.201
151.618
146.206
146.201
843.37
146.201
146.201
146.201
146.201
146.201
146.201
146.201
146.201
146.201
146.201
146.246
146.201
142.843
146.201
146.201
146.203
146.201
146.201
146.216
146.213
146.201
330.64
146.201
146.201
146.387
148.39
146.201
146.187
146.605
146.201
146.201
146.201
146.201
146.201
146.205
146.201
146.556
3108.79
146.666
146.202
147.524
318.858
146.216
146.641
278.839
146.201
146.303
283.926
146.501
146.201
267.068
146.201
146.229
146.201
146.213
146.202
146.269
146.21
146.203
146.201
146.201
146.201
146.202
146.215
146.201
146.202
146.207
146.203
146.201
146.203
146.208
146.201
146.201
186.281
146.201
146.201
146.201
146.201
146.211
146.341
146.201
146.201
146.201
146.201
146.202
146.201
146.205
146.201
146.201
146.201
146.201
146.213
146.201
1668.22
146.201
146.201
146.201
146.201
147.375
146.201
146.201
146.201
146.201
146.201
146.201
3816.07
146.201
146.201
206.8
146.201
146.212
146.201
146.201
146.201
146.201
146.201
146.201
146.2
146.201
146.201
146.201
146.201
146.201
146.201
985.487
146.201
146.201
164.404
146.201
146.201
146.201
146.201
146.201
146.205
146.201
146.201
146.54
146.374
146.218
146.201
146.201
146.201
146.201
1111.25
150.181
146.201
146.201
146.201
146.285
146.201
146.201
146.201
146.221
146.204
146.201
146.227
148.416
146.201
146.206
146.201
146.201
166.419
150.359
922.312
146.201
146.206
146.229
146.201
146.201
146.227
4674.75
146.221
146.201
146.201
146.201
146.456
146.35
146.201
146.348
146.201
146.201
146.279
146.201
146.201
146.799
146.305
146.201
146.201
146.271
146.201
146.2
146.315
146.202
146.201
146.201
146.202
4670.15
146.202
151.527
146.201
146.201
711.937
146.202
527.567
146.201
146.201
146.201
146.201
146.201
146.201
146.207
148.093
146.201
146.201
146.201
146.201
146.428
146.201
146.201
146.201
146.434
146.201
202.964
146.301
146.201
146.201
146.201
158.988
146.201
146.201
146.201
146.201
146.201
146.201
180.238
146.201
146.202
146.374
148.959
146.201
146.201
146.202
146.201
146.201
146.811
146.201
146.201
146.201
146.201
6520.21
146.369
146.202
166.014
154.633
146.231
146.201
146.202
10774.5
147.724
146.202
147.075
146.206
146.201
146.209
147.03
146.205
146.201
146.201
146.206
146.209
146.201
187.949
146.205
146.201
176.622
145.884
146.313
1351.55
146.201
146.255
146.21
146.201
203.178
146.201
146.242
146.201
263.196
148.782
147.141
146.201
146.201
146.201
146.276
146.201
161.272
146.201
146.275
146.248
648.632
146.201
10548
146.206
146.206
146.844
146.207
146.201
146.201
146.201
146.201
146.201
146.201
146.201
146.201
146.201
146.201
146.201
146.424
146.201
146.201
146.201
6333.11
3023.68
178.309
146.234
146.201
146.201
146.201
146.201
146.201
146.201
146.201
146.201
146.201
146.201
146.421
146.201
146.213
146.989
146.289
146.201
146.406
146.201
146.201
146.201
146.385
146.201
146.201
146.201
146.201
146.201
146.201
146.201
146.201
146.201
146.201
300.276
4238.6
146.201
147.743
146.201
1530.64
998.797
146.201
146.201
146.354
146.201
146.208
146.201
146.456
146.206
146.201
146.201
146.221
146.284
146.201
146.204
146.201
146.201
146.209
147.126
146.201
146.237
146.201
146.201
146.201
146.22
146.208
152.158
146.381
146.201
146.201
146.209
146.219
146.201
146.201
146.201
146.201
146.201
146.201
146.201
673.672
146.206
146.201
146.202
146.519
146.692
146.201
146.245
146.334
146.201
146.249
147.211
146.201
360.171
146.208
146.201
146.201
146.201
192.51
146.249
195.597
200.672
146.205
146.201
245.978
146.203
146.254
146.315
146.201
146.201
146.201
146.479
212.64
148.07
146.201
146.411
146.849
146.201
146.201
146.201
146.226
146.235
146.325
147.739
147.117
146.201
146.206
146.201
146.201
146.215
146.201
146.201
146.201
146.201
146.201
146.201
146.201
146.201
146.201
146.285
146.201
146.201
146.347
146.204
146.201
146.428
146.201
146.201
146.201
146.402
146.21
146.214
146.201
146.201
146.201
146.201
146.205
146.201
6368.21
146.201
146.201
146.202
146.252
146.251
146.208
146.201
8964.36
8684.93
146.213
7492.59
147.167
146.201
146.274
146.203
146.201
146.201
146.201
146.201
146.201
146.201
316.501
146.31
152.089
146.207
146.416
146.201
146.203
146.203
4780.71
146.229
146.311
146.216
148.051
7762.21
146.201
146.202
146.981
146.201
146.201
146.256
146.201
146.201
146.581
146.27
146.201
146.201
146.201
146.201
146.201
146.201
146.201
146.201
146.215
146.201
146.201
146.201
146.943
146.203
146.201
146.201
146.201
147.175
146.201
146.201
1258.35
146.201
146.201
146.201
146.201
146.466
146.206
146.201
146.201
146.201
146.201
146.202
146.202
146.201
147.57
146.631
146.201
152.882
146.201
146.201
146.201
146.201
146.201
146.201
146.201
146.201
146.201
146.269
146.201
5584.28
146.201
146.201
146.201
146.201
146.201
146.201
146.206
4092.59
146.223
4390.44
146.253
146.203
146.206
1880.45
4862.83
146.78
146.207
146.201
146.201
146.201
146.201
146.201
146.201
194.338
144.599
146.201
146.22
146.201
146.201
146.201
146.201
147.778
146.201
146.204
146.241
146.204
146.201
146.201
146.201
146.201
146.201
146.201
146.513
146.201
146.507
146.201
146.201
147.901
146.51
146.565
146.554
146.459
255.01
146.203
146.222
146.209
146.547
146.201
146.201
146.201
146.201
146.276
146.465
154.423
146.229
146.474
146.474
146.201
146.462
10266.5
146.201
146.201
146.201
6666.76
146.227
146.204
146.201
6404.78
146.296
158.742
146.224
146.215
348.266
146.232
146.201
159.473
146.228
149.117
146.201
146.201
3452.7
146.201
146.201
146.233
146.201
146.201
757.321
146.201
146.227
163.227
146.201
146.201
146.211
146.213
146.202
146.213
1922.82
146.218
175.9
146.201
146.214
146.201
146.207
146.207
146.201
775.537
149.871
146.234
146.214
146.201
146.735
146.209
146.201
146.223
146.201
146.201
146.201
146.208
146.377
146.203
146.201
146.201
207.878
146.208
146.209
147.864
146.201
8781.87
146.22
146.264
146.201
146.227
146.353
146.28
146.214
146.201
146.233
146.201
146.201
146.201
146.201
146.201
146.201
146.201
146.215
146.201
146.398
146.201
146.201
146.201
146.201
146.201
167.651
146.214
146.201
146.201
146.417
146.201
146.221
146.201
146.201
146.24
146.201
146.201
146.201
146.221
146.201
146.201
146.201
146.235
146.201
146.201
146.206
146.201
146.201
146.201
146.201
146.201
146.201
146.201
146.203
146.201
146.201
146.201
146.207
146.201
146.201
146.247
4749.93
146.202
146.202
146.201
146.201
468.995
154.629
146.201
146.201
146.201
146.201
146.332
146.201
146.201
146.201
146.202
146.201
146.214
146.201
146.201
146.201
146.201
146.201
146.201
146.201
146.201
146.201
146.201
146.201
146.223
146.201
146.201
146.201
146.201
146.201
146.201
146.291
146.201
146.201
146.201
146.201
146.537
146.201
146.202
146.243
146.201
2948.88
146.201
146.201
146.201
146.201
146.455
146.201
146.201
146.444
146.201
146.201
146.201
146.201
146.201
146.201
148.89
146.201
146.201
146.201
146.454
146.452
146.458
147.775
146.451
298.781
146.235
146.201
146.201
146.463
146.201
146.201
146.201
146.205
149.638
146.201
146.201
146.201
165.168
146.362
148.015
146.202
146.201
146.22
167.4
146.201
146.201
146.201
146.201
146.201
146.201
147.384
146.201
146.201
4776.88
159.502
794.99
5231.94
146.252
146.403
146.201
146.201
146.201
308.446
146.201
146.201
146.201
146.201
1719.74
146.201
146.203
146.207
146.201
146.231
146.207
146.205
146.226
146.201
146.206
146.201
146.201
146.201
146.254
146.267
146.24
146.201
146.231
146.201
146.201
146.201
146.201
146.201
146.391
146.203
146.201
146.201
146.206
146.589
146.201
140.624
146.201
146.201
146.429
146.201
146.201
146.201
146.205
146.201
146.201
146.201
146.201
146.842
146.201
146.215
146.201
146.201
146.201
146.205
146.238
146.201
146.201
146.201
146.619
156.92
146.212
641.286
146.21
146.201
146.436
146.206
146.201
146.201
146.326
146.213
146.201
146.294
172.278
146.201
146.203
146.201
146.318
146.201
146.201
146.201
146.201
10790.6
146.201
6741.23
146.201
6651.08
146.201
146.201
251.828
146.201
195.695
146.201
146.201
146.217
146.609
146.244
147.141
146.25
146.228
146.255
146.201
146.201
146.201
146.226
147.678
146.282
146.201
146.201
149.193
146.258
146.296
146.308
146.201
146.243
146.259
146.24
146.201
146.267
150.843
150.722
146.259
146.208
146.202
146.47
146.201
146.498
146.201
152.822
146.28
146.377
146.433
146.201
146.201
146.205
152.026
146.228
148.326
146.201
146.201
146.517
146.201
146.201
146.201
146.201
146.253
146.201
253.966
146.202
146.201
146.201
146.411
146.588
146.219
146.42
147.155
146.289
146.201
146.201
146.259
146.201
146.201
146.201
146.201
146.216
146.425
146.201
146.201
146.233
146.263
146.201
147.558
146.768
146.201
146.203
146.267
146.201
146.201
146.201
146.241
146.493
146.222
146.201
146.202
146.201
146.223
146.746
146.201
146.28
146.201
146.201
146.201
146.201
146.201
2711.39
146.223
146.201
146.245
146.201
146.201
146.208
146.201
146.297
146.201
146.293
487.85
146.201
146.201
317.021
5479.84
146.201
511.721
146.448
146.201
146.201
146.201
146.201
146.201
146.201
146.201
146.201
146.201
146.201
146.21
14790.9
146.201
146.23
936.729
146.203
14856.2
146.201
146.364
146.201
146.201
13564.2
146.308
146.234
13980.3
144.268
178.838
146.201
3126.64
149.733
146.23
1926.13
4636.18
146.202
7735.59
146.201
146.201
146.201
146.201
3899.19
146.204
146.418
146.201
146.201
146.201
146.673
146.246
146.201
5972.82
4623.73
146.217
4907.98
5221.49
146.201
146.201
146.377
146.201
146.201
146.201
146.201
146.201
146.202
146.201
702.082
146.217
134.053
3162.92
146.204
178.298
146.201
146.201
146.201
205.384
146.201
146.201
146.201
291.712
150.735
146.324
5276.82
178.793
146.215
146.254
146.228
5160.27
146.201
146.201
946.079
178.774
7339.9
146.205
146.201
148.183
2354.41
146.201
2984.03
230.12
2178.72
7723.95
146.201
146.201
146.36
146.204
146.201
8693.2
932.617
2964.37
146.201
9224.7
193.405
121.391
146.201
146.201
146.201
775.18
146.201
146.201
4447.47
146.386
7462.53
146.209
146.201
6751.48
1954.43
146.201
146.201
146.201
146.247
143.697
148.689
8176.93
146.201
146.382
146.385
146.396
146.201
146.235
146.201
146.201
146.201
302.291
146.201
146.24
151.551
146.399
146.201
146.201
146.201
146.201
146.258
146.232
146.201
146.401
146.217
146.201
146.201
146.201
146.201
146.392
453.141
146.201
146.201
2095.69
146.201
146.201
146.201
146.201
146.201
9430.91
146.213
146.229
146.201
146.201
146.201
9261.67
146.201
146.201
146.236
146.201
146.209
146.201
146.201
146.368
146.201
146.204
146.202
169.94
146.201
146.201
146.201
146.201
146.201
146.201
146.201
9324.04
146.459
146.201
146.201
146.201
146.201
146.201
146.201
146.201
146.201
146.201
146.201
146.201
146.201
146.092
146.233
146.224
146.211
282.818
168.742
146.201
158.266
146.201
198.835
146.226
146.203
146.201
146.201
146.201
146.201
146.201
146.201
146.202
146.944
146.201
146.201
146.201
146.201
146.201
146.201
146.201
146.201
146.201
145.956
146.203
146.206
146.201
146.201
146.202
146.203
146.4
146.201
146.282
146.201
146.508
146.201
146.229
480.213
146.201
146.203
146.207
167.651
146.203
6369.42
5539.97
146.201
158.958
146.201
7204.22
146.201
5077.55
3241.37
3215.95
146.245
146.201
146.201
146.201
146.225
146.309
146.201
3072.79
146.203
146.246
146.201
146.201
146.201
146.201
5258.44
146.201
146.342
146.201
146.201
146.201
146.201
10940.4
702.29
2360.07
146.201
146.201
2418.75
146.201
146.201
146.213
146.272
146.21
146.201
146.201
146.351
146.213
146.201
146.201
146.247
8441.35
146.224
146.201
8329.42
231.637
146.201
146.201
146.201
146.201
146.201
146.209
146.201
146.201
146.201
146.201
146.201
146.201
146.201
146.201
146.201
146.201
146.201
146.201
146.201
146.201
146.201
146.201
146.204
4347.26
2326.96
146.201
146.201
146.201
146.201
146.203
146.201
146.201
146.201
146.201
146.201
146.201
146.21
146.201
146.201
146.201
146.201
146.201
146.203
146.201
146.203
146.232
146.21
146.201
146.201
152.581
146.201
146.201
146.201
146.201
146.201
146.201
146.201
146.468
146.201
146.201
146.222
146.214
146.201
146.201
146.201
146.201
146.201
146.201
146.201
146.201
146.219
5600.74
146.201
6863.78
146.201
146.201
14651.6
15982.3
146.201
150.737
146.205
146.201
146.201
146.201
146.202
146.201
16653
146.201
17836.7
146.201
146.201
146.201
11522
11606.4
10514.6
146.201
146.201
146.201
146.201
146.201
146.201
146.201
146.201
146.201
146.201
10975.3
146.201
146.201
146.201
146.201
146.201
146.201
146.201
533.28
146.204
147.004
146.201
146.201
146.201
146.201
146.214
146.201
146.201
146.201
146.235
146.201
146.201
146.201
354.286
146.201
146.202
146.201
146.201
146.201
146.201
146.201
146.256
146.201
156.207
146.201
146.2
146.201
146.201
146.201
146.201
146.201
146.2
146.202
146.201
146.201
146.252
14977.4