/*--------------------------------*- C++ -*----------------------------------*\
| =========                 |                                                 |
| \\      /  F ield         | OpenFOAM: The Open Source CFD Toolbox           |
|  \\    /   O peration     | Version:  v2012                                 |
|   \\  /    A nd           | Website:  www.openfoam.com                      |
|    \\/     M anipulation  |                                                 |
\*---------------------------------------------------------------------------*/
FoamFile
{
    version     2.0;
    format      ascii;
    class       volScalarField;
    location    "2";
    object      ILambda_1_0;
}
// * * * * * * * * * * * * * * * * * * * * * * * * * * * * * * * * * * * * * //

dimensions      [1 0 -3 0 0 0 0];


internalField   nonuniform List<scalar> 
108993
(
146.201
146.202
146.201
146.201
146.201
146.201
146.3
146.201
146.201
146.201
146.201
146.201
146.201
146.201
146.201
146.201
146.201
146.201
146.201
146.202
146.201
146.201
146.196
146.201
146.201
146.201
146.201
146.2
146.201
146.201
146.201
146.201
146.201
146.201
146.201
146.201
146.201
146.201
146.703
146.768
145.982
146.201
146.201
146.201
146.212
146.219
146.201
148.247
146.201
146.201
146.201
2124.2
146.202
146.201
146.201
146.201
146.201
146.201
146.201
146.201
146.201
146.201
146.201
146.201
146.201
146.201
146.201
146.201
146.201
146.201
146.201
146.201
146.201
146.201
146.201
146.201
146.201
146.201
146.201
146.201
146.201
146.201
146.201
146.201
146.201
146.201
146.201
146.201
146.201
146.201
146.201
146.201
146.201
146.201
146.201
146.201
146.201
146.201
146.201
146.201
146.201
146.201
146.201
146.201
146.201
146.201
146.201
146.201
146.201
146.355
146.526
146.201
2376.95
545.862
146.201
146.209
146.201
146.201
146.201
146.201
146.201
146.201
146.203
146.201
146.201
146.201
145.886
146.201
146.201
146.201
146.201
146.201
146.201
1975.3
146.201
146.201
146.201
146.201
146.201
146.201
146.201
146.201
146.201
146.201
146.201
146.201
146.201
146.434
146.201
146.26
146.276
146.201
146.201
146.263
146.201
161.676
146.201
146.201
146.201
224.542
146.279
146.201
146.201
146.201
146.201
2577.64
146.201
146.201
146.201
146.201
146.201
146.201
237.317
146.201
146.201
146.201
146.207
146.201
146.201
146.201
146.201
146.201
146.201
146.201
146.201
146.201
146.201
146.201
146.201
146.201
146.201
146.201
146.201
146.201
146.201
146.201
145.972
146.201
146.201
146.201
146.201
244.751
146.201
146.201
334.387
146.263
146.201
146.212
146.201
147.219
1169.2
146.201
146.208
146.206
146.564
146.201
146.201
146.201
146.201
146.201
146.201
146.265
146.201
146.2
146.201
146.201
146.201
146.201
2999.79
146.201
1184.73
146.201
146.201
146.194
146.201
146.201
146.201
146.201
178.042
146.201
146.201
146.201
146.201
146.201
146.201
146.201
146.209
146.203
146.201
146.201
146.201
146.201
146.201
146.201
146.201
146.201
146.201
146.201
146.201
146.201
146.201
146.201
146.201
146.201
146.201
146.201
146.201
146.201
146.201
146.201
146.201
146.201
146.21
150.2
146.332
146.201
146.201
146.202
146.201
146.201
146.201
146.234
146.232
146.201
146.201
146.201
146.201
146.201
146.201
146.44
146.201
146.201
146.201
146.201
146.201
146.201
146.201
146.201
146.201
146.201
146.208
146.316
146.201
146.201
146.201
149.224
146.201
146.201
148.978
146.207
146.201
146.201
146.201
146.201
148.839
146.235
146.201
146.201
146.548
146.201
146.2
146.201
146.209
146.212
146.201
401.282
504.198
146.246
146.201
146.201
146.201
146.21
624.798
146.201
146.533
146.201
146.201
146.201
146.201
146.201
146.201
146.209
146.201
146.201
146.201
146.201
146.201
146.201
146.201
146.201
146.201
146.201
146.232
146.216
146.201
146.201
146.201
146.317
146.201
146.201
146.201
146.201
146.201
146.201
146.201
146.2
146.201
146.201
146.201
1888.58
146.201
146.201
146.201
146.525
146.201
146.456
146.201
146.201
146.325
146.201
146.316
146.322
146.201
146.2
146.201
144.542
146.201
510.461
146.201
146.259
146.393
145.876
146.393
146.201
146.218
146.201
169.324
146.201
146.201
146.201
146.201
146.203
146.205
146.201
146.201
146.266
145.177
146.201
146.201
147.307
146.201
146.201
148.618
146.201
146.201
146.201
146.723
146.201
146.221
146.201
147.272
146.207
147.028
146.201
146.201
147.098
146.201
146.203
147.262
146.201
156.335
146.481
151.474
146.201
146.201
146.201
146.201
146.201
146.201
146.201
146.201
146.201
146.201
146.201
146.818
146.092
146.174
220.07
146.201
146.201
146.201
146.201
146.201
146.201
146.201
146.201
146.201
146.201
146.201
146.201
146.202
146.201
146.202
146.225
146.201
146.201
146.201
146.202
146.201
146.201
146.201
146.201
146.201
146.201
146.201
146.201
146.201
1046.34
146.284
146.201
146.201
146.201
146.201
146.201
146.201
146.201
146.201
146.201
158.082
146.201
146.201
146.201
146.201
146.201
146.201
146.201
146.201
146.201
146.201
146.201
146.201
146.201
146.201
146.201
146.202
146.241
146.201
146.201
1004.79
146.201
146.201
145.788
146.201
146.201
146.201
146.201
146.201
146.201
146.201
146.505
146.201
146.201
146.134
147.307
146.201
146.201
188.869
146.201
146.201
146.916
146.201
146.201
146.201
146.201
146.201
146.201
650.774
146.201
146.201
146.213
146.201
146.263
146.201
146.201
146.201
146.201
146.201
146.201
146.201
146.201
146.206
146.201
146.322
146.201
146.201
146.201
146.201
146.199
144.855
146.201
146.201
146.201
146.201
145.315
146.309
146.215
146.201
146.201
146.156
146.082
146.201
146.201
2939.38
146.321
146.204
146.16
146.201
146.398
224.88
147.391
146.201
146.201
146.201
146.201
146.201
146.202
146.216
146.453
146.201
146.201
145.882
146.201
146.201
146.201
221.18
146.201
146.201
146.201
146.201
146.201
146.201
146.201
153.151
146.201
146.201
146.201
149.238
146.201
146.201
146.201
4849.81
146.201
146.34
146.201
145.923
146.201
146.201
146.201
146.208
146.201
2155.54
146.201
146.201
146.24
146.205
146.201
146.201
146.203
146.2
146.201
146.225
146.201
146.204
145.293
146.201
146.201
146.201
149.586
146.201
499.189
146.201
833.074
146.201
146.201
146.201
146.201
146.201
657.799
146.201
146.201
146.201
146.201
146.217
157.98
146.201
146.201
146.201
160.749
146.201
158.391
161.287
146.201
146.201
146.201
146.201
146.201
485.779
146.201
146.212
146.236
146.201
183.504
1879.45
156.769
158.769
146.201
146.201
146.201
146.201
146.433
146.203
157.865
146.201
146.201
146.436
146.201
146.266
146.201
146.201
694.863
146.201
146.201
167.678
146.201
146.213
5039.93
146.201
146.308
146.201
634.829
148.94
146.201
146.201
146.201
146.201
146.201
146.208
145.349
146.201
146.201
146.595
146.236
146.119
146.201
233.893
146.201
340.275
146.201
146.201
314.453
146.201
146.201
1738.12
146.201
146.201
146.201
193.413
147.242
146.205
146.201
281.207
146.201
146.201
146.201
146.201
146.201
207.888
146.201
146.201
146.307
146.201
146.201
146.556
146.408
146.201
143.275
146.201
146.201
146.201
146.201
146.201
146.201
146.201
146.201
146.201
138.744
146.201
146.201
146.201
146.201
146.201
146.201
146.201
146.201
146.201
146.184
146.291
146.218
146.201
146.201
146.201
1430.12
146.201
146.203
146.216
146.201
146.201
747.756
146.207
146.201
146.201
146.2
146.201
146.201
139.874
146.201
144.589
146.201
146.201
146.201
146.201
146.513
146.201
146.201
146.553
146.201
146.274
177.179
146.644
146.201
144.91
146.201
146.201
146.201
146.201
146.201
146.201
146.201
146.201
146.201
146.201
146.081
146.201
146.201
146.201
146.525
147.512
146.201
6686.04
147.446
1383.89
146.201
146.201
146.201
1787.87
146.192
148.112
146.201
1921.5
146.23
270.829
146.21
146.201
146.201
146.068
147.717
146.201
146.201
146.72
146.201
146.201
146.201
146.796
146.201
148.922
146.201
146.201
146.201
260.473
146.201
376.149
146.201
246.518
146.201
145.637
146.001
146.201
4023.18
146.201
145.966
146.004
146.201
145.545
145.908
146.201
146.201
146.201
146.201
146.201
146.201
146.201
146.201
146.201
145.9
146.201
146.201
146.3
146.211
146.226
1726.48
169.731
146.315
146.726
150.66
146.204
2088.55
146.201
1495.22
146.458
154.915
146.201
146.201
146.201
146.201
147.124
146.201
146.201
146.201
146.225
146.201
146.538
146.152
146.201
1958.58
146.201
146.201
4086.59
897.625
146.201
146.27
146.201
146.201
146.201
2391.96
4022.64
146.201
4242.42
146.201
146.201
146.201
146.201
146.201
146.069
146.201
146.201
146.201
146.201
2530.69
146.201
146.201
146.205
146.201
147.377
146.202
146.201
146.201
146.201
146.299
146.201
1745.36
147.318
146.201
146.201
146.549
4006.45
146.201
146.201
2601.17
1323.64
146.218
146.201
146.201
146.206
146.294
146.201
146.201
146.39
146.201
146.201
146.201
146.201
150.896
146.373
2510.36
146.201
146.201
146.201
146.201
146.201
146.203
146.201
146.222
146.201
146.201
146.201
146.201
146.201
146.201
146.201
146.201
146.201
146.201
146.201
146.201
146.201
146.201
146.201
205.338
146.201
146.201
146.201
146.201
146.432
146.201
146.201
146.201
146.201
146.201
219.49
146.299
146.2
146.201
146.201
148.221
145.994
2184.45
146.201
146.201
146.205
146.201
146.201
146.201
177.91
146.201
146.201
146.201
146.201
146.201
145.656
146.201
146.201
146.201
146.201
146.202
146.201
144.818
146.201
146.201
147.062
626.944
280.056
149.079
146.201
146.201
146.149
841.876
146.201
146.201
146.201
147.032
146.201
132.953
146.201
146.201
146.201
146.201
146.233
146.604
146.201
184.906
150.294
146.201
146.201
139.391
146.232
146.201
146.201
146.201
530.697
146.201
2647.27
146.201
146.164
146.201
145.703
146.201
146.201
146.201
516.009
146.201
146.201
146.2
259.868
142.795
146.201
146.201
146.201
146.201
146.201
146.201
146.201
8820.35
146.201
150.537
146.201
146.201
146.201
137.394
507.507
146.201
146.201
146.201
146.201
146.201
146.201
146.267
146.201
146.201
146.205
146.201
146.201
146.201
146.201
146.201
145.571
12019.2
146.223
146.201
146.201
146.201
146.201
146.201
146.201
146.201
146.201
146.201
146.201
146.201
146.201
146.201
146.201
146.201
146.201
146.201
146.201
146.201
146.69
177.474
192.798
146.574
146.201
146.201
146.201
146.201
146.201
146.201
146.21
146.201
146.201
1382.89
146.201
145.78
146.213
146.211
146.201
146.201
903.839
497.087
146.201
146.201
146.201
141.343
146.201
146.201
146.287
146.201
146.201
146.201
146.201
146.201
334.73
146.201
146.201
146.295
146.201
146.201
146.201
146.352
149.214
146.201
146.201
146.201
146.296
146.201
219.883
144.896
144.747
144.616
1726.83
155.883
146.201
146.201
146.201
146.201
146.201
144.694
146.201
146.201
146.201
146.201
146.201
146.201
146.22
166.445
146.201
146.201
146.201
146.201
146.201
146.201
146.201
146.201
146.201
3733.4
146.201
146.205
146.201
146.204
146.201
146.202
146.207
146.144
146.201
146.201
146.201
177.072
146.201
530.751
3634.61
146.201
146.201
146.201
146.201
146.201
365.316
146.201
146.201
146.201
146.304
146.201
146.201
146.131
146.201
146.206
146.21
146.201
147.33
146.201
348.193
146.201
146.201
146.201
147.631
146.201
146.217
146.201
146.201
146.211
146.201
146.201
146.201
161.928
146.871
146.201
145.72
148.548
155.456
146.201
146.2
146.201
146.201
146.201
146.209
146.212
146.211
146.207
146.211
146.201
146.211
146.209
142.81
144.503
146.201
147.598
146.201
146.201
146.201
150.843
146.201
146.201
146.201
146.303
146.201
146.201
146.201
146.201
146.201
146.201
146.201
239.34
2190.7
146.201
9007.94
146.201
146.168
147.562
146.201
146.201
146.201
146.201
5037.66
146.201
146.201
146.201
146.201
146.201
146.411
146.201
146.212
146.201
146.201
146.288
146.201
146.201
146.201
146.201
146.201
146.201
146.201
146.201
146.201
146.201
146.201
146.221
146.201
146.214
146.214
146.201
146.202
146.201
146.201
146.201
146.201
146.201
146.238
146.207
360.144
146.201
146.358
146.207
146.201
146.201
146.201
146.201
146.201
143.304
146.272
146.201
146.201
146.201
146.201
146.201
146.201
146.201
146.195
146.763
146.201
146.201
146.211
146.201
146.201
146.2
146.201
719.539
146.201
146.201
146.201
146.201
516.161
146.201
146.201
146.217
1672.08
146.201
146.201
145.136
146.201
146.201
146.201
1532.28
146.201
146.201
146.201
356.385
146.205
146.21
146.201
146.201
146.352
146.201
146.201
146.218
146.201
146.201
146.201
146.201
146.525
146.201
146.201
2466.08
146.201
146.458
146.201
146.237
146.201
146.201
146.219
146.201
146.201
146.237
146.201
146.201
242.221
146.201
146.201
146.201
146.548
196.987
146.201
146.202
146.201
146.202
146.574
146.276
146.201
221.091
146.201
12894.5
146.201
146.201
146.256
146.201
146.201
146.201
146.201
146.201
146.202
146.521
146.203
146.341
146.201
146.201
146.201
146.201
146.201
146.201
8792.89
146.202
146.201
146.201
146.201
670.537
146.201
146.201
876.363
146.201
146.201
146.201
146.201
146.314
4005.84
146.207
109.278
146.201
146.201
146.4
146.201
146.201
146.201
146.243
146.276
148.788
271.482
146.201
146.201
150.962
146.201
146.201
146.201
146.201
146.201
146.201
146.201
146.201
146.201
907.235
146.2
146.201
146.207
146.209
146.201
2747.53
146.201
146.201
146.201
146.201
146.201
146.201
142.986
146.201
146.201
163.18
146.257
146.204
146.201
146.201
146.364
146.519
146.201
146.203
146.201
146.201
201.152
146.218
146.291
146.205
146.201
601.357
146.468
146.218
146.201
146.206
180.623
221.901
146.241
145.444
146.27
219.913
146.201
208.554
146.203
181.855
405.57
1790.12
485.889
136.166
146.207
146.531
146.299
146.201
146.201
146.57
146.201
146.201
146.37
146.201
2821.35
408.93
146.201
146.201
146.201
146.201
446.028
146.206
146.268
146.201
146.285
146.201
2280.01
522.106
180.855
146.201
142.499
146.201
146.201
146.201
146.201
146.321
146.201
146.201
146.201
146.651
461.909
147.741
146.25
146.203
146.201
146.346
146.201
146.201
146.201
146.201
146.201
146.201
146.204
489.464
149.789
9509.07
159.814
146.202
146.201
147.786
146.219
131.57
8202.19
146.201
146.201
146.201
146.249
151.009
148.803
146.201
146.201
146.201
146.201
462.832
146.201
147.637
146.201
6899.41
146.238
146.201
146.201
154.718
146.283
146.21
146.219
146.201
146.264
149.057
146.201
146.176
146.206
146.201
150.015
146.201
150.639
145.831
146.243
148.402
146.999
146.206
149.62
146.201
146.329
19799.1
146.201
2280.9
146.201
146.201
146.201
146.201
1990.06
146.201
146.201
146.202
146.201
147.102
146.207
146.201
140.928
146.201
146.201
146.201
146.125
146.201
147.001
10071.1
146.201
2840.27
146.201
146.201
146.201
146.277
146.259
146.2
146.2
146.254
115.024
159.204
1840.67
146.201
146.575
146.201
146.201
146.201
118.815
146.201
2256.4
146.2
369.242
931.828
268.096
146.201
181.133
146.201
146.201
146.201
146.201
146.201
146.201
146.201
146.461
14442
146.359
146.201
306.04
315.669
146.281
146.201
1827.4
147.76
3057.24
146.201
146.201
146.201
146.201
146.201
146.201
146.175
146.201
707.386
4113.58
180.606
146.316
146.712
552.511
146.256
816.271
146.201
246.456
146.205
146.201
146.201
146.246
146.213
146.201
146.201
146.201
153.757
146.201
3587.01
1960.58
1558.06
146.252
146.201
20117.7
159.691
146.201
146.217
146.201
146.201
18065.3
146.201
146.201
1234.32
156.169
146.201
146.201
146.201
146.201
146.201
146.202
146.201
146.201
146.244
229.76
146.214
328.839
143.248
146.201
146.201
146.201
146.201
146.205
146.568
146.201
146.201
146.232
146.201
146.201
146.201
146.201
10941.8
146.44
145.629
146.206
146.265
146.201
146.245
146.201
146.205
146.306
146.201
146.233
146.201
146.201
146.429
146.201
146.201
146.395
146.258
146.392
146.425
146.201
146.202
146.203
146.209
146.098
146.012
146.264
146.392
146.209
10447.1
146.201
146.201
146.202
146.74
146.214
146.248
146.206
146.423
146.201
146.201
3020.42
146.326
146.203
146.212
146.201
146.63
146.623
146.201
146.204
146.201
146.368
146.201
146.205
146.215
146.201
146.261
146.201
146.351
146.386
146.201
146.201
146.26
146.201
146.201
146.201
146.201
146.236
146.201
146.387
146.229
146.201
146.201
152.838
146.028
146.201
146.203
146.201
146.201
146.201
146.201
165.067
166.444
146.495
146.201
146.201
146.228
146.201
146.204
461.397
146.201
146.201
146.201
146.201
146.21
146.201
146.201
146.201
146.201
146.201
146.799
1916.75
146.202
146.201
169.844
146.201
428.722
146.201
146.204
146.201
146.224
146.212
146.201
146.201
146.201
174.861
146.251
146.201
146.202
146.201
146.201
146.201
146.201
146.201
143.196
146.201
146.343
146.201
146.201
146.201
146.201
146.201
146.254
148.681
146.201
146.201
146.212
146.201
146.222
146.201
146.201
146.14
146.461
146.846
146.276
146.201
146.201
146.415
146.201
146.537
146.201
146.606
146.288
146.201
2705.65
146.312
244.95
145.64
146.215
146.201
146.201
146.201
146.201
146.201
146.249
146.937
146.201
146.201
146.201
146.201
146.324
146.251
146.201
189.806
159.151
146.201
407.106
146.201
146.201
146.201
146.445
146.213
146.207
146.201
146.201
146.201
146.589
146.201
146.462
146.201
146.201
178.9
142.332
146.201
146.201
146.239
146.201
146.201
146.201
146.46
431.815
146.225
146.201
146.217
261.949
146.249
146.384
146.247
13199.2
146.201
298.935
281.538
5476.12
24956.8
13456.7
5597.02
25826.1
146.201
5282.5
146.227
146.432
146.201
1278.92
13672.8
146.201
146.226
26950
146.201
2960.52
146.201
146.446
146.204
186.334
146.22
146.339
146.201
146.201
146.201
146.201
146.562
146.201
146.235
148.449
146.201
146.201
146.201
146.201
146.201
146.201
146.201
146.201
146.478
146.201
995.545
146.201
161.06
146.201
146.201
194.508
146.201
146.201
146.201
146.201
146.201
146.648
146.589
10829.2
164.592
146.201
146.205
146.201
143.58
146.201
146.209
146.201
157.533
147.127
146.565
146.217
146.201
146.2
752.549
146.201
146.201
164.241
146.201
146.215
146.578
683.057
254.651
146.2
146.201
628.803
145.186
146.201
146.283
160.002
146.132
176.111
146.201
146.219
146.202
146.202
146.2
146.201
146.201
741.418
146.201
146.201
146.201
146.202
146.201
146.201
146.203
146.631
3680
155.025
146.201
146.201
163.717
253.497
146.201
171.947
493.866
146.201
146.201
146.189
146.201
295.749
146.201
223.365
372.449
146.201
493.9
146.201
146.201
146.201
146.201
146.201
146.201
146.201
146.201
146.201
146.224
146.201
146.201
146.22
146.201
146.201
146.204
146.201
146.201
146.214
146.21
146.201
146.129
146.201
146.201
1735.76
146.177
146.201
146.245
223.354
146.201
146.201
146.201
146.201
146.201
146.201
146.201
146.608
725.124
146.668
146.201
147.342
146.134
146.2
146.656
146.051
146.201
146.303
146.013
146.453
146.201
146.005
146.201
210.92
146.202
243.268
146.202
146.201
234.648
146.202
146.201
146.201
146.201
146.201
318.551
146.201
146.202
278.988
146.202
146.201
146.202
235.264
146.201
146.201
150.826
146.201
146.201
146.201
146.201
296.394
146.201
146.201
146.201
146.201
146.201
146.201
146.201
146.413
146.201
146.201
146.201
146.201
419.315
146.201
148.53
146.201
146.201
146.201
146.201
356.659
146.201
146.201
146.201
146.201
146.201
146.201
237.35
146.201
146.201
2111.54
146.201
151.348
146.201
146.201
146.201
146.201
146.201
146.201
146.203
146.201
146.201
146.201
146.201
146.201
146.201
1708.59
146.201
146.201
510.802
146.201
146.201
146.203
146.201
146.201
147.412
146.201
146.201
146.349
152.129
158.625
146.201
146.201
146.201
146.201
146.264
144.285
146.201
146.201
146.201
146.275
146.201
146.201
146.201
146.382
146.689
146.201
146.487
367.715
146.201
146.186
146.201
146.201
146.117
146.575
146.729
146.201
166.52
146.155
146.201
146.201
146.154
146.724
146.369
146.201
146.201
146.201
144.884
146.527
146.201
146.676
146.201
146.201
146.841
146.201
146.201
1372.1
146.819
146.201
146.201
146.726
146.201
146.2
146.786
146.202
146.201
146.201
146.202
2054.51
146.202
1425.2
146.201
146.201
146.604
146.201
146.397
146.201
146.201
146.201
146.201
146.201
146.201
146.201
146.206
146.201
146.201
146.201
146.201
152.4
146.201
146.201
146.201
158.695
146.201
1059.06
159.681
146.201
146.201
146.201
3250.67
146.201
146.201
146.201
146.201
146.201
146.201
6470.31
146.201
146.201
147.704
5129.37
146.201
146.201
146.201
146.201
146.201
146.201
146.206
146.201
146.201
146.201
313.507
146.703
146.201
145.612
157.178
148.089
146.204
146.201
1921.27
146.362
146.203
146.142
169.759
146.201
350.744
147.046
146.235
146.205
146.201
146.245
204.714
146.201
365.094
146.235
146.201
322.073
146.373
147.487
390.911
146.201
146.266
146.201
146.201
3880.22
146.201
146.256
146.201
144.248
150.372
1144.25
146.201
146.201
146.201
146.281
146.201
146.047
146.201
146.281
146.268
2608.88
146.201
5818.62
151.409
146.308
289.408
173.273
146.201
146.201
146.201
146.201
146.201
146.201
146.201
146.201
146.201
146.201
146.201
147.56
146.201
146.201
146.201
439.327
147.776
146.126
164.793
146.201
146.201
146.201
146.201
146.201
146.201
146.201
146.201
146.201
146.201
146.476
146.201
146.218
761.403
146.379
146.201
2522.66
146.202
146.201
146.201
148.255
146.201
146.201
146.201
146.201
146.201
146.201
146.201
146.201
146.201
146.201
149.842
15292.6
146.201
147.12
146.201
1845.17
177.592
146.201
146.201
146.41
146.201
251.991
146.201
1979.96
210.552
146.201
146.201
146.227
146.479
146.201
147.058
146.201
146.201
215.733
3343.27
146.201
146.068
146.201
146.477
146.201
441.228
211.908
2081.71
146.258
146.202
146.201
245.914
155.692
146.201
146.201
146.201
146.201
146.201
146.201
146.201
6827.13
239.09
146.201
164.371
146.414
146.643
146.201
164.723
246.52
146.201
155.622
174.622
146.201
7531.66
146.221
146.201
146.201
146.201
6726.11
156.089
146.174
146.181
146.199
146.201
146.179
245.018
150.733
1866.83
146.201
146.201
146.201
146.398
146.186
146.195
146.201
146.379
146.89
146.201
148.189
146.201
149.047
213.07
146.902
142.19
3532.63
146.201
149.162
146.201
146.201
146.12
146.201
146.201
146.201
146.201
146.201
146.201
146.201
146.201
146.201
145.538
146.503
146.201
146.313
146.203
146.201
2392.25
146.201
146.201
146.201
146.468
146.208
146.214
146.201
146.201
146.201
146.202
146.321
146.201
4246.97
146.201
146.201
160.087
146.806
146.439
146.368
146.201
9075.57
8905.98
158.264
5765.46
146.868
146.216
146.238
146.202
146.201
146.201
146.201
146.201
146.201
146.201
582.282
146.403
146.257
146.205
146.305
146.201
146.201
146.201
495.61
146.243
146.252
146.32
149.409
8943.44
146.201
146.413
146.295
146.201
146.201
146.28
146.201
146.201
146.446
177.013
146.201
146.201
146.201
146.201
146.201
146.201
146.201
146.202
146.189
146.201
146.201
146.201
146.563
146.737
146.201
146.201
146.201
146.758
146.201
146.215
254.435
146.201
146.225
146.201
146.201
146.252
146.26
146.201
146.201
146.201
146.201
147.355
146.237
146.201
202.042
144.442
146.201
3358.09
146.201
146.201
146.201
146.201
146.201
146.201
146.201
146.201
146.201
146.261
146.201
1172.04
146.201
146.201
146.201
146.201
146.201
146.201
149.435
311.777
146.215
628.769
697.221
146.613
148.105
205.739
1081.12
168.516
146.205
146.201
146.201
146.201
146.201
146.201
146.201
329.924
146.245
146.201
148.639
146.201
146.201
146.201
146.201
214.737
146.201
199.551
146.254
150.191
146.201
146.201
146.201
146.201
146.201
146.201
154.972
146.201
148.33
146.201
146.201
395.957
146.76
148.49
149.434
148.076
6361.28
171.597
147.455
146.209
150.46
146.201
146.201
146.201
146.201
210.39
146.443
2004.4
197.73
146.442
146.464
146.201
146.447
3583.76
146.201
146.201
146.201
128.621
146.224
146.205
146.201
127.065
146.287
8027.78
146.244
146.215
304.781
184.856
146.201
146.195
166.525
705.362
146.201
146.24
164.955
146.201
146.201
188.051
146.201
146.201
358.109
146.201
170.858
148.056
146.201
146.201
146.212
146.212
146.215
146.212
168.976
146.213
146.178
146.201
146.213
146.201
146.207
146.208
146.201
892.953
146.089
148.78
146.219
146.201
144.591
146.208
146.201
146.225
146.201
146.201
146.201
146.208
146.16
146.208
146.201
146.201
2328.11
146.207
146.207
200.706
146.201
3170.55
146.223
148.16
146.201
146.223
146.796
146.226
146.218
146.201
146.226
146.201
146.201
146.201
146.201
146.201
146.201
146.201
146.217
146.201
260.098
146.201
146.201
146.201
146.201
146.201
1835.86
349.181
146.201
146.201
146.25
146.202
146.222
146.201
146.201
146.22
146.201
146.201
146.201
146.221
146.201
146.201
146.201
154.436
146.407
146.201
317.588
146.201
146.201
146.201
146.201
146.201
146.455
146.201
146.202
146.201
147.24
146.201
146.206
146.201
146.201
146.201
1838.4
146.671
146.757
146.528
146.201
2873.5
146.183
146.201
146.201
146.201
146.201
146.334
146.201
146.201
146.201
146.696
146.201
277.737
146.201
146.201
146.201
146.201
146.201
146.201
146.201
146.201
146.201
146.201
146.201
268.043
146.201
146.201
146.201
146.201
146.201
146.201
146.467
146.201
146.201
146.201
146.201
1422.19
146.201
146.202
166.207
146.201
286.157
146.201
146.201
146.201
146.201
146.453
146.201
146.201
146.455
146.201
146.201
146.201
146.201
146.201
146.801
148.89
146.201
146.201
146.201
146.464
146.47
146.47
727.109
146.61
7084.28
146.201
146.201
146.202
146.471
146.201
146.201
146.201
146.201
149.536
146.201
146.201
146.201
2162.08
176.591
3900.52
146.203
146.201
146.276
537.583
146.201
146.201
146.201
146.201
146.201
146.201
146.2
146.201
146.201
4529.74
5046.77
12069
3350.02
146.216
232.242
146.201
146.201
146.201
145.909
146.201
146.201
146.201
146.201
1663
146.212
146.597
146.33
146.201
146.209
146.207
146.202
146.922
146.201
146.204
146.201
146.201
146.201
146.226
146.225
146.213
146.201
146.209
146.201
146.201
146.201
146.2
146.201
146.297
146.209
146.201
146.201
146.206
922.382
146.201
146.664
146.201
146.201
146.638
146.201
146.201
146.201
146.207
146.201
146.201
146.201
146.201
219.469
146.201
146.083
146.201
146.201
146.201
149.046
146.226
146.201
146.201
146.201
147.458
143.837
146.208
1112.23
146.205
146.201
146.466
146.204
146.201
146.201
146.363
146.225
146.201
146.287
170.425
146.201
149.727
146.201
146.298
146.201
146.201
146.201
146.201
5068.15
146.201
13330.6
146.201
215.808
146.201
146.201
889.242
146.201
145.967
146.201
146.201
272.721
146.649
146.235
616.431
146.236
146.219
146.243
146.201
146.201
146.201
146.225
245.599
147.466
146.207
146.199
852.522
146.242
146.482
147.358
146.201
146.447
146.526
146.234
146.201
146.246
2207.9
2239.85
176.753
146.203
146.202
146.349
146.201
146.393
146.201
2225.62
838.645
146.317
146.393
146.201
146.201
146.21
2425.15
153.129
209.584
146.201
146.201
146.625
146.201
146.201
146.2
146.201
1106.85
146.201
1895.26
146.395
146.201
146.201
146.311
233.13
145.743
174.825
157.998
221.297
146.201
146.201
146.263
146.201
146.201
146.201
146.201
146.76
146.439
146.201
146.201
146.23
265.928
146.201
146.197
147.509
146.201
146.672
283.4
146.201
146.201
146.201
146.226
146.558
146.21
146.201
146.198
146.201
146.219
301.333
146.201
146.35
146.201
146.201
146.201
146.201
146.201
1673.92
146.219
146.201
146.935
146.201
146.201
146.208
146.201
445.281
146.201
146.293
148.263
146.201
146.201
161.316
1808.78
146.201
146.322
146.475
146.201
146.201
146.201
146.201
146.201
146.201
146.201
146.201
146.201
146.201
146.517
6438.15
146.201
146.215
985.657
146.21
6478.67
146.201
1221.24
146.201
146.201
6000.71
146.262
146.829
6556.66
144.209
145.696
146.201
163.454
149.183
146.29
1948.5
219.033
146.2
6934.8
146.201
146.201
146.201
146.201
398.877
146.646
146.265
146.201
146.201
146.201
146.697
180.041
146.201
5339.84
876.741
171.583
1982.22
4196.6
146.201
146.201
146.692
146.201
146.201
146.201
146.201
146.201
151.252
146.201
777.447
146.214
146.594
165.681
192.623
5049.26
146.201
146.201
146.201
145.696
146.201
146.201
146.201
143.04
146.355
146.497
675.855
146.829
146.218
146.229
146.076
674.202
146.201
146.201
248.069
6843.85
191.164
146.201
146.201
140.984
8159.37
146.201
1052.26
9070.3
1508.24
1530.01
146.201
146.201
146.636
150.538
146.202
1778.76
2700.72
173.203
146.201
1102.12
195.327
146.665
146.201
146.201
146.202
146.188
146.201
146.201
1696.75
146.255
1776.85
146.201
146.201
994.118
732.16
146.201
146.201
146.201
146.492
146.928
277.832
2762.93
146.201
146.245
146.255
144.008
146.201
145.943
146.201
146.201
146.201
3348.57
146.201
146.259
143.264
146.254
146.201
146.201
146.201
146.201
146.235
146.213
146.201
146.247
149.997
146.201
146.201
146.201
146.201
146.247
356.232
146.201
146.201
552.975
146.201
146.201
146.201
146.201
146.201
3439.17
146.192
370.715
146.201
146.201
146.201
3279.39
146.201
146.201
146.217
146.201
149.588
146.201
146.201
146.491
146.201
148.776
148.724
2986.42
146.201
146.201
146.201
146.201
146.201
146.201
146.618
2965.12
150.93
146.201
146.201
146.201
146.201
146.201
146.201
146.201
146.201
146.201
146.201
146.201
146.201
146.217
146.64
146.21
146.217
144.789
146.193
146.201
1690.42
146.201
728.118
144.833
146.206
146.201
146.201
146.201
146.201
146.201
146.201
146.201
146.296
146.201
146.201
146.201
147.095
146.201
146.201
146.201
146.201
146.201
146.269
146.201
146.214
146.201
146.201
146.201
146.201
146.217
146.201
145.935
146.201
1398.25
146.201
838.841
146.339
146.201
146.201
146.206
145.947
146.201
5536.45
3798.03
146.201
2849.56
146.201
4613.5
146.201
1498.56
173.389
1070.48
146.218
146.201
146.201
146.201
146.223
146.55
146.201
965.826
171.949
146.796
146.201
146.201
146.201
146.201
1897.55
146.201
146.2
146.201
146.201
146.201
146.201
6153.37
1405.83
156.34
146.201
146.201
167.076
146.201
146.201
146.34
146.895
146.321
146.201
146.201
146.212
146.41
146.201
146.201
146.245
4639.64
146.217
146.201
6831.59
145.69
146.201
146.201
146.201
146.201
146.201
147.476
146.201
146.201
146.201
146.201
146.201
146.201
146.201
146.201
146.201
146.201
146.201
146.201
146.201
146.201
146.201
146.201
146.225
310.338
197.719
146.201
146.201
146.201
146.201
146.203
146.201
146.201
146.205
146.201
146.201
146.201
228.325
146.201
146.201
146.201
146.201
146.201
146.208
146.201
146.205
146.202
146.209
146.201
146.201
146.21
146.201
146.201
146.201
146.201
146.201
146.201
146.201
146.122
146.201
146.201
146.209
146.206
146.201
146.201
146.201
146.201
146.201
146.201
146.201
146.201
146.218
21920.3
146.201
22887.4
146.201
146.201
27163.6
27500.3
146.201
3483.57
146.202
146.201
146.201
146.201
146.206
146.201
28928.6
146.201
29126.8
146.201
146.201
146.201
3227.88
3248.48
2816.78
146.201
146.201
146.201
146.201
146.201
146.201
146.201
146.201
146.201
146.201
1923.44
146.201
146.201
146.201
146.201
146.201
146.201
146.201
768.555
146.203
3591.87
146.201
146.202
146.201
146.201
146.175
146.201
146.201
146.201
145.982
146.201
146.201
146.201
149.432
146.201
146.203
146.201
146.201
146.201
146.201
146.2
146.484
146.201
135.333
146.201
146.2
146.201
146.201
146.201
146.201
146.201
146.2
146.201
146.201
146.201
146.254
7353.04
146.781
146.201
146.201
146.249
146.197
146.468