/*--------------------------------*- C++ -*----------------------------------*\
| =========                 |                                                 |
| \\      /  F ield         | OpenFOAM: The Open Source CFD Toolbox           |
|  \\    /   O peration     | Version:  v2012                                 |
|   \\  /    A nd           | Website:  www.openfoam.com                      |
|    \\/     M anipulation  |                                                 |
\*---------------------------------------------------------------------------*/
FoamFile
{
    version     2.0;
    format      ascii;
    class       volScalarField;
    location    "2";
    object      k;
}
// * * * * * * * * * * * * * * * * * * * * * * * * * * * * * * * * * * * * * //

dimensions      [0 2 -2 0 0 0 0];


internalField   nonuniform List<scalar> 
108993
(
8.43109e-05
8.27724e-05
8.49427e-05
8.36748e-05
8.37843e-05
7.47338e-05
8.15012e-05
8.09214e-05
8.47169e-05
8.27459e-05
8.43265e-05
8.40931e-05
8.28258e-05
8.13593e-05
8.23161e-05
7.93763e-05
8.15245e-05
8.25553e-05
8.19112e-05
8.263e-05
0.000100012
8.57651e-05
8.05853e-05
8.40284e-05
8.61206e-05
8.23845e-05
9.24229e-05
8.36601e-05
8.49997e-05
7.71513e-05
8.78258e-05
8.42367e-05
0.000118456
8.41375e-05
8.42576e-05
8.38111e-05
8.37504e-05
8.98378e-05
9.57317e-05
8.21339e-05
8.54563e-05
8.48779e-05
8.26257e-05
0.000129952
8.29789e-05
8.04739e-05
0.000123292
9.72983e-05
8.58926e-05
8.35837e-05
8.58195e-05
8.71063e-05
8.2944e-05
8.46783e-05
8.41254e-05
8.455e-05
8.99583e-05
8.30417e-05
8.06768e-05
8.51972e-05
8.37616e-05
8.41494e-05
8.3124e-05
8.14111e-05
8.67765e-05
8.49361e-05
0.000100971
8.44672e-05
8.52908e-05
8.35001e-05
8.27736e-05
8.35973e-05
8.34844e-05
8.36878e-05
8.2701e-05
8.50197e-05
8.511e-05
8.53567e-05
9.1009e-05
8.57781e-05
8.22816e-05
8.1851e-05
8.15726e-05
9.59022e-05
8.46237e-05
8.23646e-05
8.47879e-05
8.22895e-05
8.28796e-05
8.63618e-05
8.37559e-05
8.1827e-05
8.51436e-05
9.16713e-05
8.4516e-05
8.36225e-05
8.12654e-05
7.87907e-05
8.12938e-05
8.20251e-05
8.44106e-05
8.6509e-05
8.51052e-05
8.46012e-05
8.01037e-05
9.003e-05
8.45552e-05
9.09826e-05
8.56744e-05
8.49671e-05
8.43779e-05
8.45262e-05
0.000120044
8.3892e-05
8.37143e-05
0.000104458
8.18675e-05
8.09207e-05
8.54317e-05
8.36412e-05
8.29425e-05
8.31459e-05
9.83418e-05
7.82292e-05
9.25977e-05
8.28067e-05
8.3941e-05
8.18466e-05
8.48603e-05
8.91392e-05
8.2161e-05
8.55166e-05
8.48654e-05
0.000525968
8.34661e-05
8.08604e-05
8.29192e-05
8.12583e-05
8.17015e-05
8.25181e-05
8.05429e-05
8.15082e-05
8.50981e-05
8.24734e-05
8.45891e-05
8.37992e-05
8.06343e-05
0.000292527
8.25691e-05
0.000124298
0.000106474
8.04403e-05
8.16143e-05
0.000176113
8.29075e-05
8.30273e-05
8.52267e-05
8.45664e-05
0.00015839
8.41144e-05
0.000130304
0.000314209
8.50557e-05
8.24952e-05
8.27108e-05
8.56758e-05
8.2982e-05
8.3385e-05
8.37935e-05
8.49269e-05
8.42511e-05
8.39641e-05
8.50815e-05
8.20949e-05
8.78882e-05
8.2471e-05
0.000459019
8.14503e-05
8.38782e-05
8.29522e-05
8.17747e-05
8.09417e-05
8.64731e-05
6.17644e-05
8.51565e-05
8.33473e-05
8.97333e-05
8.35909e-05
8.33442e-05
6.61355e-05
8.34492e-05
9.31301e-05
8.16574e-05
0.000179831
8.38528e-05
8.31321e-05
8.48968e-05
8.35073e-05
8.39914e-05
6.73633e-05
8.41959e-05
9.18648e-05
0.000110043
8.23998e-05
8.41613e-05
0.000517537
8.24661e-05
9.12812e-05
8.31354e-05
0.0366861
8.11123e-05
9.35344e-05
0.000506411
0.00122703
0.00308825
7.82093e-05
8.19374e-05
8.33236e-05
8.40865e-05
8.64152e-05
8.37201e-05
0.000115171
0.000103764
0.000186809
8.17747e-05
7.98042e-05
8.39473e-05
8.45348e-05
0.000126582
8.05856e-05
0.00032816
8.35331e-05
8.15807e-05
8.10307e-05
8.26351e-05
8.44691e-05
8.41381e-05
8.28961e-05
8.25953e-05
8.4883e-05
8.40577e-05
8.37734e-05
7.72603e-05
8.42534e-05
8.71307e-05
8.2264e-05
0.00441566
9.09929e-05
8.80297e-05
8.45567e-05
9.07397e-05
8.6649e-05
8.2865e-05
8.38462e-05
8.49825e-05
8.5835e-05
8.49678e-05
8.29315e-05
8.75403e-05
7.71194e-05
8.32962e-05
9.06454e-05
8.48424e-05
8.11844e-05
8.16553e-05
8.33692e-05
8.42495e-05
8.54816e-05
7.69595e-05
8.25675e-05
7.86702e-05
8.29833e-05
0.000169411
0.0798704
9.56524e-05
8.25238e-05
8.44737e-05
8.65823e-05
8.44849e-05
8.32208e-05
8.34129e-05
9.02978e-05
7.93e-05
8.20137e-05
8.44077e-05
8.36489e-05
8.12634e-05
8.43565e-05
8.48906e-05
0.000350578
8.26814e-05
8.09734e-05
8.51391e-05
8.37824e-05
8.44475e-05
8.06006e-05
8.62991e-05
8.29127e-05
9.48066e-05
7.539e-05
0.00012429
9.44306e-05
8.43221e-05
7.97728e-05
8.38462e-05
8.04977e-05
8.31981e-05
8.15115e-05
7.96827e-05
0.000264548
8.43416e-05
8.45903e-05
8.12884e-05
8.27474e-05
8.44943e-05
0.00010379
8.4974e-05
8.17801e-05
9.10492e-05
8.53733e-05
8.18189e-05
7.88693e-05
7.88684e-05
8.10377e-05
7.9977e-05
0.00116247
0.0426668
0.000137053
8.2991e-05
8.51174e-05
8.61138e-05
0.000104754
0.0667959
8.31277e-05
0.00104926
9.19785e-05
8.32088e-05
8.45146e-05
8.34679e-05
8.2599e-05
8.33891e-05
0.000169131
8.26024e-05
8.37781e-05
8.22829e-05
8.27938e-05
8.15412e-05
8.22299e-05
8.21735e-05
8.12348e-05
8.35498e-05
7.79891e-05
8.33578e-05
8.75888e-05
8.39549e-05
8.30628e-05
8.18154e-05
7.56322e-05
8.84379e-05
7.54011e-05
8.579e-05
8.22875e-05
8.27616e-05
8.24756e-05
8.42059e-05
8.47571e-05
8.41138e-05
8.19582e-05
8.73618e-05
0.297777
8.21234e-05
8.44593e-05
8.1536e-05
0.00442696
8.61865e-05
0.000551158
8.47731e-05
8.68104e-05
0.000305092
8.45061e-05
0.000244558
0.000107939
8.4651e-05
8.52147e-05
8.25324e-05
7.76026e-05
8.18763e-05
0.00071783
8.22325e-05
8.67974e-05
0.00385201
7.82582e-05
0.00277129
8.15108e-05
0.000132874
8.71934e-05
0.036387
8.40829e-05
8.25484e-05
8.38185e-05
8.68614e-05
0.000911063
0.000223607
8.33082e-05
8.42259e-05
7.8492e-05
8.17462e-05
7.65889e-05
8.25685e-05
0.0297385
8.2155e-05
8.17633e-05
0.0019467
8.17764e-05
8.3523e-05
8.43753e-05
0.00534895
8.28299e-05
7.63871e-05
8.39249e-05
0.0130049
8.27777e-05
0.00553518
7.99476e-05
8.43081e-05
0.00693517
8.37945e-05
8.25069e-05
0.0392683
7.73891e-05
0.0148104
8.7424e-05
0.0123954
8.71822e-05
8.22171e-05
8.28142e-05
8.76374e-05
8.37717e-05
8.54494e-05
8.18742e-05
8.25482e-05
8.23243e-05
8.49047e-05
7.78308e-05
8.41824e-05
8.47559e-05
8.17301e-05
8.49003e-05
8.25311e-05
7.89816e-05
8.30208e-05
8.32622e-05
8.41565e-05
8.67088e-05
8.54141e-05
8.2771e-05
8.29855e-05
8.23793e-05
8.52545e-05
8.14379e-05
0.000222946
8.36127e-05
0.000153624
9.59698e-05
8.32725e-05
7.8936e-05
8.63981e-05
0.000127308
7.88316e-05
8.15445e-05
0.000108761
8.38768e-05
8.45222e-05
8.33933e-05
8.73357e-05
0.000118728
8.0584e-05
8.45125e-05
9.57005e-05
8.51149e-05
8.20399e-05
8.51027e-05
8.45306e-05
8.38935e-05
0.000253943
8.20966e-05
8.13303e-05
8.32873e-05
8.29461e-05
8.53999e-05
8.31883e-05
8.42416e-05
0.000132817
8.42759e-05
8.34901e-05
7.76646e-05
0.000136807
8.40978e-05
7.91547e-05
8.31567e-05
8.76107e-05
8.31965e-05
8.0302e-05
8.30393e-05
8.48917e-05
9.26646e-05
8.16916e-05
8.08473e-05
0.000196019
8.27189e-05
8.38971e-05
8.36434e-05
8.37298e-05
8.48442e-05
8.28514e-05
8.40652e-05
8.09012e-05
8.31836e-05
8.45961e-05
8.52873e-05
0.000119857
0.000154048
8.36186e-05
8.39376e-05
8.54514e-05
8.79378e-05
8.30124e-05
8.35649e-05
9.43076e-05
8.45401e-05
8.21144e-05
8.24193e-05
8.5544e-05
8.20245e-05
9.37853e-05
8.49003e-05
8.21632e-05
8.37049e-05
8.44346e-05
0.000113516
9.34705e-05
0.000156319
8.34262e-05
8.48068e-05
8.46802e-05
8.30051e-05
8.00404e-05
8.71716e-05
8.46207e-05
7.9841e-05
0.000213073
8.07756e-05
0.00076083
8.53636e-05
8.43839e-05
9.36221e-05
8.56606e-05
8.52401e-05
0.0240721
8.16524e-05
8.44054e-05
8.33279e-05
9.85923e-05
8.37691e-05
7.81299e-05
0.00017765
8.37202e-05
8.07451e-05
8.63314e-05
8.46964e-05
8.36072e-05
7.96631e-05
0.140617
7.89228e-05
9.82655e-05
8.33057e-05
8.49683e-05
8.71322e-05
0.120788
8.59418e-05
8.50192e-05
8.18506e-05
8.46583e-05
8.61266e-05
8.36996e-05
8.29375e-05
0.000178329
7.90823e-05
8.46032e-05
7.955e-05
8.51432e-05
7.91377e-05
8.29855e-05
8.23247e-05
0.111911
8.30048e-05
8.54906e-05
8.11703e-05
8.49994e-05
8.25858e-05
8.31641e-05
8.45968e-05
0.0690263
8.13216e-05
8.11862e-05
8.03802e-05
0.0635039
0.000103507
8.33357e-05
8.37018e-05
0.00040629
8.36972e-05
8.87666e-05
8.25628e-05
8.56588e-05
8.32056e-05
8.45198e-05
0.000106606
9.62321e-05
8.13066e-05
9.14626e-05
8.27905e-05
8.39631e-05
8.53977e-05
8.51659e-05
8.48215e-05
8.54951e-05
9.58143e-05
8.96688e-05
8.40848e-05
0.000119979
8.29067e-05
9.00684e-05
0.000104448
8.32924e-05
8.09574e-05
7.93819e-05
0.000907559
8.44265e-05
8.4659e-05
8.23106e-05
8.46006e-05
8.33112e-05
8.32378e-05
8.11088e-05
8.25558e-05
8.32206e-05
8.06462e-05
8.2137e-05
8.35823e-05
8.38348e-05
8.18161e-05
0.000343756
7.74587e-05
8.48133e-05
9.65206e-05
0.000854853
7.42346e-05
8.40398e-05
7.60324e-05
7.27262e-05
8.33867e-05
7.9977e-05
8.28327e-05
8.21404e-05
0.000154842
8.05641e-05
8.45841e-05
0.000508367
0.000108067
8.5431e-05
8.55002e-05
8.56567e-05
7.87237e-05
7.72676e-05
8.58976e-05
0.000120676
7.71333e-05
8.3205e-05
8.58452e-05
8.25444e-05
8.44348e-05
8.33903e-05
8.41466e-05
7.99838e-05
8.73434e-05
8.87564e-05
8.10646e-05
7.68804e-05
0.0757278
9.36359e-05
8.3526e-05
8.41485e-05
8.01909e-05
9.28411e-05
0.619798
0.000115169
0.000108525
8.08325e-05
0.00222911
0.000145611
9.92092e-05
7.5559e-05
7.72651e-05
8.57782e-05
8.11836e-05
8.43561e-05
8.12814e-05
8.36194e-05
8.15303e-05
8.37846e-05
8.82298e-05
0.000103159
8.44344e-05
0.000173297
7.98859e-05
0.000139444
8.31798e-05
7.9156e-05
8.42002e-05
8.49716e-05
8.42143e-05
8.63783e-05
8.19905e-05
8.19517e-05
8.3944e-05
8.59167e-05
8.12265e-05
0.000125888
8.40249e-05
8.37237e-05
8.39687e-05
8.07113e-05
8.12906e-05
8.42879e-05
7.99247e-05
8.49955e-05
8.04317e-05
8.36242e-05
8.53735e-05
8.21376e-05
7.88318e-05
9.1268e-05
8.59982e-05
8.52034e-05
8.54325e-05
8.70015e-05
8.69357e-05
8.47343e-05
8.76185e-05
8.41955e-05
7.92205e-05
8.10435e-05
8.76739e-05
7.94314e-05
8.2191e-05
8.02495e-05
0.000322752
8.54685e-05
8.19473e-05
8.60422e-05
8.27223e-05
8.83302e-05
8.27424e-05
7.75765e-05
8.43528e-05
8.49457e-05
9.45739e-05
8.63761e-05
8.39169e-05
8.23352e-05
8.78355e-05
8.34722e-05
9.21298e-05
8.6411e-05
8.56279e-05
8.33537e-05
0.139643
0.000121488
8.18092e-05
8.40109e-05
0.000882585
8.48795e-05
8.33366e-05
8.33625e-05
0.000173275
8.37059e-05
8.00894e-05
8.40459e-05
7.86562e-05
8.30132e-05
8.25263e-05
8.29701e-05
8.26688e-05
8.61671e-05
8.60244e-05
0.000118461
8.46818e-05
0.0029076
8.41468e-05
8.2077e-05
8.21836e-05
8.53903e-05
8.3637e-05
8.37715e-05
8.43384e-05
8.38254e-05
8.24966e-05
8.07633e-05
8.1775e-05
0.000113042
8.37891e-05
8.35608e-05
7.93999e-05
8.05497e-05
0.00232633
7.99001e-05
8.30512e-05
0.0375964
8.00468e-05
0.0091731
8.76323e-05
8.29425e-05
8.43881e-05
0.117803
8.42417e-05
8.6946e-05
8.14913e-05
8.00886e-05
8.56589e-05
8.38199e-05
9.43798e-05
8.39155e-05
8.62738e-05
8.34893e-05
8.74086e-05
8.95914e-05
8.57528e-05
8.78334e-05
0.000142846
8.01307e-05
8.51803e-05
8.30069e-05
8.77179e-05
8.34065e-05
8.4037e-05
8.32478e-05
8.41904e-05
0.0428549
8.38012e-05
0.0320312
8.49198e-05
0.0460521
8.46633e-05
8.37219e-05
7.55766e-05
8.58154e-05
8.33074e-05
8.61385e-05
7.58555e-05
7.76859e-05
8.39321e-05
8.3779e-05
7.81749e-05
8.24837e-05
8.46599e-05
8.29103e-05
9.38214e-05
8.47203e-05
8.77201e-05
8.16009e-05
8.25152e-05
8.15578e-05
0.000105028
8.25233e-05
8.53637e-05
8.4859e-05
0.000172216
8.23808e-05
9.09021e-05
7.37294e-05
7.81289e-05
8.09562e-05
8.59764e-05
9.9699e-05
0.0250567
8.29501e-05
0.153657
8.37763e-05
0.0581957
8.31958e-05
8.35907e-05
0.000176018
8.21509e-05
0.000131379
8.36343e-05
8.31041e-05
8.40309e-05
8.51846e-05
8.65815e-05
0.000120101
8.34589e-05
8.22156e-05
0.00464382
8.49744e-05
8.33106e-05
0.0435406
0.355882
8.08688e-05
8.43992e-05
8.31243e-05
8.39904e-05
8.64032e-05
8.88903e-05
0.0108743
8.06723e-05
0.0107783
8.51655e-05
8.54092e-05
9.5375e-05
7.99566e-05
8.45947e-05
8.19347e-05
8.44963e-05
9.29997e-05
8.5616e-05
7.98926e-05
8.75407e-05
8.34785e-05
8.75978e-05
8.31415e-05
7.97925e-05
8.1955e-05
8.49403e-05
8.6235e-05
8.1706e-05
8.22176e-05
0.00010656
8.40795e-05
0.000527794
8.71953e-05
8.22435e-05
8.34293e-05
0.000121149
8.51251e-05
8.08967e-05
7.85999e-05
0.00170627
8.41398e-05
8.79616e-05
8.33201e-05
8.40958e-05
0.000102063
9.80478e-05
8.22558e-05
0.00013228
0.000385975
8.21312e-05
8.07579e-05
8.41703e-05
8.31906e-05
8.18459e-05
0.000116614
8.5118e-05
0.000186995
8.55828e-05
8.42145e-05
8.47293e-05
8.4954e-05
8.24475e-05
9.04109e-05
9.81659e-05
7.89678e-05
8.33953e-05
7.96805e-05
0.000104276
8.26767e-05
8.35951e-05
8.65805e-05
0.000151162
8.19978e-05
8.1717e-05
8.16721e-05
7.95145e-05
8.19575e-05
8.33233e-05
8.33178e-05
9.71341e-05
8.47397e-05
9.0443e-05
8.60091e-05
8.48572e-05
8.39983e-05
8.16264e-05
8.16043e-05
9.41245e-05
8.46695e-05
7.92576e-05
9.08078e-05
7.95866e-05
0.000113841
8.08234e-05
8.22792e-05
0.000114773
8.61075e-05
8.66175e-05
8.36519e-05
8.18759e-05
0.000339013
8.16903e-05
9.20141e-05
8.94597e-05
8.65413e-05
7.40264e-05
8.34992e-05
8.34688e-05
8.18293e-05
0.000100883
8.34774e-05
7.91803e-05
7.88921e-05
8.19027e-05
8.30002e-05
9.23132e-05
8.42143e-05
8.47593e-05
9.74575e-05
8.23149e-05
8.53587e-05
8.53868e-05
8.49049e-05
8.4352e-05
8.3854e-05
8.43673e-05
8.50874e-05
8.72657e-05
8.37605e-05
0.000109073
8.46658e-05
0.00581572
8.06926e-05
8.44811e-05
8.35208e-05
9.35426e-05
0.000102193
9.97052e-05
9.30099e-05
0.000115522
0.000109639
8.19601e-05
8.6178e-05
8.22049e-05
8.57992e-05
8.39452e-05
8.31463e-05
8.35061e-05
8.31937e-05
8.15786e-05
7.87455e-05
8.5364e-05
0.0728073
8.51191e-05
8.29593e-05
8.6365e-05
8.62239e-05
8.41086e-05
8.34101e-05
9.04419e-05
0.000121852
0.000287493
8.55967e-05
0.00069907
9.00136e-05
8.72716e-05
8.5394e-05
7.93328e-05
7.69912e-05
8.27831e-05
8.00369e-05
8.16125e-05
8.56495e-05
0.00225169
8.08353e-05
8.74672e-05
8.50483e-05
8.43603e-05
8.15305e-05
8.54302e-05
9.93369e-05
8.0383e-05
8.39171e-05
8.44713e-05
8.40697e-05
7.86137e-05
8.63293e-05
9.37127e-05
0.000165222
9.29056e-05
9.24909e-05
8.32716e-05
8.74211e-05
8.62106e-05
0.000186325
0.000138132
8.48824e-05
0.307647
8.04811e-05
8.16014e-05
8.43015e-05
8.01434e-05
8.49568e-05
8.23741e-05
7.65311e-05
0.000149877
8.47466e-05
8.67735e-05
7.952e-05
8.37185e-05
8.49417e-05
8.23629e-05
8.20305e-05
8.34577e-05
7.74925e-05
8.19292e-05
0.000616704
8.42062e-05
8.48471e-05
8.24048e-05
8.38887e-05
9.48565e-05
8.29625e-05
8.83301e-05
8.25316e-05
8.38758e-05
8.35169e-05
8.46478e-05
7.81752e-05
8.36683e-05
8.48967e-05
8.81123e-05
8.39709e-05
8.45509e-05
0.000110192
8.07752e-05
8.3889e-05
8.5754e-05
0.190339
0.0316501
8.39385e-05
8.35817e-05
8.42324e-05
8.52566e-05
9.31879e-05
8.30548e-05
8.07767e-05
8.27855e-05
8.19261e-05
7.77281e-05
8.48099e-05
7.88946e-05
8.13176e-05
8.57702e-05
9.91745e-05
8.24354e-05
8.28523e-05
8.23815e-05
8.29545e-05
0.000671822
8.51383e-05
8.30037e-05
7.77316e-05
8.04076e-05
0.000135951
8.42932e-05
8.46696e-05
7.88723e-05
7.81989e-05
7.84628e-05
0.112184
8.46565e-05
8.30372e-05
9.66695e-05
8.54249e-05
0.000877425
8.59163e-05
8.12588e-05
8.34238e-05
8.84687e-05
8.19716e-05
7.89213e-05
8.52174e-05
8.15539e-05
9.12978e-05
8.86691e-05
8.84645e-05
8.25273e-05
8.31718e-05
8.72953e-05
7.91886e-05
8.40791e-05
7.78306e-05
8.12762e-05
8.2709e-05
0.276484
8.50211e-05
0.00010167
8.43102e-05
8.15293e-05
8.3279e-05
8.1161e-05
8.54205e-05
8.2959e-05
8.23893e-05
0.00011393
8.49832e-05
8.38563e-05
0.00040826
8.14031e-05
0.0117649
8.37437e-05
8.29264e-05
8.32596e-05
8.50868e-05
8.765e-05
0.077235
8.46378e-05
8.29387e-05
8.38283e-05
0.00503704
8.60751e-05
9.6703e-05
8.27635e-05
0.000240246
0.000140166
9.67502e-05
8.60752e-05
8.54119e-05
8.3651e-05
8.20266e-05
8.27972e-05
8.63829e-05
8.4969e-05
8.5397e-05
8.52868e-05
0.000225472
8.38549e-05
8.24448e-05
0.000105059
8.12606e-05
8.49906e-05
8.41392e-05
8.42081e-05
0.00258051
8.4202e-05
8.33586e-05
7.86971e-05
0.0470268
8.34365e-05
9.53692e-05
8.29645e-05
0.000117769
8.47203e-05
0.000168875
0.00121162
0.000694552
8.66139e-05
0.00170718
8.52976e-05
7.72604e-05
0.00021509
7.79618e-05
7.91515e-05
8.26918e-05
8.17223e-05
8.5007e-05
8.44474e-05
8.18697e-05
8.04928e-05
8.49343e-05
8.3055e-05
8.2533e-05
8.81484e-05
8.51004e-05
8.58702e-05
0.000267946
8.67527e-05
0.000210062
0.00157738
8.36448e-05
8.34634e-05
0.0100624
0.000330054
0.000451744
8.69e-05
8.39719e-05
8.18023e-05
8.33237e-05
8.38461e-05
8.30493e-05
7.99551e-05
8.31486e-05
0.000171804
8.4396e-05
8.53017e-05
0.000150807
8.69793e-05
0.00255976
8.49067e-05
8.40872e-05
8.69839e-05
8.38766e-05
9.91293e-05
8.61278e-05
8.32553e-05
8.0886e-05
8.30304e-05
8.55964e-05
8.26314e-05
8.44264e-05
8.74693e-05
7.96121e-05
8.26386e-05
8.27293e-05
0.000100142
8.76952e-05
0.000157111
8.90477e-05
8.36794e-05
0.000225701
8.32287e-05
8.43103e-05
0.0001119
8.09688e-05
8.40588e-05
8.37392e-05
0.000104541
9.15228e-05
8.10709e-05
0.000109267
8.746e-05
8.31659e-05
8.43444e-05
8.37833e-05
8.62396e-05
8.58285e-05
8.59062e-05
0.000202515
8.50932e-05
8.30802e-05
8.26503e-05
8.43439e-05
0.000107578
0.000298629
0.000126432
8.54508e-05
8.65608e-05
8.54526e-05
8.37569e-05
9.48146e-05
8.30226e-05
8.13365e-05
0.000125131
8.84426e-05
8.32215e-05
9.16689e-05
8.19645e-05
8.70045e-05
8.42147e-05
9.77487e-05
8.21425e-05
8.25302e-05
8.52217e-05
0.000164895
8.16533e-05
8.53079e-05
9.45008e-05
8.20036e-05
8.37209e-05
8.49969e-05
8.25319e-05
8.07411e-05
8.13611e-05
8.45367e-05
8.28908e-05
8.77541e-05
0.000105517
9.56835e-05
9.27932e-05
8.97792e-05
7.89195e-05
8.3503e-05
8.86098e-05
7.95788e-05
8.3467e-05
9.23331e-05
8.67123e-05
8.45323e-05
8.46918e-05
8.37161e-05
0.00114493
8.16143e-05
8.01103e-05
9.01861e-05
8.54863e-05
7.97934e-05
7.65885e-05
8.66404e-05
8.12919e-05
8.46256e-05
8.30703e-05
8.37438e-05
8.39729e-05
8.54529e-05
7.71171e-05
9.5283e-05
8.49189e-05
8.33099e-05
8.50448e-05
8.21009e-05
0.000119513
8.23776e-05
8.793e-05
8.32114e-05
0.000394629
8.39534e-05
0.000114252
8.14879e-05
0.844676
8.50142e-05
8.14209e-05
8.22152e-05
8.99642e-05
9.09332e-05
8.82918e-05
8.31506e-05
8.06628e-05
0.000530296
0.000103669
9.53888e-05
9.01972e-05
8.17971e-05
8.20256e-05
8.30572e-05
8.07608e-05
8.11756e-05
8.48924e-05
0.0818267
8.28597e-05
8.49065e-05
9.24541e-05
8.58097e-05
8.53998e-05
8.66677e-05
8.189e-05
8.16711e-05
8.2342e-05
8.28257e-05
9.27526e-05
7.84771e-05
8.61436e-05
8.21057e-05
0.000118216
0.000254056
8.37476e-05
8.35117e-05
0.000168679
8.15568e-05
8.20445e-05
8.13631e-05
8.43234e-05
8.40635e-05
8.47135e-05
0.00015127
8.24177e-05
8.44681e-05
0.000465878
8.31785e-05
0.000107941
8.40235e-05
8.06581e-05
8.26264e-05
8.28104e-05
9.78122e-05
8.334e-05
0.000215002
0.000329139
0.00010714
0.000193845
8.57549e-05
8.32176e-05
8.4007e-05
9.08022e-05
8.47004e-05
8.39184e-05
8.50035e-05
8.21924e-05
8.34426e-05
8.3615e-05
8.59488e-05
8.53332e-05
8.40217e-05
0.0191552
8.93153e-05
9.81966e-05
8.4634e-05
8.48165e-05
9.07468e-05
8.78266e-05
8.40353e-05
0.000215514
8.22077e-05
8.48708e-05
7.98277e-05
8.978e-05
0.00100587
9.90681e-05
8.13098e-05
0.000126656
8.7975e-05
0.00017398
8.30271e-05
0.000102156
8.30138e-05
7.93689e-05
8.7096e-05
8.02986e-05
0.000164494
7.95962e-05
9.19278e-05
0.000124821
0.000103618
0.000115916
7.92194e-05
8.20263e-05
7.6363e-05
8.29128e-05
8.78804e-05
8.52573e-05
9.26896e-05
8.59405e-05
8.3716e-05
9.16569e-05
7.97537e-05
8.29138e-05
0.00010374
8.68656e-05
0.230205
9.91815e-05
8.22131e-05
8.34119e-05
7.7132e-05
7.65276e-05
0.000101652
8.52086e-05
8.4179e-05
0.000127226
0.000102962
8.28145e-05
0.000127471
7.7452e-05
8.35696e-05
7.86027e-05
8.28968e-05
0.000101799
8.31549e-05
8.56284e-05
8.27201e-05
8.75575e-05
9.4326e-05
7.74124e-05
8.51706e-05
0.00921324
7.87232e-05
8.674e-05
9.09077e-05
7.99279e-05
7.91118e-05
0.000172886
7.67296e-05
8.2245e-05
8.10571e-05
9.38048e-05
8.54449e-05
8.34437e-05
0.000140411
0.00187419
0.000213045
0.00632179
8.90143e-05
9.66739e-05
8.29694e-05
8.01703e-05
0.000102898
8.32623e-05
0.000290076
8.61582e-05
9.60481e-05
9.34298e-05
0.000127088
8.42858e-05
8.14586e-05
7.84168e-05
8.5465e-05
8.33394e-05
8.26912e-05
0.000305823
8.44204e-05
7.81409e-05
8.23191e-05
0.00122005
0.000127281
7.71807e-05
0.000224075
9.19582e-05
0.00017798
9.8013e-05
0.000103885
7.4912e-05
0.0001228
0.000102887
8.39213e-05
8.56557e-05
8.38731e-05
8.41139e-05
0.000124999
9.81984e-05
7.97512e-05
0.000104084
0.000134594
0.000111328
8.91507e-05
0.000150635
7.82519e-05
8.50308e-05
0.000110595
0.126261
8.6685e-05
0.0140705
8.01523e-05
8.08597e-05
8.31566e-05
8.31876e-05
0.0190213
8.21921e-05
8.2509e-05
8.43042e-05
8.26415e-05
0.000185924
8.08757e-05
8.4532e-05
8.33462e-05
7.73984e-05
8.93839e-05
8.01789e-05
8.23474e-05
8.17914e-05
0.000157542
0.000214829
8.39142e-05
0.0749018
8.13528e-05
8.37224e-05
8.79014e-05
0.000740252
8.41001e-05
0.000279945
8.81172e-05
0.000171862
0.000494475
0.000180306
0.000146241
0.000101923
8.88192e-05
8.45177e-05
8.33409e-05
8.10394e-05
0.0443709
7.96566e-05
9.79579e-05
0.000528037
0.000120762
0.000208178
8.54977e-05
7.82919e-05
8.18141e-05
8.25948e-05
7.87072e-05
8.80704e-05
0.000262552
8.11523e-05
0.000156525
8.63418e-05
0.000726082
0.116091
9.45047e-05
7.97155e-05
0.00660869
8.17815e-05
0.000192697
8.84969e-05
0.00013388
0.000123394
0.0884834
8.12866e-05
0.000154315
8.34566e-05
8.4568e-05
8.57939e-05
8.52058e-05
8.7873e-05
8.189e-05
8.26519e-05
0.0648351
8.24994e-05
8.37123e-05
0.000101536
9.12925e-05
0.000100592
0.00606166
8.32885e-05
0.0495247
0.000115506
9.79142e-05
8.00895e-05
8.67648e-05
0.000762722
8.03877e-05
8.25032e-05
8.01021e-05
8.51106e-05
8.11564e-05
0.172309
0.112422
0.0841986
8.80312e-05
9.72771e-05
0.0773095
9.24675e-05
8.41458e-05
9.364e-05
7.7345e-05
7.7798e-05
0.0030757
0.000138021
8.14013e-05
0.0177303
8.44147e-05
8.48657e-05
7.8243e-05
8.5677e-05
9.61068e-05
8.4351e-05
0.000118373
8.15693e-05
8.40985e-05
8.72597e-05
0.000104305
0.000100008
8.25001e-05
8.5938e-05
8.30719e-05
8.61649e-05
8.48109e-05
8.4435e-05
8.79602e-05
0.000873778
8.41041e-05
8.23806e-05
9.17704e-05
8.3264e-05
8.43449e-05
8.28164e-05
8.37572e-05
0.000106562
0.000267137
0.000223874
9.18436e-05
0.000219077
8.62569e-05
9.1741e-05
8.69846e-05
0.018103
0.000105562
8.3678e-05
0.000234903
8.30092e-05
8.38324e-05
8.49071e-05
9.11459e-05
8.25409e-05
0.000188298
0.000663884
0.0001206
0.000567515
8.29293e-05
9.96742e-05
0.000864314
0.000814035
8.44145e-05
8.91527e-05
9.10884e-05
0.000174926
6.90104e-05
0.00101468
8.72046e-05
8.34121e-05
9.74241e-05
0.0165251
9.16408e-05
0.000150531
8.40863e-05
0.000676135
8.36723e-05
8.55728e-05
0.0564137
8.70796e-05
9.20129e-05
8.56624e-05
0.000144627
0.00161971
8.62805e-05
8.49388e-05
9.8134e-05
8.32216e-05
8.3942e-05
9.53615e-05
9.51458e-05
0.000115297
8.22395e-05
8.4726e-05
8.25055e-05
0.000475832
7.91328e-05
8.14677e-05
8.35635e-05
8.47043e-05
8.29181e-05
8.22979e-05
8.38083e-05
7.43661e-05
0.000151903
8.33853e-05
8.05736e-05
8.62841e-05
8.56713e-05
8.07895e-05
0.000106359
8.55943e-05
7.69347e-05
0.000442772
7.65579e-05
8.07225e-05
8.44867e-05
8.44858e-05
8.27155e-05
7.92982e-05
8.30863e-05
8.57815e-05
8.44736e-05
0.000132482
8.46979e-05
8.35803e-05
0.0363246
8.6345e-05
7.70004e-05
0.000120448
0.000128309
9.14894e-05
7.96672e-05
8.19426e-05
7.84337e-05
0.000321783
8.42313e-05
0.000968152
0.330306
9.37346e-05
8.17236e-05
0.0074905
8.41024e-05
8.29934e-05
7.891e-05
9.13883e-05
8.17973e-05
0.000149697
0.00175626
8.28894e-05
9.02381e-05
9.84406e-05
8.11776e-05
8.53546e-05
7.95798e-05
0.000231604
8.53958e-05
8.53923e-05
8.23635e-05
9.23616e-05
8.23462e-05
8.58563e-05
8.2487e-05
8.69066e-05
8.23845e-05
7.89205e-05
8.19948e-05
8.33144e-05
8.42065e-05
8.8551e-05
8.70906e-05
8.08231e-05
8.16353e-05
0.000836708
7.88106e-05
8.48861e-05
8.7218e-05
7.85308e-05
0.000150102
9.17527e-05
8.50977e-05
8.44237e-05
8.40395e-05
8.42682e-05
0.000365157
8.2205e-05
0.000256176
8.10924e-05
8.29612e-05
8.40025e-05
8.66555e-05
0.000835825
8.5125e-05
0.000222574
9.37398e-05
0.000921337
8.24986e-05
8.36821e-05
7.98847e-05
8.96139e-05
8.21569e-05
8.43969e-05
8.38227e-05
0.00010425
8.37472e-05
8.18045e-05
0.00245506
0.000251997
8.65494e-05
8.38991e-05
8.45083e-05
8.30845e-05
8.15511e-05
7.64709e-05
8.49757e-05
8.78196e-05
8.25203e-05
8.27374e-05
9.57499e-05
0.0001056
8.31382e-05
8.46885e-05
8.55578e-05
9.53689e-05
8.21085e-05
8.75511e-05
8.11661e-05
8.19565e-05
8.2054e-05
0.00133442
7.98149e-05
8.35036e-05
0.000144071
8.27886e-05
8.41687e-05
8.54725e-05
0.00121688
8.43886e-05
8.96776e-05
9.75965e-05
8.59315e-05
0.000121315
0.000149042
9.00222e-05
8.17107e-05
0.217773
0.000111038
7.96633e-05
9.9279e-05
0.000142837
0.207238
0.146357
0.235949
0.370088
7.95663e-05
0.51155
8.6176e-05
0.000158741
9.86238e-05
0.000452409
0.651848
7.96519e-05
9.04803e-05
0.488272
8.31083e-05
0.0284416
7.90566e-05
9.15993e-05
0.000251709
0.00224527
7.88276e-05
8.56534e-05
9.17334e-05
7.98089e-05
8.46686e-05
8.49899e-05
0.000287249
8.2341e-05
8.48509e-05
8.5539e-05
8.12503e-05
8.34522e-05
8.34408e-05
8.25783e-05
7.7324e-05
8.5085e-05
0.000123896
8.32482e-05
8.71145e-05
8.27076e-05
0.0436057
8.06973e-05
0.000190446
8.22401e-05
8.29116e-05
8.56223e-05
7.93591e-05
8.03545e-05
8.55014e-05
8.1637e-05
7.83421e-05
9.84081e-05
0.000105068
0.000393781
9.82493e-05
8.31632e-05
8.31474e-05
8.26464e-05
8.12212e-05
0.000100795
8.29714e-05
8.48318e-05
8.29966e-05
8.38981e-05
0.000148345
8.12197e-05
8.31141e-05
8.30591e-05
8.43459e-05
8.42904e-05
8.75737e-05
8.23481e-05
8.29774e-05
8.51723e-05
0.000213853
8.16466e-05
0.000795989
9.09062e-05
8.2158e-05
0.000129226
0.000105627
8.57795e-05
0.000102378
8.45359e-05
8.4528e-05
8.41621e-05
8.2218e-05
8.36767e-05
8.00152e-05
8.5717e-05
8.46995e-05
8.34637e-05
8.16787e-05
0.000231549
8.5082e-05
8.1573e-05
8.40413e-05
8.07549e-05
8.38012e-05
8.45024e-05
8.2858e-05
9.04969e-05
8.88767e-05
8.57985e-05
8.15705e-05
8.13009e-05
7.26038e-05
0.0290399
8.37236e-05
0.000478684
0.0416834
8.08209e-05
8.1886e-05
8.03659e-05
8.25458e-05
0.030556
8.26936e-05
8.52445e-05
8.49318e-05
8.38951e-05
0.0367531
8.21758e-05
8.577e-05
8.40834e-05
8.09942e-05
8.66947e-05
8.17257e-05
8.27657e-05
8.43795e-05
7.89253e-05
8.42614e-05
7.91297e-05
7.97391e-05
9.75381e-05
7.89549e-05
8.3107e-05
9.99379e-05
8.57136e-05
0.000108134
0.000762293
0.000175522
8.3786e-05
7.6766e-05
8.13167e-05
8.22328e-05
8.38879e-05
8.39239e-05
8.47959e-05
9.96506e-05
8.63878e-05
8.30253e-05
8.38194e-05
8.40797e-05
8.22407e-05
8.24468e-05
8.46068e-05
8.29725e-05
8.6635e-05
9.41715e-05
0.000131233
8.38416e-05
9.08621e-05
7.80799e-05
8.35688e-05
8.41006e-05
7.80354e-05
8.19451e-05
0.00345049
7.77128e-05
8.72914e-05
8.13505e-05
7.80108e-05
9.79028e-05
8.18375e-05
0.000153169
7.83009e-05
0.000164567
8.32818e-05
8.2165e-05
0.000101888
8.33923e-05
0.00275181
8.4253e-05
9.21593e-05
7.8759e-05
8.50095e-05
9.87263e-05
0.000127175
0.00011402
8.45419e-05
0.000103042
0.000118101
8.54246e-05
8.36238e-05
0.000171671
8.3721e-05
8.32199e-05
8.29811e-05
8.45502e-05
8.03679e-05
8.70734e-05
8.65732e-05
8.14478e-05
8.48457e-05
8.57133e-05
8.87835e-05
8.42298e-05
0.000101335
8.42862e-05
0.000117164
9.16916e-05
8.06604e-05
8.22457e-05
8.32866e-05
8.30218e-05
8.4089e-05
8.36172e-05
8.43125e-05
8.36519e-05
7.82686e-05
8.40607e-05
0.000102147
8.67464e-05
8.44626e-05
8.15124e-05
8.43708e-05
0.00102648
8.16925e-05
8.3875e-05
0.0677516
7.80536e-05
8.31965e-05
8.51286e-05
8.14896e-05
8.28794e-05
8.44976e-05
7.7253e-05
8.19394e-05
8.51155e-05
8.75753e-05
8.4375e-05
8.56957e-05
8.78038e-05
7.99581e-05
8.6227e-05
9.88216e-05
7.82142e-05
8.16796e-05
8.64363e-05
9.67653e-05
8.27773e-05
0.000120131
8.44265e-05
8.37289e-05
8.16266e-05
8.21066e-05
0.000101444
8.45226e-05
9.25753e-05
7.53501e-05
8.51629e-05
8.36633e-05
7.83645e-05
8.36496e-05
8.94812e-05
8.60909e-05
8.28373e-05
8.31181e-05
8.32947e-05
0.000102863
7.75062e-05
8.35971e-05
8.29872e-05
7.89285e-05
8.36651e-05
8.55555e-05
9.74868e-05
8.16634e-05
8.21073e-05
8.48326e-05
8.31245e-05
9.56666e-05
8.25088e-05
0.00598824
8.17915e-05
8.42763e-05
9.76313e-05
0.000261421
8.51976e-05
8.30991e-05
0.000229661
8.2748e-05
8.04895e-05
8.54271e-05
8.17877e-05
8.53267e-05
8.3021e-05
7.60516e-05
8.47261e-05
8.26495e-05
8.42166e-05
8.21716e-05
0.000149975
8.36809e-05
8.32079e-05
8.39554e-05
7.76897e-05
8.4157e-05
8.48965e-05
0.000446134
8.1048e-05
8.68011e-05
7.71571e-05
0.000235124
8.1507e-05
8.57652e-05
0.000125499
0.000408078
0.000362862
0.000108799
8.69931e-05
8.46193e-05
7.89625e-05
0.000108325
8.7883e-05
7.74623e-05
8.47673e-05
8.29454e-05
8.42198e-05
7.63605e-05
8.34256e-05
8.39754e-05
8.29944e-05
8.47072e-05
8.26046e-05
0.000101269
7.87632e-05
8.94871e-05
8.56868e-05
8.25545e-05
7.66025e-05
9.00373e-05
8.20328e-05
9.25504e-05
0.00010325
8.81154e-05
9.1999e-05
0.000108383
8.19016e-05
8.27402e-05
7.66017e-05
7.46039e-05
7.77625e-05
8.27284e-05
0.000103523
0.000135113
7.60514e-05
8.31089e-05
8.55408e-05
8.52472e-05
8.3425e-05
8.31855e-05
7.8067e-05
8.46552e-05
8.35266e-05
8.48878e-05
8.2357e-05
8.21259e-05
8.59874e-05
8.63508e-05
0.00010063
8.56592e-05
0.000129401
8.5103e-05
0.247617
8.51892e-05
8.46246e-05
7.39285e-05
0.00650321
9.87585e-05
8.25252e-05
8.24251e-05
8.33602e-05
8.12695e-05
8.24895e-05
0.0068859
7.82108e-05
8.03551e-05
8.27462e-05
7.73553e-05
8.34695e-05
8.18665e-05
8.29584e-05
7.8654e-05
8.09874e-05
8.30731e-05
8.36139e-05
8.73686e-05
8.37315e-05
8.24387e-05
0.000124574
8.40672e-05
8.40665e-05
9.34742e-05
8.54035e-05
7.81764e-05
8.21833e-05
0.000132256
0.0203277
0.000412683
8.31345e-05
8.20796e-05
8.18571e-05
0.000394238
8.20681e-05
0.000113988
8.60474e-05
0.00013663
8.66308e-05
8.28852e-05
8.4414e-05
0.160431
8.45536e-05
8.56632e-05
0.000175169
9.80659e-05
8.31764e-05
8.38314e-05
8.36145e-05
8.61856e-05
8.62663e-05
8.06036e-05
0.000132466
8.40591e-05
8.26957e-05
8.44745e-05
8.41351e-05
0.000104797
8.58616e-05
8.11745e-05
8.31992e-05
8.5521e-05
8.1813e-05
8.24728e-05
8.34154e-05
0.000147915
8.39925e-05
0.00011654
7.91933e-05
8.54731e-05
8.39529e-05
8.75041e-05
7.70766e-05
8.29356e-05
8.69001e-05
0.00102115
7.72933e-05
0.00106466
0.000106906
0.000106338
7.69806e-05
8.69246e-05
0.00220076
7.69931e-05
8.35652e-05
0.000110466
8.10473e-05
8.63056e-05
7.76607e-05
8.19268e-05
8.40248e-05
8.36524e-05
7.71934e-05
8.387e-05
8.42712e-05
8.24083e-05
8.01515e-05
0.0272171
7.61098e-05
8.25117e-05
7.66536e-05
8.56325e-05
8.27856e-05
8.23193e-05
8.30728e-05