/*--------------------------------*- C++ -*----------------------------------*\
| =========                 |                                                 |
| \\      /  F ield         | OpenFOAM: The Open Source CFD Toolbox           |
|  \\    /   O peration     | Version:  v2012                                 |
|   \\  /    A nd           | Website:  www.openfoam.com                      |
|    \\/     M anipulation  |                                                 |
\*---------------------------------------------------------------------------*/
FoamFile
{
    version     2.0;
    format      ascii;
    class       volScalarField;
    location    "2";
    object      nut;
}
// * * * * * * * * * * * * * * * * * * * * * * * * * * * * * * * * * * * * * //

dimensions      [0 2 -1 0 0 0 0];


internalField   nonuniform List<scalar> 
108993
(
9.40458e-05
8.87173e-05
7.13025e-05
9.70298e-05
9.72952e-05
5.33556e-05
8.43749e-05
7.75534e-05
9.671e-05
8.9574e-05
0.000102119
0.000101205
8.08928e-05
8.10253e-05
8.61716e-05
7.19281e-05
7.62793e-05
8.70809e-05
8.1852e-05
8.73085e-05
7.89632e-05
9.31692e-05
7.76541e-05
9.66066e-05
9.54938e-05
8.71909e-05
8.79712e-05
9.33762e-05
0.000104064
6.22592e-05
0.000105967
0.000100266
0.000100759
9.86873e-05
8.31128e-05
9.73272e-05
8.47564e-05
9.97445e-05
8.53587e-05
8.59471e-05
0.000109464
0.000103752
8.87588e-05
0.000119296
8.7103e-05
6.48312e-05
0.000102789
9.25092e-05
0.000112477
9.51515e-05
9.82849e-05
0.00010901
9.06283e-05
9.41737e-05
9.9659e-05
0.00010287
9.12443e-05
9.08597e-05
7.66348e-05
0.000104852
9.30249e-05
9.48153e-05
9.19989e-05
8.19243e-05
9.10312e-05
0.000104447
8.44554e-05
0.000100603
0.000108612
9.55825e-05
9.01962e-05
8.73476e-05
9.60784e-05
9.33574e-05
8.42176e-05
0.000102849
7.97098e-05
0.00011112
9.61194e-05
9.30557e-05
8.8121e-05
8.35643e-05
8.10938e-05
8.63032e-05
0.000103988
8.69523e-05
0.000104315
8.44459e-05
8.9007e-05
0.000102139
9.06613e-05
7.82325e-05
0.00010119
7.61445e-05
9.75623e-05
9.56461e-05
7.75717e-05
6.79235e-05
7.59909e-05
8.01976e-05
9.92202e-05
0.000111802
0.000108426
0.000103914
7.31511e-05
0.000102727
0.00010389
0.000109489
0.000102499
0.000104727
8.22901e-05
9.03168e-05
0.000106276
9.43997e-05
9.5932e-05
9.21989e-05
8.29973e-05
7.75335e-05
0.000108486
9.31138e-05
9.1217e-05
8.67294e-05
9.51414e-05
6.32044e-05
9.05226e-05
9.23947e-05
9.62024e-05
8.39823e-05
7.99262e-05
0.000102223
8.49287e-05
0.000101514
0.000105923
0.000197375
9.24152e-05
7.83524e-05
8.7995e-05
8.27343e-05
8.18002e-05
8.82525e-05
8.08919e-05
7.47561e-05
8.96201e-05
8.92673e-05
9.89008e-05
9.51053e-05
7.7356e-05
0.000145295
8.87011e-05
0.00011048
0.000102907
7.62261e-05
7.63757e-05
0.000143282
9.42717e-05
9.0213e-05
0.000110434
9.75418e-05
0.000130316
9.31134e-05
0.000125053
0.000167339
0.000105609
8.69939e-05
8.89442e-05
9.96929e-05
8.95645e-05
7.85974e-05
7.77858e-05
0.000107078
9.89015e-05
9.84862e-05
9.92669e-05
8.25946e-05
9.25555e-05
8.75403e-05
0.000196592
8.27927e-05
0.000100221
8.14791e-05
8.35488e-05
7.80804e-05
8.82313e-05
2.92939e-05
0.000108785
9.51268e-05
9.1147e-05
9.48836e-05
9.49362e-05
3.34289e-05
9.48556e-05
9.91984e-05
8.2801e-05
0.000137459
0.000100683
8.99048e-05
0.000105759
9.61702e-05
0.000102747
3.69485e-05
0.000100279
0.000104277
8.25095e-05
8.04097e-05
9.7904e-05
0.000176964
8.49701e-05
9.99605e-05
9.00902e-05
0.00159916
7.99491e-05
9.25515e-05
0.000194812
0.000331308
0.000462506
6.6046e-05
8.34773e-05
9.3655e-05
8.92063e-05
0.000113723
9.29965e-05
9.66308e-05
0.000110155
0.000133644
8.34637e-05
7.27226e-05
8.43544e-05
0.000104126
0.000121243
7.70668e-05
0.00010047
9.49313e-05
7.85784e-05
7.76154e-05
8.71295e-05
7.41892e-05
9.84677e-05
8.61633e-05
8.76691e-05
8.72406e-05
6.56454e-05
9.97082e-05
6.18225e-05
9.30621e-05
0.000104533
8.75477e-05
0.000660519
9.4377e-05
9.67007e-05
0.000103235
8.48051e-05
9.46026e-05
8.98033e-05
9.92501e-05
9.59937e-05
9.32181e-05
9.4316e-05
9.07165e-05
0.00010789
6.13749e-05
9.30201e-05
8.37643e-05
0.000104208
7.73068e-05
7.01194e-05
9.26474e-05
0.000103173
0.000108425
6.10412e-05
9.12746e-05
6.70802e-05
7.43745e-05
0.000135439
0.00260159
9.38722e-05
8.74505e-05
9.97421e-05
0.000108378
0.000102646
9.22074e-05
9.94072e-05
7.78177e-05
6.3899e-05
8.45425e-05
9.84427e-05
9.41024e-05
7.32647e-05
9.93008e-05
0.000106314
0.0001177
9.03749e-05
7.84121e-05
0.00010275
9.80172e-05
9.4031e-05
7.76239e-05
0.000106973
9.12863e-05
8.42826e-05
5.48233e-05
9.89212e-05
8.21266e-05
0.000100358
7.35789e-05
9.61236e-05
7.62752e-05
7.0099e-05
8.09734e-05
7.14403e-05
0.000181265
0.000100978
0.000100751
8.05216e-05
8.82715e-05
0.000102356
9.22137e-05
6.88436e-05
8.34052e-05
9.17381e-05
0.000109193
8.78847e-05
6.77678e-05
6.77041e-05
6.55972e-05
7.52534e-05
0.000326065
0.0019706
0.000133824
8.66094e-05
0.000105546
0.000112105
0.000120973
0.0017577
8.8599e-05
0.000315661
9.14461e-05
9.39542e-05
9.74593e-05
9.59425e-05
8.49444e-05
9.01254e-05
0.000125826
8.4993e-05
9.89953e-05
8.53117e-05
8.84855e-05
8.36114e-05
8.3433e-05
8.20748e-05
7.85647e-05
9.67763e-05
6.52469e-05
6.73527e-05
9.01916e-05
8.71321e-05
9.20074e-05
8.3754e-05
6.00079e-05
8.93381e-05
5.43826e-05
0.000112264
8.41646e-05
7.34275e-05
8.82256e-05
9.48037e-05
0.00010097
9.93989e-05
8.39937e-05
9.17011e-05
0.00582345
7.74589e-05
9.94389e-05
8.04302e-05
0.000669314
0.000114369
0.000247548
0.000102941
0.000124448
0.000146275
9.90482e-05
0.000122633
8.49459e-05
0.000103604
8.00138e-05
8.86626e-05
6.26286e-05
8.49782e-05
0.000226899
8.81441e-05
0.000104644
0.000505228
6.60054e-05
0.00042302
8.06063e-05
9.90116e-05
0.000127776
0.00175864
9.39155e-05
8.76579e-05
9.14312e-05
0.000125396
0.000284533
0.000126685
9.40744e-05
9.69878e-05
6.69006e-05
8.40058e-05
5.90309e-05
8.62503e-05
0.00145872
8.59352e-05
8.28549e-05
0.000370344
8.21596e-05
9.49687e-05
0.000104173
0.000755141
8.51113e-05
5.50487e-05
8.73455e-05
0.00113925
9.01711e-05
0.000570183
7.16689e-05
0.000100145
0.000561536
9.81214e-05
6.8328e-05
0.00169412
6.21177e-05
0.00102093
9.29625e-05
0.00104433
8.83842e-05
8.63233e-05
9.36831e-05
8.65537e-05
9.71363e-05
0.00010294
8.36223e-05
8.81923e-05
8.6575e-05
0.0001068
6.29844e-05
9.75463e-05
0.000102827
8.21927e-05
0.000102315
8.81164e-05
6.81959e-05
9.06971e-05
9.29002e-05
0.000101311
0.00011934
0.00011147
9.13863e-05
9.15805e-05
8.79667e-05
0.000110312
8.169e-05
9.59827e-05
9.08709e-05
8.37439e-05
0.000101033
9.12454e-05
7.05738e-05
7.92932e-05
9.16034e-05
6.66253e-05
8.14919e-05
7.11181e-05
9.8133e-05
9.67037e-05
8.83696e-05
0.00010608
9.823e-05
7.8542e-05
0.000101314
8.86923e-05
9.95707e-05
8.34047e-05
0.000108438
0.000103956
9.8817e-05
0.000113905
8.14856e-05
8.09997e-05
7.47197e-05
8.59563e-05
0.000103582
9.23753e-05
0.000101505
9.73065e-05
7.87736e-05
8.93927e-05
6.41174e-05
9.98938e-05
9.94244e-05
7.12846e-05
8.95416e-05
7.75721e-05
9.28158e-05
7.31795e-05
9.31448e-05
9.91809e-05
0.000103275
8.86045e-05
8.09982e-05
0.000126283
9.09644e-05
9.77897e-05
8.58979e-05
9.96728e-05
0.000105302
9.2088e-05
8.71519e-05
7.88452e-05
9.15211e-05
0.000106411
0.000110858
8.26099e-05
9.19186e-05
9.42169e-05
9.76023e-05
0.000106513
8.94317e-05
8.78587e-05
9.72162e-05
9.44641e-05
0.000104633
7.45996e-05
8.59376e-05
8.22531e-05
8.45916e-05
9.24272e-05
0.000105166
8.5238e-05
9.73526e-05
0.000101695
9.96158e-05
7.95205e-05
0.000126796
9.03084e-05
0.000105312
0.00010476
8.88802e-05
7.40986e-05
8.44364e-05
0.000103136
7.35482e-05
0.000130677
7.72881e-05
0.000235322
0.000111177
0.000102601
7.98791e-05
0.000100322
0.000106846
0.00145612
7.84592e-05
9.56488e-05
9.34949e-05
8.38784e-05
9.89007e-05
6.41441e-05
0.000122808
9.76497e-05
7.78324e-05
0.000122145
0.00010223
9.75455e-05
7.09228e-05
0.00288888
6.77011e-05
0.00010021
9.27636e-05
0.000108356
6.89513e-05
0.00284843
9.46227e-05
0.000105253
8.52287e-05
0.000106233
0.00011409
9.79763e-05
8.00255e-05
0.00011981
6.7969e-05
0.000103754
6.76986e-05
0.000110126
7.00724e-05
8.7473e-05
9.09782e-05
0.00291629
8.40851e-05
0.000113825
7.25089e-05
0.000105711
8.76582e-05
9.64256e-05
0.000104823
0.00287455
8.19987e-05
7.97072e-05
6.60334e-05
0.00266218
7.94204e-05
9.11053e-05
9.70038e-05
0.000189177
9.65864e-05
0.0001103
8.92798e-05
0.000113787
8.67696e-05
9.84129e-05
8.05991e-05
8.63354e-05
8.17473e-05
0.000112858
9.16713e-05
9.80491e-05
9.99907e-05
0.00010421
0.000103559
0.000110804
0.00010261
8.53008e-05
9.59155e-05
0.000118156
9.1252e-05
0.000100814
8.86168e-05
8.86804e-05
7.89699e-05
7.09255e-05
0.00034617
8.72865e-05
0.000100062
8.7532e-05
9.81995e-05
8.62802e-05
8.27529e-05
7.83882e-05
8.35248e-05
9.23603e-05
7.69732e-05
8.389e-05
8.90763e-05
9.48908e-05
7.87486e-05
0.000177876
5.82687e-05
0.000103663
9.07573e-05
0.000225803
5.05209e-05
8.94718e-05
5.48172e-05
4.38165e-05
9.35801e-05
7.11128e-05
9.00119e-05
8.0837e-05
0.000127515
7.40675e-05
0.000100762
0.000188666
9.54772e-05
0.000109403
0.000111358
0.000106004
6.59966e-05
6.04252e-05
0.000109531
9.96021e-05
6.04299e-05
9.38282e-05
0.000103982
8.61306e-05
0.000100972
9.00041e-05
9.60265e-05
5.99561e-05
0.000126323
0.000111275
5.9911e-05
6.04221e-05
0.00270404
8.8226e-05
9.15779e-05
9.81795e-05
7.52519e-05
9.83536e-05
0.00662158
8.72138e-05
9.08891e-05
7.41012e-05
0.000466839
0.000124469
9.13797e-05
5.48068e-05
5.8891e-05
0.000115387
6.2822e-05
9.70133e-05
8.08558e-05
9.70833e-05
8.21429e-05
9.52483e-05
0.000100316
0.00010426
0.000102342
0.000126333
7.2709e-05
0.000104437
9.27875e-05
6.99094e-05
0.000100815
0.000102434
9.7198e-05
0.000117616
8.06295e-05
8.20858e-05
9.70884e-05
0.000101917
7.45345e-05
9.85056e-05
9.82982e-05
8.97134e-05
9.35396e-05
7.44818e-05
8.27297e-05
9.9134e-05
7.50346e-05
0.00010839
7.66249e-05
9.70099e-05
0.000111631
8.20848e-05
6.96599e-05
0.00010069
8.77971e-05
0.000101629
0.000104265
0.000108835
0.000119878
9.87261e-05
0.000128741
0.000100469
6.85858e-05
7.88113e-05
0.000114751
7.07078e-05
8.17987e-05
7.3979e-05
0.00010465
0.000112345
8.36001e-05
9.0816e-05
8.91185e-05
0.000116684
8.99851e-05
6.20945e-05
0.000100755
0.000100035
8.38606e-05
9.83257e-05
9.71156e-05
8.50917e-05
9.4605e-05
9.63401e-05
0.000105365
8.88619e-05
0.000112212
9.07784e-05
0.00347691
8.25347e-05
8.49667e-05
6.10515e-05
0.000236307
9.78985e-05
8.95782e-05
9.08369e-05
0.000117836
9.28119e-05
7.37283e-05
9.67655e-05
6.23289e-05
9.27833e-05
7.97205e-05
8.98641e-05
9.00155e-05
0.000105254
0.000115989
9.95378e-05
0.000102797
0.000406533
0.00010156
8.21748e-05
8.51769e-05
0.000102304
8.78467e-05
9.73571e-05
0.000101332
9.72731e-05
8.87541e-05
7.91124e-05
8.26044e-05
9.40796e-05
9.43861e-05
9.47292e-05
7.03425e-05
7.61451e-05
0.000456397
7.24229e-05
9.21292e-05
0.00186768
7.40017e-05
0.000852934
7.62714e-05
9.11935e-05
9.79264e-05
0.00338572
8.27208e-05
7.41092e-05
7.79778e-05
7.57821e-05
0.000112503
9.12439e-05
0.00010357
9.3934e-05
0.000116377
8.29632e-05
7.45405e-05
9.06478e-05
7.20595e-05
0.000112242
0.000105996
7.49741e-05
0.000105828
8.61361e-05
0.000112496
9.34595e-05
9.40224e-05
9.12168e-05
0.000101111
0.00118292
9.43611e-05
0.00111579
9.47043e-05
0.00126624
9.89106e-05
9.4419e-05
5.60001e-05
8.86009e-05
9.33653e-05
0.000117522
5.71389e-05
6.41437e-05
8.66905e-05
9.16547e-05
6.1432e-05
8.66876e-05
0.000100784
9.12024e-05
7.31087e-05
0.00010233
8.42646e-05
7.88564e-05
8.60528e-05
7.95577e-05
6.94812e-05
8.79419e-05
8.36711e-05
0.000100912
9.80614e-05
8.60272e-05
7.4928e-05
5.03027e-05
6.2619e-05
7.83621e-05
9.46736e-05
9.18466e-05
0.00107124
8.84155e-05
0.00273326
8.58678e-05
0.00229876
9.07251e-05
8.58345e-05
0.00010523
8.40636e-05
0.000109137
7.82893e-05
8.73549e-05
9.57187e-05
8.04588e-05
0.000116363
0.000108654
8.69249e-05
8.50473e-05
0.000470384
0.000103065
9.33745e-05
0.00165071
0.00530074
7.22589e-05
0.000102889
9.1948e-05
9.53328e-05
0.000121625
0.00010839
0.000897739
7.66479e-05
0.000873682
9.67278e-05
0.000108672
8.96707e-05
7.38488e-05
0.000101983
8.58101e-05
0.00010468
0.00010243
0.000104982
7.35884e-05
0.000115925
9.14694e-05
6.38101e-05
7.88675e-05
7.35218e-05
7.78971e-05
0.000100614
0.000119611
8.08179e-05
8.59311e-05
9.06111e-05
9.90092e-05
0.000152574
7.80279e-05
8.45311e-05
7.79082e-05
0.000103516
9.42176e-05
7.58486e-05
6.76236e-05
0.000354879
0.000104458
9.17581e-05
9.45455e-05
9.82092e-05
8.66712e-05
0.000103204
8.59222e-05
0.000113617
0.000182242
8.72103e-05
6.61111e-05
9.7327e-05
8.23198e-05
8.23575e-05
9.59137e-05
0.000105288
9.96969e-05
8.40357e-05
0.000100809
9.55744e-05
8.99599e-05
8.70994e-05
7.218e-05
9.93506e-05
6.90609e-05
9.07045e-05
6.83472e-05
8.31158e-05
8.66048e-05
9.79239e-05
9.68902e-05
9.89716e-05
8.28458e-05
8.14759e-05
8.41576e-05
7.19686e-05
8.62607e-05
9.55007e-05
9.50704e-05
9.23245e-05
0.000103857
9.27488e-05
7.81497e-05
0.000101851
9.35078e-05
7.55227e-05
8.21488e-05
7.71689e-05
8.58147e-05
6.93732e-05
0.000100769
7.19199e-05
0.00010047
7.68169e-05
8.71327e-05
9.51257e-05
9.47824e-05
0.000122586
8.92668e-05
8.1378e-05
0.000151151
8.24981e-05
9.57911e-05
9.44258e-05
0.000102952
5.11015e-05
9.43738e-05
9.47208e-05
8.30378e-05
9.04207e-05
9.33775e-05
6.71138e-05
7.03335e-05
8.54643e-05
9.05135e-05
9.51192e-05
0.000101789
0.000104145
9.8588e-05
8.87598e-05
0.000110038
8.7248e-05
0.000105755
0.000101661
9.93465e-05
0.000100801
0.00010868
0.000132302
9.83403e-05
0.000105197
0.000103978
0.000727416
7.70474e-05
9.43722e-05
9.4711e-05
0.000109334
0.000102556
8.64489e-05
8.13275e-05
9.88832e-05
9.88034e-05
8.42479e-05
9.20384e-05
8.61344e-05
9.95839e-05
9.1789e-05
6.52271e-05
9.37658e-05
9.02203e-05
8.26221e-05
6.62768e-05
0.000105074
0.00217319
8.74931e-05
9.05767e-05
0.0001097
0.000115322
8.61644e-05
8.51548e-05
8.04924e-05
9.6759e-05
0.000149427
0.000110282
0.0002254
0.000127718
0.000106579
0.000111571
7.09923e-05
5.99661e-05
8.77085e-05
7.42162e-05
8.49514e-05
9.30019e-05
0.000414129
7.64204e-05
9.803e-05
9.8649e-05
0.000100882
7.40836e-05
9.91038e-05
9.66883e-05
7.70408e-05
9.00912e-05
0.000102382
9.94957e-05
6.26737e-05
0.000116252
0.00010388
0.000106469
9.05055e-05
9.60049e-05
9.34014e-05
0.000132566
0.000119293
0.000128173
0.000109579
0.000108221
0.00471682
7.17885e-05
7.90391e-05
0.000101531
7.54366e-05
0.000104948
8.76724e-05
5.92555e-05
9.75768e-05
0.000107041
0.00012465
6.976e-05
9.55306e-05
0.000106638
8.68595e-05
8.5258e-05
9.07756e-05
6.25234e-05
8.39528e-05
0.000161618
9.98571e-05
9.80846e-05
8.28433e-05
9.82924e-05
7.75512e-05
9.09919e-05
8.78007e-05
8.79514e-05
9.78726e-05
8.40165e-05
9.99247e-05
6.39042e-05
9.41425e-05
0.000107771
0.000103509
9.90265e-05
0.000100412
8.52045e-05
6.04579e-05
9.68465e-05
0.000112105
0.0038312
0.00170345
9.88247e-05
9.49731e-05
0.0001003
0.00011029
7.61504e-05
9.15687e-05
6.37403e-05
8.88323e-05
7.96684e-05
5.74734e-05
0.000101379
6.89941e-05
8.09875e-05
0.000109786
9.04702e-05
6.96419e-05
8.28735e-05
8.63136e-05
8.70176e-05
0.000225532
0.000106409
8.68304e-05
6.44484e-05
7.59512e-05
0.000120022
0.000101163
9.33317e-05
6.84498e-05
6.58524e-05
6.67172e-05
0.00322906
9.03528e-05
8.85259e-05
8.80751e-05
0.000111624
0.000247452
8.60732e-05
8.12499e-05
9.68705e-05
5.79224e-05
8.21709e-05
6.85906e-05
0.000109556
8.60233e-05
0.000108994
8.89039e-05
0.000100884
9.13723e-05
8.646e-05
9.14857e-05
6.92412e-05
9.84948e-05
6.34828e-05
7.9598e-05
8.82303e-05
0.0047607
9.67276e-05
9.07603e-05
9.88703e-05
7.85745e-05
9.46056e-05
7.86796e-05
8.92446e-05
9.03979e-05
8.53267e-05
9.70717e-05
9.89783e-05
9.14039e-05
0.000176877
8.50496e-05
0.000805457
9.7172e-05
8.96446e-05
9.08289e-05
0.000106704
8.34876e-05
0.00235328
0.000100083
7.77302e-05
9.81424e-05
0.000580455
0.000118017
8.54709e-05
8.59915e-05
0.000101983
0.000112686
0.000133292
0.000115907
0.000108404
9.35591e-05
7.60236e-05
9.18309e-05
0.000117227
0.000108939
0.000108701
9.9071e-05
0.000148387
9.66809e-05
8.73691e-05
9.30554e-05
7.95789e-05
9.70406e-05
0.000102395
0.000100681
0.000414704
9.88474e-05
8.6186e-05
6.56109e-05
0.0020485
9.45106e-05
9.31414e-05
9.00974e-05
9.68576e-05
0.000101934
8.41676e-05
0.000200255
0.00015953
8.23466e-05
0.000266521
0.00010392
5.22163e-05
0.000104556
6.34386e-05
6.9933e-05
8.78424e-05
8.30955e-05
0.000107957
9.90199e-05
8.10812e-05
7.6737e-05
8.16881e-05
9.03155e-05
8.57511e-05
0.000108379
0.000107184
0.000111494
0.000144132
0.0001062
0.000122066
0.000314496
9.41456e-05
9.59668e-05
0.000471902
0.000156389
0.000195075
8.98827e-05
9.65765e-05
8.21047e-05
9.33344e-05
9.26576e-05
9.28562e-05
7.52977e-05
9.0562e-05
0.000118459
9.30711e-05
9.73131e-05
0.000101244
0.000113869
0.000525128
0.000103387
9.11409e-05
0.000113576
8.72743e-05
8.83432e-05
0.000103562
9.26931e-05
6.91468e-05
9.32064e-05
0.000102355
8.6634e-05
9.02922e-05
0.000110216
7.17201e-05
8.91158e-05
9.20584e-05
0.000103317
0.000120347
0.000111949
0.000103223
9.72024e-05
0.000148993
8.87206e-05
9.98883e-05
8.4595e-05
7.77551e-05
0.000100563
9.17754e-05
0.000101578
0.000118816
7.7376e-05
9.7155e-05
8.53162e-05
9.14929e-05
0.000101295
9.52155e-05
0.000106409
0.000105826
0.000116543
0.000128856
0.000104596
9.11521e-05
8.2206e-05
0.000100212
8.26813e-05
0.00012426
9.90294e-05
9.06796e-05
9.84014e-05
0.000109269
9.73175e-05
9.90521e-05
8.68563e-05
7.23691e-05
9.67141e-05
0.000102182
9.20286e-05
9.26086e-05
8.03456e-05
0.000113102
9.95487e-05
8.91605e-05
8.74163e-05
8.60265e-05
8.46767e-05
0.000133207
8.10009e-05
0.000103685
8.58297e-05
8.17941e-05
9.16859e-05
9.93129e-05
8.55099e-05
7.62418e-05
8.18855e-05
0.000100685
8.58502e-05
7.75779e-05
0.00012577
0.000111145
0.000104068
8.66702e-05
6.74526e-05
9.485e-05
9.61979e-05
7.27185e-05
8.99851e-05
7.1741e-05
0.000120487
9.48628e-05
0.000104187
9.60201e-05
0.000175375
8.32613e-05
7.36075e-05
7.06771e-05
0.000105795
7.06206e-05
5.83761e-05
9.42848e-05
7.99776e-05
5.99465e-05
7.56901e-05
9.58841e-05
9.75313e-05
9.0638e-05
6.2176e-05
9.44757e-05
0.000106933
8.20887e-05
9.20724e-05
8.42911e-05
0.000112907
8.29818e-05
7.33837e-05
8.15886e-05
0.000224897
9.80998e-05
7.94752e-05
8.16283e-05
0.00819645
0.000108825
8.2742e-05
8.01734e-05
7.65809e-05
8.52845e-05
0.000100075
9.39949e-05
7.64862e-05
0.000211948
9.60886e-05
8.88195e-05
8.36901e-05
7.01158e-05
8.50027e-05
9.11371e-05
6.97598e-05
8.02013e-05
0.000105283
0.00123985
8.65426e-05
0.000107048
8.22319e-05
0.000113806
9.76527e-05
8.80396e-05
8.43194e-05
8.14422e-05
8.83205e-05
8.86204e-05
8.77056e-05
6.62709e-05
9.70729e-05
8.58805e-05
0.000129174
0.000174111
9.9734e-05
9.55829e-05
0.0001244
8.32904e-05
8.62166e-05
8.18275e-05
7.21443e-05
8.99045e-05
8.70991e-05
0.000117158
8.79091e-05
0.00010095
0.000240137
8.96109e-05
7.0546e-05
9.51879e-05
7.88899e-05
9.08387e-05
8.93827e-05
6.49518e-05
9.32184e-05
9.93274e-05
0.000168492
9.51643e-05
9.16504e-05
8.81507e-05
8.6538e-05
8.24207e-05
9.49574e-05
0.000103311
9.92163e-05
0.000108245
8.09452e-05
8.85284e-05
9.37154e-05
0.00011687
0.000109313
9.57151e-05
0.00121304
8.62192e-05
0.000106199
0.000103691
0.000106337
0.000103721
8.09565e-05
0.000101772
0.000141449
8.62387e-05
0.000107467
7.21157e-05
9.51253e-05
0.000248013
9.77143e-05
7.92697e-05
8.7145e-05
9.63039e-05
0.000120358
9.15456e-05
0.000105934
7.8338e-05
7.0352e-05
8.92701e-05
7.6335e-05
0.000106643
6.90284e-05
0.000105678
8.84189e-05
9.44529e-05
8.52613e-05
6.39508e-05
7.95381e-05
5.73321e-05
8.65138e-05
9.41558e-05
8.66635e-05
8.34041e-05
0.000116033
9.47656e-05
0.000105327
7.25246e-05
9.0745e-05
8.57241e-05
0.000102889
0.00595262
7.34754e-05
7.89535e-05
9.27237e-05
5.94574e-05
5.92598e-05
7.44696e-05
9.60098e-05
9.02163e-05
0.000114331
9.09637e-05
9.14359e-05
0.000103157
6.45988e-05
9.50375e-05
6.62346e-05
9.04284e-05
9.22951e-05
8.10796e-05
0.000109074
8.80251e-05
8.72326e-05
8.05168e-05
6.03597e-05
0.000106453
0.00093296
6.67504e-05
0.000103044
9.24791e-05
6.76878e-05
6.75016e-05
9.59157e-05
5.9613e-05
8.64616e-05
7.82523e-05
8.57972e-05
0.000110519
9.39006e-05
0.000133994
0.00023861
0.000134483
0.000673742
0.000106051
8.9417e-05
9.07889e-05
6.49821e-05
0.000102701
8.84799e-05
0.000151203
0.000116103
9.91233e-05
9.28586e-05
0.000108417
9.87303e-05
7.50629e-05
6.69669e-05
0.00010754
9.25602e-05
8.80155e-05
0.000179037
9.72274e-05
6.58246e-05
8.39494e-05
0.000314171
0.000116381
5.99847e-05
0.000141157
9.67981e-05
0.00014263
0.000107847
0.000101389
5.4332e-05
9.00034e-05
0.000108771
9.92953e-05
0.00011046
6.54579e-05
9.93839e-05
8.15445e-05
8.51158e-05
7.19276e-05
9.99033e-05
0.000107213
7.70034e-05
9.88953e-05
0.000111555
6.62063e-05
8.10903e-05
9.99901e-05
0.00321152
0.00010735
0.00101383
7.33318e-05
7.78019e-05
9.17482e-05
9.0049e-05
0.00125146
8.52309e-05
8.74865e-05
9.205e-05
8.30931e-05
0.000108615
8.22579e-05
0.000100275
9.34539e-05
6.10847e-05
6.92232e-05
7.33643e-05
8.76742e-05
8.37459e-05
0.000104775
0.000158373
7.79262e-05
0.00298736
6.01262e-05
9.66781e-05
7.59125e-05
0.000279249
9.61644e-05
0.000138336
8.37858e-05
0.000160352
0.000195174
0.000168347
0.000116914
6.8113e-05
9.95496e-05
0.000103294
9.1162e-05
7.71622e-05
0.00186985
6.4977e-05
0.000107363
0.00017111
8.12986e-05
0.000138275
7.8262e-05
6.11954e-05
8.32458e-05
8.56727e-05
6.66291e-05
7.84514e-05
9.91532e-05
6.059e-05
8.45666e-05
7.44637e-05
0.000252076
0.00339969
9.69274e-05
7.04312e-05
0.000792964
8.18147e-05
0.000133999
0.000115785
0.000133472
0.000115447
0.00297068
7.92897e-05
9.82622e-05
9.31004e-05
8.71393e-05
0.000109509
0.000104616
8.83708e-05
8.0369e-05
8.91842e-05
0.00185529
8.66332e-05
8.7828e-05
0.000102053
6.31301e-05
9.25084e-05
0.000672372
9.10285e-05
0.00229478
9.88615e-05
8.84988e-05
7.28187e-05
8.22817e-05
0.00026498
7.36655e-05
8.77072e-05
7.43921e-05
0.000107316
7.62249e-05
0.00390155
0.00356387
0.00311257
9.19958e-05
9.37932e-05
0.00236457
9.43432e-05
8.18553e-05
8.54937e-05
6.39859e-05
6.48459e-05
0.000539739
7.94591e-05
6.47054e-05
0.0013269
0.000102481
0.000102583
6.65344e-05
0.000112255
9.58717e-05
0.000100414
0.000101647
7.8779e-05
9.48433e-05
8.02495e-05
9.02005e-05
0.000109991
8.69386e-05
0.000112607
8.90814e-05
9.33369e-05
8.46163e-05
0.000100495
8.89569e-05
0.000269718
9.83578e-05
8.79839e-05
9.11264e-05
8.80175e-05
8.69749e-05
8.80108e-05
8.79275e-05
9.1465e-05
0.000104486
0.000118186
0.000108275
0.000127589
9.47728e-05
0.000106863
8.55524e-05
0.00126421
8.81293e-05
9.64365e-05
0.000136241
9.09868e-05
9.62496e-05
9.15843e-05
9.29587e-05
8.65146e-05
9.58752e-05
0.00021881
0.000108136
0.000167357
9.12459e-05
9.59408e-05
0.000230082
0.000243923
0.000100186
0.000101265
0.000124553
0.000124613
0.000102012
0.000167997
6.5944e-05
9.37715e-05
9.57133e-05
0.00114922
9.42557e-05
0.000133795
8.48245e-05
0.000178565
9.71111e-05
0.000113791
0.0025333
0.000111804
9.11329e-05
9.4328e-05
0.000118499
0.000433112
9.6804e-05
9.40941e-05
0.000106046
9.41279e-05
9.56938e-05
9.18104e-05
9.98253e-05
9.68996e-05
9.08014e-05
9.64503e-05
8.69448e-05
0.000141329
6.72947e-05
8.21335e-05
9.41757e-05
8.4307e-05
9.0685e-05
8.649e-05
9.65733e-05
5.26269e-05
0.000108363
9.41903e-05
6.9495e-05
8.39782e-05
0.000112911
7.56189e-05
9.90072e-05
0.000113364
6.08471e-05
0.00017387
5.9348e-05
7.78205e-05
0.000104271
0.000101029
7.83068e-05
6.96618e-05
8.61002e-05
0.000116184
9.97935e-05
0.000116521
0.000104212
7.39422e-05
0.0019211
0.000119216
6.03982e-05
0.000111229
0.0001043
0.000119151
7.20251e-05
8.53525e-05
6.66798e-05
0.000187619
9.87459e-05
0.000314352
0.007128
8.88134e-05
8.39571e-05
0.000870445
9.99593e-05
8.81354e-05
6.84289e-05
9.86638e-05
8.28458e-05
0.000113015
0.000364262
9.06732e-05
9.15562e-05
8.55497e-05
7.09459e-05
9.4447e-05
7.09487e-05
0.000163941
0.000110562
0.00010864
8.89289e-05
9.57879e-05
8.71023e-05
0.000108691
8.85495e-05
9.18627e-05
8.83403e-05
6.87032e-05
8.39072e-05
9.20971e-05
8.24507e-05
8.39473e-05
9.27282e-05
7.77358e-05
8.15336e-05
0.00024781
6.84441e-05
8.45483e-05
0.00011957
6.67159e-05
0.000111625
8.24206e-05
8.78355e-05
0.000100894
0.00010095
9.53656e-05
0.000168397
8.706e-05
0.000144273
7.8568e-05
8.41437e-05
8.15418e-05
7.94706e-05
0.000282827
9.61951e-05
0.000133714
8.21375e-05
0.000260514
8.4824e-05
9.71804e-05
7.47742e-05
8.35023e-05
7.68549e-05
8.28423e-05
8.53881e-05
8.36675e-05
8.42929e-05
8.96285e-05
0.000386295
0.000142074
0.000101569
9.95553e-05
8.28052e-05
9.06356e-05
7.46427e-05
5.28986e-05
0.000108507
7.96651e-05
8.6666e-05
7.88397e-05
9.37097e-05
0.000124723
9.12222e-05
0.000104886
0.000112876
9.49776e-05
8.35457e-05
9.31977e-05
7.38924e-05
8.37579e-05
7.56976e-05
0.000280143
6.70043e-05
9.69822e-05
0.00011163
8.72841e-05
0.000100352
9.92235e-05
0.000273565
8.12532e-05
8.02008e-05
7.62708e-05
8.545e-05
0.00011465
0.0001075
8.52293e-05
8.41578e-05
0.00453308
0.000104575
7.08319e-05
9.12939e-05
0.0001276
0.0040976
0.00369432
0.00479123
0.00604433
6.72067e-05
0.00668741
0.00011212
0.000109452
7.65175e-05
0.000184822
0.00765285
7.25344e-05
9.41468e-05
0.00637657
9.29387e-05
0.00152265
6.94921e-05
8.77613e-05
0.000156157
0.000273453
7.7388e-05
8.35055e-05
8.64375e-05
7.26115e-05
0.000102907
8.71202e-05
0.000167662
8.77511e-05
8.14979e-05
0.000109025
7.93781e-05
8.08535e-05
7.55619e-05
9.04952e-05
6.32783e-05
0.000109572
9.72541e-05
9.27447e-05
7.21045e-05
9.11626e-05
0.00157327
7.55023e-05
0.000150693
8.70067e-05
8.84258e-05
9.29646e-05
6.97372e-05
7.52253e-05
0.000112243
7.5293e-05
6.73067e-05
8.89378e-05
0.000104305
0.000195984
9.59974e-05
9.14533e-05
9.05532e-05
8.84614e-05
8.19831e-05
0.000103191
8.88643e-05
0.00010653
8.54023e-05
8.99262e-05
0.000121875
8.02438e-05
9.33982e-05
9.03175e-05
9.52178e-05
8.47446e-05
9.82758e-05
8.75367e-05
8.96911e-05
0.000100228
0.000132551
8.34545e-05
0.000278309
0.000130013
7.27242e-05
0.000117673
0.000116828
0.00011422
0.000100786
0.00010367
0.000100488
9.72616e-05
8.50027e-05
9.6457e-05
5.97679e-05
0.000113956
0.000104261
9.63652e-05
8.31956e-05
0.000151574
0.000106208
7.19131e-05
9.84504e-05
5.68981e-05
9.55794e-05
0.000100576
6.93047e-05
8.93571e-05
8.13082e-05
0.000115463
8.10006e-05
8.18971e-05
4.55903e-05
0.000882858
9.68775e-05
0.000161956
0.00118343
7.79297e-05
7.39948e-05
6.93616e-05
8.7621e-05
0.000916261
8.66369e-05
0.000107742
0.000106856
9.80622e-05
0.00117099
8.52736e-05
7.42055e-05
9.91535e-05
7.66161e-05
0.000123888
7.20593e-05
8.4417e-05
9.97397e-05
6.54412e-05
8.00421e-05
7.24828e-05
7.05337e-05
8.84904e-05
6.8897e-05
9.06769e-05
0.000119319
0.000112032
7.6944e-05
0.000231359
0.000107487
9.51486e-05
6.00691e-05
6.90107e-05
8.58412e-05
8.9969e-05
9.70907e-05
0.000104333
9.28928e-05
0.000120436
8.78756e-05
9.5611e-05
9.81609e-05
8.49926e-05
8.65901e-05
9.9289e-05
8.00505e-05
8.69204e-05
8.31387e-05
0.000107036
9.01125e-05
0.000113592
6.53724e-05
9.75232e-05
8.04441e-05
6.50874e-05
8.3826e-05
0.000438292
6.33386e-05
8.97164e-05
8.09877e-05
6.57791e-05
9.14649e-05
8.1176e-05
0.00012201
6.47455e-05
0.000134174
9.15896e-05
6.9558e-05
0.000110537
9.38114e-05
0.000452133
0.000101859
9.78642e-05
6.88369e-05
0.000100764
9.00071e-05
8.39228e-05
9.9914e-05
9.84364e-05
9.21662e-05
8.08971e-05
0.000101586
9.33135e-05
0.000131374
9.6852e-05
9.10512e-05
9.10894e-05
0.000103099
7.46851e-05
0.000110455
9.58907e-05
7.6718e-05
0.000105642
0.000112278
9.76522e-05
9.76301e-05
9.4737e-05
9.90432e-05
9.70286e-05
0.00010226
7.20161e-05
8.60141e-05
9.24366e-05
9.26174e-05
9.28343e-05
9.34443e-05
0.000100859
9.45572e-05
6.50797e-05
9.95274e-05
0.000106195
0.000125824
8.98045e-05
8.21425e-05
0.000100312
0.000181697
8.17047e-05
8.13293e-05
0.00264872
6.49263e-05
9.30911e-05
0.000108542
8.27279e-05
9.08654e-05
0.000101444
5.60756e-05
8.55541e-05
9.19534e-05
9.47449e-05
8.72584e-05
0.000116304
0.000110089
5.59364e-05
0.000121623
0.000113162
5.41262e-05
8.38577e-05
0.000101432
5.75845e-05
9.12126e-05
9.9486e-05
0.000103875
9.32777e-05
7.58316e-05
8.43182e-05
6.11629e-05
9.72e-05
9.76625e-05
5.29841e-05
0.000110131
9.50176e-05
5.8253e-05
9.80534e-05
9.66261e-05
0.000114971
8.93746e-05
9.07662e-05
9.22973e-05
9.54318e-05
6.34579e-05
9.7612e-05
9.12095e-05
6.44936e-05
9.5864e-05
9.57678e-05
6.80074e-05
8.06379e-05
8.45642e-05
8.26802e-05
8.98831e-05
9.48992e-05
8.68661e-05
0.000928717
8.33062e-05
9.72212e-05
9.91413e-05
0.00010401
0.000110166
9.16944e-05
9.81552e-05
7.79439e-05
6.15471e-05
0.000110513
8.32009e-05
0.000109853
9.03853e-05
5.27195e-05
0.000103607
5.84636e-05
9.93571e-05
8.59281e-05
8.03573e-05
9.66337e-05
9.15784e-05
9.60671e-05
6.15518e-05
0.000100576
9.17617e-05
0.000133152
7.85655e-05
8.82112e-05
6.07149e-05
9.981e-05
8.5046e-05
0.000111257
8.64697e-05
0.000192259
0.000119137
9.44287e-05
0.000115479
0.000103154
6.53638e-05
0.000109682
7.57703e-05
5.82147e-05
0.000104381
8.89184e-05
0.000100721
5.65392e-05
9.67432e-05
9.66324e-05
9.39733e-05
0.000103958
9.0771e-05
0.000110131
5.52298e-05
8.87077e-05
0.000111722
6.30892e-05
5.90292e-05
9.31622e-05
8.49887e-05
8.82946e-05
0.00011107
0.000138038
5.62814e-05
9.34084e-05
7.47279e-05
9.04302e-05
5.88946e-05
5.16185e-05
5.36762e-05
8.89911e-05
6.43432e-05
0.000112698
5.75678e-05
6.20374e-05
8.90328e-05
9.59576e-05
9.49607e-05
9.23252e-05
6.28196e-05
0.000103009
9.49768e-05
0.000100789
8.52498e-05
8.59941e-05
0.000115451
0.000113887
0.000108501
9.58012e-05
8.25495e-05
0.000108684
0.00542029
0.000103977
0.000100175
5.39153e-05
0.000498164
8.82124e-05
8.80236e-05
8.17359e-05
9.04386e-05
7.55827e-05
8.70959e-05
0.000733674
6.55554e-05
6.76033e-05
7.98735e-05
6.18058e-05
8.98511e-05
8.36615e-05
9.02569e-05
6.62379e-05
8.50371e-05
9.26957e-05
8.32018e-05
9.53255e-05
9.51224e-05
8.70759e-05
7.67983e-05
9.95619e-05
9.18977e-05
8.65528e-05
0.000111141
5.80042e-05
8.78757e-05
0.000119728
0.00143947
0.000174954
9.24705e-05
8.47973e-05
8.33943e-05
0.000146865
8.41733e-05
0.000119629
9.88688e-05
9.34904e-05
6.60811e-05
8.58817e-05
6.0811e-05
0.00326307
0.000101117
0.00010877
0.000114246
0.000120705
9.13718e-05
9.19766e-05
9.45827e-05
0.000116069
0.000109237
7.54461e-05
7.65743e-05
9.85458e-05
7.75039e-05
6.12832e-05
0.000100406
0.000113762
0.000114172
8.0168e-05
9.29925e-05
0.000104112
8.45091e-05
8.70746e-05
9.01792e-05
8.33701e-05
9.77089e-05
9.30883e-05
6.9652e-05
0.000107619
9.90777e-05
0.000112158
6.1317e-05
9.01436e-05
0.000122625
0.000306475
6.37707e-05
0.000267416
8.62374e-05
9.86269e-05
6.14985e-05
7.59004e-05
0.000418271
5.82327e-05
9.31787e-05
0.000114489
8.24497e-05
0.000116205
6.37446e-05
8.49948e-05
9.63237e-05