/*--------------------------------*- C++ -*----------------------------------*\
| =========                 |                                                 |
| \\      /  F ield         | OpenFOAM: The Open Source CFD Toolbox           |
|  \\    /   O peration     | Version:  v2012                                 |
|   \\  /    A nd           | Website:  www.openfoam.com                      |
|    \\/     M anipulation  |                                                 |
\*---------------------------------------------------------------------------*/
FoamFile
{
    version     2.0;
    format      ascii;
    class       volScalarField;
    location    "2";
    object      p_rgh;
}
// * * * * * * * * * * * * * * * * * * * * * * * * * * * * * * * * * * * * * //

dimensions      [1 -1 -2 0 0 0 0];


internalField   nonuniform List<scalar> 
108993
(
0.319304
0.11681
0.268404
0.174189
0.230378
0.0875695
0.13845
0.238657
0.19403
0.32244
0.312933
0.312245
0.197321
0.325057
0.334523
0.000238442
0.313769
0.341279
0.185502
0.0907173
0.271097
0.137239
0.0765433
0.313987
0.192875
0.0864143
0.148849
0.0929787
0.0918085
0.270627
0.172635
0.324747
0.145292
0.309833
0.135619
0.262232
0.158762
0.275078
2.39798
2.07922
0.090753
0.257507
0.322153
0.164708
-0.0268139
2.42001
0.150699
0.133372
0.0906094
0.0613352
0.168279
0.14977
0.110491
0.173451
0.338726
0.321718
0.145208
0.228925
0.227598
0.227003
0.230194
0.200712
0.270175
0.0665382
0.178155
0.0867837
0.192838
0.220463
0.327698
0.293256
0.313503
0.213925
0.248631
0.220081
0.0949046
0.191947
0.06711
0.309685
0.14813
0.196688
0.282515
0.330415
0.202945
0.304045
0.340771
0.318641
0.299387
0.311791
0.230273
0.204981
0.208249
0.186085
0.212338
0.218025
0.213021
0.312343
0.183658
0.284505
0.175477
0.202891
0.213166
0.178458
0.325478
0.321913
0.277004
0.20909
0.275496
0.0752282
0.166011
1.78017
0.00177134
0.204269
0.140121
0.0101199
0.261008
0.169751
0.238204
0.296483
0.194226
0.181462
0.334948
0.166833
0.390601
0.286062
0.269908
0.0934373
0.0898689
0.301694
0.157648
0.141591
0.298933
0.156721
0.24453
-0.282514
0.2499
0.274087
0.167777
0.257508
0.269132
0.325161
0.286712
0.219962
0.165693
0.159873
0.146506
0.256285
0.280851
1.61029
0.284921
-0.402685
-0.491422
0.0855702
0.0500284
-0.573399
0.227926
0.0604778
0.322263
0.0453145
0.0941558
0.255894
-0.512868
0.0379533
0.188883
0.302625
0.322507
0.109666
0.233762
0.068621
0.0680201
0.275489
0.193398
0.320934
0.146194
0.292161
0.0827522
0.0790756
0.144364
0.0690681
0.275903
0.218658
0.309467
0.213433
0.0851682
0.288307
0.323185
0.297783
0.10788
0.337023
0.335108
0.287674
0.304814
0.111338
0.309748
0.137359
0.263299
0.280246
0.090048
0.295067
0.267253
0.288769
0.234641
0.1317
0.286621
0.0155574
0.159766
-0.162347
0.249801
1.22315
0.266641
-1.16791
0.215383
0.283882
0.108842
0.314462
2.74082
0.27637
0.332437
0.248866
0.0751529
0.167436
0.0570949
-0.435057
0.268741
0.107651
0.0519685
0.0698857
0.0467324
0.268195
0.0333221
0.0791856
2.4784
0.310018
0.0695633
0.106985
0.215783
0.179091
0.145598
0.179968
0.219764
0.0452469
0.197909
0.26042
0.23755
0.0303664
0.0882696
0.00947149
0.513459
0.261378
0.0466991
0.175551
0.206031
0.170832
0.225455
0.26977
0.0676187
0.0324572
0.067852
0.295095
0.164693
0.087746
0.25787
0.0949221
0.186353
0.0688293
0.132779
0.0815096
0.257468
0.0885718
0.0877353
0.252508
0.236304
0.267953
1.14509
-1.58195
1.50321
0.273891
0.186082
0.464504
0.299066
0.0837057
0.0813347
2.57356
2.57264
0.082297
0.18106
0.219129
0.195123
0.0737716
0.29674
1.4733
0.333073
0.245907
0.073828
0.248677
0.0747802
0.260396
0.179886
0.253351
0.292251
0.23819
0.148126
-0.407922
0.280092
0.23778
0.231937
0.118465
0.0342397
0.100679
0.11889
1.04092
0.238323
0.210556
0.254293
0.268546
0.118258
-0.212488
0.0670189
0.258366
2.05476
0.244811
0.102663
0.0664788
0.103085
0.102564
0.294622
-0.919411
-1.60442
-0.241877
0.180797
0.280571
0.0466166
0.0414831
-1.39892
0.227017
1.36745
0.292751
0.241809
0.220374
0.263146
0.174229
0.224081
0.132455
0.0606437
0.282191
0.327649
0.338513
0.267505
0.2538
0.190776
0.268286
0.255763
0.0875417
2.56386
1.28113
0.0413867
0.267481
0.278634
1.74583
0.308972
0.0708117
0.230498
0.058579
0.266985
0.268583
0.0937477
0.0732205
0.266693
0.181676
0.332394
1.56395
0.0686872
0.246647
0.267871
-1.16668
0.0692125
-0.639762
0.309275
0.262011
-0.353935
0.303837
-0.292294
-0.388949
0.0729279
-0.0456149
0.336618
0.0928324
0.293751
3.25293
0.0839943
1.41261
-0.370887
0.0930742
-0.389717
0.322657
1.23126
0.067655
-1.16924
0.188368
0.0604731
0.19576
0.0699654
0.602559
0.756712
0.239562
0.0477394
0.0919003
0.0913904
0.287144
0.273587
-1.51078
0.337161
0.0690253
1.03164
0.299344
0.314296
0.212229
-1.71763
0.288018
1.13227
0.24064
-1.2832
0.110501
-1.4152
0.0701013
0.23018
-1.42439
0.281541
0.300342
-1.621
0.236472
-1.38938
2.26994
-1.40588
0.155832
0.260863
0.321005
0.025434
0.0738663
0.070691
0.228755
0.33545
0.268332
0.277027
0.0781299
0.279838
0.104858
0.0968862
0.131924
0.269228
0.0780289
0.30357
0.224789
0.270374
0.307389
0.0710844
0.33011
0.334014
0.0776172
0.30266
0.211207
0.46851
0.264683
0.469805
-0.0630554
0.273417
0.268939
0.091343
0.438855
0.267893
0.265084
0.289617
0.242648
0.196127
0.044007
0.0324894
0.108921
0.230215
0.197978
1.2589
0.1081
0.271283
0.206113
0.217832
0.263998
0.216176
0.272856
0.267766
0.269273
0.135575
0.30915
0.336077
0.301186
0.0541566
0.266495
-0.00490816
0.268574
0.214982
0.272162
0.270126
0.101117
0.169799
0.217991
0.240819
0.270072
-0.0105414
-0.0847746
0.267303
0.23303
2.87426
0.267988
0.143247
0.110823
0.208829
0.273041
0.268094
0.0314019
0.088421
0.26825
0.10264
0.11267
0.0208899
0.0111582
0.109509
0.111229
0.0878186
0.160018
0.116853
0.280951
0.180912
0.112286
0.0885598
0.265285
0.155244
0.326332
0.276491
0.264365
0.0905238
0.324505
0.301469
1.2699
0.278229
1.345
0.23878
0.269921
0.307443
0.265565
0.2588
0.17024
0.287795
0.202844
0.200913
0.0875188
2.69618
0.285086
0.33658
0.275934
0.190027
0.0749812
-1.1496
0.097739
0.309305
0.214793
0.274344
0.112285
0.268618
0.599208
0.327497
0.229273
0.0843661
0.0891268
0.281636
0.103989
5.89665
0.268405
0.178589
0.0710478
0.327768
0.26559
0.219168
0.179913
0.273535
0.316582
0.275877
0.18649
0.309123
-0.000329266
2.46681
0.264492
0.313862
0.0706029
0.0851604
0.30015
0.103494
0.270261
-0.876511
0.201754
0.208775
0.299189
0.124197
0.247739
0.274264
0.312208
-1.67908
0.205697
0.330149
0.305634
-1.78373
0.303641
0.243112
0.28413
-0.876705
0.273648
0.247674
0.279753
0.0997846
0.274432
0.143592
0.301025
0.828513
0.199614
0.0334314
0.198978
0.307069
1.42071
0.111244
0.226836
0.217043
0.181909
2.60241
0.125115
-0.350385
0.0919989
0.167708
-0.563333
0.134682
0.0882277
0.302417
2.22273
-0.00396744
0.0869483
0.340423
0.0946653
0.270475
0.0331651
0.237556
0.124401
0.262164
0.165328
0.0472495
0.129704
0.144762
-0.0339961
1.14434
2.44623
0.287741
0.104414
0.0239733
2.4557
0.296519
2.45414
2.45088
0.0855659
0.258393
0.244836
0.079901
0.0629549
0.122493
0.146113
0.999616
1.20979
0.140333
0.124038
0.0889059
2.44728
2.44715
0.205618
0.0481186
0.290121
0.0821998
1.62702
0.12591
0.241123
0.276345
0.148317
1.49225
0.146999
0.338163
0.290122
0.290625
-2.92745
0.119673
0.280929
0.0681405
0.330372
0.104552
-2.25357
0.298295
1.19686
0.297973
4.07792
0.00994537
0.234884
0.0629722
0.0626796
0.167918
0.243903
-0.0120979
0.0957366
0.236678
0.0626664
0.0508467
1.29801
2.74516
0.291825
3.03276
0.297026
0.0946556
0.245861
0.237661
0.0648143
0.103538
0.100177
0.139372
0.020731
0.334737
0.0748457
0.112927
0.011387
0.13973
0.24156
0.109012
0.09495
-0.0111498
0.0581312
0.285113
0.237914
0.200975
0.0685732
0.273164
0.1262
0.303175
0.0346263
2.45109
1.3593
0.230562
0.100837
0.215035
0.190557
0.230127
0.271784
0.32549
0.0689555
0.0671382
0.236248
0.068552
0.112788
0.0669088
0.0866976
0.090503
0.0932722
0.170268
0.0685826
0.236073
0.269342
0.30256
0.0867127
0.118291
1.23671
0.182175
0.268548
0.268222
0.223511
0.237767
0.182521
-0.0333429
0.314912
0.262607
1.06073
0.520562
0.304305
0.266877
-0.379696
0.257705
0.262798
0.0935443
0.0571939
0.117142
0.24266
0.249055
0.302543
0.200794
1.99605
0.244
0.30055
2.13978
0.134576
0.365092
0.0927674
-0.76482
0.271254
0.107886
0.0974581
0.208476
0.256367
0.12753
0.22437
0.321672
0.335159
0.279108
0.270676
0.251017
0.088749
0.208087
0.303158
0.290083
-0.668441
0.116893
0.321673
-1.57081
0.117097
-1.36025
0.311888
0.325233
0.246949
1.01346
0.090696
0.118014
0.300803
0.164256
0.119187
0.14077
1.17837
0.296982
0.257786
0.0386574
0.117302
0.244982
0.306675
2.38013
0.244131
0.308073
0.25661
0.171721
0.248734
0.118604
0.312434
0.278196
0.316833
-1.7506
0.268159
-0.815412
0.277333
-1.98243
0.263208
0.107686
0.0812033
0.0306505
0.128247
0.318364
0.0814305
0.0810333
0.323272
0.0799296
2.57298
0.0454516
0.0434974
0.284159
0.0862459
0.203085
0.0543704
0.20447
0.27446
-0.0157295
2.57122
0.272876
0.117548
-0.0283117
0.269
0.105697
0.159231
2.47285
2.56583
0.0389302
-0.0767893
0.0654741
-1.51663
0.231575
-2.60056
1.98985
-1.61408
0.20114
0.17941
0.0989223
0.210835
0.0379465
0.0192709
0.239059
0.0181901
-0.045236
0.213188
-0.207432
0.0974805
0.0971444
-1.20132
0.0522625
0.317276
-1.68365
-3.59971
0.0995009
0.130914
0.240704
0.335194
0.155769
0.107162
-1.38299
0.308746
-1.88504
0.271473
0.160662
0.107239
0.318342
0.167649
0.0805399
0.094854
0.055252
0.209775
0.0925795
0.100255
0.0788293
0.07568
0.14517
0.0753569
0.0448427
0.0183171
0.183924
0.199665
0.217715
-0.334402
0.319843
2.40788
0.117629
0.100428
0.045501
0.049565
0.14
0.0760346
0.313361
-1.40106
0.131705
0.158023
0.0837345
0.206509
0.113813
-0.35077
0.332885
0.302857
1.10931
0.19821
0.313959
0.198923
0.0576651
0.0442002
1.66154
0.132058
0.0624996
0.135489
0.301302
0.145305
0.0594513
0.059183
0.129737
-0.190692
0.314465
0.17804
0.0820173
0.148997
0.187849
0.301429
0.152997
0.114959
0.295904
0.267103
0.299967
0.0822194
0.29277
0.299904
0.0950082
-0.162906
0.305694
0.279221
0.323226
0.200359
1.89022
0.290942
0.0942353
0.0826593
0.0910469
0.0830244
2.25592
0.283833
0.0721472
0.296587
0.244285
0.0238501
0.204706
0.110185
0.0585532
0.294889
0.46809
0.3162
0.177351
-0.0343511
0.22884
0.0876727
0.292978
0.292789
0.307925
0.235556
0.0712187
0.317382
0.0876768
0.283563
0.223243
0.447009
0.287303
0.0740546
0.0287127
0.287012
0.0563723
0.169256
0.112153
0.0836437
0.288477
0.276976
0.0717583
0.113923
0.304396
0.16315
0.212651
1.12383
0.277775
0.118627
0.263525
0.281651
0.0547012
0.180096
2.56782
0.0195747
0.162016
0.122784
2.02741
0.189408
0.0114665
0.0999676
2.5621
0.0835331
0.311887
0.31021
0.146759
0.261868
1.13594
0.201176
0.07999
0.236866
0.0913413
0.260089
0.243556
0.255518
0.0811244
0.235956
0.296005
-0.38985
0.0881611
0.14095
0.260982
0.0706128
0.0712854
0.263162
0.0707055
0.221067
0.302406
0.331682
0.0855062
2.67074
0.29216
0.298487
0.269062
0.117241
-0.294999
0.0706989
0.293098
0.300179
0.264008
0.0712372
0.21089
-0.120756
-0.0528588
0.296078
0.301164
0.0777238
0.292009
0.2941
0.0349043
0.153745
0.0926878
5.99861
-0.0279484
0.195571
0.296034
0.071451
0.29617
0.311199
0.0709707
0.301311
0.300046
0.299292
0.196898
0.302611
0.301018
0.307766
0.282386
0.033737
0.262321
0.29974
0.295928
0.289587
0.291114
0.00166045
0.0446458
1.66039
0.288129
0.232442
0.132611
0.285007
0.338124
0.287123
0.102421
0.260547
0.300203
0.0404453
0.288666
0.080442
0.103269
0.101786
0.289747
0.318098
0.766798
-2.37848
0.310027
0.276248
0.252509
0.100038
0.044159
0.255213
1.26444
0.224229
0.0583954
0.0614632
0.200121
0.070737
0.120751
0.291065
0.10441
1.26318
0.0766064
0.0803063
0.0765731
-0.3996
0.131375
0.288449
0.0893797
0.10498
-0.371157
0.240496
0.160047
0.0893621
0.0895294
0.0908247
-3.35988
0.141341
0.180394
0.262385
0.229531
0.208802
0.27729
0.0905025
0.300935
0.0788065
0.239853
0.0786149
0.275865
0.221992
-0.0348666
2.38255
0.278682
0.258744
0.184841
0.287705
0.0790406
0.181727
0.0791354
0.252854
0.0785648
-3.4743
0.306798
0.783619
0.306364
0.00898675
0.286933
0.285912
0.209772
0.0797144
0.0441442
0.274482
0.15135
0.230519
0.224343
0.138479
0.0585021
0.279665
0.301812
0.296894
0.23491
0.304303
4.24217
0.280464
0.306216
0.279523
-0.0999618
0.289148
0.242357
0.0982678
0.247784
0.162095
1.02939
0.242522
0.074253
0.3094
0.147104
0.303665
0.310552
0.247772
0.0574377
0.188409
-0.00834665
0.275907
0.305295
1.12281
0.302567
0.0341625
0.212897
0.0832807
-1.23643
0.298077
0.106917
0.0108069
-0.552158
0.300435
0.0760526
0.270708
0.000888005
0.300069
0.874162
0.919876
0.882646
0.216061
0.903996
0.103645
0.92219
0.897794
0.0966264
0.0969685
0.0862739
0.0103275
0.301169
0.208648
0.260854
0.098142
0.158079
0.0793448
0.0798944
-0.0671601
0.228655
0.294608
0.0195529
0.298237
0.0363024
0.0080691
0.262086
0.0594179
0.153626
0.00862734
0.323644
0.0134561
0.0819939
0.118167
0.0896735
0.0475554
0.313466
0.0777597
0.136752
0.0177455
0.297178
0.297347
0.0140047
0.299687
-1.20312
0.298317
-0.0179634
0.284084
0.194862
-0.0539918
0.292986
0.245818
0.0862181
0.278853
0.292345
0.227136
0.172134
0.202801
0.0864489
0.230214
0.0574071
-0.199173
0.295289
0.182919
1.20101
0.256801
0.374174
0.166873
0.0877195
0.0878791
0.281725
0.319453
1.34289
0.836349
0.166879
0.286558
1.51312
0.0899463
0.285216
0.320365
0.2296
0.293999
0.288266
0.103986
-0.61953
0.160637
0.193856
0.0503026
0.293842
0.0869883
0.21069
0.203194
2.59636
2.38557
0.295235
0.196389
0.085743
0.0806399
0.0749154
-0.0390286
0.2317
0.10471
0.29773
0.0742687
0.262886
0.295172
2.611
0.149037
0.306826
-0.00902103
0.209645
0.0762075
0.00518817
-0.482054
0.0754299
0.256432
0.306662
0.116237
0.0876322
0.224124
0.310382
0.0232823
0.152776
1.17953
0.308078
0.30785
1.34182
0.332598
0.0838631
1.27103
0.332385
0.174129
0.329771
0.26813
1.98012
0.0876954
0.312357
0.175296
0.329766
1.86638
0.33136
1.4378
0.330542
0.236678
1.31182
0.296313
0.23767
2.57969
0.305407
0.061552
-0.0779028
0.0879298
0.0718436
0.321869
1.64674
0.0254879
0.0949288
0.330939
0.273098
0.339944
1.55637
-0.705446
0.29591
2.33898
0.291026
-2.99181
0.27861
0.296636
0.107964
0.1999
0.171422
0.148999
0.219564
0.0772914
0.324158
-0.238135
0.16592
0.224076
0.0777636
0.0832212
0.0855094
0.0774512
0.0778778
0.258356
0.423257
0.320074
0.0812632
0.258716
0.0822808
0.0248099
0.121671
0.296677
0.0852021
0.271458
0.295446
0.292325
0.151505
2.5107
0.14811
1.04208
-0.918448
0.2968
0.297032
-0.205363
0.292603
0.280866
0.0871439
1.27691
1.54769
0.224969
3.53613
0.271622
0.237191
1.69463
0.278646
0.153011
0.283455
0.280078
0.077206
0.271414
0.142487
0.274938
0.145645
3.4117
-0.196461
0.149619
0.140537
-0.0629175
0.237725
0.125289
0.269178
0.297809
0.271361
0.268351
0.180386
0.269562
0.0996935
0.24335
0.239474
-0.637873
-0.228917
0.218337
0.0783449
0.264677
2.40831
-0.228066
0.225194
0.408254
0.263378
0.288591
0.191428
1.14917
2.45108
0.638642
0.271412
2.01324
2.36011
-0.366631
0.0796535
0.779518
0.192149
0.186368
1.0855
0.0855733
2.51248
0.182273
0.0280689
0.182721
0.627194
0.187448
0.140799
0.21406
0.140248
0.10522
0.920134
2.22961
2.45033
0.205418
0.18922
2.74072
0.236719
0.115234
-0.0246187
0.138959
-3.48813
0.139053
0.304898
0.310471
0.306647
0.305534
0.136557
0.300888
1.52908
0.251863
0.451177
0.280131
-0.448739
0.138274
0.098356
0.311522
0.100481
0.307359
0.306555
0.0675285
0.306948
0.0450256
0.306828
0.305034
0.134771
-0.744906
0.136436
0.288663
2.61691
-0.0201715
0.0806227
0.287414
0.304526
0.308108
0.0986619
0.301635
0.240966
0.325838
0.751938
-0.423126
-0.00777497
0.24032
2.29622
0.244157
0.3086
0.245745
-0.186937
0.105366
1.79107
0.0418645
0.154896
0.042757
-0.416585
0.0960178
0.241692
0.309792
0.064417
0.261451
0.243101
-0.995875
0.197678
0.245552
0.0482103
0.550834
-0.270081
0.0917329
0.0117262
2.10384
-0.448534
1.05705
-0.126015
0.087436
-0.0261841
2.91534
0.261444
0.0872961
0.224892
0.0698084
0.23591
0.266742
0.235816
-0.253858
1.24864
0.24146
1.78625
0.844619
0.240933
0.306136
2.79198
-1.54809
0.0496451
0.996594
0.32394
0.299997
0.291187
0.277333
2.40062
-0.00367923
0.259766
0.097204
0.123796
0.2923
0.10508
0.0832808
0.095881
0.031464
0.0637367
0.310823
0.109576
0.0993167
2.87749
0.819337
0.273871
0.273968
0.297259
0.238345
0.0674065
-0.65768
1.5444
-0.205753
-0.128945
0.947772
-0.799334
3.15681
-0.440047
0.0316005
2.00791
0.0997364
0.26545
0.272514
-3.99672
0.0173964
0.277479
-0.323059
-0.173572
-0.942321
2.55391
0.027554
0.215257
0.123259
0.079225
0.0770575
0.0276678
0.297516
0.0176079
0.117256
-0.771022
-3.23195
2.77161
0.118034
3.85534
0.101721
1.22858
0.204784
0.0737988
-0.800092
-3.34226
0.0762705
0.0601507
0.28206
0.195886
0.224887
0.0330105
0.235129
0.305986
0.114248
0.751759
0.210474
-0.0217801
2.06072
2.5545
2.67576
0.791566
0.26377
-2.17655
0.313581
0.256585
0.309039
0.106499
0.787481
0.0647937
0.319246
0.317087
0.0849893
0.225907
-3.9649
-3.73839
-3.18435
0.167052
0.193101
-1.56539
-0.0423685
0.0657108
-0.0203466
0.264684
0.308661
1.25706
0.295239
0.308982
-1.02205
0.086954
0.25262
0.309874
0.266914
0.0737478
0.090432
0.282414
0.109009
0.0669232
-0.21569
-0.509112
1.20845
0.0992407
0.1019
0.0942395
0.254995
0.301085
0.302951
0.296613
1.47725
0.305164
0.202389
2.47339
0.299756
0.175578
0.303477
0.301065
0.245948
1.47467
2.67679
0.144382
0.0487617
0.188172
1.24324
0.300894
0.293763
1.31572
0.24902
1.03201
0.23426
0.248649
1.50765
0.121937
0.110205
1.41909
1.13658
1.43164
1.46032
0.0846929
0.299033
0.440967
0.927839
0.0815762
0.164851
1.3154
1.4116
1.14208
1.35371
0.133597
0.324711
0.278168
-0.570402
1.21782
-0.423631
0.0998806
1.43715
0.082003
0.246897
0.969552
1.4015
0.34305
0.123306
0.409741
-1.04158
2.17922
0.201751
0.462241
0.079445
1.43845
0.302789
0.258483
0.129278
0.288876
1.53497
0.301933
1.35802
1.41687
0.0883661
0.302915
1.22933
0.301092
0.266817
0.195122
0.0879405
1.24668
0.078817
1.43528
2.56791
0.195251
0.218808
1.93586
0.0817916
0.317137
0.54005
0.316907
0.316599
0.0805201
0.290016
0.205816
0.206424
1.95848
0.283808
0.0670694
1.35256
0.258888
0.342288
-0.0669174
0.193596
0.0707838
0.0250682
0.0551819
0.926481
0.237816
0.0921463
0.237401
0.0398477
0.0537173
1.14941
-3.24046
0.024098
0.0743059
0.0196461
0.0621281
0.0268696
0.237387
0.343313
0.0734007
0.278093
1.00499
0.320203
0.28857
0.110048
-0.0446082
1.28833
0.237776
0.466687
0.293945
0.234945
0.210794
0.288047
0.249638
0.097798
0.259021
1.4793
0.259639
0.237483
0.0827207
0.109671
0.090593
1.29016
0.357083
0.238053
0.237783
1.07616
0.069904
0.269022
0.306541
0.0702882
2.65383
1.91377
0.202624
0.112328
0.323003
0.299013
1.6672
0.27324
1.7343
0.269898
1.96472
1.26533
0.0945482
1.72995
1.38403
2.85337
2.68538
1.21498
0.0799823
0.268435
0.0794323
0.322165
0.307856
0.2437
1.9704
0.0929161
0.295125
0.267389
-0.0797741
1.45899
1.39283
0.269334
-0.0793111
0.209176
0.0697053
2.53022
0.269095
0.264051
0.0862961
1.53216
1.11274
1.08861
0.0847974
0.0757092
0.283031
2.11008
0.136038
2.14255
0.0695414
0.0693766
2.48952
-0.461184
0.268249
0.270339
2.46901
0.266204
0.269376
0.146874
1.78863
-0.0649371
-0.0355717
0.266135
2.5753
3.17628
0.297595
-0.168064
0.0709022
-3.80098
0.081572
0.218931
2.91324
2.24043
-4.55589
-3.84023
-4.37775
-4.38784
0.260815
2.54218
1.34885
-0.182174
0.263147
-1.4107
-1.67593
0.241756
1.22995
-3.94071
0.262794
3.72768
0.260822
2.0297
0.434293
-0.415527
1.1338
1.29561
0.288195
0.263228
0.100292
0.11987
2.51001
0.0853361
1.07747
0.247547
0.0763255
0.0764298
0.0761372
0.287142
0.117375
0.289091
0.034315
0.0940243
1.67863
0.285344
0.351858
0.0764874
0.0387998
0.337231
0.194197
0.216055
0.0758801
0.0759556
0.288289
0.232489
0.299782
2.46161
2.49348
0.680075
0.0251975
0.0456899
0.0462169
0.0873873
0.0974445
0.126475
0.0579864
0.293264
-0.0401292
-0.0437639
2.49306
0.0500579
0.0533676
0.0687842
0.0688772
0.155914
0.0420572
0.142651
0.287669
-0.0193527
2.44697
0.125724
-0.85997
0.0846102
0.299911
-0.410869
-0.508294
0.080195
0.056195
0.082356
0.0815158
0.0792168
0.0784787
0.111124
0.17646
0.105043
0.0697272
0.33096
0.260912
-0.922628
0.295428
0.305733
0.0659119
0.174574
0.296349
0.22715
0.174737
0.34289
0.173664
0.115901
0.0856305
0.0828536
2.45828
-1.75096
0.0814454
0.329626
-0.265525
0.313986
0.292139
0.273461
0.287021
-2.01322
0.0579107
0.108193
0.146052
0.332784
-0.34047
0.310649
0.00557609
0.307025
0.259892
0.301951
0.00999015
0.27839
0.29849
0.0066517
0.267033
0.0658176
0.0101069
-0.014575
0.0052886
0.174856
0.156045
0.297721
0.00144577
0.562273
0.431614
0.303649
0.0803204
0.0334678
0.107112
0.153828
0.0793006
0.291296
-0.232277
0.115203
0.304621
0.303953
0.303351
0.25364
0.31693
0.0671919
-0.0556115
1.81331
-0.160738
1.54613
0.0500701
0.23732
0.0802093
0.0694099
1.66895
0.0806324
0.328765
-0.211323
0.0804309
1.56168
0.333402
0.0808181
0.0336314
0.189819
0.319315
0.167693
0.328844
0.0652496
0.168009
0.284165
0.33258
-0.0968546
0.325089
0.290546
0.163587
0.0430839
0.279915
0.160363
0.455043
0.0565705
0.451234
0.164453
0.303583
0.256648
-0.33054
0.287904
0.120346
0.262339
0.316487
0.1602
0.0582717
0.190559
0.146158
0.262176
0.256099
0.0584759
0.127292
0.258085
0.262572
0.251958
0.302383
0.270986
0.136119
0.267832
0.045692
0.283138
0.259416
0.306112
0.261477
0.111686
0.268127
0.272653
0.276832
0.203576
0.342325
0.261316
-0.42756
0.341903
0.194336
-0.143582
0.0879129
0.121407
0.22321
0.283155
0.0914637
0.100318
0.168675
0.280496
-0.0385818
0.0267337
0.154455
0.294578
0.255642
0.168221
0.0919198
0.167287
0.178286
0.281318
0.235433
0.175317
0.284428
-0.0582882
0.267635
0.285347
0.275249
0.103277
0.170836
0.254387
2.61913
2.45605
0.305199
0.265068
0.171864
0.301809
0.0736114
0.0918524
0.263527
0.222458
0.31605
1.30668
0.299105
0.224837
0.2277
2.54703
0.271695
0.259195
2.54574
0.221518
0.327395
0.0863083
0.250039
0.00624186
0.0799523
-1.04164
0.0748234
0.294899
0.186224
2.55377
0.287899
0.289161
2.56087
0.0625563
2.55622
0.289398
0.279847
0.294871
0.108297
1.90026
0.290535
1.9262
0.276774
0.329779
1.99616
0.326041
0.329946
0.178869
1.99717
0.286481
0.0767889
1.96548
0.306331
-0.09218
1.96451
0.467655
0.121289
0.0875745
0.436333
-0.762939
0.446824
2.45114
0.172476
0.330055
0.0203964
0.0554445
0.0188863
0.294059
0.333676
0.112738
0.0857035
0.294364
0.114907
0.0563669
0.0588444
0.258732
0.29309
0.0142068
0.283999
2.2726
0.0857201
0.304854
0.291568
2.36839
0.340532
0.101412
2.99944
0.184471
0.290586
0.0445987
0.159969
0.332055
0.284194
0.217912
0.218471
0.295302
0.216499
0.468787
0.291651
0.291494
2.00175
0.231148
0.332906
0.317269
0.291108
0.306013
0.307548
0.0700437
0.294683
0.290312
0.296606
0.283271
-0.0794565
1.97816
0.290822
0.0909339
-2.15153
0.252511
0.0973088
0.291365
-0.234173
-0.0334127
0.287171
0.0557254
0.205777
-0.0464949
0.18446
1.68611
0.276076
0.278283
-0.0255687
0.276395
0.233969
0.326472
0.102174
0.27799
0.277731
0.105871
-0.132866
2.49183
0.0650833
0.097189
2.60203
0.0596067
0.109194
0.338179
0.0921962
2.60452
0.290817
-0.396457
-0.142626
2.94878
0.0864219
0.330981
0.260347
2.61675
0.301972
-0.222978
0.304502
2.62986
2.62046
0.124959
0.266841
-4.39793
0.220424
0.274676
3.41911
0.363773
0.26543
0.124553
0.323364
0.159626
0.0502223
0.334538
0.26625
0.106983
0.307459
0.264205
0.315602
2.78233
0.268524
0.258524
0.332036
0.0202002
0.0206011
0.0810404
0.214135
0.26507
0.307017
0.186731
0.33936
0.266159
0.332613
0.251557
0.2658
0.270731
0.299757
2.76723
0.26465
-0.0186886
0.193795
2.14788
0.0861915
0.129687
0.30666
0.0859371
0.299234
2.8178
0.28136
0.200605
0.0856197
0.331804
0.274893
0.234498
0.0855881
0.309072
0.235762
0.292611
-0.0363724
1.04933
0.0853141
0.239311
0.0852949
0.0951148
0.043978
0.297164
0.146905
1.72333
0.334691
0.121268
0.245383
0.132968
0.120686
0.239197
0.234049
2.36411
1.99638
0.0809996
0.269096
0.295687
0.0659519
0.120779
0.150337
0.294051
0.106862
0.281836
0.11152
0.292165
0.178583
0.12069
0.350813
1.31896
0.0991937
0.0815168
0.121354
2.41858
0.291667
0.107645
0.295413
0.29305
0.294943
0.289353
0.291108
0.264566
0.120751
0.113952
0.132264
1.32735
1.60613
0.0875725
0.215024
0.27253
0.041439
0.219458
1.37746
0.0299862
0.277865
0.0975088
0.0549912
0.0838624
0.0397224
0.198628
0.219551
0.0796834
0.079582
0.0773851
0.32374
0.0798043
0.182267
0.32123
0.167439
0.0762634
0.0922408
0.147996
1.23049
0.0796357
0.0701149
0.0878307
1.40168
1.89334
0.274458
0.11863
0.0460609
0.119301
0.202835
1.98711
0.100206
0.145073
0.293671
0.280343
0.220084
0.319582
2.58716
0.272814
0.279684
0.0799896
0.273497
0.298841
0.272861
0.120263
0.290739
0.3217
0.108685
0.113321
0.0802293
1.66964
0.276442
0.0880016
0.148554
0.0806047
0.0809418
0.273465
1.76582
1.02571
2.44862
0.302039
0.313611
0.0906083
0.0968839
0.288183
0.294192
-3.78139
0.0990558
0.080311
0.119776
2.19024
2.2711
0.280491
0.0808159
-3.34313
-2.85356
0.270069
-3.69538
-0.962209
0.13985
1.42186
0.323398
0.0798214
0.337012
0.0802129
0.330069
0.293561
0.320337
-2.17635
1.84707
-0.92334
0.584894
-0.37777
0.302247
0.286502
0.286809
-0.440308
0.272606
0.596568
0.290037
1.04538
0.402306
0.0646261
0.331564
-0.642504
0.308154
0.325188
2.29837
0.311737
0.0618318
0.639079
2.43254
0.254609
0.327732
0.0382178
0.0833179
0.290981
0.0614885
0.289712
0.293382
2.56824
0.285041
0.258689
0.303408
-0.736928
0.294329
0.261096
0.064077
0.25873
-1.44803
0.297302
0.10669
0.0560498
0.0637047
0.119566
0.0759642
0.28056
1.52377
0.285828
0.268558
0.237102
0.266418
0.324628
0.118835
0.282585
0.0749534
0.142003
0.100891
0.269505
0.123092
0.074487
0.316053
0.0758415
0.311953
0.338838
0.276362
0.319147
0.263566
0.274087
1.30171
0.293293
-3.37097
0.319089
0.224704
0.264913
0.323455
0.326948
0.317542
0.267542
-3.24521
1.29296
-3.40834
0.124018
0.319657
0.28543
-2.90643
-3.55902
0.290006
0.513292
0.278017
0.315648
0.261741
0.278275
0.167795
0.297939
0.0998835
-0.870572
0.221337
2.36934
0.0526646
0.105943
0.317416
0.226075
0.112844
0.0906454
0.135967
2.33388
0.208651
0.088343
0.231482
0.125842
0.282005
0.11919
0.290828
2.34752
0.315371
2.1566
0.255048
0.266179
0.144324
1.97709
2.3633
2.26141
1.9122
1.88995
0.250003
2.51596
1.09335
2.07088
0.327319
0.0915003
0.0926475
0.0927155
0.240397
1.48614
0.236904
0.197273
1.47083
1.45527
0.308229
1.47261
0.00528831
0.287733
0.235765
0.249773
0.0141636
0.0507421
0.158803
0.26518
-0.00879903
1.57374
0.183292
2.38518
-0.0324279
-0.233889
2.47293
0.282584
0.0105296
2.46834
0.20793
0.287331
0.119519
0.0618092
0.0853008
0.0706348
2.47049
0.0795818
0.0529278
-0.055769
0.0951617
2.46639
0.592737
0.0900082
0.165066
0.121219
0.152631
0.285241
0.111072
-0.177659
0.129964
0.0736697
0.257311
0.0975399
0.303715
0.169801
0.149767
0.290208
0.088035
0.0529767
0.247399
2.54832
0.249978
0.100407
0.589591
0.297345
2.56009
0.300224
0.282217
0.263974
0.548537
0.0844096
0.283456
0.0385795
0.300698
0.114013
0.581352
0.589426
0.241265
0.225464
0.0165411
2.55286
2.17615
0.164081
1.30161
2.70332
-0.465151
2.52958
0.325798
1.23015
0.303893
0.114235
0.303024
0.234933
0.0858459
0.0529949
0.0799573
2.54026
0.0766151
0.132037
0.246319
0.241029
0.0896336
0.269266
0.300663
0.230372
0.227181
0.0689994
0.209535
1.47574
0.0947278
2.5539
0.204948
0.197655
1.32089
0.323819
0.205589
0.27837
2.54685
0.0468854
0.2263
0.287923
0.120004
0.112993
0.231415
0.14532
0.280866
0.187035
0.276224
0.198889
0.23557
0.112761
0.320526
0.410412
0.215627
0.131758
0.25562
0.443231
0.257501
0.28995
0.0627264
-0.0836225
0.114584
0.114397
0.113431
0.0122377
0.126581
0.0756718
0.26243
0.275834
0.167578
0.290251
1.9483
0.237592
0.221129
0.310159
0.113926
0.312311
0.231412
0.277819
0.278612
0.0893756
0.243204
0.287779
0.299686
0.255307
0.305631
0.259105
0.19857
0.2649
0.220162
0.336707
0.318094
0.193104
0.30166
0.293867
0.298434
1.87796
0.187597
0.32824
0.310206
0.328572
0.194496
0.31863
0.142245
0.215301
0.27606
0.0572929
0.336121
0.285525
0.25164
0.0939244
1.5182
0.268581
0.194472
1.53629
0.30016
0.0424556
0.0843814
0.218752
0.102515
0.115795
0.478959
0.328599
0.205028
0.290707
1.56342
1.57054
1.59454
0.16072
0.66052
1.7744
0.0468865
0.30167
0.107065
1.58981
0.291561
0.0852192
0.296196
0.0695
-1.33807
0.0839669
0.288539
0.0957254
0.146126
0.154437
0.214852
0.271922
0.0598399
0.0370359
0.42199
0.0562858
0.304584
0.0123329
0.288974
0.0597287
0.0584522
0.0711179
0.153258
0.0560818
0.7693
0.256723
0.213089
-1.17063
0.745106
0.152184
0.0545832
0.0824076
0.0405007
0.0824162
0.0545082
0.0355917
0.0359641
0.0872528
-0.616774
0.17812
0.279215
0.277541
0.0869519
0.758487
0.260359
0.544071
0.131867
0.0366688
0.711758
0.0484197
0.0360573
0.0877277
1.25963
0.949659
0.717776
0.3369
0.72657
0.263618
0.0129704
0.0776855
-0.044918
0.27162
1.69747
0.200882
0.26041
0.258335
-0.631312
0.19872
0.254962
-0.4831
0.0378767
0.255008
2.11091
0.221067
0.148991
0.0381655
0.22156
0.00715121
0.333687
0.00326641
0.224745
0.150984
0.00843399
2.61771
0.0939521
0.299883
0.00139678
0.119362
1.2587
0.26807
0.00637053
0.0809245
2.2823
0.0943652
0.192995
0.0634366
0.840981
0.0642942
1.61172
0.416368
0.00286775
0.0835848
1.70605
-0.0160676
0.245448
1.26481
-1.22706
0.0428714
0.122013
0.271206
1.2654
0.338515
0.333914
0.295365
0.0842631
-4.0303
0.0840716
-3.47592
0.0873174
0.0261477
0.0835696
0.0780143
0.173178
0.0834273
0.0826472
0.101817
0.0882063
0.162249
1.28853
1.21673
0.466336
1.21065
1.08346
1.22655
0.0866299
0.261629
0.227
1.2999
2.35113
2.11768
0.249643
0.108195
0.550658
1.22273
1.94919
1.7347
0.223652
2.80689
2.08678
1.20729
0.19169
0.0795873
2.39861
2.39051
2.44326
0.746786
0.366141
1.42281
0.0424465
1.57593
0.0466609
2.34912
0.12868
1.76037
1.66585
0.0798346
0.0469113
-0.0209889
2.34952
0.140974
0.419357
0.246478
0.0584605
1.93653
0.283827
0.113971
0.0962364
0.059638
0.14239
0.256131
1.89978
0.415114
0.0610932
0.109297
1.60185
0.156841
2.63621
2.1369
1.60537
0.159303
0.250641
0.095165
1.38251
0.240849
0.236306
0.150858
0.0212999
0.117516
1.62724
0.13952
0.120567
1.14046
2.50943
0.286516
0.0758836
2.2985
0.0735529
0.112551
2.49781
0.0598781
0.0608838
0.274983
1.0535
2.77614
1.17149
0.107131
0.129169
0.270221
1.0898
3.54494
0.273016
2.62935
0.217628
0.270071
0.217972
0.164152
0.184361
-3.07828
1.22825
0.204762
2.10094
0.226875
0.22515
0.584549
0.113322
0.175622
0.261515
1.36791
-3.0154
0.22234
0.0898207
-0.00872186
-3.86195
0.090875
0.0744798
2.79533
0.0539338
0.135643
0.229257
0.223516
0.303677
0.0827704
0.30288
0.301051
0.029693
0.270149
0.111972
-0.886119
0.0983682
1.21141
4.16874
0.126176
-1.11768
0.269443
0.175408