/*--------------------------------*- C++ -*----------------------------------*\
| =========                 |                                                 |
| \\      /  F ield         | OpenFOAM: The Open Source CFD Toolbox           |
|  \\    /   O peration     | Version:  v2012                                 |
|   \\  /    A nd           | Website:  www.openfoam.com                      |
|    \\/     M anipulation  |                                                 |
\*---------------------------------------------------------------------------*/
FoamFile
{
    version     2.0;
    format      ascii;
    class       surfaceScalarField;
    location    "2";
    object      phi;
}
// * * * * * * * * * * * * * * * * * * * * * * * * * * * * * * * * * * * * * //

dimensions      [1 0 -1 0 0 0 0];
oriented        oriented;


internalField   nonuniform List<scalar> 
210647
(
0.000943862
-0.000945757
-0.000889109
0.000891328
0.000529138
-0.000298039
0.00089398
-0.00112469
0.000543945
-0.000757359
0.000135715
7.78156e-05
-0.00159121
0.000741225
0.00061346
0.000236666
-0.000278092
0.000795727
-0.000241209
-0.000276224
6.80969e-07
3.25041e-05
-1.24213e-06
-3.1845e-05
-0.00120844
1.17567e-05
0.000565359
0.000631681
2.14465e-07
-6.19378e-05
6.18356e-05
0.000526126
0.000902519
0.000709973
-0.00213845
-0.00010425
0.000675714
-0.000388656
-0.000182501
0.000381706
0.000119796
0.000406805
-0.000907903
0.000244995
0.000695863
-0.000380627
-0.000559838
-0.000613074
0.000681288
-0.000458257
0.000390141
-0.000127749
7.76226e-05
-7.28e-05
0.000123155
-0.000504554
0.000159028
-0.000241239
0.000587025
-0.000550174
0.000622501
-0.000154472
8.21454e-05
-0.000464697
0.000556406
8.82609e-05
-0.000179778
0.000203887
-0.000274199
0.0003121
-0.000241506
0.00148859
0.000181868
-0.00086859
-0.000801773
-0.000503342
-0.000730822
-0.000142544
0.00137703
-1.46253e-05
0.000327278
-0.000312548
0.000633481
0.001419
-0.000988161
-0.00106422
-0.000357775
5.11504e-05
0.000505381
-0.000198467
0.000707492
-0.000713347
-0.000680491
0.00068666
-0.000699994
0.000870919
-0.000420525
0.000249747
2.37102e-05
-0.000268992
0.000326016
-8.0381e-05
0.000863269
0.00123836
-0.000584705
-0.00151685
0.00155803
7.43092e-06
-0.000227729
-0.00133732
-0.00156652
0.000645278
-0.000226221
0.001148
0.000324003
-3.22957e-06
-0.000313553
-7.14402e-06
-0.0015622
0.00119378
-0.000595728
0.000964329
-0.000242299
-1.93931e-05
0.000146434
0.000115667
-0.000463492
0.00132684
-9.61728e-05
-0.00124986
0.00141485
-6.8446e-05
-0.00160108
-0.0005654
0.00231549
-0.000148943
-0.000157937
8.39241e-05
0.000754353
-0.000680098
0.00107835
-0.000245253
-0.0001049
-0.000728106
-0.000138799
0.000957081
-0.000818027
-0.00632277
-0.000563049
0.00433337
0.00255477
0.00179371
-0.00202842
-0.00361165
0.00384674
0.00043459
0.0011256
-0.00145556
-0.00010393
-0.000346439
-0.000386236
-0.000382738
0.00111571
-4.67805e-05
-2.6359e-05
7.34318e-05
-4.58498e-05
-0.00162402
0.00166999
0.000418526
-4.3052e-05
3.9555e-05
-0.000415024
0.000259397
0.000176347
-0.00180513
0.00136905
0.000614937
0.000160962
-0.000844914
0.000684334
0.000801789
-0.000851656
-0.000537756
0.000588323
-0.000694142
2.07971e-05
-0.00166394
0.00233762
-0.000908393
0.00141303
-0.000800124
0.00029563
0.00268104
-0.000701389
-0.000539775
-0.00143838
-0.000454857
-0.000515696
-0.000137995
0.00110895
-0.000518812
0.000781714
-0.000325928
6.31563e-05
0.00011088
0.000217905
0.000141331
-0.000469703
0.000597715
0.000269876
4.29443e-05
-0.000910137
-0.00024022
0.00144511
-0.000580711
-0.000624095
-0.000329101
0.000182962
-0.000183274
0.00032958
0.000554756
0.000121905
-0.000748126
7.15718e-05
0.000521197
-0.00083306
-1.81211e-05
0.000330228
0.000628294
-0.000859727
-0.000118411
0.000350023
2.17698e-06
9.73749e-05
-0.00116596
0.00106656
-8.36236e-05
0.000435162
-0.000823968
0.000472649
-0.000235788
-3.36964e-05
-5.34223e-05
0.000323141
7.12269e-05
0.00128015
-0.000363492
-0.000987768
-0.000824079
0.00106843
0.000102568
-0.000346351
-0.000679063
0.000113812
0.000565331
-0.00111302
0.000740276
0.00021803
0.000154926
0.000501804
-0.000450958
-0.000314777
0.000264443
-0.000624744
0.000522019
0.000656926
-0.000553835
-3.36493e-05
-0.00079216
6.66619e-05
0.000759407
-0.000656825
0.000177698
0.000784566
-0.000305305
0.000670086
-0.000276092
0.000221364
-0.000615137
0.000146565
-0.000555395
-0.000247824
-0.000345951
0.00096021
0.00056166
-0.00117559
0.00114586
-0.000791837
-0.000443473
8.96414e-05
-0.000239291
3.70711e-06
-0.00124791
0.00136717
-0.000307633
0.000188914
0.000886305
-0.00172706
0.000952921
-0.000112063
-4.00062e-05
-0.00127666
9.81303e-06
0.00130699
-0.000139136
-0.000648941
6.85483e-05
0.000719743
0.000380846
-0.000403087
2.16892e-05
8.01096e-07
0.000408053
0.000993059
-0.000796431
-0.000604573
1.15546e-05
-0.000496367
0.000484998
-0.000310092
0.000219442
-0.000198811
0.000289922
3.69474e-06
6.87826e-05
-0.000138843
6.66402e-05
-0.00060763
-0.000385381
0.00110215
-0.000108751
-2.24619e-05
-0.000445921
1.81983e-05
0.000450422
-7.47137e-05
-2.7459e-05
0.000431051
-0.000328721
0.000833693
0.000734423
-0.000714998
-0.000852925
-0.000719764
0.000266191
0.000532265
-7.8547e-05
0.000315953
0.000478041
0.000193563
-0.000987469
0.000298011
-9.59023e-05
-0.000921672
-0.000207709
0.000281608
-7.38209e-05
0.000835939
-0.000824129
-0.000425158
0.000413531
-0.000125028
-5.98453e-05
0.000401812
-0.000216584
0.000476093
0.000296851
-0.000456907
0.00035301
4.42163e-07
0.000130633
-0.000483981
-0.000489479
0.000468921
-5.99164e-05
8.05493e-05
0.000104412
0.000374517
-0.00049838
1.95555e-05
0.000423843
-0.000827324
-0.000128727
0.000532401
0.000102975
-0.000853016
0.00215682
-0.00140655
0.00084422
-0.000542668
-0.000384443
8.33555e-05
-0.000150649
0.000472303
0.000134936
-0.000456147
0.000346156
-0.000563964
0.000238239
-2.03096e-05
0.00113414
0.000674869
0.000168934
0.000156987
-0.00100047
-0.000900771
-0.00402246
0.00191615
0.00300714
0.000452028
0.000640272
-0.000841754
-0.000250391
0.000202083
-0.000479002
-0.00433528
0.00461504
0.000799136
-0.000440986
0.000506989
-0.000865025
0.000556361
0.000844109
0.000804773
-0.000968481
0.00016465
-0.00146406
0.00176962
0.000762597
-0.00106513
0.000620929
-0.000139556
0.000351427
-0.000832557
0.000674651
0.00105966
-0.000918262
-0.000815924
0.000500058
-0.000247217
5.55282e-05
-0.000308233
0.00035472
0.000332361
-0.000609081
-7.78315e-05
0.00337724
-0.00177689
-0.000515478
-0.00108462
0.000341889
0.00103445
-0.000898158
-0.000141093
-3.636e-05
-7.19402e-05
0.000249715
0.000511556
-0.00145078
0.000513519
0.000425811
0.00132205
-0.0010253
-0.00232202
0.00202477
0.000200872
0.000168119
1.45359e-05
-0.000383429
-0.000107719
-0.000557646
0.000665541
0.000286484
-0.000423394
-0.000865842
0.00100289
0.00101613
0.000681021
-0.00114566
-0.000550996
0.000895868
7.87631e-05
-0.000795885
-0.000178536
-0.00107419
0.000703179
0.000882638
-0.00239224
-0.00123938
0.00173985
0.0018919
-9.68755e-05
-4.20574e-05
-0.000292299
0.000431477
1.09427e-05
-0.00101038
-0.00139266
-0.00110477
-0.000311705
0.00124137
0.000175395
0.000699717
0.0029187
-0.00479301
0.00117656
0.00123212
-0.000352394
7.03983e-05
-0.000949917
0.000113632
-0.000672987
-7.502e-05
0.000634539
-8.62719e-05
-0.00148959
0.000501778
-0.000311615
-0.000568234
-0.000157975
0.00103798
-0.000611133
6.50879e-05
0.000612905
-6.6702e-05
2.10081e-05
-4.80665e-05
0.000130422
-0.000103075
-0.000589391
-0.000355765
0.000165305
0.000780046
0.000437946
2.41926e-05
-0.000597483
0.000135439
-0.000332184
0.00027944
0.00112604
-0.00107319
0.00258847
-0.000516828
-0.00120778
-0.000863749
0.00105001
0.000299205
0.00080885
-0.000178439
0.000146259
-0.000776448
0.000451316
-0.000168882
-0.000399929
0.00011764
-0.0030274
0.000462427
0.00256564
-0.000639642
0.00025137
0.00544557
0.000210041
0.00138314
-0.00703694
-0.0020929
0.00425202
0.00328859
0.000169917
8.87231e-05
-0.000242736
-1.56605e-05
-0.000124798
-9.93505e-05
2.35133e-05
0.00020084
-0.0023405
-0.00735277
0.0046003
0.00509539
-0.000947909
0.000248904
-0.000358473
0.00105767
-0.0013596
0.000777191
-0.000127231
0.0007103
0.000170925
-0.000211357
0.00125503
-0.0012141
0.00210078
-0.00299557
-0.000891384
0.00178621
-0.00249221
-0.00223955
0.00340829
0.00132353
0.00111537
-0.000400078
-0.000524168
-0.000190892
-0.00901911
0.00458778
0.000566676
0.000249363
-0.00447157
-8.00721e-05
-0.000146762
-0.00055329
0.00078033
-4.04662e-05
0.00073308
-0.00067578
-1.66135e-05
0.00010058
-1.84153e-05
0.00018866
-0.000270536
8.33504e-05
0.00208558
-0.000491336
-0.00167588
-0.000182819
0.000224894
-1.91582e-05
-2.27532e-05
0.000177279
-0.000197508
2.04363e-05
-6.18146e-05
0.000864401
0.000124949
-0.00101137
2.23733e-05
-0.000477257
0.000415469
-0.000986442
0.0010484
-0.000891362
0.000688241
0.000265234
-6.17657e-05
0.000390837
0.00118201
7.55677e-05
-0.00164814
-0.00056568
-0.000616749
0.000680285
0.000502336
-0.000151901
0.00059194
0.00103277
-0.00147253
0.000886183
0.000110687
-0.000613352
-0.000383199
-0.00236682
0.00494545
-0.00673574
0.00415786
-0.000218781
-2.55336e-05
4.70594e-05
0.000240669
0.000993451
-0.000614743
-0.000619076
0.000792497
-0.000152567
-0.000587255
-5.25567e-05
-0.000219232
-3.40042e-05
-0.000347551
0.000601035
0.00015859
-0.00100542
0.000228712
0.000618224
0.00270655
-0.000879501
-0.000730476
-0.00109653
-9.9819e-05
0.000126061
-6.77094e-05
4.14809e-05
-0.000377622
0.000520751
2.09738e-05
-0.000163592
-0.000133473
-0.000488968
-0.000317036
0.000939755
0.000182658
-0.00135861
0.00202496
-0.000848948
-0.000188658
0.000531079
3.14029e-05
-0.000373474
-0.000323513
-0.000141667
-0.000136793
0.000602323
-4.47601e-05
-8.68781e-05
3.18378e-05
-0.000394047
0.000645237
0.000170324
-0.000421216
0.00120017
0.00148315
-0.00268413
8.89405e-07
0.00066612
-0.000531766
-0.000196107
6.19625e-05
-0.00244014
0.00349417
-0.00189919
0.00084549
-0.000664446
0.000742497
0.00044984
-0.000527609
0.000705645
0.000559441
-0.00105502
-0.000209815
0.000205424
0.00124593
0.000461534
-0.00083136
6.36731e-05
0.000306439
-7.21824e-05
-0.00102421
7.37172e-05
0.00102297
1.06843e-05
-4.7768e-05
0.00016317
-0.000190796
-0.000139251
0.000342396
-1.21243e-05
-0.00238351
-0.00116865
-0.000461932
0.00401469
-1.6688e-05
-0.000354102
0.000370902
-0.000724179
-0.00159465
-0.00021876
0.000804927
0.000411366
0.00039515
-0.00161084
-0.00107153
-0.000634865
0.00170622
-7.844e-05
7.94704e-05
-0.000901202
0.000900338
0.00162549
0.00287634
-0.00872418
0.00422274
0.000461704
0.000498864
-0.00107418
0.000113817
0.0061365
-0.00491921
0.00484508
-0.00606693
0.000989938
-0.00129726
0.000531918
-0.000224144
-0.000687318
-6.29541e-05
0.000750473
-0.00673194
0.00159404
0.00277199
0.00493342
-0.0208922
0.00794272
0.00801603
-0.00041826
0.00308116
-0.00266179
0.000283002
-0.000323753
-0.000128234
0.000169077
-0.000107217
-4.53399e-05
0.000466403
-0.000313609
0.000933885
-7.50597e-05
-0.000940277
8.16708e-05
0.00265039
-0.00124269
-0.000299136
-0.00110851
0.000421153
0.000533893
-0.00155111
0.000596281
-0.00100669
0.00180934
-0.000991988
0.000189581
-0.000259907
0.00134219
-0.0047772
0.00369543
0.00225714
-0.000676644
-0.000589513
-0.000990668
0.00224217
0.000662502
-0.00466425
0.00175984
0.00048196
7.75595e-05
-6.0114e-05
-0.000499227
0.000127224
-0.000106382
3.2304e-05
-5.29663e-05
0.00124505
0.000973428
0.000431933
-0.000315489
0.000323312
-0.0010327
0.00102521
-0.00259815
0.00662632
0.000639809
-0.00466457
-0.000327892
0.000131434
0.000132216
6.4477e-05
-0.000204444
-0.00110423
0.0013086
-0.000892335
0.000368341
5.09116e-05
0.000473377
-9.13395e-05
-4.83315e-05
0.000108035
-0.000515802
0.000456391
0.000699928
-0.000113259
-0.000811487
0.000224962
0.00015939
-0.000306207
0.000146884
9.06267e-05
-0.000209622
-0.00169466
0.00181379
-0.000237835
0.000998742
-0.000774639
1.38389e-05
0.000892291
0.000207062
-0.000507684
-0.00059117
0.00124033
0.000909706
-0.00283361
0.0006836
-0.00023562
0.00017092
6.47534e-05
0.00027387
-0.000314655
-0.00107364
0.0011147
-1.06808e-06
1.04434e-05
-9.31425e-06
0.00157034
0.00177078
0.00373824
-0.0003407
-0.00107141
-0.00232605
-6.50114e-05
0.00035794
-0.00121183
0.000918909
0.00184623
0.0128127
-0.0146901
3.10457e-05
0.000141115
0.00108725
-0.00245973
0.00123071
0.00261841
-0.000582959
0.00178872
-0.00382414
0.000685674
-0.00119521
0.0014357
-0.000925983
0.000431273
2.40036e-05
-0.000455167
-0.000151156
-0.00025408
-0.00130026
0.00170562
-0.0010102
-0.000752725
0.00109013
0.00067297
-0.000861562
0.00123929
0.000104194
-0.000481638
-0.000428418
0.00034534
-0.00287783
0.00296096
0.0021471
0.00138104
0.0026665
6.24126e-05
-0.00315728
-0.000511537
4.66352e-05
-0.000170142
0.000635321
-0.000684233
0.000641115
0.00153166
-0.00148836
6.54186e-06
1.50717e-05
-1.81062e-05
-3.36549e-06
-0.00102443
0.000918371
0.000341618
-0.00023533
0.000371627
-0.000717296
-0.000881669
-0.000758618
0.000404581
0.001236
-0.000553877
-0.000198495
-0.000153193
0.000905632
0.00169583
-0.000437817
-0.000569533
-0.000688444
0.00064102
-0.000300506
-0.000395697
5.55822e-05
-0.000887484
0.000664445
-0.000597688
0.000821036
0.00081063
-0.000436309
0.000841464
-0.00121518
1.27001e-05
-3.23664e-05
2.63481e-05
-0.000709731
0.000124619
0.00101554
-0.000430223
-2.22224e-05
-8.79147e-05
3.65281e-05
7.3684e-05
-0.000652815
-0.00100654
0.000809082
0.000850413
0.00255969
-0.00383885
-0.00184542
0.00312415
0.00430374
0.000786679
-0.00874109
0.00368851
0.000432823
-0.000317231
0.00361377
-0.00372894
-0.000940216
-1.65027e-07
0.000305335
0.000635247
0.000544214
0.000436466
3.0689e-05
-0.0010112
0.0102423
-0.00507631
0.00162508
-0.00679162
-0.000933335
-0.000361305
0.00046999
0.000825037
-0.000264098
-0.00126525
0.00103615
0.000493579
-0.000590753
0.00138016
0.000584465
-0.0013734
0.000306047
0.000467321
2.89903e-05
-0.000802668
0.000602111
-0.00013981
-0.000156487
-0.000155461
0.000136225
-8.31534e-05
0.000102702
-0.000582693
9.98595e-05
-0.00115738
0.00164037
-0.000422049
0.000875543
0.000292848
-0.000746069
-0.000199183
0.000553091
0.000231994
-0.000585828
-0.000716606
0.000549396
-0.000813423
0.000981039
8.62391e-05
0.000900613
-0.00112097
0.000134553
-6.74983e-07
0.00142295
-0.00138516
-3.66086e-05
0.00013713
3.08305e-05
-0.000280373
0.000112727
-0.000524977
0.000354354
-0.00026419
0.000434946
0.000851861
0.000715156
-0.00228318
-0.000815628
-0.000131611
-2.98125e-05
0.000977303
7.97027e-05
-0.000234354
0.000676067
-0.000521038
-0.000671775
0.000523456
0.000163052
-1.45907e-05
0.000613085
-0.000304954
0.00123963
-0.00154757
0.000229918
0.000150126
-0.00114466
0.000764832
-0.000612531
0.000696748
-8.40206e-05
4.38369e-05
-3.17972e-06
1.03903e-05
-5.10032e-05
0.00156817
0.000182788
-0.000229812
-0.00152168
0.00453875
-0.000451327
-0.000578108
-0.00350903
0.00122425
-0.000946442
-0.000471371
0.000193854
1.12748e-05
3.26604e-05
0.000209547
-0.000807568
0.00101307
-0.000414838
-1.88747e-05
0.000200073
-0.000179278
-1.61415e-06
9.95893e-05
2.4247e-05
-0.000123784
-0.000369385
-0.000355793
8.73628e-05
0.000638126
0.000158741
-2.5278e-05
-0.000152082
0.006792
-0.00738128
-0.00326613
0.00385496
-0.000103871
0.000215943
0.000205193
-0.000317031
-0.00129351
1.21863e-06
0.00037493
0.000917567
-0.000184059
-1.9081e-05
0.000730102
-0.000526772
0.000657721
-0.00050105
-0.000106645
-4.98349e-05
-0.000441928
-5.10481e-05
0.000508714
-1.50534e-05
0.00135995
0.00242596
-0.00234099
-0.00144511
0.000169389
-0.00016555
-0.000524108
-0.000842339
0.000702212
0.00066445
0.00631364
0.0015996
-0.0019941
-0.00591679
0.00024182
-0.000590344
-0.000837902
0.00118675
1.64494e-05
0.00108075
-0.000351298
-0.000745523
0.000176568
-4.07368e-05
-4.02135e-05
5.1809e-05
0.000509004
-0.000520407
-0.000444513
4.212e-05
0.000362347
0.000400771
0.000112965
2.06607e-05
-0.000534251
0.0125023
-0.00116158
-0.0114974
0.000193002
0.0266509
-0.0132054
-0.027166
0.0159116
-0.00521066
-0.000645562
-0.00141119
0.00726699
-0.00097873
0.000809276
-0.000176562
0.00034613
0.000601542
-0.00192873
7.79817e-05
0.0012496
0.00175831
-0.000574949
-0.000853181
-0.000329827
0.00350976
0.000154972
0.000742727
-0.00440883
-0.00416372
-0.00679328
-0.000191114
0.0111493
0.000202147
-0.000174147
0.000835067
-0.000862904
-0.0052767
-0.00224785
0.00752576
-2.69535e-05
0.000636055
-0.000608894
5.18403e-05
-5.74856e-05
-0.000814555
0.000820407
9.47958e-06
-0.000837974
0.000299266
0.000529421
1.22774e-06
0.00123474
-0.000247676
-0.000988045
-0.000123733
-0.00097877
0.000693301
0.000409303
1.40352e-05
0.000967674
8.32283e-05
-0.00106477
-0.00076682
-7.12005e-05
0.000837493
0.00128523
0.000282028
-0.00109079
-0.00047626
-0.000392963
0.00114943
-0.000399883
-0.000356298
2.01199e-05
-0.000336212
-0.000116889
0.000433229
-0.000354706
0.000286587
0.000480362
-0.000411955
-0.000798527
0.000483408
-9.53958e-05
0.000410703
-4.6975e-05
0.000556432
0.000286334
-0.00079564
2.5503e-05
0.000119466
-0.000144868
-0.000831044
-6.74649e-06
3.94201e-05
0.00090208
-0.00048657
0.000290967
-0.000706229
2.26231e-05
-1.25813e-05
-9.87391e-06
-0.000209866
0.000162319
4.72948e-05
-8.21503e-05
0.000370203
-0.000904617
0.000616269
0.000673824
-4.37096e-05
-0.000508547
-0.000121448
0.000206527
0.000867089
-0.000152216
-0.000921181
-0.000783432
-0.000181687
0.000374679
0.000590622
6.46532e-05
-0.00171765
-6.89924e-05
0.0017222
0.00061794
-0.000119066
-0.00049863
2.37346e-05
5.69961e-06
-2.93509e-05
-0.000643982
-0.00153844
0.00145348
0.000729376
0.00186398
-0.000150435
-0.000428124
0.000795208
-0.000705704
0.000394026
0.000500212
-0.000171993
-0.00120282
0.000874816
7.8044e-05
0.000791989
-0.00117576
0.00030618
0.00162464
-0.00137496
-0.00083291
0.000583663
-0.000819973
-0.000373973
0.00108021
0.000114033
-0.000301201
-0.000250615
0.00135501
-0.000803086
-6.61389e-05
0.000466932
-0.000400506
0.00836642
-0.00364479
-0.00282039
-0.00264502
0.000485504
0.000311458
0.000188103
-0.000984853
-0.000533045
0.000472351
-0.00082105
0.000882084
9.91303e-06
0.000878857
-2.14482e-05
-0.000867154
0.00134772
-0.00668239
0.0161259
-0.0108897
0.000483485
-0.00142982
-0.00201858
0.00296551
0.00576016
0.00582378
-0.0125651
0.000983602
-0.000274946
0.000783729
5.31665e-05
-0.000561533
0.000210096
-0.00109816
0.00177164
-0.000883066
-0.00315251
0.00389911
0.00299253
-0.00373908
-0.00119588
0.000636224
0.000563832
-3.83834e-06
-0.00401675
0.00326341
0.00157361
-0.000820191
-0.00579358
0.00244621
0.00019486
0.000108369
-9.13287e-05
-0.00231998
0.00230338
-0.000151202
-0.000264693
-0.000838494
0.00125437
-0.000289361
-0.000438736
0.00041418
0.000314206
-2.95462e-05
-8.13561e-05
4.463e-05
6.64449e-05
0.000574166
-0.000480693
2.20549e-05
-0.000115279
0.00168867
-0.000131022
0.00464214
-0.00619757
-0.000497518
3.7675e-05
-0.000322327
0.00078252
0.00169635
0.000131531
0.00410715
-0.00593505
-0.00476425
0.0043044
0.000459865
1.72426e-05
-4.2471e-05
-4.11781e-06
-0.00195729
-0.00507543
0.00226852
0.00013298
-0.000373432
0.000229814
1.08618e-05
-0.00173988
-0.000294971
0.00203461
-0.00306924
0.00153863
0.00103547
0.000495895
-0.007923
0.00903842
-0.0196579
0.0182336
9.50036e-05
-9.48556e-05
-0.00092667
0.000926667
0.000129742
0.000499599
-0.000793836
0.000164592
0.000952569
-0.00155843
0.00113214
-0.00232474
-0.000598981
-0.000144769
1.88896e-05
0.00924371
-0.00353026
-0.00573259
5.3152e-05
3.37128e-05
-0.00450046
0.00441334
7.37698e-05
-0.000233166
-0.000542855
0.000702456
-0.0013598
0.00148393
0.00102768
-0.00115158
3.94521e-05
-2.20022e-05
5.8987e-05
-9.58791e-05
8.60461e-05
-4.87693e-05
-0.000211706
-0.000206391
-0.0001076
0.000525769
-0.0015489
0.000457004
0.000354483
0.000737632
0.00119881
-0.0110151
0.00982436
2.28562e-05
-3.22545e-05
9.67134e-06
-0.000741681
-0.000430869
2.66585e-05
0.00114617
0.00832748
-0.00376278
0.00714318
-0.0120462
-6.63766e-05
0.000548653
4.66605e-05
-0.000528751
0.000409644
-1.29418e-05
-9.88342e-05
-0.00029753
-0.00127408
0.000890108
0.000944227
-0.000560019
0.0194332
-0.0248517
0.0171333
-0.0109746
-3.92328e-05
0.000881281
-0.000782952
-5.88352e-05
-0.000362678
0.000130942
-0.00123032
0.00146198
-0.000157408
-0.000129857
0.000287421
-0.00166807
-0.0183168
0.021375
0.000285357
0.000797732
-0.000154893
-0.000927789
-0.00867547
0.00890694
0.00455553
-0.00478199
8.83154e-05
-1.62667e-05
-7.18763e-05
-0.000156173
0.000266271
-0.000285731
0.000175851
0.000187532
-0.00523854
-0.00258744
0.00763738
-5.14254e-05
-0.000761911
0.00065615
0.000157463
-0.00212475
0.00396697
-0.000959133
-0.000883303
0.00686502
0.00570942
-0.0112903
-0.00133209
-3.25338e-05
2.0567e-05
-1.01945e-05
-0.0123501
0.00359766
0.000928542
0.00310687
0.000240497
-0.005117
0.0017708
0.00743191
-0.0189063
-0.000825444
-0.000974792
-2.72162e-05
0.00122143
-0.000219329
0.000184046
0.000215815
0.000468872
-0.000868551
-0.000494537
-0.000178552
0.000661606
1.18332e-05
-0.00103768
-7.86921e-05
0.00066747
0.000448965
0.000155733
0.000183629
-0.000991943
0.000652962
-0.000520207
-3.61031e-05
0.000556773
0.000420921
-0.000122134
-0.000721905
0.000423259
-0.000280808
0.000119829
-0.000230611
0.000391873
-0.000847282
8.49044e-05
0.00113666
-0.000374081
-0.00121195
-0.000151654
0.0013901
-2.61193e-05
-4.87062e-05
0.00018364
-6.79188e-05
-6.68989e-05
0.000165096
-0.000276999
0.000604782
-0.000492033
0.00182462
-0.00075558
0.000430493
-0.00149905
0.000306655
-0.00108253
-0.000673753
0.00144991
0.00139826
0.000747554
-0.00175471
-0.000727141
-0.00065005
0.00053012
0.000136259
-3.15894e-05
-0.000153231
-0.00045918
5.54706e-05
0.000245237
0.000158772
-0.000321265
0.000466696
-1.17579e-05
-0.0001335
0.000366516
-2.46667e-05
-0.00106868
-0.00189407
0.000404993
0.000649347
0.000840355
-0.000537144
0.000460074
-0.000442546
0.000605727
-3.55721e-05
8.37276e-06
-0.00057823
0.000198398
-0.000428542
0.000103558
0.000126901
-0.000235085
0.000101309
0.000283271
-0.000149207
-0.000117583
-0.000316015
0.00101127
-0.000577217
-0.000536719
-1.10503e-05
0.000459243
8.86421e-05
0.000219926
-0.000393177
5.66738e-05
0.000116443
-0.00122216
0.000353334
-0.000667848
0.00153692
0.000800146
0.000751475
-0.00133185
0.00281507
-0.000411442
-0.00281034
0.000407135
0.000331579
-2.51875e-05
0.000794025
-0.00110017
-0.000542301
0.000937307
2.49996e-05
-0.000419881
-0.000298468
-0.000181223
0.000479949
-0.00189061
4.42343e-05
0.00264625
-9.20132e-05
5.97035e-05
-0.000509886
0.000103369
-0.000268846
0.000855887
-0.000690225
-0.000308331
-1.66297e-05
0.000325064
-0.000693709
-1.86012e-05
0.000116681
0.000595852
0.000524645
-0.000588828
-0.0011424
0.00120675
0.000477777
0.000149381
-0.000464973
-0.000161891
0.000181729
0.000417886
-0.000599452
0.000661473
-0.000672514
1.11492e-05
0.000667972
-0.000165516
-2.55147e-05
-0.00047682
-0.00145897
0.0010875
-0.000912156
0.00128449
-0.000475691
-0.00041572
0.000891332
0.00197883
0.00127871
-0.00205957
-0.00119784
0.000684338
0.00049164
-0.000851118
-0.000324691
0.000823108
-0.00141236
0.00026822
0.000321291
-8.30915e-05
0.000978104
-0.00140319
0.000508418
-0.000228726
-0.00137237
0.000934744
0.000666639
-0.000827455
5.31946e-05
0.000774344
0.000108351
0.000858802
-0.000843804
-0.000123163
-9.98606e-05
-0.00105677
0.00109772
5.90863e-05
-0.000617639
0.000665818
-2.50347e-05
-2.30078e-05
-0.000630522
-0.000263325
0.00136112
-0.000467133
0.00108897
-0.00133046
-0.000599842
0.00084175
0.000360635
-0.000371649
-0.00017732
0.000137407
0.000788781
0.000265717
-0.00119155
0.000578396
7.93217e-05
-0.000657652
0.000217226
-0.000615459
-0.000210965
0.000609356
-0.000610714
0.000789632
-6.03588e-06
-0.000172824
-7.21338e-06
0.00029363
3.76684e-05
-0.00061546
0.000974362
-0.00118622
-0.000157331
7.20106e-05
-0.000864805
0.000950419
-0.000496534
-0.000486368
0.00103537
-5.23409e-05
0.000853806
-0.000703404
0.000824757
-0.00097477
0.000270085
-0.000442848
0.000172829
-0.00107644
0.00012983
0.000864978
8.18119e-05
0.000485833
0.000207581
-6.33964e-05
-0.000629912
-0.000870318
-0.000218517
0.000888721
0.000200373
-0.000303603
0.000562291
4.86295e-05
-0.000307287
0.00121641
0.000754348
-0.000703308
-0.00126762
-3.66171e-05
0.00105204
0.000118544
-0.00113375
-0.000120476
-0.000154225
0.000799175
-0.000524339
-0.00356187
-0.00539394
0.00600881
0.00294835
-0.00111202
0.000445821
0.000571044
-0.000730514
0.00247707
-0.000763509
-0.000982886
-0.00169161
0.000556048
0.000220821
0.000915062
-3.82436e-06
2.53622e-05
-0.000877977
0.000856644
-0.000217044
-6.0853e-05
0.000904349
-0.000626024
0.0010804
8.1119e-05
-0.000632604
-0.000528674
-0.00010478
0.00082356
-0.00269961
0.00198085
0.000137229
-0.000114793
-0.000130932
0.000108773
1.76813e-05
0.00107844
-0.000714703
-0.000381181
-0.000662395
-0.000811835
4.16394e-05
0.00143325
-0.0005134
-0.00060124
-1.78621e-05
0.00113332
0.00160531
-0.000218526
-0.0012322
-0.000154559
0.00223064
0.00112886
-0.00175418
-0.000787863
-0.000187451
-0.00031529
0.00129104
0.000205728
0.000442711
0.00019198
-0.000839859
0.000592184
-0.00138809
-0.000491712
0.00128818
-0.00158101
0.00199464
0.000242606
-0.000656196
-0.000148678
0.000179191
-3.00553e-05
0.00114976
-0.000573113
-0.000327958
-0.000248395
0.00195265
-0.000719377
-0.00281425
-0.000672112
0.000412117
0.000466411
0.000425128
-0.000723999
-0.000157283
0.000456358
-0.000168504
0.000378611
0.000447788
-0.00104772
0.00195501
0.00108738
0.000320411
-0.000285936
0.000122456
-0.000156672
0.000735739
-0.000100564
-0.000634983
0.000384852
0.000538766
-0.0011991
0.000275799
-0.000502185
-0.000162805
0.00061566
4.98995e-05
0.000103143
1.95215e-05
0.000256758
-0.000379051
7.82477e-05
0.000523646
0.000742561
-0.00134405
0.000913147
0.000444114
-0.00135755
0.000488518
-0.000524908
3.6515e-05
-0.00194425
-0.00013825
0.00208243
8.45988e-05
9.60938e-05
-0.000180522
-0.000205037
-0.000597967
-6.82267e-05
0.000871551
0.000710242
0.000346508
-0.000216025
-0.000840317
-0.000734756
0.000643905
0.000191488
-0.000100436
1.61971e-05
-0.000445747
0.00020467
0.000224994
0.00121053
-0.000305561
-0.000868705
0.000559189
0.000420753
-0.000110896
0.000215614
-0.000440228
3.59388e-05
0.000188758
0.000947102
-0.00127536
-0.000943739
0.00127147
0.000385091
0.000184746
-0.000171275
-0.000398334
0.000593416
0.00220649
-0.00279971
-0.000749546
0.00109068
-0.000579975
0.000239239
0.00036708
-0.000143287
-0.000504167
-2.26764e-05
0.000511319
0.000241937
-0.000213214
-2.85481e-05
-0.000963295
-0.00134836
0.00212615
0.000186076
-0.0092015
0.00897361
-0.00818359
0.00830039
0.000510598
0.000886392
-0.000501812
-0.000894912
-0.000211695
0.00114065
-0.000787747
-0.000140874
0.000728529
-0.000154048
-0.000437929
-0.000136377
-0.000630126
0.000738631
-4.14115e-05
-0.00131352
3.98868e-05
0.00131557
-4.55832e-05
0.000141197
-1.04636e-05
-8.49556e-05
0.00325131
0.00135322
0.00284994
-0.00745484
0.000285141
-0.000728931
0.000542091
-9.79395e-05
0.000551999
0.000168464
4.24216e-05
-0.000762767
0.00147194
-0.00216054
-0.000754507
0.00144401
0.00125724
-2.3834e-05
-0.000107235
-0.000933538
-0.000226746
0.00119269
-3.20814e-05
-0.000735115
-0.000187646
0.0010072
-8.42447e-05
-0.0024962
-0.00247957
0.0053516
-0.000355028
0.00014224
-0.000186625
-9.6417e-07
0.000822563
-0.00156986
-0.00410315
0.0048497
-0.000682029
0.000775107
0.000696092
-0.000788774
-0.000840766
-0.000145555
0.000907638
7.91626e-05
0.000155107
-1.36983e-05
0.00321604
-0.00435481
0.0024327
-0.0014732
0.00101522
-0.00198095
0.00232645
-0.00136032
0.0013538
-1.3171e-05
-6.22886e-05
-0.00127793
0.000159277
-0.000692114
0.000620132
-8.70596e-05
0.000432546
-0.00012054
-0.00100481
0.000693165
0.00173258
0.00013932
-0.000452183
-0.00141947
0.000609479
0.000447194
-0.000107854
-0.00094849
0.000566839
-0.00061338
0.000136921
-9.03242e-05
0.000712812
0.00160754
-0.002321
0.000252215
-0.000153181
4.34708e-05
-7.10809e-05
-0.000203304
0.000293086
-1.82565e-05
7.49731e-05
2.23844e-05
-9.72105e-05
-0.00154969
-0.000331305
0.00143899
0.000442698
6.78039e-05
-0.000402515
4.69919e-05
0.00028784
-0.0003611
-0.00061646
0.00031554
0.000415931
0.000217303
0.000632743
-0.00126574
-0.00128424
0.00537155
0.000774257
0.000266955
-0.00151332
0.000472223
-0.000615219
0.000237461
-0.00158106
0.00195911
-0.000325396
2.73343e-05
0.000365994
0.00143852
-0.00058315
-0.000599175
-0.000255545
0.000247559
-0.000143084
0.00102859
-0.00113287
0.000330038
-0.00117713
0.000128458
0.000718927
-0.000634215
-0.00069527
0.000889693
0.000440227
-0.0191429
0.00653723
0.0122733
-0.00016619
0.000212858
-0.000735123
0.000688638
-8.30085e-05
6.76867e-05
0.000141785
-0.000126244
0.000334846
-6.82214e-06
-0.000303079
-2.48423e-05
-0.00479902
-0.013984
0.000330531
4.4354e-06
-0.000579909
0.00013772
0.00136487
-0.000922428
-0.000808483
0.000843389
3.5704e-06
-3.8154e-05
0.0041311
0.00103807
0.00168856
-0.00685374
1.98223e-05
-0.00104278
-1.98188e-05
0.0010431
-0.00206141
0.00190118
-0.000174426
0.00033482
-0.000704464
2.9353e-05
-4.88022e-05
0.000724167
0.00130654
0.00015215
0.000250811
-0.00170873
-0.000798142
-0.000260965
0.00030028
0.000759038
0.000418334
0.00135818
0.000203319
-0.00197965
5.25308e-06
0.00214993
-0.00493548
0.00172587
0.00105993
0.000109042
0.000549677
-0.000247135
-0.000411476
-0.000261996
0.0027665
-0.000353998
-0.00214543
-0.000430428
-0.000275307
0.000814925
0.00016508
-0.000859345
-0.000369376
0.00106397
-0.00351022
0.0029136
-0.00146442
0.00206308
0.000380851
0.000598016
-0.00168125
0.000703012
0.00091348
-0.000972594
0.00028693
-0.000227576
0.000475711
-0.000307981
-0.0013884
0.00122096
0.000238055
-0.000387346
0.000561297
-0.000412738
-0.00105285
0.00104031
-0.000649622
0.000661708
0.000238014
-0.00157829
0.000685493
0.000654955
-0.00857248
0.0042511
0.00703979
-0.00271867
-0.000636572
-0.000450912
-1.97961e-05
0.00110767
-0.00079075
0.00122344
0.000832014
-0.00126544
0.00181207
-0.00355204
-0.00182231
0.00356251
-0.00162915
0.000657646
-0.000170539
0.00114219
3.49726e-06
-2.56484e-05
-0.000112818
0.000135249
-0.000397383
-4.54711e-05
-0.0255678
0.0119437
0.0157573
-0.0026417
-0.00043109
-0.000771757
-0.000365033
0.0015679
0.000241549
0.00130121
-0.0011719
-0.000370249
-0.000282079
8.77346e-05
9.9476e-06
0.000184689
-0.000959735
0.00130027
-9.82427e-05
0.000817449
0.000355911
-0.000790398
-0.000382768
0.000903447
-0.000829682
0.0012125
-0.00128605
0.000301953
-6.35755e-05
0.000361346
-0.000599599