/*--------------------------------*- C++ -*----------------------------------*\
| =========                 |                                                 |
| \\      /  F ield         | OpenFOAM: The Open Source CFD Toolbox           |
|  \\    /   O peration     | Version:  v2012                                 |
|   \\  /    A nd           | Website:  www.openfoam.com                      |
|    \\/     M anipulation  |                                                 |
\*---------------------------------------------------------------------------*/
FoamFile
{
    version     2.0;
    format      ascii;
    class       volScalarField;
    location    "2";
    object      Qdot;
}
// * * * * * * * * * * * * * * * * * * * * * * * * * * * * * * * * * * * * * //

dimensions      [1 -1 -3 0 0 0 0];


internalField   nonuniform List<scalar> 
108993
(
1.45168e-90
7.24914e-66
6.388e-55
0
8.41143e-176
1.25573e-171
0
0
2.65147e-131
4.6549e-98
0
2.55203e-108
0
0
1.59251e-135
1.03301e-17
1.28249e-92
0
3.17573e-169
7.10608e-98
1.31623e-180
2.23615e-148
2.19973e-90
0
2.4953e-179
1.04149e-132
0
1.54846e-102
5.89533e-111
3.84361e-137
4.75359e-142
0
0
0
2.32719e-168
0
1.61451e-153
0
4.11413e-10
3.15872e-33
0
7.64851e-125
0
3.71274e-179
1.92375e-26
4.81756e-37
0
0
0
8.00054e-88
0
1.88517e-27
1.0422e-62
2.37144e-162
9.32329e-130
0
7.63756e-159
1.36829e-159
0
0
2.01822e-148
6.80352e-151
0
5.6608e-167
8.89202e-171
2.56395e-109
0
6.88244e-161
0
0
9.7061e-141
5.7232e-166
2.22654e-162
2.14832e-165
2.07316e-107
0
0
5.02792e-77
0
1.66819e-176
1.36728e-104
0
0
1.33126e-121
0
0
1.21176e-110
0
9.69631e-166
0
4.86526e-166
5.61494e-142
1.59606e-169
7.57077e-200
0
0
1.76878e-144
3.57688e-125
0
8.67108e-153
7.06094e-161
0
0
0
0
0
3.3222e-127
1.15314e-156
4.965e-170
0
7.78885e-41
7.8541e-167
1.09234e-56
5.52173e-29
1.24519e-129
5.76588e-31
1.53958e-170
0
8.67196e-23
1.81083e-140
1.25636e-119
1.6423e-141
6.09188e-25
2.21603e-70
0
4.51882e-32
7.54565e-79
0
4.75859e-143
4.25963e-147
0
8.97651e-146
0
2.08901e-10
3.86992e-137
0
7.74044e-141
0
3.17233e-131
0
1.38563e-70
4.53007e-136
0
3.11084e-143
3.48007e-145
2.22164e-159
3.07731e-133
0
1.44959e-68
1.77002e-07
2.70615e-07
3.58715e-150
2.22032e-58
0.000908484
0
2.84776e-46
1.60791e-100
8.70512e-157
3.46899e-150
3.44188e-31
2.19961e-05
2.74658e-153
3.64134e-141
0
0
2.93482e-33
6.77298e-175
0
2.48506e-164
3.40068e-127
0
7.21468e-122
5.41145e-30
0
0
3.22385e-118
8.24522e-19
3.62716e-168
5.30703e-108
1.4164e-151
0
0
2.08534e-155
8.8285e-76
3.10551e-102
0
0
0
0
7.67783e-74
0
4.69161e-154
1.45077e-124
4.22311e-23
1.09222e-133
9.06883e-59
2.95695e-81
0
1.32958e-137
6.79444e-75
8.1602e-171
6.24623e-25
2.62699e-169
7.38244e-158
0
8.21301e-16
0
0
2.26629e-116
0
3.48701e-45
0
1.68448e-17
7.00421e-29
2.07849e-10
0
1.91119e-120
0
2.05021e-154
0
1.36964e-111
0
5.79885e-43
5.89465e-23
0
2.75903e-168
2.31512e-156
2.59657e-83
1.28436e-08
1.15794e-119
4.29194e-32
2.03741e-130
2.53964e-166
0
1.15121e-141
0
9.47154e-144
3.05323e-145
0
0
2.77172e-147
0
0
0
0
1.01957e-17
9.5891e-33
4.85142e-22
1.26149e-151
0
0
1.3445e-161
0
6.76062e-132
4.06215e-154
0
2.49258e-154
1.12467e-80
1.93941e-132
3.24594e-174
3.53015e-90
0
1.30582e-40
1.0993e-29
0
1.57037e-96
7.06725e-90
2.1561e-120
0
5.77496e-118
1.02143e-186
3.96444e-62
0
3107.58
2.20349e-49
1.34522e-113
2.05506e-150
0
0
8.21701e-87
0
6.35154e-36
2.11803e-36
8.06796e-138
2.65543e-131
0
5.41485e-171
1.52187e-85
2.25082e-71
2.34785e-52
8.74919e-117
6.43374e-101
3.64963e-83
4.90776e-98
0
6.4209e-88
9.90014e-138
1.73616e-93
0
7.15355e-182
2.32276e-20
0
0
3.90793e-185
5.17265e-123
4.39915e-138
6.67664e-154
7.55788e-106
3.37676e-135
0
0
2.86265e-145
0
1.00774e-154
6.91999e-130
2.5257e-11
0
4.74638e-58
4.40285e-22
8.63259e-119
0
2.90158e-169
2.33522e-129
0
0
29.9426
8610.42
9.74432e-08
1.46724e-137
7.3738e-57
5.03709e-112
2.72284e-12
3.2515
4.33882e-114
0
0
6.66216e-138
4.03723e-150
3.77105e-119
1.45442e-134
0
1.09279e-27
3.98961e-88
7.11987e-119
5.72501e-117
0
5.38682e-77
2.43065e-142
0
7.63295e-75
5.66737e-111
0
0
0
0
0
1.3213e-113
0
8.59785e-115
1.04636e-172
1.50545e-48
5.14436e-90
4.18195e-77
8.99007e-76
0
1.2611e-81
1.62799e-79
6.72931e-134
0
262020
6.30093e-39
4.43465e-57
1.8567e-73
996.01
0
0.00818697
4.56837e-78
2.37732e-113
9.55857e-09
0
5.66234e-08
3.89012e-08
0
2.3919e-12
0
0
1.37811e-69
1.81169e-08
1.93142e-89
5.95493e-41
9.97108e-08
0
0
2.33646e-104
1.67565e-58
3.46911e-80
14966.1
9.6688e-162
4.91203e-29
7.42486e-131
3.8254e-78
1.90729e-26
6.43287e-29
7.38334e-137
3.38945e-119
1.1053e-119
3.45542e-112
1.0197e-133
4.68398e-53
493.284
0
2.85853e-87
0
1.55337e-138
0
1.27161e-125
893.115
9.77739e-55
0
2.46012e-169
107452
4.26133e-66
219.605
5.55584e-174
8.25698e-169
78.7539
0
2.75951e-16
556.491
5.04321e-189
1809.74
2.86341e-21
2433.22
7.18862e-145
2.85095e-131
1.46927e-96
2.01112e-136
2.17572e-119
0
6.96154e-124
8.79666e-124
0
5.7787e-87
1.55261e-171
0
5.88254e-39
1.28887e-46
3.3523e-31
0
1.99241e-175
0
6.80732e-172
2.27912e-84
0
0
7.0914e-135
0
0
8.01096e-102
0
2.06285e-35
3.22792e-52
1.61768e-32
4.96481e-14
0
8.07775e-63
2.00908e-127
0
4.14244e-61
1.53498e-58
0
0
1.01826e-130
3.05706e-46
0
0
1.10896e-125
0
4.92068e-68
1.56592e-18
0
4.34297e-125
6.52832e-122
3.85528e-81
1.60701e-38
3.15126e-65
1.76548e-58
3.97644e-64
0
1.33304e-68
0
1.89897e-92
0
2.50277e-58
8.27115e-22
0
1.85389e-37
3.39312e-100
8.60696e-75
5.75815e-76
4.45136e-155
5.93627e-119
0
4.06255e-68
2.30921e-33
4.12238e-17
5.65138e-79
0
2.62851e-13
3.11752e-74
1.33916e-24
8.2724e-47
1.98691e-123
2.77202e-65
1.62262e-77
9.99956e-159
7.2098e-146
2.34825e-79
0
0
8.55855e-107
8.07357e-108
2.58717e-53
0
4.14479e-105
6.6193e-15
1.10946e-121
5.73642e-86
2.9506e-14
0
4.90289e-149
4.61732e-157
3.08999e-16
7.22949e-107
0
8.76077e-125
0
0
1.23216e-67
0
1.02693e-132
1.82899e-57
0
0
0
1.04164e-109
2.48588e-134
8.39026e-16
2.42053e-118
1.83981e-150
7.38978e-22
0
1.24013e-21
0
2.19373e-125
0
0
1.23888e-64
0
1.15176e-89
2.2043e-65
0
4.2729e-68
3.82179e-58
0
1.08531e-15
8.12941e-109
4.22805e-119
3.42417e-71
0
2.25022e-65
1.23073e-52
2.13413e+06
0
7.80982e-10
2.9733e-52
3.89653e-122
0
44961.4
1.53659e-40
1.51684e-58
4.43559e-97
7.34268e-82
1.06093e-148
0
1.82161e-27
4.08477e-33
0
0
1.24186e-166
0
9.24562e-154
6.66739e-104
5.21458e-77
13442.8
0
1.10167e-127
1.39693e-157
1.63007e-74
7.26733e-47
0
0
4508.8
1.11409e-51
0
0
0
2.06967e-154
7.95649e-47
7.8059e-71
0.228282
0
0
5.50997e-66
1.6663e-63
8.23689e-80
7.66799e-31
8.82551e-157
0
1.2085e-153
1.08042e-19
4.70318e-150
1.53464e-89
0
1.28023e-91
6.06992e-141
3.91403e-115
1.63962e-32
9.36666e-33
7.42582e-32
4.70215e-05
1.06369e-81
2.75698e-27
4.92241e-12
4.51454e-32
0
2.24984e-151
0
0
3.98814e-36
0
7.50214e-35
8.47163e-98
2.48733e-32
7.88412e-120
2.15473e-30
7.15564e-65
2.04295e-46
2.6188e-34
1.51702e-31
3.0612e-33
9.32969e-19
0
0
2.89729e-65
8.49615e-101
1.86556e-05
3.75538e-55
0
1.5734e-52
3.47031e-59
0
1.76878e-50
4.47029e-100
2.18107e-134
0
3.60351e-136
1.83441e-41
7.90054e-50
0
7.92945e-40
0
5.86713e-35
1.01853e-54
0
0
2.33863e-23
3.5242e-74
3.95659e-152
0
2.22727e-66
5.81959e-51
1.13324e-39
3.79064e-35
2.90266e-48
6.31688e-36
1.36121e-23
0
5.75437e-74
52753.8
0
4.20355e-71
5.57909e-36
2.19203e-116
1.16951e-124
580244
1.94319e-86
2.16554e-20
0
85.5566
1.13215e-30
1.54821e-112
0
0
6.12393e-35
2.34511e-169
4.5264e-34
3.53007e-92
5.16782e-123
0
1.52268e-35
1.00604e-49
6.84934e-14
2.60311e-99
0.00538784
4.61703e-76
0
1.44944e-26
6.77596e-185
1.06894e-41
0
9.86047e-26
0
1.03247e-18
0
1.35469e-26
6.90723e-36
0
1.36279e-27
0
2.71662e-31
1.82085e-24
1.73169e-16
8.19722e-22
0
8.5004e-182
8.17607e-62
1.35187e-169
1.14326e-65
0
0
2.38255e-20
2.74638e-21
5.53052e-20
7.71964e-42
1.96427e-44
5.00467e-35
3.9825e-34
1.87809e-39
0
2.55997e-105
0
3.4455e-168
7.7897e-42
1.08196e-172
3.38337e-39
1.29296e-165
2.84012e-25
1.02213e-24
0
1.13982e-31
1.10486e-164
9.77704e-40
0
0
0
0
1.08808e-56
0
0
6.32875e-54
1.62294e-30
0
1.19223e-19
4.2557e-14
0
7.40027e-52
50981.2
2.90898e-21
1.53111e-73
3.94141e-76
0
6.33357e-52
6.67494e-54
4.99561e-51
8.08575e-89
1.95503e-39
0
1.07595e-119
0
4.75239e-148
1.04466e-29
2.38847e-125
1.75332e-92
0
1.6809e-34
1.22729e-05
1.06721e-79
3.26797e-06
4.71518e-131
5.64992e-42
1.2961e-33
1.05634e-164
9.48303e-60
4.84003e-38
8.42914e-116
3.7936e-104
0
7.63027e-98
1.32488e-93
3.58811e-47
0
0
0
9.9204e-100
0.693913
0
1.97696e-103
26234.9
4.09929e-134
5630.04
1.34719e-90
9.55576e-103
0
60131.6
1.42607e-28
7.55165e-137
1.05936e-42
8.03013e-72
6.32606e-85
2.50664e-96
8.00711e-36
0
4.95093e-48
2.91035e-22
2.20216e-139
1.48875e-42
1.27756e-39
3.23837e-31
1.79767e-41
5.70702e-104
9.26679e-49
0
7.04232e-43
2.02435e-133
2.73397e-30
3.50873e-64
0
650.3
3.95241e-54
8465.26
6.059e-51
1904.52
0
3.95628e-47
0
3.90992e-13
0
0
6.18907e-121
0
0
1.33745e-53
7.27405e-41
0
2.44634e-132
3.63678e-72
2.69441e-11
8.31412e-48
2.75842e-11
0
3.06459e-86
6.37459e-18
0
3.74072e-118
1.52403e-13
1.62071e-27
5.11251e-38
0
0
4.61403e-47
1.49271e-40
7.60257e-37
1.31371e-22
1.67837e-63
0
4.05782e-165
0
6.29626e-36
40562.9
7.99963e-149
0
1.06777e-16
1.69172e-40
3.33123e-43
7.91035e-132
0
1.42932e-26
5.11324e-19
0
5.11931e-07
7.55095e-39
0
44.5493
0
1.75955e-131
9368.37
193602
1.98655e-103
4.74884e-75
2.39649e-203
0
1.93617e-32
1.10877e-24
4755.51
1.19492e-83
575.501
2.1742e-24
1.28186e-34
1.38975e-98
0
2.18872e-32
4.29572e-114
2.39459e-128
2.73979e-159
3.27507e-36
1.1354e-86
5.12442e-26
0
0
2.60277e-33
5.04662e-140
7.02769e-30
3.9627e-31
3.0709e-36
3.94373e-42
1.53771e-120
2.61341e-06
3.39635e-131
1.11923e-21
0
1.18236e-80
1.15759e-152
0
3.11159e-32
2.91377e-137
1.11821e-94
204.742
0
3.63272e-33
2.69732e-143
2.08323e-47
3.22371e-25
3.13467e-10
1.85308e-114
7.96148e-28
1.98924e-14
7.13917e-44
0
2.60895e-43
9.00194e-56
6.35268e-56
7.04372e-45
1.2859e-36
2.22107e-08
4.22377e-12
8.56883e-73
5.22805e-28
3.45718e-57
1.96369e-43
9.44799e-11
4.47864e-10
0
4.86244e-143
0
1.52973e-09
0
0
1.23646e-151
6.75292e-08
0
8.45909e-58
0
0
6.30691e-71
0
9.85746e-116
2.36246e-15
1.61573e-79
3.95034e-72
0
0
9.99977e-33
0
0
3.12281e-160
0
0
2.34822e-21
0
3.39077e-101
0
0
2.29098e-44
1.50832e-36
7.39353e-48
0
0
2.35686e-39
0
2.75906e-34
2.2319e-12
2.84478e-39
7.6148e-171
0
0
5.95151e-137
1.43253e-57
2.07392e-39
0
9.99841e-174
8.93212e-66
7.02578e-117
2.44389e-17
3.03316e-69
0
1.00469e-152
1.99355e-69
3.13371e-42
1.56478e-25
0
0
7.3278e-72
1.42081e-98
4.79794e-55
0
6.88234e-120
3.35517e-170
1.69708e-120
511.211
1.21229e-73
5.36084e-38
4.35646e-129
1.52872e-26
3.86113e-22
1.23931e-136
2.85787e-38
1.49498e-49
0
1.60147e-54
3.64777e-28
1.5611e-48
4.91661e-17
1.51988e-36
0
1.05238e-132
0
0
1.15306e-37
2.13532e-26
93158.7
9.82155e-20
0
1.96688e-41
0
4.98573e-18
4.36459e-43
1.61988e-19
6.15929e-54
4.44325e-20
1.53493e-56
0.00940968
1.54225e-20
4.01401e-27
5.98244e-101
0
0
1.41267e-85
0
2.46291e-170
5.11104e-57
3.40768e-10
3.46505e-118
7.50344e-19
4.74134e-47
4.75468e-77
8.31266e-86
1.4725e-27
2.0429e-11
0
3.09604e-46
6.57928e-71
0
0
2.62465e-42
9.31817e-18
1.86317e-15
0
0
1.92967e-174
4.33779e-81
3.44475e-72
0
2.53437e-155
0
1.07255e+06
3.55885e-33
4.07835e-170
0
0
3.75489e-80
1.68147e-99
0
4.15547e-71
1.03079e-70
5.1069e-78
0
2.23794e-75
2.12749e-74
0
0
0
2.1461e-85
0
9.67296e-73
0
5.34438e-39
1.61449e-30
7.26492e-48
9.58107e-33
1.77127e-63
2.01684e-174
1.2904e-32
0
3.71979e-133
0
7.00431e-128
8.54782e-52
1.37938e-80
1.32725e-18
1.53886e-78
1.72987e-55
1.51645e-132
1.48371e-130
0
2.86654e-92
49186.4
3403.91
0
0
2.31673e-100
4.56959e-73
4.81834e-46
0
2.26571e-84
7.49005e-132
0
0
0
0
4.9067e-146
8.5035e-43
9.37113e-105
0
4.95638e-49
7.26028e-50
6.6838e-41
0
0
1.04503e-39
0
1.06674e-76
1.83117e-10
8.61543e-183
2.05969e-38
0
0
3.25045e-119
87933.7
1.28854e-29
0
6.28847e-13
3.16172e-134
4.95971e-09
1.97337e-16
0
6.03786e-95
0
2.45921e-47
0
3.11823e-52
3.52862e-164
2.16496e-17
2.69392e-14
2.17876e-21
5.51536e-101
6.98051e-174
7.69876e-21
0
0
0
0
1.94173e-166
88382.3
1.45246e-18
0
0
8.71235e-36
0
0
1.43405e-41
0
4.49604e-143
1.47236e-13
1.62701e-30
0
8.2273e-11
0
5.94354e-11
4.30835e-78
0
0
1.76769e-139
5.92622e-75
3.71273e+06
9.22254e-109
0
0
8.43563e-08
0
1.99071e-103
6.83676e-45
9.969e-45
3.36603e-30
1.92764e-16
0
7.74897e-46
1.95711e-65
0
2.33051e-137
0
0
2.12996e-38
0
2.8623e-19
0
7.84679e-138
4.06291e-38
9.93435e-127
3.90247e-137
0
0
6.38442
0
6.7313e-30
4.2118e-41
19873
0
1.83184e-101
1.96324e-127
6.53312e-20
3.63234e-89
8.7482e-51
2.06777e-53
7.3082e-53
8.34413e-42
7.52316e-55
1.90541e-149
1.79128e-52
2.27473e-49
0
0
0
0
5.34893e-87
4.14211e-121
2.09297e-110
9.82675e-109
4.01803e-148
1.51482e-66
2.64037e-70
2.69515e-18
2.39894e-139
8.45814e-80
0
2.3227e-54
0
8.38783e-109
7.71243e-86
0
0
6.28562e-111
1.43501e-17
1.02234e-30
0
3.16998e-112
2.11382e-122
9.06444e-23
3.96239e-112
2.76447e-65
1.22365e-62
0
1.83583e-55
2.09301e-56
3.79056e-135
3.65036e-56
592.929
2.24236e-58
4.73993e-37
1.64422e-48
0
2.78632e-26
0
9.60675e-100
0
0
0
0
8.97089e-144
3.13327e-39
0
0
2.03825e-47
2.53801e-10
0
0
0
0
0
7.88003e-147
0
0
1.75414e-80
0
1.46743e-52
6.38714e-23
1.39711e-18
1.06731e-43
2.96067e-05
4.15107e-25
5.28376e-128
0
8.17181e-192
9.32373e-51
0
8.22876e-71
0
2.40055e-146
3.11915e-141
1.53869e-51
1.51937e-53
0
5.54437e-37
9.22013e-36
0
2.5956e-27
0
2.81028e-135
3.99253e-24
1.77778e-133
1.44002e-61
1.08217e-15
5.46186e-40
2.78953e-58
0
5.91325e-61
0
1.03418e-55
1.02969e-12
6.64117e-37
0
3.93824e-20
1.66784e-24
0
0
3.2363e-15
7.6324e-67
1.17792e-47
1.57301e-72
3.26681e-40
0
0
1.60368e-77
7.43122e-32
0
0
0
5.9914e-75
4.02111e-25
0
2.58204e-147
6.22159e-30
0
1.79893e-149
5.44489e-117
3.90561e-61
1.06652e-30
0
3.61281e-126
3.57882e-07
0
2.39976e-39
8.36067e-120
2.63495e-45
0
6.88224e-68
2.50292e-58
1.20636e-51
0
7.99184e-34
0
2.51717e-51
1.31205e-20
5.72199e-169
6.66532e-152
8.05335e-133
6.19057e-30
1.25463e-29
0
2.28827e-29
0
5.33284e-19
1.21573e-22
0.00615281
1.1453e-37
0
6.55878e-117
735789
6.97275e-85
1.41595e-103
0
0
6.77409e-146
0
1.39014e-121
1.66857e-178
1.35736e-32
3.34858e-21
1.37708e-35
0
0
1.9762e-112
1.44613e-146
0
0
6.59166e-126
0
2.56152e-29
3.19581e-124
1.94483e-93
1.65294e-89
7.7516e-24
5.0823e-61
0
1.7499e-56
9.73043e-84
1.61306e-103
0
1.31048e-63
0
5.93634e-76
5.29206e-29
0.000260885
1.95329e-101
0
8.24325e-23
1.24216e-115
0
2.63786e-133
0
0
0
0.000401165
6.793e-129
0
2.45822
0
3.19626e-66
1.33282e-70
4.74898e-114
3.1931e-43
1.24028e-123
1.08923e-67
4.45386e-125
1.72174e-65
1.99324
5.22713e-08
9.44872e-69
0
9.06971e-19
1.70207e-162
8.35654e-21
0
0
6.63755e-122
8.83223e-94
4.85654e-141
2.82184e-100
0
8.7093e-145
0
134.826
1.1897e-13
3.0224e-13
2.07089e-165
1.05489e-97
6.66004e-20
4.39919e-22
4.68257e-116
0
1.51369e-107
2.37692e-119
4.44084e-74
4.21907e-51
6.03805e-17
5.95286e-19
8.78112e-104
3.20153e-14
4.32363e-19
0.00709265
0
1.56701e-19
1.11165e-76
0
4.43463e-14
3.83709e-112
3.26125e-18
0
1.31572e-102
0
7.68284e-27
8.80472e-79
1.8595e-104
1.22545e-40
2.41141e-102
0
3.63666e-32
5.90468e-21
9.39267e-19
7.88979e-123
1.4368e-138
5.51803e-11
0
0
1.75805e-26
3.45569e-143
149989
6.59462e-107
4.00985e-93
2.23025e-81
4.30254e-80
3.39863e-87
0
4.02247e-17
2.73385e-39
3.62192e-22
1.85569e-07
0
1.63277e-06
0
0
2.54862e-91
1.75666e-93
3.77122e-81
2.90118e-90
2.7523e-95
6.54921e-76
8.04523e-45
1.10429e-79
9.0236e-90
1.81198e-34
0
0
3.30505e-25
8.54894e-25
9.90899e-20
0
9.59167e-33
3.55744e-91
4.25497e-85
1.70233e-112
3.61451e-100
0
8.68245e-98
1.19746e-22
5.46625e-14
1.0005e-27
5.85472e-09
0
3.22855e-39
0
0
8.35887e-11
2.17569e-35
0
0
5.23787e-20
0
0
0
1.60213e-40
1.40734e-91
0
4.63377e-166
4.71262e-157
0.0950237
1.10294e-153
1.83293e-66
0
42.5581
4.09286e-08
0
0
0
0.00316502
5.04834e-32
0
2.02843e-157
2.01935e-25
8.23759e-10
0
6.62433e-93
4.78352e-47
0
1.77199e-68
7.39889e-78
3.64294e-66
6.65116e-08
1.70707e-62
2.11935e-71
9.05972e-18
3.09124e-34
1.96762e-64
1.93619e-71
4.87559e-14
945115
8.59976e-19
44.1022
0
4.91288e-40
0
0
103.322
4.48311e-23
5.88295e-56
2.36558e-122
3.84357e-65
4.49958e-29
7.50646e-72
3.36555e-139
0
1.86108e-34
0
3.09158e-89
5.66715e-61
3.20061e-109
1.2651e-17
0.000666034
0
73713.9
0
3.96938e-173
3.31298e-30
3.14286
1.45881e-39
4.28085e-07
6.98126e-10
5.23325e-14
2.25259
0.279116
0
4.2257e-36
7.12812e-20
5.72035e-90
1.03406e-49
3.03393e-56
0
4.26174e-30
2.31568e-16
0
9.96917e-17
0.00674422
0
7.52172e-33
0
1.56429e-76
0
1.1711e-127
3.87178e-34
6.3346e-108
3.94524e-31
0
0
67381.3
1.43322e-14
0
0.711506
0
0
1.11624e-37
3.97971e-07
1.40558e-05
50740
5.52695e-66
8.50274e-54
4.96055e-97
1.14168e-134
5.7929e-165
0
2.84458e-36
0
0
5.68248e-07
4.29668e-62
5.10286e-34
2.85703e-09
0
2.36714e-22
0.000151883
0
26331.3
2.1715e-42
0
2.55608e-87
4.15936e-10
1.10761e-32
1.84496e-163
1.3124e-118
0
4.10855e-83
0
120292
59655.6
57644.1
0
0
17311.1
2.99867e-22
4.03622e-164
0
3.92114e-81
0
119.112
1.1277e-81
1.62851e-97
13183
3.4926e-81
6.48477e-46
2.17304e-92
4.9238e-52
1.88712e-148
7.64178e-109
8.28157e-23
2.36081e-46
3.22776e-58
5.54048e-13
0
4.20316e-44
0
4.53789e-68
1.98136e-107
1.74259e-46
6.55216e-58
1.07887e-66
4.5907e-27
6.31974e-26
1.64206e-71
0
6.87785e-33
7.73412e-60
0
4.33455e-61
4.88022e-59
3.46705e-21
0
1.7806e-25
3.17385e-14
1.97741e-29
6.44501e-164
0
1.14928e-59
3.97335e-29
0
7.08187e-126
3.24259e-29
0
2.75922e-99
4.69098e-34
0
3.09864e-62
1.302e-58
0
1.23865e-49
1.2e-54
1.51695e-79
6.26346e-16
3.50548e-26
3.31939e-45
5.68308e-84
1.76149e-25
9.43161e-54
0
3.2414e-46
0
0
9.89973e-99
1.75596e-28
6.09963
6.31406e-51
8.11395e-05
2.60999e-23
3.05301e-56
4.78557e-132
0
37481.3
0
2.08278e-16
2.87348e-27
3.87944e-19
177.592
0
0
2.29163e-32
2.84765e-161
4.55387e-48
1.36412e-89
1.38736e-35
8.30189e-30
2.03951e-95
1.26637e-43
0
1.07004e-62
6.54485e-56
7.30164e-136
4.22352e-85
7.45862e-39
1.1507e-89
9.114e-80
0
1.47242e-168
6.90591e-60
0
2.84943e-54
2.24104e-30
0
8.08595e-146
3.02114e-27
3.18742e-86
0
1.86219e-31
2.67918e-122
8.01149e-118
0
6.75661e-77
0
1.25264e-74
4.05424e-29
6.35542e-74
1.54226e-140
6.15852e-56
2.37956e-104
1.43391e-20
26599
3.50628e-129
0
5.95274e-34
9.17151e-63
1.95885e-13
5.39708e-196
3.2091e-117
1.578e-185
2.6814e-145
0
0.0135663
187382
1.07725e-33
1.76103e-80
7112.12
6.3931e-53
2.56557e-30
0
1.34835e-18
6.58169e-126
0.0456018
4.49915e-48
4.56614e-114
0
0
2.44959e-24
0
0
2.16144e-20
0
0
2.10921e-35
1.25996e-22
1.21483e-96
0
5.85599e-88
1.95973e-29
4.38215e-89
4.32263e-196
3.80946e-133
1.07836e-67
0
1.02384e-28
1.79783e-21
6.00398e-191
3.97867e-188
1.04389e-35
0
0
0
0
6.85237e-27
6.06439e-38
0
0
9.3257e-95
1.98945e-45
4.19241e-43
6.97965e-66
3.30651e-34
4.90976e-73
4.05313e-24
0
3.00282e-123
6.67906
6.23394e-50
1.3802e-18
6.93784e-26
1.74615e-36
9.96124e-41
4.83748e-78
1.4384e-142
3.35127e-17
4.38574e-37
9.07562e-29
2.11169e-45
1.34413e-73
4.73975e-27
6.38579e-76
0.000794989
2.10095e-52
1.88319e-50
4.265e-76
8.60214e-20
0
0
0
2.09289e-58
2.00785e-142
8.46551e-151
0
1.28495e-41
5.67092e-32
4.53331e-109
0
1.2064e-80
0
1.19689e-50
3.81251e-29
1.48618e-170
0
1.13218e-42
7.13126e-18
0
3.17177e-63
1.77055e-35
3.11992e-57
1.80347e-57
0
0
1.22292e-19
5.80555e-21
6.33211e-178
0
3.28856e-09
7.20624e-32
2.70529e-20
0
817141
0
0
7.46282e-17
4.27275e-07
608847
459645
186415
980047
7.9518e-184
1.1853e+06
0
1.03176e-24
1.5829e-180
1.55275
1.74366e+06
4.20968e-165
0
830349
0
7239.63
1.50944e-181
2.51973e-36
2.82548e-32
6.28068e-14
4.80053e-53
0
5.18759e-117
0
1.86578e-73
0
0.000228613
4.65266e-137
1.18151e-15
0
1.52129e-181
1.28976e-186
0
7.85046e-68
1.27396e-86
0
2.84213e-21
0
0
1.35682e-69
0.0109851
9.12882e-184
3.04761e-20
0
7.27511e-45
2.32444e-32
0
0
3.79284e-79
2.23053e-42
0
8.70937e-10
5.92888e-10
0.0567871
4.32479e-22
5.46707e-39
3.49495e-42
0
0
0
1.89751e-41
0
5.56595e-27
7.09611e-24
2.06395e-10
2.68915e-44
1.69473e-41
2.12297e-72
0
1.54161e-33
0
0
0
2.12914e-22
4.55373e-09
6.02956e-121
3.98559
3.0534e-105
5.78971e-89
0
1.85531e-09
0
2.85331e-54
0
0
1.37694e-73
1.20879e-90
0
2.17362e-40
2.93345e-98
5.31736e-76
0
9.64949e-71
0.0290546
0
4.32422e-35
2.3022e-79
0
1.50626e-92
0
0
1.01688e-15
2.5233e-21
4.61261e-109
0
0
0
4357.68
0
3.63991e-21
14320.9
0
0
0
0
2083.32
3.10522e-81
2.95911e-92
6.48402e-92
0
11366.8
0
1.83381e-128
0
1.87304e-58
0
2.13135e-126
8.36323e-95
1.88314e-90
5.1869e-122
1.91227e-41
3.18186e-68
8.63983e-125
2.9203e-40
0
1.69935e-46
1.04263e-14
0
0
3.75726e-16
3.05058e-17
1.56016e-69
9.49656e-121
0
1.20698e-82
0
0
9.80755e-75
0
1.58719e-109
1.55721e-71
1.37671e-67
2.56496e-65
4.10961e-60
1.48397e-114
0
6.12217e-17
2.68998e-18
1.20138e-13
2.51263e-17
3.70752e-32
2.16051e-17
4.06158e-119
1.25698e-74
1.76897e-17
2.02476e-120
0
0
1.73308e-116
1.55463e-18
0
1.48874e-118
8.93298e-28
1.19067e-78
2.72108e-23
4.22733e-86
3.59453e-21
7.431e-58
0
6.42044e-16
2.51902e-123
0.00993958
3.52819e-100
3.97028e-69
0
2.0821e-31
5.59261e-17
0
3.81101e-19
5.98832e-25
7.75151e-17
0
0
6.09909e-117
4.02666e-05
1.96548e-57
1.10812e-27
6.69596e-57
0
0
2.86052e-52
3.36655e-50
0
3.68571e-114
8.79583e-118
7.22595e-56
6.09456e-27
2.2227e-48
0
1.61738e-58
0
1.78057e-85
7.22316e-99
1.01339e-96
1.18808e-43
1.55877e-56
1.15797e-57
1.506e-86
1.99755e-99
0
2.23527e-94
2.22593e-90
1.74847e-85
0
6.53836e-149
1.25869e-102
3.67329e-15
0
3.8803e-15
47764.1
1.26457e-158
1.77356e-97
1.2577e-27
1.47889e-99
5.15971e-133
2.65625e-85
0
8.19179e-102
2.1813e-22
2.72067e-14
1.84896e-48
1.01195e-79
1.68388e-39
0
1.24471e-34
2.12345e-16
1.75591e-159
0
6.17301e-28
6.71214e-159
2.2251e-103
1.51792e-19
1.75968e-109
0
2.19843e-49
0
9.152e-162
1.17999e-36
2.36413e-17
0
3.87672e-65
1.99434e-121
1.24935e-155
3.3946e-113
0
7.28787e-89
6.09882e-124
6.21948e-117
3.28499e-83
7.99032e-54
5.26752e-102
1.55271e-114
6.93653e-112
8.30476e-43
9.40827e-53
3.42291e-20
0
5.21588e-45
6.12354e-99
8.48347e-27
0
4.35364e-104
0
697.252
0
1.84236e-81
0
5.7468e-48
1.18216e-71
1.02818e-76
2.252e-45
0
1.14707e-42
1.91772e-70
3.2639e-60
0
3.14296e-90
0
1.66372e-73
0
0
5.74688e-114
0
1.89515e-103
0
8.51093e-42
8.75523e-51
3.09044e-74
9.64111e-21
2.86751e-56
0
1.6251e-11
2.0198e-50
0
3.32497e-22
0
0
0.0220363
1.77871e-36
4.5095e-19
0
3.00081e-106
1.39536e-48
4.22773e-54
2.68294e-51
0
0
2.15975e-85
2.40382e-128
0
4.12602e-79
1.23548e-50
8.16923e-48
0
0
4.8643e-126
0
6.01481e-16
0
5.91619e-43
3.36099e-46
1.86632e-14
1.75221e-136
2.01575e-80
2.81113e-11
8.71492e-128
0
5.98151e-41
8.00933e-58
1.07639e-115
0
5.34657e-128
0
0
5.56265e-131
1.10292e-15
6.17309e-78
4.6483e-81
0
4.08901e-33
1.83504e-120
0
0
1.14534e-76
4.44214e-134
1.1203e-76
0
0
2.51064e-45
3.29216e-54
4.23223e-19
3.41588e-25
5.66525e-79
0
115780
4.65592e-55
0
0
7.52904e-10
1.30193e-30
1.6947e-54
7.86919e-28
1.93588e-55
8.018e-16
0
0.955852
0
2.64347e-32
6.6095e-16
0
2.83934e-46
9.26378e-108
0
0
7.52989e-60
0
6.67749e-15
2.01525e-24
1.66228e-36
0
1.66713e-29
4.54171e-52
0
2.54568e-17
7.02335e-98
1.79703e-29
0
0
8879.55
5.00105e-12
0
5.84206e-113
0
8.84864e-28
3.11866e-79
1.10064e-10
0
1.86352e-26
3.7341e-28
4.90634e-35
1.3283e-77
168189
0
3.77607e-58
0.000134749
3.32414e-20
0
9.0362e-21
0
1.42752e-36
1.10471e-138
0
6.71601e-81
0
4.13768e-103
1.22528e-85
3.22411e-75
9.54734e-05
8.84267e-54
1.67114e-60
2.31263e-116
2.43686e-30
4.12518e-45
0
6.6623e-64
5.49181e-83
0
5.97965e-54
0
9.33609e-51
0
1.32698e-42
1.01873e-81
3.80566e-51
8.15837e-63
2.9447e-09
0
1.1018e-16
2.84119e-59
0
7.73488e-151
4.74031e-107
0
2.16226e-149
0
4.61088e-05
2.53001e-82
2.33881e-41
6.07808e-144
0
1.54977e-58
5.0049e-65
1.01818e-150
0
4.70127e-41
2.99859e-113
1.70335e-26
7401.61
2.26823e-148
1.69362e-33
0
1.52408e-37
2.34676e-46
0
2.65275e-144
0
0
9.18203e-144
1.44258e-163
6.51366e-100
3.28345e-139
0
2.86057e-181
2.61675e-36
2.17417e-37
1.20403e-156
1.63325e-53
3.64394e-118
3.21982e-157
0
0
1.28615e-120
2.55575e-66
5.92589e-15
8.2313e-92
0
1.47685e-65
0
5.36058e-19
0
0
7.635e-112
8.70926e-142
0
0
0
4.27871e-97
5.31735e-96
1.96301e-99
0
1.47213e-104
2.38478e-16
6.32693e-148
1.19602e-85
8.08419e-99
0.000111534
1.75723e-08
2.93136e-102
0
5.87455e-31
7.65554e-114
7.12127e-72
43.0468
2.07033e-147
1.7768e-20
2.54337e-26
2.60126e-59
2.95784e-77
1.37276e-102
1.60121e-34
5.45188e-69
0
0
7.01739e-80
7.21991e-102
0
1.25183e-42
7.43933e-23
3.90521e-67
6.99362e-24
6.3104e-100
1.81271e-31
4.98008e-07
0
0
1.54795e-125
5.81204e-15
0.152623
2.87007e-112
0
1.02884e-156
6.68583e-75
3.69708e-71
2.65395e-27
0
0
0
0
0
1.03947e-107
1.41031e-32
2.93613e-114
3.03318e-123
1.45649e-138
2.76846e-119
2.55144e-53
2.36355e-39
0
0
0
1.99349e-108
0
3.0307e-141
3.67551e-27
1.66717e-24
2.11664e-164
0
1.48095e-143
0
1.97847e-123
8.21057e-36
1.03546e-39
1.41119e-37
9.53126e-63
0
7.04621e-158
5.10612e-137
3.99111e-35
3.73773e-45
1.14905e+06
5.05556e-105
1.03654e-136
0
1.35104e-42
2.56766e-30
0
0
1.74581e+06
1.58076e+06
1.07883e-41
468769
7009.25
9.68535e-77
1.06854e-43
2.41686e-17
0
0
1.04376e-170
8.80167e-106
1.24622e-140
3.07374e-82
131025
0
212.039
2.1592e-20
16.354
1.14743e-66
5.18925e-72
3.54884e-70
9.89515e-15
2.67291e-34
0.238275
1.81414e-27
4.7868e-19
0.0907655
0
2.11401e-26
816.41
3.10837e-85
0
2.91916e-30
0
2.23996e-157
295.499
2.5478e-33
0
4.49805e-125
1.34037e-111
0
2.10394e-54
0
1.806e-138
1.09956e-37
9.18295e-33
0
3.54333e-47
7.26639e-87
2323.89
0
6.47312e-52
0
0
3410.12
0
1.64871e-100
8.22094e-24
4.63682e-165
5.54038e-82
0
0
0
5.37299e-36
2.01102e-88
0
1.24744e-90
4.2414e-95
0
7.21991e-45
0
4.85399e-51
5.62278e-85
3.01871e-96
0
0
1.16439e-142
0
4.09276e-94
0
1.79782e-82
0
6.21149e-93
1.5965e-85
2.16756e-58
0
73247.1
0
0
0
8.47299e-138
0
0
0
35941.2
0
60961.4
2.33937e-126
1.30522e-28
9.53198e-40
26602.1
73089.2
3.36651e-29
3.25871e-31
1.64462e-70
0
0
3.06478e-68
5.34025e-143
9.10753e-109
0
192.828
0
0
2.17202e-87
4.81421e-51
0
0
0
0
0
6.87869e-29
0
3.45283e-122
0
4.99932e-54
1.75095e-45
4.23698e-77
0
1.67105e-08
0
1.14123e-09
4.63857e-181
1.98347e-166
3.50763e-51
2.14948e-06
6.70955e-08
0
0
0
1.21792e-34
6.28483e-46
5.94041e-43
2.37636e-07
0
1.59055e-111
3.69917e-133
0
4.7388e-45
3.69404e-24
5.18887e-32
5.64873e-69
3.02756e-22
9.79037e-24
0
1.30446e-25
7.66587e-07
0
0
2.72757e-136
3.59452e-13
2.17101e-08
6.64408e-39
0
8.01891e-12
9.29888e-33
6.12258e-40
4.41484e-35
1.0106e-11
3.81358e-07
9.53546e-54
0
3.99094e-10
2.51898e-51
1.16689e-45
1.78777e-149
9.65698e-79
9.20854e-66
3.93155e-141
2.13558e-124
2.82899e-56
0
1.89244e-103
0.174663
6.2222e-140
4.71012e-54
3.2779e-12
8.97098e-134
2.05183e-41
2.1967e-13
4.98363e-12
0
9.43766e-13
3.39464e-18
8.85015e-10
6.86427e-68
5.76247e-177
1.1798e-10
3.4971e-20
3.30061e-13
3.79646e-14
0
0
3.29633e-28
4.11265e-58
1.23697e-34
0
1.67794e-72
1.43206e-19
0
2.58229e-45
2.86372e-150
5.53086e-89
0
1.31685e-19
0
0
0
0
0
2.61755e-19
5.2663e-18
9.25383e-34
0
7.12223e-10
2.4901e-40
3.46457e-45
0
0
1.31165e-08
0
6.77331e-39
5.02435e-96
9.10559e-55
0
2.2151e-83
0
0
0
5.66966e-91
9.70779e-129
6.02021e-42
1.00192e-184
3.13266e-73
5.17528e-119
0
2.18542e-146
3.21785e-163
0
1.17494e-31
1.4242e-45
5.64645e-149
2.06575e-127
0
6.91657e-118
1.85857e-42
2.82899e-33
2.35547e-129
0
2.20341e-94
1.18136e-125
5.25592e-69
1.09482e-44
6.33295e-34
5.85692e-123
1.18075e-66
1.47404e-99
1.32819e-131
6.94368e-118
0
0
2.24543e-168
1.01282e-133
8.94712e-167
0
0
0
6.49266e-22
5.68888e-156
5.29351e-78
1.52399e-117
1.35752e-41
8.28463e-115
3.52709e-42
3.04606e-56
2.0796e-12
1.80286e-132
2.83549e-134
2.78996e-136
0
1.7443e-38
0
2.5521e-148
0
0
0
0
2.82883e-118
0
0
3.78546e-129
1.07201e-77
1.07131e-43
1.69199e-125
0
8.08692e-114
0
9.27734e-85
1.37491e-95
1.60814e-97
1.08119e-65
3.21609e-128
0
6.66067e-52
1.28617e-32
1.4338e-143
1.08978e-112
0
4.54419e-81
6.7706e-77
7.71306e-79
1.73251e-39
4.52551e-26
4.01593e-106
0
0
1.43662e-40
2.10278e-122
0
0
1.59384e-47
0
0
1.08854e-69
0
1.61426e-126
0
1.5698e-55
1.39214e-158
0
3.08429e-83
8.40677e-162
0
0
4.26147e-96
2.31925e-114
965.527
2.2448e-106
0
4.03426e-77
0
0
0
7.17526e-42
6.48792e-18
2.5022e-13
1.03731e-40
0
0
3.26266e-49
5.8812e-87
0
0
9.24402e-64
2780.81
1.11739e-119
5.43764e-89
0
1.33491e-46
4.47476e-41
6.65192e-35
4.83308e-26
2.32045e-156
1.11787e-24
0.00202943
0
0
2.37307e-125
3.05594e-91
3.43703e-160
4.95628e-74
0
9.47733e-66
0
0.00210998
3.34815e-28
4.06673e-10
5.5955
0.000256028
8.38008e-51
1.31962e-151
3.20698e-145
0
7.67082e-115
0
4.91286e-146
0
0
390.924
2.28205e-32
0
1.20363e-50
3.52817e-114
1.05266e-06
0
1.14127e-25
0
7.1608e-151
1.27038e-22
0
0
3.53183e-168
2.88652e-31
3.00464e-08
3.2851e-06
0
2.84656e-07
0
1.13931e-29
1.34777e-131
6.28728e-15
0
0
4.61603e-40
0
0
0
4.20334e-30
0
3.50324e-17
9.76727e-149
7.75336e-95
4.69737e-24
3.29671e-122
3.99153e-53
4.32051e-152
1.10363e-44
7.04293e-117
1.2993e-136
0
1.20278e-119
7.87318e-46
4.74904e-115
3.59239e-32
0
1.55008e-36
2.06785e-122
1.25919e-101
6.30322e-49
1.56653e-71
4.95151e-117
8.899e-118
2.02656e-05
0
1.66875e-23
157.292
0
2.77895e-158
0
1.78507e-36
7.66702e-119
1.50344e-126
0
2.86692e-21
1.74487e-111
7.11919e-87
54111.4
5.48816e-40
0
1.74479e-51
0
0
9.6469e-137
8.49275e-95
6.03311e-154
201462
2.52173e-156
1.34268e+06
9.24972e-87
8.89862e-38
3.13369e-155
0
3.58183e-32
1.16286e-157
0
1.55303e-78
8.24218e-117
0
0.00741595
7.27994e-78
3.66896e-15
0
5.50857e-30
0
2.77186e-56
1.33699e-85
3.32978e-112
0
1.08202e-09
6.73729e-48
0
6.96479e-30
2.26834e-12
0
1.08812e-36
3.03104e-27
4.67681e-115
1.38248e-17
0
3.13221e-74
3.13153e-127
4.5878e-07
0
0
3.99056e-31
1.61132e-22
4.45251e-25
0.658851
9.27244e-44
2.59926e-08
1.3937e-32
0
1.19778e-105
0
0.00578069
9.68097e-64
5.24313e-45
1.24507e-14
0
8.95283e-57
3.32967e-12
1.12368e-157
2.52583e-144
0.00461423
1.39575e-42
0
1.37248e-63
1.14209e-147
0
2.12895e-104
19562.4
5.87036e-11
0
0
6.12924e-05
2.95944e-43
2.50484e-28
2.84329e-22
12.0664
0
5.55264e-104
0
2.31823e-55
2.25676e-108
1.42626e-110
3.86489e-33
3.47207e-26
2.66285e-77
0.000304259
0
2.79727e-58
2.34907e-31
5.33224e-45
7.89486e-151
4.97405e-97
0.0307527
5.49415e-58
0
1.46792e-50
0
1.00298e-149
6.3917e-41
1.346e-28
4.69897e-09
0
0
4.83522e-32
1.54471e-133
0
0.285528
5.21802e-24
3.55546e-15
1.86584e-163
2.38525e-40
1.99407e-161
5.44836e-59
4.75789e-147
86145.8
0
0
1.09613e-54
3.76206e-171
7.07885e-169
1.60179e-43
0
7.14056e-45
3.8049e-36
5.15786e-54
0
1.2904e-168
0
1.36648e-28
173443
7.67214e-93
0
2.3016e-12
8.50206e-98
2.63844e-31
1.68368e-27
0
0
0
0
6.42489e-103
1.75661e-100
0
1.29551e-84
329.063
0