/*--------------------------------*- C++ -*----------------------------------*\
| =========                 |                                                 |
| \\      /  F ield         | OpenFOAM: The Open Source CFD Toolbox           |
|  \\    /   O peration     | Version:  v2012                                 |
|   \\  /    A nd           | Website:  www.openfoam.com                      |
|    \\/     M anipulation  |                                                 |
\*---------------------------------------------------------------------------*/
FoamFile
{
    version     2.0;
    format      ascii;
    class       volScalarField;
    location    "2";
    object      qin;
}
// * * * * * * * * * * * * * * * * * * * * * * * * * * * * * * * * * * * * * //

dimensions      [1 0 -3 0 0 0 0];


internalField   uniform 0;

boundaryField
{
    fire_inlet
    {
        type            calculated;
        value           nonuniform List<scalar> 
41
(
12237.4
11814.9
10356
11147
8600.68
13366.9
24808.3
23428.2
28311.7
18139.2
23692
18269.5
14749
16150.4
21602.8
20744.9
11884.8
10674.4
12556.6
10420.2
15104.9
13545.1
12735.3
14586.5
16888.1
25280.9
27462.1
25404.9
24794.2
15936.4
23030.6
29986.9
30955
27365.2
32168.1
30009
33971.4
34932.3
36968
32708.9
38251.7
)
;
    }
    outlet
    {
        type            calculated;
        value           nonuniform List<scalar> 
400
(
462.391
461.089
460.648
459.448
459.663
460.259
461.077
466.603
469.617
467.515
465.706
466.102
465.211
465.087
466.601
465.321
469.662
462.996
462.502
462.545
462.877
462.434
464.039
462.652
465.192
464.071
466.219
466.283
464.76
459.526
466.433
460.736
460.125
459.846
460.541
460.526
463.11
460.495
460.756
460.123
462.279
459.994
460.024
462.19
459.961
461.231
459.631
460.328
461.17
459.561
459.873
462.3
460.145
460.38
460.112
460.498
459.953
464.579
465.295
464.361
463.813
459.997
462.18
462.924
461.456
464.693
463.336
460.661
459.936
464.637
462.313
464.001
465.298
462.792
465.221
461.848
461.302
459.817
463.834
464.992
460.505
463.012
463.119
461.322
460.521
460.469
460.118
462.363
459.861
463.357
462.151
462.348
462.008
459.849
460.989
461.033
460.342
460.391
461.125
461.142
459.306
459.306
459.306
459.306
459.305
459.305
459.305
459.305
459.305
459.305
459.305
459.305
459.305
459.305
459.305
459.305
459.305
459.305
459.305
459.305
459.305
459.305
459.305
459.305
459.305
459.305
459.305
459.305
459.305
459.306
459.305
459.306
459.306
459.305
459.305
459.305
459.305
459.306
459.305
459.306
459.305
459.306
459.305
459.305
459.305
459.305
459.305
459.305
459.305
459.305
459.305
459.305
459.305
459.305
459.305
459.305
459.305
459.305
459.305
459.306
459.305
459.305
459.305
459.305
459.305
459.305
459.305
459.305
459.305
459.305
459.305
459.305
459.305
459.305
459.305
459.305
459.305
459.305
459.305
459.305
459.305
459.305
459.305
459.305
459.305
459.305
459.305
459.305
459.305
459.305
459.305
459.305
459.305
459.305
459.305
459.305
459.305
459.305
459.305
459.305
459.305
459.305
459.305
459.305
459.305
459.305
459.305
459.305
459.305
459.305
459.599
459.705
459.916
459.779
460.367
459.983
460.634
460.485
461.096
460.703
461.349
461.08
461.303
460.911
460.64
460.733
460.31
460.447
460.129
460.272
460.121
460.104
459.972
459.985
460.139
460.101
460.333
460.163
460.448
460.453
460.613
460.615
460.528
459.769
459.959
460.253
460.573
460.751
460.592
460.766
459.618
459.56
459.548
459.555
459.73
459.772
459.614
459.589
459.919
460.122
460.12
460.435
460.349
461.174
459.602
459.552
459.512
459.649
459.642
459.592
459.635
459.58
460.517
459.675
459.561
459.545
459.64
459.664
460.032
460.404
459.963
460.588
460.394
460.936
460.703
461.029
459.663
460.417
460.216
460.301
460.085
460.013
460.017
460.01
460.049
459.966
460.169
460.165
460.48
460.271
460.705
459.697
460.065
459.763
460.423
459.67
459.728
459.581
459.569
459.596
459.683
459.608
459.613
459.69
459.736
459.71
459.837
460.841
459.806
459.735
459.914
460.717
460.419
460.588
460.193
460.257
459.865
459.968
459.625
460.269
460.521
460.539
460.321
460.509
460.536
460.32
459.881
460.285
460.253
459.857
460.027
460.036
459.951
459.975
459.924
459.944
460.158
459.997
460.2
460.301
460.193
460.002
459.696
460.138
460.214
459.64
459.835
459.765
459.894
459.7
459.67
459.715
459.852
459.764
459.979
460.005
460.123
459.692
459.764
459.713
460.192
460.193
459.967
459.987
459.934
459.949
459.895
459.882
460.106
460.042
459.947
459.929
459.804
459.924
459.975
459.939
459.923
459.782
459.697
459.912
459.746
459.888
459.801
459.762
459.737
459.786
459.72
459.793
459.839
459.866
)
;
    }
    base
    {
        type            calculated;
        value           nonuniform List<scalar> 
14237
(
5044.9
6133.03
6362.58
2436.8
4232.54
5150.12
6020.96
5431.13
3824.75
6355.28
4981.04
1570.1
2070.75
2651.06
2968.41
4312.32
6197.49
4131.21
4486.91
4983.19
5606.06
6769.57
6294.06
6035.06
4709.29
4970.54
3572.01
1429.03
1778.19
6144.11
3057.79
3218.15
5244.36
4454.48
5990.09
5695.3
4070.9
2398.06
4771.03
3763.97
3512.08
3167.76
5917.13
2580.89
4182.42
3169.43
3801.48
3394.05
3878.61
3465.15
2839.69
2141.23
3775.66
3830.37
6407.66
3966.13
5105.06
1868.67
1567.78
2340.42
3298.99
6175.71
8196.12
6601.29
7074.25
2398.8
4243.76
6326.94
8313.06
1826.75
1725.55
459.308
459.308
459.307
459.308
459.306
459.307
459.306
459.306
459.306
459.306
459.306
459.306
459.306
459.306
459.306
459.306
459.305
459.306
459.305
459.305
459.305
459.305
459.305
459.305
459.305
459.305
459.305
459.305
459.305
459.305
459.305
459.305
459.305
459.305
459.305
459.305
459.305
459.305
459.305
459.305
459.305
459.305
459.305
459.306
459.306
459.306
459.306
459.306
459.306
459.306
459.306
459.306
459.306
459.306
459.307
459.308
459.306
459.308
459.307
459.309
459.309
459.31
459.314
459.316
459.635
460.244
459.922
459.473
459.497
459.458
459.365
459.365
459.32
459.305
459.305
459.306
459.308
459.311
459.315
459.319
459.324
459.335
459.372
459.406
459.528
459.308
459.311
459.31
459.317
459.314
459.323
459.32
459.329
459.328
459.332
459.336
459.337
459.341
459.342
459.346
459.352
459.353
459.369
459.361
459.379
459.379
459.387
459.391
459.425
459.448
459.419
459.464
459.459
459.5
459.477
459.555
459.518
459.611
459.568
459.679
459.644
459.779
459.701
459.818
459.798
459.836
459.82
459.81
459.803
459.752
459.744
459.681
459.716
459.627
459.642
459.543
459.568
459.501
459.509
459.449
459.467
459.434
459.451
459.413
459.417
459.425
459.432
459.493
459.486
459.63
459.628
460.034
459.959
462.381
460.899
466.985
465.558
479.288
459.701
459.807
460.036
460.417
460.753
461.597
464.042
477.449
516.098
520.613
480.448
604.324
1096.3
1168.84
683.779
496.28
489.491
511.556
514.245
507.519
459.705
459.31
459.313
459.318
459.325
459.328
459.329
459.323
459.317
459.316
459.336
459.404
459.591
459.636
459.305
459.319
459.921
460.514
460.474
459.684
459.465
459.547
459.49
459.369
459.329
459.306
459.306
459.306
459.307
459.307
459.309
459.312
459.316
459.322
459.33
459.34
459.382
459.435
479.902
460.402
460.606
459.812
459.656
459.864
459.869
460.222
460.643
461.086
462.064
467.946
494.326
527.141
499.443
490.542
852.392
1231.22
926.231
536.024
482.032
499.777
520.86
514.592
491.166
459.311
459.315
459.321
459.327
459.331
459.327
459.321
459.316
459.318
459.369
459.489
459.309
461.666
460.991
459.587
459.702
459.504
459.396
459.373
459.334
459.307
459.309
459.312
459.316
459.326
459.334
459.353
459.393
459.453
459.553
459.308
461.678
464.873
483.585
527.021
518.286
482.396
812.736
1302.59
1067.03
568.452
484.124
499.419
518.301
514.896
492.309
459.313
459.317
459.324
459.328
459.329
459.323
459.317
459.318
459.362
459.476
462.409
461.123
461.346
459.934
459.592
459.57
459.43
459.387
459.347
459.313
459.32
459.329
459.347
459.365
459.418
459.532
503.676
531.491
495.281
564.918
1106.02
1283.88
759.999
505.799
488.124
501.205
515.34
508.493
481.953
459.312
459.315
459.321
459.327
459.33
459.326
459.321
459.318
459.322
459.396
460.261
459.311
459.308
460.795
460.044
469.53
460.224
461.245
459.31
470.419
459.323
459.307
459.306
459.307
459.306
459.306
459.306
459.306
459.306
459.306
459.306
459.306
459.305
459.306
459.305
459.305
459.305
459.305
459.308
459.308
459.308
459.305
459.305
459.305
459.305
459.305
459.305
459.305
459.306
459.306
459.306
459.306
459.306
459.306
459.306
459.306
459.306
459.306
459.306
459.307
459.307
459.307
459.307
459.307
459.308
459.307
459.309
459.309
459.311
459.31
459.312
459.312
459.314
459.316
459.316
459.318
459.317
459.314
466.398
477.411
464.134
462.111
459.987
461.821
459.86
460.087
460.637
459.735
459.484
459.478
459.349
459.319
461.135
459.312
459.316
459.308
459.309
459.311
460.465
459.315
459.317
459.322
459.311
459.312
459.315
459.33
459.339
459.364
459.415
459.448
459.512
459.554
499.685
459.31
460.249
459.313
459.324
459.319
459.327
459.329
459.336
459.336
459.343
459.346
459.349
459.358
459.354
459.357
459.364
459.357
459.371
459.367
459.375
459.379
459.405
459.454
459.408
459.957
459.471
459.446
459.511
459.476
459.548
459.511
459.616
459.566
459.705
459.626
459.778
459.701
459.823
459.793
459.809
459.795
459.753
459.751
459.72
459.735
459.649
459.679
459.577
459.601
459.496
459.529
459.476
459.461
459.444
459.447
459.423
459.444
459.423
459.433
459.497
459.502
459.659
459.645
459.972
459.982
461.238
461.011
466.339
479.202
464.854
469.789
459.753
459.759
460.912
460.521
460.746
460.257
460.299
459.64
463.754
465.469
469.651
482.153
490.112
460.049
459.879
460.063
534.783
496.922
580.676
1203.39
1399.63
764.03
505.279
487.912
502.872
506.478
484.405
482.106
477.22
478.81
459.305
459.315
459.321
459.326
459.328
459.326
459.319
459.316
459.323
459.388
465.618
472.762
462.055
462.087
459.524
459.309
461.038
466.243
459.308
459.308
459.308
459.309
459.305
459.528
459.319
459.49
459.564
459.305
459.305
471.127
467.036
460.626
460.463
460.289
459.76
459.998
459.836
459.461
459.356
459.372
460.091
459.355
459.35
459.327
459.339
459.324
459.38
459.449
459.477
459.547
459.571
459.305
461.213
459.309
479.698
473.73
527.882
518.358
490.269
822.846
1388.89
1093.1
573.622
487.148
498.846
511.336
496.32
517.526
459.313
461.225
459.312
459.317
459.321
459.328
459.327
459.321
459.315
459.319
459.357
502.094
475.419
460.656
528.415
459.393
459.323
459.317
459.32
459.327
459.326
485.992
501.305
459.448
459.34
459.318
459.319
459.323
459.328
459.319
490.257
492.997
490.885
488.039
639.956
1200.03
1477.13
459.311
459.31
459.537
459.59
459.484
459.309
460.488
459.305
459.378
461.272
460.273
867.515
460.051
459.58
459.343
459.336
459.334
459.405
459.516
1508.89
1059.12
513.992
510.853
532.918
536.964
487.241
733.075
459.314
459.322
459.316
459.325
459.341
459.307
459.306
459.307
459.306
459.306
459.306
459.306
459.306
459.306
459.306
459.306
459.305
459.305
459.306
459.446
460.793
459.423
459.444
459.305
459.306
459.306
459.306
459.306
459.306
459.306
459.307
459.307
459.307
459.307
459.307
459.308
459.308
459.309
459.308
459.308
459.309
459.31
459.309
459.31
459.31
459.311
459.312
459.312
459.314
459.314
459.319
459.319
541.197
511.209
466.402
463.703
801.191
459.311
461.715
459.305
460.009
459.485
459.353
459.574
459.677
465.129
464.81
459.345
459.354
459.343
459.352
459.626
1567.27
459.558
459.624
461.069
463.425
460.562
539.332
459.305
459.306
459.305
459.332
459.341
459.341
459.357
459.352
459.361
459.362
459.363
459.368
459.366
459.368
459.379
459.382
459.39
459.392
459.419
459.442
459.407
489.667
459.466
459.459
459.512
459.474
459.551
459.537
459.599
459.579
459.704
459.646
459.797
459.725
459.768
459.758
459.755
459.763
459.737
459.71
459.649
459.669
459.603
459.624
459.532
459.556
459.463
459.485
459.45
459.459
459.434
459.45
459.439
459.442
459.512
459.517
459.687
459.636
460.002
459.955
467.332
459.68
459.374
459.421
485.598
464.014
787.98
534.114
539.524
516.235
499.174
528.48
621.581
1609.17
1560.32
459.768
1239.05
1236.86
1004.72
459.562
485.284
480.793
459.453
484.467
507.059
513.526
467.032
469.762
459.32
468.664
471.411
478.612
459.314
459.316
459.315
459.317
459.326
459.327
459.321
459.316
459.32
459.332
486.979
478.979
483.289
459.308
459.548
461.61
461.949
464.679
491.306
568.057
513.21
486.387
459.315
511.757
508.342
556.505
459.403
459.506
459.539
459.579
459.317
459.309
459.309
459.308
459.307
459.308
520.554
503.862
460.824
459.318
459.318
459.324
459.317
685.755
459.319
459.32
465.577
469.196
459.307
467.388
469.727
461.311
460.009
460.135
530.644
476.966
478.117
459.315
459.506
459.313
459.315
459.335
459.345
459.325
459.321
459.339
459.466
465.205
459.514
459.363
459.626
459.471
500.42
459.363
461.327
459.665
459.748
459.394
487.493
460.686
460.445
460.573
460.433
459.313
463.79
459.319
459.319
459.321
459.444
459.844
459.854
459.311
459.313
1207.41
460.559
459.378
604.066
459.35
473.13
459.418
473.189
479.606
469.787
459.323
459.313
459.366
459.327
459.323
459.317
459.317
459.375
485.495
535.294
459.314
459.317
459.318
459.314
471.821
459.584
459.627
480.094
459.325
1504.58
1184.97
680.197
475.059
459.321
459.323
459.322
459.325
459.325
459.32
459.31
459.319
459.318
459.307
459.306
459.307
459.306
459.306
459.306
459.306
459.306
459.588
469.003
460.176
459.316
459.306
459.307
459.307
459.308
459.307
459.309
459.309
459.309
459.309
459.31
459.31
459.311
459.311
459.311
459.311
459.312
459.311
459.315
459.315
459.315
459.315
459.317
459.315
459.319
459.318
614.24
560.176
471.21
469.878
1327.89
459.594
459.59
467.371
467.48
459.321
488.601
459.463
472.161
459.387
520.281
459.375
459.378
634.994
459.759
464.221
464.913
477.689
483.007
459.529
459.439
459.347
459.639
459.631
460.351
459.358
459.359
459.368
459.37
459.371
459.377
459.375
459.372
459.391
459.382
459.395
459.403
459.421
459.448
459.412
459.406
459.434
459.477
459.464
459.531
459.505
459.582
459.545
459.651
459.606
459.714
459.657
459.765
459.721
459.769
459.737
459.71
459.737
459.645
459.663
459.625
459.608
459.537
459.547
459.493
459.5
459.44
459.449
459.435
459.439
459.454
459.462
459.51
459.523
459.661
459.642
459.766
471.141
459.371
459.432
1132.23
1135.88
459.927
462.044
463.148
460.23
459.307
469.64
467.105
491.455
649.332
790.001
460.426
469.008
464.693
463.502
459.318
521.863
459.324
459.433
506.883
557.667
460.128
459.493
459.552
459.322
459.318
459.323
459.599
459.587
459.618
459.307
459.307
459.307
459.325
459.325
459.324
459.324
459.317
459.315
459.327
459.498
476.476
469.671
461.218
461.196
518.344
488.627
459.318
459.319
756.822
459.333
459.368
459.308
460.114
459.692
459.323
460.855
459.306
459.541
459.507
459.316
459.316
459.335
459.32
459.319
713.953
474.257
1413.23
1441.23
464.915
466.712
469.357
459.497
491.836
459.334
459.363
459.379
459.318
459.343
459.316
533.903
459.863
459.407
463.343
462.532
471.295
464.471
459.404
460.709
459.306
459.311
495.4
459.681
459.771
459.992
459.471
467.616
459.327
459.339
459.309
502.889
516.964
460.242
460.062
459.442
459.327
459.325
459.334
460.198
459.645
459.657
459.321
459.308
459.447
461.993
459.306
645.95
1158.01
459.307
470.567
474.18
477.566
459.311
459.306
459.315
459.314
459.958
459.875
459.895
459.316
459.31
459.56
467.883
465.756
651.134
459.764
459.325
634.618
864.914
729.062
459.317
459.311
459.497
498.145
459.324
459.306
459.307
459.306
459.306
459.324
459.424
819.117
1239.37
459.308
459.309
459.308
459.309
459.309
459.31
459.309
459.311
459.311
459.312
459.312
459.312
459.311
459.315
459.315
459.317
459.316
459.319
459.318
459.319
459.319
754.121
466.999
490.929
459.405
460.236
462.131
497.7
511.066
459.538
687.078
459.34
459.345
459.361
492.605
883.637
459.317
459.317
463.931
460.736
471.418
459.365
459.379
459.377
459.386
459.385
459.383
459.386
459.394
459.405
459.41
459.41
459.424
459.449
459.428
481.744
459.485
494.873
459.476
459.453
459.513
459.474
459.589
459.542
459.66
459.601
459.719
459.684
459.699
459.696
459.714
459.675
459.662
459.69
459.586
459.602
459.549
459.573
459.501
459.491
459.456
459.465
459.438
459.454
459.472
459.461
459.566
459.574
459.702
459.682
459.314
459.434
459.42
459.483
459.339
459.359
459.334
463.092
459.542
525.298
459.568
463.982
459.501
459.44
459.57
459.307
459.307
459.626
459.307
459.307
459.308
460.237
497.323
468.184
459.352
459.366
459.631
459.618
459.31
459.309
459.309
459.324
459.323
460.139
459.316
459.315
466.601
464.14
459.512
459.511
459.55
459.308
459.307
459.309
465.252
476.912
459.317
459.317
459.643
594.235
478.974
475.737
714.775
527.712
465.38
467.829
459.757
459.324
459.433
459.613
459.638
459.314
1148.72
459.807
459.758
459.32
459.321
1028.89
1432.87
492.113
459.404
459.414
460.357
462.624
459.583
486.306
459.318
459.589
459.53
459.616
459.352
459.388
459.375
474.834
463.846
461.597
462.756
466.792
461.164
459.307
459.307
459.321
459.321
464.831
1098.62
459.315
459.318
461.761
459.322
459.328
459.467
459.542
459.325
966.31
459.547
459.54
459.563
460.314
463.558
463.384
459.621
459.609
660.651
462.232
462.262
461.633
459.627
459.621
459.645
459.321
459.318
459.32
459.311
459.313
459.306
464.339
462.695
459.603
459.661
459.348
459.357
459.337
462.513
459.307
459.307
459.68
459.821
459.32
459.31
459.31
459.311
459.311
459.311
459.312
459.311
459.311
459.311
459.313
459.313
459.317
459.315
459.319
459.319
459.32
459.32
461.417
459.313
459.307
459.383
459.496
459.322
459.317
459.317
461.199
459.32
462.547
459.392
459.39
459.413
459.413
459.422
459.412
459.418
459.419
459.424
459.428
459.426
459.479
459.446
459.523
459.496
459.589
459.54
459.611
459.608
459.657
459.612
459.68
459.668
459.682
459.701
459.605
459.646
459.567
459.562
459.497
459.523
459.468
459.493
459.459
459.445
459.452
459.466
459.555
459.536
459.339
459.476
459.47
460.214
459.426
459.451
459.316
459.317
459.309
459.318
459.317
459.367
459.392
459.563
459.459
459.806
461.655
459.377
459.387
459.408
459.316
459.316
459.659
459.521
459.558
459.461
459.325
459.323
459.605
459.585
459.618
459.382
461.467
459.321
459.321
459.307
460.776
460.74
459.313
459.423
459.456
459.307
459.307
459.931
459.347
488.038
459.365
459.341
459.339
459.388
459.922
460.358
459.716
459.307
459.307
459.313
459.314
459.308
459.631
459.488
459.496
459.839
459.509
459.319
459.39
459.393
459.505
459.464
459.309
459.31
459.321
459.321
459.307
459.307
459.382
459.308
459.309
459.307
459.322
459.322
459.325
459.578
459.598
460.965
459.604
459.612
459.308
459.308
460.659
461.014
459.323
459.31
459.311
459.312
459.313
459.313
459.314
459.316
459.316
459.317
459.315
459.319
459.32
459.319
459.321
459.654
459.309
459.309
459.321
459.524
459.316
459.419
459.614
459.602
459.6
460.441
459.31
459.415
459.423
459.418
459.431
459.427
459.441
459.431
459.457
459.442
459.486
459.543
459.474
459.612
459.557
459.625
459.623
459.614
459.625
459.685
459.619
459.633
459.636
459.568
459.598
459.502
459.532
459.481
459.486
459.446
459.466
459.472
459.451
459.557
459.605
459.516
459.307
459.401
459.413
459.399
459.318
459.316
459.317
459.317
459.42
459.31
459.552
459.32
459.317
459.32
459.38
459.366
459.393
459.322
459.321
459.493
459.505
459.399
459.399
459.438
459.884
459.569
459.917
459.31
459.309
459.318
459.318
459.538
459.332
459.31
459.32
459.332
459.317
459.32
459.506
459.896
459.887
459.31
459.311
459.311
460.257
459.311
459.421
459.403
459.527
459.319
459.31
459.307
459.308
459.308
459.316
459.402
459.314
459.316
459.321
459.564
459.5
459.311
459.308
459.582
459.564
459.537
459.545
459.454
459.469
459.322
459.317
459.355
459.479
459.481
459.9
459.563
459.517
459.986
459.722
459.793
459.322
459.309
459.339
459.314
459.318
459.522
459.577
459.321
459.321
459.441
459.321
459.451
459.444
459.437
459.449
459.483
459.562
459.497
459.596
459.569
459.613
459.587
459.627
459.598
459.621
459.612
459.593
459.588
459.512
459.52
459.492
459.493
459.449
459.464
459.462
459.456
459.45
459.321
459.425
459.447
459.426
459.316
459.428
459.423
459.472
459.477
459.862
459.543
459.466
459.317
459.343
459.774
459.312
459.317
459.317
459.315
459.467
459.317
459.314
459.618
459.456
459.536
459.313
459.467
459.465
459.501
459.531
459.48
459.526
459.49
459.587
459.56
459.591
459.573
459.309
459.472
459.492
459.495
459.461
459.617
459.535
459.551
459.562
459.468
459.464
459.506
459.448
459.459
459.496
459.499
459.455
459.539
459.606
459.529
459.599
459.562
459.623
459.593
459.578
459.605
459.53
459.542
459.475
459.519
459.459
459.452
459.531
459.645
459.582
459.626
459.526
459.582
459.442
459.463
459.519
459.507
459.472
459.469
459.455
459.488
459.449
459.419
459.535
459.5
459.442
459.552
459.587
459.579
459.467
459.465
459.583
459.59
459.565
459.443
459.448
459.536
459.582
459.566
459.531
459.457
459.522
459.534
459.547
459.439
459.43
459.514
459.438
459.585
459.552
459.582
459.482
459.488
459.481
459.55
459.462
459.487
459.497
459.522
459.499
459.529
459.581
459.471
459.568
459.574
459.511
459.506
459.562
459.541
459.311
459.309
459.307
459.306
459.305
459.305
459.305
459.305
459.305
459.305
459.305
459.305
459.305
459.305
459.305
459.305
459.305
459.305
459.305
459.305
459.305
459.305
459.305
459.305
459.305
459.305
459.305
459.305
459.305
459.305
459.305
459.305
459.305
459.305
459.305
459.305
459.305
459.305
459.305
459.305
459.305
459.305
459.305
459.305
459.305
459.305
459.305
459.31
459.309
459.308
459.308
459.306
459.307
459.305
459.306
459.305
459.305
459.305
459.305
459.305
459.305
459.305
459.305
459.305
459.305
459.305
459.305
459.305
459.305
459.305
459.309
459.308
459.307
459.307
459.307
459.308
459.31
459.31
459.306
459.306
459.306
459.306
459.305
459.306
459.305
459.305
459.305
459.305
459.305
459.305
459.305
459.305
459.305
459.305
459.305
459.305
459.306
459.305
459.305
459.305
459.305
459.305
459.305
459.305
459.309
459.307
459.307
459.306
459.305
459.305
459.305
459.306
459.309
459.308
459.308
459.305
459.309
459.308
459.308
459.307
459.307
459.307
459.309
459.31
459.306
459.306
459.306
459.306
459.305
459.306
459.306
459.305
459.305
459.305
459.305
459.305
459.305
459.305
459.305
459.309
459.305
459.305
459.305
459.307
459.307
459.308
459.309
459.31
459.306
459.306
459.306
459.306
459.305
459.305
459.305
459.305
459.305
459.305
459.305
459.305
459.31
459.306
459.306
459.306
459.305
459.305
459.305
459.305
459.305
459.306
459.309
459.308
459.308
459.307
459.307
459.308
459.307
459.306
459.305
459.305
459.307
459.309
459.305
459.306
459.305
459.307
459.309
459.306
459.306
459.305
459.305
459.305
459.305
459.305
459.305
459.305
459.305
459.305
459.305
459.305
459.305
459.305
459.305
459.305
459.305
459.305
459.305
459.305
459.305
459.305
459.305
459.305
459.308
459.306
459.306
459.307
459.306
459.306
459.305
459.305
459.305
459.305
459.305
459.305
459.305
459.305
459.305
459.305
459.305
459.305
459.307
459.305
459.305
459.307
459.307
459.307
459.307
459.308
459.308
459.308
459.307
459.309
459.308
459.308
459.309
459.306
459.307
459.307
459.307
459.307
459.307
459.305
459.306
459.305
459.305
459.306
459.305
459.305
459.305
459.305
459.305
459.305
459.305
459.305
459.305
459.305
459.305
459.305
459.305
459.305
459.305
459.305
459.305
459.305
459.305
459.305
459.305
459.309
459.307
459.307
459.308
459.305
459.305
459.305
459.305
459.306
459.306
459.307
459.307
459.306
459.305
459.305
459.305
459.305
459.305
459.307
459.305
459.308
459.305
459.308
459.307
459.305
459.305
459.305
459.305
459.308
459.305
459.305
459.305
459.305
459.307
459.305
459.305
459.305
459.305
459.305
459.305
459.306
459.307
459.307
459.305
459.306
459.305
459.305
459.305
459.305
459.305
459.306
459.305
459.305
459.305
459.305
459.306
459.305
459.305
459.305
459.305
459.305
459.305
459.305
459.305
459.308
459.308
459.305
459.307
459.305
459.306
459.306
459.306
459.305
459.305
459.305
459.305
459.305
459.305
459.305
459.305
459.305
459.305
459.305
459.305
459.307
459.305
459.305
459.305
459.305
459.306
459.305
459.305
459.306
459.305
459.305
459.305
459.305
459.307
459.306
459.306
459.307
459.306
459.307
459.305
459.305
459.305
459.305
459.305
459.305
459.305
459.305
459.306
459.305
459.305
459.305
459.305
459.305
459.305
459.305
459.306
459.306
459.307
459.305
459.305
459.305
459.306
459.305
459.305
459.307
459.306
459.313
459.317
459.321
459.33
459.342
459.358
459.359
459.345
459.331
459.326
459.364
459.534
459.993
460.349
460.107
460.405
460.285
460.208
459.956
459.776
459.795
459.88
460.355
460.3
460.258
459.313
459.317
459.32
459.318
459.325
459.323
459.331
459.326
459.337
459.333
459.344
459.339
459.353
459.349
459.358
459.357
459.363
459.361
459.365
459.365
459.363
459.366
459.357
459.36
459.35
459.355
459.344
459.347
459.334
459.339
459.333
459.333
459.338
459.332
459.34
459.347
459.411
459.348
459.488
459.402
459.57
459.519
459.724
459.714
459.985
459.828
459.316
459.312
459.311
459.312
459.311
459.311
459.31
459.31
459.309
459.31
459.309
459.309
459.309
459.309
459.31
459.31
459.309
459.31
459.309
459.31
459.312
459.311
459.311
459.312
459.314
459.312
459.315
459.315
459.314
459.315
459.315
460.068
459.318
459.325
459.335
459.349
459.36
459.356
459.335
459.329
459.34
459.428
459.647
459.713
459.768
460.113
460.09
459.984
459.88
460.024
459.809
459.891
459.715
459.851
460.112
460.362
459.318
460.313
459.324
459.338
459.317
459.314
459.321
459.333
459.345
459.356
459.354
459.341
459.33
459.329
459.37
459.55
459.887
459.784
459.877
460.326
460.187
459.349
459.354
459.348
459.333
459.325
459.342
459.434
459.662
460.215
460.007
459.73
459.754
459.314
459.347
459.328
459.341
459.338
459.315
459.35
459.343
459.332
459.321
459.339
459.421
459.679
459.794
459.798
459.919
459.686
459.68
459.793
459.712
459.676
459.601
459.314
459.85
459.871
459.731
459.73
459.573
459.928
459.773
460.154
459.323
459.323
459.318
459.316
459.324
459.32
459.326
459.324
459.331
459.327
459.34
459.335
459.353
459.347
459.358
459.351
459.359
459.36
459.363
459.363
459.364
459.363
459.36
459.361
459.352
459.356
459.342
459.351
459.336
459.341
459.329
459.332
459.33
459.328
459.338
459.333
459.365
459.354
459.401
459.39
459.491
459.491
459.674
459.677
459.81
460.032
459.793
459.312
459.319
459.319
459.311
459.31
459.311
459.31
459.311
459.309
459.311
459.309
459.309
459.309
459.309
459.309
459.309
459.31
459.31
459.311
459.31
459.312
459.313
459.313
459.314
459.315
459.315
459.857
459.75
459.861
459.894
459.312
459.334
459.314
459.318
459.35
459.35
459.335
459.325
459.325
459.381
459.539
459.317
459.925
459.767
459.749
459.336
459.346
459.695
459.332
459.328
459.583
459.325
460.132
459.334
459.347
459.343
459.316
459.617
459.417
459.619
459.814
459.458
459.358
459.326
459.327
459.336
459.348
459.695
459.341
459.342
459.602
459.318
459.343
459.339
459.34
459.34
459.332
459.494
459.322
459.327
459.326
459.323
459.578
459.518
459.36
459.394
459.421
459.316
459.746
459.314
459.314
459.339
459.337
459.563
459.503
459.331
459.34
459.323
459.323
459.321
459.319
459.327
459.328
459.323
459.323
459.329
459.327
459.339
459.333
459.346
459.34
459.355
459.349
459.36
459.357
459.366
459.367
459.362
459.364
459.361
459.363
459.356
459.359
459.349
459.349
459.341
459.34
459.333
459.336
459.328
459.333
459.33
459.332
459.365
459.364
459.398
459.371
459.474
459.444
459.58
459.504
459.319
459.319
459.313
459.515
459.486
459.334
459.329
459.311
459.31
459.312
459.31
459.31
459.31
459.31
459.311
459.311
459.311
459.312
459.312
459.312
459.313
459.313
459.315
459.314
459.316
459.32
459.317
459.679
459.641
459.606
459.744
459.632
459.593
459.594
459.321
459.319
459.312
459.332
459.342
459.313
459.317
459.326
459.375
459.322
459.634
459.685
459.667
459.649
459.336
459.695
459.532
459.521
459.681
459.664
459.775
459.676
459.606
459.675
459.313
459.321
459.333
459.651
459.338
459.333
459.338
459.336
459.337
459.378
459.32
459.32
459.525
459.492
459.332
459.333
459.483
459.341
459.367
459.322
459.314
459.323
459.32
459.321
459.319
459.326
459.324
459.333
459.331
459.338
459.336
459.349
459.346
459.356
459.355
459.359
459.358
459.364
459.363
459.362
459.362
459.358
459.354
459.347
459.347
459.337
459.341
459.331
459.333
459.329
459.329
459.328
459.331
459.341
459.339
459.387
459.353
459.431
459.478
459.432
459.318
459.319
459.311
459.462
459.429
459.326
459.324
459.328
459.331
459.311
459.312
459.31
459.31
459.311
459.312
459.312
459.314
459.314
459.314
459.315
459.316
459.315
459.316
459.316
459.325
459.324
459.46
459.327
459.315
459.336
459.312
459.525
459.575
459.531
459.325
459.483
459.512
459.438
459.505
459.678
459.333
459.319
459.323
459.501
459.317
459.32
459.318
459.436
459.417
459.61
459.489
459.406
459.579
459.509
459.459
459.455
459.456
459.415
459.327
459.313
459.315
459.473
459.483
459.406
459.364
459.319
459.319
459.332
459.45
459.331
459.329
459.326
459.318
459.318
459.326
459.322
459.333
459.327
459.334
459.332
459.342
459.34
459.352
459.35
459.355
459.354
459.36
459.357
459.359
459.354
459.355
459.355
459.347
459.351
459.341
459.343
459.334
459.334
459.327
459.329
459.324
459.323
459.34
459.342
459.356
459.354
459.42
459.317
459.316
459.318
459.611
459.322
459.32
459.327
459.328
459.312
459.313
459.332
459.329
459.33
459.312
459.312
459.313
459.312
459.314
459.314
459.317
459.316
459.317
459.317
459.319
459.318
459.321
459.321
459.448
459.418
459.34
459.344
459.407
459.323
459.466
459.459
459.417
459.404
459.382
459.434
459.319
459.41
459.329
459.323
459.403
459.38
459.404
459.41
459.398
459.319
459.434
459.38
459.382
459.332
459.322
459.374
459.367
459.353
459.321
459.392
459.33
459.325
459.431
459.326
459.325
459.315
459.319
459.321
459.328
459.333
459.329
459.338
459.336
459.344
459.338
459.353
459.345
459.351
459.353
459.352
459.352
459.347
459.353
459.347
459.346
459.336
459.34
459.332
459.334
459.327
459.33
459.324
459.326
459.333
459.328
459.35
459.383
459.337
459.32
459.32
459.317
459.325
459.313
459.316
459.313
459.314
459.315
459.317
459.316
459.318
459.319
459.322
459.324
459.322
459.32
459.321
459.313
459.314
459.313
459.319
459.32
459.432
459.384
459.353
459.38
459.395
459.364
459.358
459.347
459.326
459.384
459.319
459.316
459.316
459.317
459.316
459.354
459.342
459.35
459.341
459.323
459.328
459.326
459.326
459.407
459.35
459.348
459.384
459.378
459.352
459.34
459.317
459.319
459.326
459.322
459.341
459.321
459.33
459.328
459.337
459.334
459.346
459.339
459.346
459.344
459.345
459.346