/*--------------------------------*- C++ -*----------------------------------*\
| =========                 |                                                 |
| \\      /  F ield         | OpenFOAM: The Open Source CFD Toolbox           |
|  \\    /   O peration     | Version:  v2012                                 |
|   \\  /    A nd           | Website:  www.openfoam.com                      |
|    \\/     M anipulation  |                                                 |
\*---------------------------------------------------------------------------*/
FoamFile
{
    version     2.0;
    format      ascii;
    class       volScalarField;
    location    "2";
    object      qr;
}
// * * * * * * * * * * * * * * * * * * * * * * * * * * * * * * * * * * * * * //

dimensions      [1 0 -3 0 0 0 0];


internalField   uniform 0;

boundaryField
{
    fire_inlet
    {
        type            calculated;
        value           nonuniform List<scalar> 
41
(
11778.1
11355.6
9896.66
10687.7
8141.37
12907.6
24349
22968.9
27852.4
17679.9
23232.7
17810.2
14289.7
15691.1
21143.5
20285.6
11425.5
10215.1
12097.3
9960.86
14645.6
13085.8
12276
14127.2
16428.8
24821.6
27002.8
24945.6
24334.9
15477.1
22571.3
29527.6
30495.7
26905.9
31708.8
29549.7
33512.1
34473
36508.7
32249.6
37792.4
)
;
    }
    outlet
    {
        type            calculated;
        value           nonuniform List<scalar> 
400
(
3.08557
1.7838
1.33909
0.131277
0.347266
0.936808
1.74617
7.26467
10.3019
8.19606
6.38472
6.78373
5.88796
5.76528
7.27816
5.99653
10.3472
3.69184
3.19732
3.24133
3.57243
3.12922
4.73293
3.34681
5.88468
4.76442
6.90961
6.97202
5.45245
0.212034
7.10145
1.42937
0.813062
0.527853
1.21337
1.21927
3.7726
1.18975
1.42804
0.80563
2.97445
0.684143
0.700638
2.85919
0.643657
1.90486
0.316544
1.00743
1.85036
0.246462
0.560102
2.9956
0.828663
1.0653
0.804106
1.19196
0.646945
5.26318
5.98236
5.04225
4.49861
0.686215
2.87484
3.61822
2.15146
5.38614
4.02825
1.35652
0.626321
5.30159
2.98601
4.6754
5.97447
3.46192
5.91317
2.54371
1.99687
0.50375
4.51446
5.68129
1.192
3.69949
3.80897
2.01545
1.21494
1.16156
0.811014
3.05511
0.552939
4.03912
2.83288
3.03593
2.69928
0.53894
1.67015
1.72101
1.03213
1.08248
1.81609
1.83023
0.00208765
0.00237027
0.00226084
0.00203648
0.00172935
0.00146924
0.00135678
0.000978199
0.00103638
0.00113226
0.00118871
0.00128485
0.00122197
0.00131006
0.00125356
0.00134941
0.00125518
0.00200479
0.00167467
0.00179869
0.00141613
0.00161402
0.00133457
0.00151046
0.0012503
0.00139511
0.00124937
0.00134359
0.00138569
0.00209979
0.0013176
0.00223646
0.00212152
0.00189179
0.00147324
0.00163939
0.00131913
0.00237156
0.00126199
0.00221329
0.00150418
0.00233902
0.00195948
0.0014025
0.00144918
0.00152669
0.00141114
0.00200693
0.00183241
0.00163153
0.00175262
0.00159674
0.0019735
0.00202471
0.00204488
0.0013594
0.00140852
0.00137723
0.00138302
0.00231661
0.00175079
0.00165096
0.00169047
0.00150909
0.00161358
0.00186505
0.0020389
0.00143113
0.00182529
0.00126143
0.0015199
0.00148619
0.00194589
0.00139153
0.00200293
0.00190485
0.00140948
0.00142735
0.00145899
0.00149362
0.00183406
0.00175985
0.00137233
0.00151024
0.00142031
0.00146043
0.00170261
0.00155543
0.0014432
0.00188485
0.00149847
0.00177035
0.00174822
0.00158957
0.00148712
0.0014497
0.00151328
0.00158325
0.00169218
0.0016039
0.00150433
0.00138977
0.00147826
0.00145427
0.00147688
0.0017602
0.0016466
0.00147477
0.0016158
0.00151594
0.295809
0.402093
0.613209
0.476197
1.06325
0.679608
1.33089
1.18121
1.7927
1.39961
2.04594
1.77652
1.99968
1.60694
1.33624
1.42973
1.00613
1.14355
0.825774
0.968043
0.817903
0.800182
0.66822
0.681113
0.835629
0.796967
1.02881
0.858982
1.14452
1.14896
1.30846
1.31136
1.22406
0.465234
0.655315
0.949399
1.26909
1.4473
1.28828
1.46206
0.314438
0.256862
0.244803
0.25158
0.426557
0.46863
0.31085
0.285918
0.615604
0.818205
0.816231
1.13073
1.04536
1.87067
0.298332
0.248654
0.20854
0.345659
0.338949
0.288558
0.3313
0.276546
1.2128
0.372072
0.258124
0.241732
0.336678
0.360507
0.72896
1.10081
0.660005
1.28467
1.09037
1.633
1.39948
1.72564
0.359329
1.11366
0.912588
0.997417
0.781872
0.709865
0.71325
0.706571
0.745067
0.662245
0.865264
0.861698
1.17587
0.967215
1.40124
0.393849
0.761483
0.45979
1.11913
0.366593
0.424939
0.277839
0.265589
0.292584
0.37935
0.304685
0.309672
0.386842
0.432813
0.406496
0.534127
1.53736
0.502703
0.432187
0.610694
1.4134
1.1156
1.28491
0.889689
0.952992
0.561568
0.664518
0.321464
0.965334
1.21742
1.23498
1.01785
1.2059
1.23302
1.01642
0.577883
0.98123
0.950164
0.55391
0.723346
0.732396
0.64782
0.671771
0.62044
0.640651
0.854901
0.693763
0.896028
0.997587
0.888928
0.699119
0.393058
0.834333
0.91032
0.336389
0.531647
0.461609
0.59094
0.396881
0.366934
0.412071
0.548604
0.461186
0.675678
0.701998
0.819787
0.388541
0.461067
0.410078
0.888876
0.88992
0.663985
0.683683
0.630659
0.645523
0.591782
0.57902
0.8028
0.738394
0.643555
0.62586
0.50038
0.620464
0.671286
0.635482
0.619969
0.478453
0.39328
0.608573
0.443161
0.5846
0.497969
0.458231
0.433843
0.483178
0.41655
0.489449
0.536103
0.562921
)
;
    }
    base
    {
        type            calculated;
        value           nonuniform List<scalar> 
14237
(
4584.67
5672.76
5902.33
1976.88
3772.46
4689.86
5560.72
4971.05
3364.89
5895.41
4521.36
1110.18
1610.76
2190.96
2508.33
3852.15
5737.34
3671.25
4026.82
4523.08
5145.97
6309.51
5834.18
5575.27
4249.64
4510.88
3112.45
969.194
1318.35
5683.95
2597.73
2758.08
4784.31
3994.54
5530.11
5235.52
3611.33
1938.07
4311.37
3304.1
3052.2
2707.91
5457.33
2120.86
3722.85
2709.92
3341.94
2934.18
3418.65
3005.25
2380.18
1681.25
3315.74
3370.47
5947.47
3506.14
4645.11
1408.76
1108.28
1880.83
2839.3
5715.81
7735.88
6141
6613.91
1939.2
3784.02
5867.02
7852.81
1367.23
1266.03
0.00368031
0.00302287
0.00193932
0.00306725
0.00155258
0.00203241
0.00143879
0.00170126
0.00120043
0.00140863
0.00100414
0.00127093
0.000935844
0.00108049
0.000767216
0.000892059
0.000631051
0.00077029
0.000517594
0.000624477
0.000267544
0.000435454
0.000148755
0.000133063
0.000165241
0.000160098
0.000183532
0.000167967
0.000147708
0.000168127
0.000171187
0.000180259
0.000212217
0.00021858
0.000192596
0.000232922
0.000200486
0.000186441
0.000346832
0.000320838
0.000278645
0.000303251
0.000256639
0.000353355
0.000292743
0.000505158
0.000279011
0.000515464
0.000373965
0.000641208
0.000361809
0.000924641
0.000633815
0.000989116
0.00116644
0.00201131
0.000817969
0.00271861
0.001223
0.00319837
0.00367558
0.00435335
0.00873521
0.0104843
0.329734
0.938599
0.616447
0.167212
0.191049
0.151708
0.0586806
0.0592534
0.0144589
0.00119595
0.00141193
0.00192315
0.00383803
0.00657706
0.0105041
0.0149205
0.0201144
0.0302532
0.0679316
0.101505
0.222972
0.00413314
0.00686606
0.00593764
0.0127416
0.0104323
0.0195014
0.016516
0.0250787
0.0237031
0.0281008
0.0319773
0.0333837
0.0370101
0.0377051
0.0418482
0.0486008
0.048948
0.0648462
0.0570144
0.0748311
0.0753815
0.0835977
0.086866
0.12141
0.143926
0.115385
0.160252
0.155625
0.19611
0.172901
0.250991
0.214399
0.307332
0.264442
0.374886
0.339972
0.474513
0.39681
0.514026
0.493602
0.53169
0.516105
0.506086
0.498875
0.448245
0.439718
0.376701
0.411797
0.322436
0.337667
0.238253
0.264216
0.196494
0.204312
0.144743
0.162962
0.129783
0.146329
0.108856
0.112752
0.120788
0.127472
0.188146
0.181256
0.325348
0.32249
0.72868
0.653632
3.07434
1.59322
7.67595
6.24979
19.9754
0.394627
0.501547
0.729812
1.11061
1.44694
2.29062
4.73548
18.1416
56.7871
61.3017
21.1381
144.989
636.886
709.398
224.41
36.9551
30.1736
52.2358
54.924
48.1992
0.399046
0.00500112
0.00827302
0.0129795
0.0194116
0.0223688
0.0234808
0.0177859
0.0110427
0.0107482
0.0301051
0.0986563
0.28496
0.329665
0.000151029
0.0134118
0.615515
1.20815
1.16808
0.37838
0.158569
0.241471
0.18403
0.0632166
0.0235413
0.0024001
0.00208616
0.00206866
0.00262147
0.00282072
0.00539382
0.00829426
0.0121612
0.0180669
0.0254282
0.0352134
0.0775423
0.129674
20.5887
1.09602
1.29978
0.505956
0.349642
0.558285
0.563343
0.91639
1.3372
1.7796
2.75803
8.63895
35.0163
67.8285
40.1331
31.2282
393.016
771.773
466.823
76.6854
22.7145
40.4586
61.5375
55.2715
31.8498
0.00633581
0.010534
0.015936
0.0216071
0.0252222
0.0217094
0.0150718
0.0103896
0.0124884
0.0629868
0.183332
0.00384715
2.35993
1.68511
0.280949
0.396018
0.197635
0.090506
0.0673359
0.0278973
0.00283789
0.00551608
0.00807579
0.0115918
0.0217616
0.0301964
0.0485995
0.0883734
0.148213
0.247863
0.004116
2.37151
5.56637
24.2764
67.709
58.9739
23.0849
353.371
843.147
607.601
109.106
24.8053
40.1012
58.9794
55.5755
32.9932
0.00793766
0.0122468
0.0187259
0.0229203
0.0231639
0.0173823
0.0109661
0.0124562
0.0562486
0.169716
3.10255
1.81661
2.03992
0.627881
0.286361
0.264052
0.123546
0.0809477
0.0407577
0.00900517
0.0157951
0.0244009
0.0422721
0.0605065
0.113814
0.226657
44.3661
72.1788
35.971
105.59
646.611
824.424
300.616
46.4713
28.8067
41.8865
56.0192
49.1736
22.6386
0.00697886
0.01029
0.0162057
0.0218387
0.0244855
0.0205858
0.0150749
0.0119374
0.0162533
0.0900253
0.954814
0.00678398
0.00382032
1.48879
0.73829
10.2228
0.91851
1.93884
0.00512759
11.1117
0.0167889
0.00189062
0.00172206
0.00192714
0.00144339
0.0017019
0.00127139
0.00136854
0.00116192
0.00132419
0.000796064
0.00111419
0.000664585
0.000827406
0.000599432
0.000666611
0.000362977
0.000431371
0.00454053
0.00438369
0.00450094
0.000287
0.000238458
0.000306707
0.000294041
0.000300029
0.000396253
0.000464476
0.000503287
0.000627179
0.000484769
0.00080712
0.00105558
0.00114968
0.00113951
0.00134675
0.00102886
0.00111626
0.00102604
0.00143418
0.00153001
0.00128891
0.00199692
0.001907
0.00234153
0.0017783
0.00364363
0.00303173
0.00521718
0.00478215
0.00644207
0.00645319
0.00824311
0.0107905
0.0106362
0.0124382
0.0112055
0.0104492
7.09063
18.1026
4.82711
2.8046
0.680754
2.51448
0.553694
0.780649
1.33128
0.429286
0.178333
0.172123
0.0429959
0.0152072
1.82933
0.00785038
0.0119738
0.00459773
0.00522868
0.00676443
1.15861
0.0107287
0.0125329
0.0184355
0.00701672
0.0076684
0.0106331
0.0263032
0.0352395
0.059272
0.110798
0.143416
0.207187
0.248579
40.3757
0.00524012
0.943238
0.00872775
0.0196431
0.0150799
0.0229459
0.0254668
0.0318392
0.0321103
0.0387665
0.0424183
0.0447247
0.053749
0.0498377
0.053592
0.0601771
0.0529584
0.0676577
0.0630028
0.0713928
0.0753574
0.101606
0.149975
0.103961
0.651355
0.167346
0.142148
0.206631
0.172124
0.243781
0.206764
0.312518
0.26232
0.401418
0.321832
0.474016
0.396966
0.518837
0.488735
0.504507
0.491072
0.448685
0.44714
0.415453
0.431039
0.344299
0.375068
0.272295
0.297132
0.192184
0.224915
0.171584
0.156467
0.140087
0.142545
0.118692
0.13943
0.118831
0.12808
0.191908
0.197336
0.354438
0.340127
0.666283
0.676965
1.93146
1.70522
7.02958
19.8892
5.54528
10.4822
0.447367
0.452936
1.60562
1.21462
1.43973
0.951383
0.993091
0.334228
4.44773
6.16227
10.3436
22.8444
30.8028
0.743248
0.573041
0.757195
75.4699
37.6119
121.346
743.966
940.162
304.648
45.953
28.5958
43.5541
47.159
25.091
22.7924
17.9074
19.4976
0.000197389
0.0101509
0.0155634
0.0208312
0.022996
0.0201389
0.0134705
0.0106433
0.0171254
0.0821968
6.31106
13.4539
2.74828
2.78053
0.217706
0.00381859
1.73156
6.93585
0.00281276
0.00279032
0.0036927
0.00551567
0.000229621
0.222612
0.0129249
0.184429
0.258562
0.000216847
0.000197059
11.8194
7.72842
1.31961
1.1567
0.983256
0.453918
0.692078
0.52958
0.155211
0.0503012
0.0657734
0.785105
0.048981
0.0453105
0.0234018
0.0348292
0.019592
0.0756714
0.144662
0.171953
0.242249
0.265921
0.000210254
1.90686
0.00448714
20.388
14.4225
68.5705
59.0462
30.9575
363.48
929.435
633.665
114.277
27.8284
39.5277
52.0161
37.0041
58.2147
0.00788876
1.9185
0.00750572
0.011707
0.016333
0.02248
0.0215712
0.0158182
0.00953555
0.01341
0.0512391
42.7762
16.1044
1.35017
69.0825
0.087417
0.0173218
0.010994
0.0148089
0.0215651
0.0211684
26.6784
41.9873
0.14242
0.0343491
0.0125359
0.0134752
0.017499
0.0230199
0.0142034
30.9423
33.6813
31.5685
28.7198
180.599
740.589
1017.68
0.00671808
0.00472077
0.231653
0.284791
0.179462
0.00383924
1.18212
0.000272464
0.0740991
1.96564
0.966749
408.12
0.745436
0.275105
0.0391966
0.0314281
0.0294661
0.100247
0.211436
1049.42
599.723
54.6753
51.5418
73.6053
77.6516
27.9304
273.721
0.00892912
0.017106
0.0109792
0.0201281
0.0354823
0.00206345
0.00144396
0.00181906
0.0013912
0.00169058
0.0012756
0.00145686
0.00102132
0.00123995
0.000866817
0.00106855
0.000489599
0.000269036
0.000867923
0.142024
1.48719
0.119089
0.139191
0.000490369
0.000631201
0.000745826
0.000700869
0.000642579
0.00103322
0.00139895
0.00182785
0.00192566
0.00233744
0.00228705
0.00208163
0.00269052
0.00225032
0.00356853
0.00249216
0.00288591
0.00357743
0.00470879
0.00339702
0.00443571
0.00458709
0.00521806
0.00676245
0.00614395
0.00841256
0.00868275
0.0131263
0.013017
81.8787
51.8947
7.09512
4.39669
341.81
0.00580435
2.40926
0.000339827
0.702916
0.179307
0.0492373
0.267951
0.37063
5.82219
5.50337
0.0407504
0.0496997
0.0390884
0.0479458
0.321758
1107.79
0.253654
0.319013
1.7629
4.11883
1.25578
80.0187
0.000400821
0.00067464
0.000555195
0.0283716
0.0367257
0.0371527
0.0526605
0.0477612
0.0573484
0.058217
0.0588749
0.0640777
0.062349
0.0643415
0.0752727
0.0783269
0.0858179
0.0879441
0.114729
0.138132
0.103029
30.3566
0.161697
0.15512
0.20784
0.170407
0.247434
0.232867
0.294592
0.275103
0.400424
0.341565
0.493161
0.421185
0.463604
0.454112
0.451219
0.458529
0.43323
0.405498
0.345221
0.364483
0.298432
0.319545
0.227423
0.252149
0.158695
0.180866
0.145259
0.154251
0.129741
0.145747
0.134592
0.137706
0.207693
0.2121
0.381918
0.330756
0.697036
0.649826
8.02263
0.373905
0.069533
0.116756
26.2896
4.70762
328.624
74.8018
80.2116
56.9236
39.8635
69.1609
162.248
1149.7
1100.85
0.462711
779.609
777.426
545.313
0.257288
25.9661
21.479
0.14697
25.153
47.7488
54.2155
7.7248
10.455
0.0152872
9.35729
12.1036
19.3004
0.00901124
0.0113794
0.00962119
0.0115775
0.0210644
0.0217924
0.0151623
0.0101339
0.0141286
0.0265206
27.6648
19.6666
23.9755
0.00340094
0.241979
2.30363
2.64282
5.37183
31.9935
108.734
53.8839
27.0686
0.00878745
52.4413
49.0267
97.184
0.0971838
0.20072
0.234022
0.274421
0.013053
0.00445836
0.0043893
0.00309362
0.00234021
0.00293309
61.2385
44.549
1.51761
0.0126253
0.0122732
0.0196335
0.0127269
226.418
0.0131377
0.0138992
6.27012
9.88887
0.00199911
8.07869
10.417
2.00498
0.702794
0.829563
71.3322
17.6547
18.8049
0.0110024
0.200611
0.00921379
0.0106286
0.0311149
0.0410916
0.0209503
0.017226
0.0354514
0.161696
5.89822
0.209878
0.0590147
0.321279
0.166558
41.1073
0.058735
2.02141
0.358918
0.44253
0.0899853
28.1849
1.37959
1.13946
1.26746
1.12704
0.0076477
4.48342
0.0147271
0.0154689
0.0173075
0.138647
0.538034
0.548499
0.00593396
0.00913617
748.002
1.25337
0.0717848
144.721
0.0444337
13.8176
0.112044
13.8789
20.2934
10.4771
0.0175166
0.00839552
0.0599465
0.0214563
0.0174936
0.0111501
0.0110813
0.0692183
26.1834
75.9637
0.00855773
0.0112484
0.0119229
0.0102406
12.5109
0.279429
0.322411
20.7803
0.0197342
1045.13
725.567
220.837
15.7452
0.0156101
0.0175619
0.0166761
0.019802
0.0194389
0.0147419
0.00537898
0.0149625
0.0139593
0.00184344
0.00156844
0.00174063
0.00136715
0.00154741
0.0011031
0.00111689
0.000847728
0.283517
9.69449
0.870233
0.009873
0.00124872
0.00171261
0.00183607
0.00251031
0.00234919
0.00340865
0.00347683
0.00392932
0.00395762
0.00454039
0.00434649
0.00588296
0.00577802
0.00553615
0.00573353
0.00642245
0.00564515
0.009748
0.0092855
0.00942839
0.00937825
0.0118934
0.00972243
0.0134683
0.0129296
154.913
100.856
11.9021
10.5709
868.462
0.288818
0.285448
8.06126
8.17342
0.0152394
29.2925
0.157092
12.8539
0.0831782
60.9701
0.0710453
0.0738066
175.646
0.453045
4.91466
5.6065
18.3815
23.6994
0.224248
0.134381
0.0431487
0.334169
0.325918
1.0446
0.0536804
0.055147
0.0642248
0.0659048
0.0676242
0.0727297
0.071168
0.0679918
0.08722
0.0785455
0.0912406
0.0989184
0.117523
0.144603
0.107909
0.10229
0.13005
0.173138
0.160134
0.227518
0.2013
0.278167
0.240749
0.346618
0.301926
0.409836
0.353212
0.461138
0.417052
0.46463
0.432693
0.40539
0.432575
0.340764
0.358441
0.321109
0.303577
0.232525
0.242498
0.188927
0.195186
0.135932
0.144768
0.130198
0.134461
0.14928
0.157725
0.204896
0.21817
0.356277
0.33707
0.460055
11.8313
0.0649255
0.126567
672.832
676.48
0.620844
2.73805
3.84074
0.924341
0.00199022
10.3309
7.79695
32.1455
189.997
330.649
1.12074
9.6986
5.38569
4.19499
0.0129975
62.5434
0.0191009
0.127622
47.5695
98.3447
0.822246
0.18869
0.24718
0.0167042
0.0129881
0.0173941
0.294885
0.282689
0.313572
0.00172726
0.00170143
0.00213568
0.0190883
0.0193046
0.018802
0.0188966
0.0118226
0.00973667
0.022923
0.191787
17.1629
10.361
1.91203
1.89019
59.0197
29.3105
0.0128835
0.0129145
297.474
0.0274808
0.0618026
0.00296437
0.807933
0.386194
0.0180509
1.54909
0.00104286
0.236122
0.202348
0.0111416
0.0112137
0.0308357
0.0142505
0.013807
254.613
14.9498
953.793
981.787
5.60644
7.40353
10.05
0.190815
32.5254
0.0299734
0.0593438
0.0746022
0.0123368
0.036776
0.010216
74.575
0.556725
0.102974
4.03651
3.22582
11.9876
5.1643
0.0986574
1.40264
0.00129166
0.00707447
36.0849
0.375049
0.464768
0.685681
0.167008
8.30759
0.0225877
0.0346792
0.00365224
43.5791
57.6492
0.93655
0.755997
0.136024
0.0228806
0.0211695
0.0300439
0.892494
0.339094
0.351237
0.0150616
0.00358344
0.143196
2.6871
0.00125025
186.61
698.592
0.0016802
11.2602
14.8728
18.2586
0.00622699
0.00140088
0.00967624
0.00852807
0.652182
0.569029
0.589314
0.0104745
0.00485083
0.254129
8.57393
6.44838
191.795
0.459103
0.0197608
175.287
405.547
269.719
0.0109672
0.00633054
0.192436
38.8352
0.0189977
0.0016398
0.00172958
0.00152668
0.00164376
0.0181757
0.119635
359.764
779.949
0.00265184
0.00355659
0.00318209
0.00373759
0.00371614
0.00479563
0.00370819
0.0059055
0.00607605
0.00623631
0.00667104
0.00652357
0.00612941
0.00920857
0.00913741
0.0113148
0.0109288
0.0130777
0.0126076
0.0133592
0.0131941
294.776
7.69041
31.6196
0.0996089
0.930911
2.82519
38.391
51.7454
0.232631
227.722
0.0362791
0.0406503
0.0568004
33.2961
424.251
0.0116603
0.0113684
4.62443
1.43012
12.1105
0.0606043
0.074694
0.0734466
0.082149
0.0813798
0.079482
0.0817149
0.0903951
0.101178
0.106008
0.106047
0.120113
0.14512
0.123995
22.431
0.180826
35.5618
0.172238
0.148841
0.208862
0.170456
0.285305
0.237933
0.355742
0.297013
0.414729
0.379437
0.394803
0.391873
0.409858
0.371051
0.357535
0.385908
0.281756
0.297348
0.244715
0.268417
0.196915
0.18678
0.151124
0.160727
0.13399
0.150041
0.167564
0.156813
0.261632
0.269055
0.396926
0.377063
0.00787416
0.127905
0.116106
0.17876
0.0350118
0.0554439
0.0301587
3.78555
0.237347
65.9756
0.263643
4.67445
0.195184
0.134229
0.26373
0.00222755
0.00170406
0.321453
0.00196231
0.00244459
0.00269831
0.930931
38.0111
8.87437
0.045781
0.0597992
0.32648
0.313116
0.00503135
0.00357603
0.0043005
0.0183882
0.0171021
0.833942
0.0103989
0.0095234
7.29158
4.83231
0.207691
0.206522
0.245247
0.00347709
0.00229433
0.00367217
5.94554
17.6006
0.0112332
0.0113868
0.336962
134.898
19.6657
16.4294
255.435
68.3957
6.07175
8.52044
0.451216
0.0187417
0.129348
0.308085
0.333171
0.00928386
689.322
0.501863
0.451723
0.0140064
0.014969
569.501
973.43
32.8042
0.100125
0.109898
1.05198
3.31734
0.278442
26.9978
0.0125409
0.283879
0.224916
0.310919
0.0475975
0.0819055
0.0688286
15.5268
4.53902
2.29086
3.44946
7.48506
1.85773
0.00222143
0.00248268
0.015146
0.0152492
5.52337
639.22
0.00938107
0.0129003
2.45469
0.016051
0.0220901
0.161505
0.235767
0.0191537
506.915
0.240947
0.234356
0.257119
1.00863
4.25019
4.07641
0.316349
0.304877
201.306
2.92522
2.95591
2.32677
0.322162
0.316821
0.340321
0.0153304
0.0124953
0.0147329
0.00577408
0.00813177
0.0014912
5.03194
3.38815
0.297054
0.355012
0.0437333
0.0525563
0.0311394
3.20653
0.00218707
0.00185707
0.375371
0.515191
0.0139149
0.00508722
0.00470224
0.00563774
0.00547793
0.00555283
0.00691483
0.00593236
0.00586433
0.00571693
0.00796018
0.0078746
0.0118275
0.00999792
0.0137947
0.0132416
0.0145744
0.0142325
2.11106
0.00748153
0.00198325
0.0788407
0.190947
0.0166543
0.0117547
0.0115843
1.89339
0.0145448
3.24075
0.0885357
0.086113
0.109048
0.109254
0.117821
0.108328
0.113853
0.115358
0.120601
0.124381
0.121619
0.17517
0.141769
0.218643
0.191565
0.284949
0.236461
0.307062
0.30425
0.353224
0.308327
0.376085
0.363775
0.378189
0.396681
0.30043
0.341721
0.262639
0.25817
0.192806
0.218354
0.163924
0.188431
0.15407
0.140566
0.14741
0.161668
0.250259
0.231406
0.0350355
0.16986
0.163884
0.908703
0.11979
0.144839
0.0103003
0.0109786
0.00419626
0.0125969
0.0110896
0.0613481
0.0857611
0.258875
0.154695
0.499989
2.3489
0.0728974
0.0829834
0.103705
0.0105458
0.0103678
0.352965
0.216381
0.252922
0.155968
0.0191462
0.0177465
0.300292
0.280838
0.313342
0.078367
2.16115
0.0150769
0.0149937
0.00194699
1.47011
1.43405
0.0076067
0.119192
0.152195
0.00244931
0.00233324
0.62582
0.0428472
28.729
0.0614648
0.034855
0.0331967
0.0837777
0.616556
1.05311
0.411602
0.00195317
0.00168
0.00783609
0.00874393
0.0029734
0.326185
0.184216
0.19224
0.534071
0.204325
0.0138672
0.0838338
0.0872295
0.199312
0.15867
0.00406307
0.00471798
0.0152259
0.0154588
0.00243283
0.00238002
0.0784326
0.0026434
0.00362453
0.00250773
0.0169548
0.0169572
0.0189404
0.273831
0.293356
1.65971
0.299846
0.307156
0.00335715
0.00333258
1.35323
1.70855
0.0176044
0.00483387
0.00628279
0.00679278
0.00743051
0.00792759
0.00884844
0.0103879
0.010263
0.0111139
0.00962035
0.013177
0.0140688
0.0136999
0.0159414
0.348807
0.00408475
0.00404777
0.0153611
0.220169
0.0105877
0.113334
0.309678
0.297326
0.295498
1.13548
0.00498601
0.111129
0.119232
0.114041
0.127433
0.122799
0.137104
0.127346
0.152721
0.137876
0.182353
0.238807
0.169836
0.307998
0.252441
0.320466
0.318921
0.310121
0.320722
0.380493
0.315081
0.328924
0.331775
0.263391
0.293461
0.197782
0.227646
0.176362
0.181629
0.141765
0.161529
0.167598
0.146078
0.252639
0.29995
0.211126
0.00244683
0.097357
0.108716
0.0955009
0.0123381
0.0108183
0.0115111
0.0109049
0.114308
0.00467172
0.248078
0.0138803
0.0112814
0.0147204
0.075627
0.0625529
0.0870254
0.0162543
0.0159641
0.188155
0.201074
0.0952775
0.0949203
0.134398
0.579263
0.264123
0.61237
0.00482905
0.00376606
0.0123884
0.0121292
0.233819
0.0262496
0.00496239
0.0146571
0.0261831
0.0117194
0.0141173
0.20193
0.590645
0.582051
0.0052657
0.00551734
0.00603752
0.951985
0.00619977
0.117306
0.0994567
0.222425
0.0135823
0.00485613
0.00243071
0.00270971
0.00271698
0.0104788
0.0964312
0.0082422
0.0106568
0.015255
0.259802
0.196108
0.00631414
0.00321557
0.278148
0.259171
0.233169
0.240994
0.149051
0.164262
0.0166532
0.0111171
0.0488224
0.175035
0.176979
0.594851
0.258495
0.212291
0.680813
0.41745
0.487937
0.016544
0.0037834
0.0334495
0.00829819
0.012511
0.217693
0.272699
0.0152461
0.015714
0.136921
0.0156274
0.146837
0.140366
0.132836
0.145204
0.179078
0.257462
0.193192
0.29223
0.265019
0.309268
0.282682
0.322671
0.294271
0.316549
0.307776
0.288954
0.284156
0.208003
0.21569
0.187682
0.1882
0.144901
0.159968
0.157562
0.15131
0.145685
0.015341
0.120616
0.143286
0.12172
0.0101884
0.123712
0.118905
0.168085
0.172715
0.556831
0.238556
0.161527
0.0117786
0.0377055
0.468755
0.0066902
0.0110764
0.0117387
0.00977305
0.162082
0.0113487
0.00867751
0.313064
0.151123
0.231547
0.00802863
0.163298
0.161508
0.197233
0.227203
0.175721
0.221153
0.185931
0.282947
0.25576
0.287024
0.268118
0.00349222
0.167886
0.188135
0.190067
0.156961
0.312622
0.230446
0.246463
0.257766
0.163638
0.159693
0.201959
0.142985
0.154825
0.191089
0.194727
0.15086
0.234689
0.30203
0.2251
0.294859
0.258272
0.318444
0.288888
0.273785
0.300676
0.225194
0.237374
0.17088
0.214842
0.155028
0.147708
0.226456
0.340476
0.276854
0.320741
0.22164
0.277092
0.137834
0.158902
0.215359
0.203273
0.167919
0.164228
0.151264
0.183932
0.144964
0.114728
0.230217
0.196021
0.137465
0.247897
0.282282
0.274729
0.163371
0.160791
0.278495
0.286074
0.260295
0.138248
0.143607
0.232161
0.277294
0.26137
0.226159
0.152712
0.217913
0.229756
0.243148
0.134882
0.12566
0.209934
0.13327
0.280871
0.247408
0.277522
0.177497
0.183202
0.177059
0.246226
0.158118
0.183221
0.192203
0.217708
0.194901
0.224894
0.276463
0.167191
0.26332
0.269901
0.20636
0.202096
0.257771
0.236605
0.00638242
0.0040654
0.00184648
0.00110861
0.000580117
0.000454094
0.00015759
0.000123534
0.000168776
0.000175562
0.000196065
0.000190564
0.000227685
0.000218117
0.00026994
0.000253721
0.000307272
0.000301021
0.000341727
0.000342536
0.00036007
0.000375094
0.000386313
0.000397028
0.000388534
0.000407951
0.000385619
0.000404999
0.000356434
0.00039029
0.000326335
0.000359604
0.000293882
0.000331837
0.000256801
0.00029417
0.000222575
0.000250089
0.000185608
0.000219422
0.000159183
0.000175624
0.000131568
0.000146672
0.000123401
0.000137318
0.000171663
0.00513497
0.00427063
0.00338995
0.00332052
0.00201936
0.00237917
0.00113172
0.00137758
0.000861226
0.00104268
0.000547685
0.000644984
0.000465956
0.00053208
0.000470899
0.00046075
0.000366463
0.000373866
0.000271999
0.000366646
0.000193431
0.000182754
0.000220548
0.00484138
0.0040069
0.00327583
0.00268234
0.00259865
0.0036788
0.00511993
0.0052204
0.00234591
0.00209495
0.00225804
0.00189507
0.00144975
0.00152152
0.00138799
0.00118672
0.00116702
0.00107355
0.00106682
0.000944526
0.000950802
0.000867059
0.000858898
0.000758924
0.000701191
0.000635124
0.00186017
0.0013702
0.00106712
0.000879878
0.000708382
0.000849922
0.000833056
0.000136923
0.00401323
0.00273599
0.00237478
0.00124776
0.000636935
0.000491165
0.000353428
0.00148356
0.00485801
0.00369979
0.00371554
0.000121338
0.00491242
0.00336558
0.00341234
0.00293607
0.003219
0.00311034
0.00463019
0.00527124
0.00215533
0.0022285
0.00221585
0.00201447
0.000512337
0.00160399
0.00176696
0.00130498
0.00116481
0.000950963
0.00050118
0.000736681
0.000766477
0.000854472
0.000679849
0.00454598
0.000765774
0.000470276
0.000369037
0.00268294
0.00241571
0.00352804
0.00418689
0.00491819
0.00234569
0.00205162
0.00220239
0.00211961
0.0010284
0.000830147
0.000632865
0.00062997
0.000729776
0.000653924
0.000461773
0.000223173
0.00541591
0.00234772
0.00227808
0.00207633
0.000578199
0.000707539
0.000726187
0.000550968
0.000624628
0.00118793
0.00409238
0.00344493
0.0034442
0.0029178
0.00245552
0.00337794
0.00303586
0.00219857
0.000790055
0.000895755
0.00237568
0.00418361
0.000467066
0.000966959
0.000366656
0.00252562
0.0046624
0.0012997
0.00104746
0.000218046
0.000216512
0.000236405
0.000265718
0.000284608
0.000354216
0.000413493
0.000446
0.000451256
0.00049471
0.000501309
0.000482818
0.000424737
0.000408541
0.000355061
0.000290759
0.000347995
0.000244379
0.00027647
0.000190181
0.00022072
0.000171615
0.000175723
0.00334147
0.0022358
0.00181448
0.00257736
0.00123969
0.00172274
0.00081557
0.00110187
0.00064691
0.000813773
0.000565806
0.000593237
0.000494424
0.000562861
0.000371518
0.000419185
0.000331644
0.000337316
0.00259126
0.000127416
0.000400807
0.00250757
0.0029357
0.00249369
0.00256337
0.00356158
0.00344193
0.00361851
0.0024727
0.00405377
0.0036259
0.00334185
0.00383446
0.00230907
0.00241824
0.00257529
0.00264734
0.00246464
0.002595
0.000439891
0.0024082
0.000639072
0.000458655
0.00168982
0.00105383
0.000983256
0.000949372
0.000884203
0.000958239
0.000773041
0.000869292
0.000618469
0.000615387
0.000554437
0.000520584
0.000530139
0.000736534
0.000526766
0.000465599
0.000537382
0.000529135
0.000476758
0.00041211
0.000387732
0.00035694
0.00494988
0.00290168
0.00253191
0.00310321
0.000618726
0.000529032
0.000913793
0.000816992
0.00167117
0.00168984
0.0021705
0.00243668
0.00159655
0.00043979
0.000642731
0.0006005
0.000584364
0.000151146
0.00310138
0.000406693
0.00374343
0.000183808
0.00312149
0.00219485
0.00030979
0.000148785
0.000407072
0.000158055
0.00381031
0.000220032
0.000240291
0.000228961
0.000315863
0.0028303
0.000738922
0.000716579
0.00059131
0.000433667
0.00112956
0.000905047
0.00130864
0.00249465
0.00295712
0.000274615
0.0010063
0.000214822
0.000327347
0.00029038
0.000275486
0.000287074
0.00175189
0.000268768
0.000239032
0.000275157
0.000256957
0.00143139
0.000992448
0.000694075
0.000567299
0.00049396
0.000427328
0.000385824
0.000511821
0.000723273
0.00281607
0.00285981
0.000535543
0.00247243
0.000336288
0.00119348
0.00181413
0.00134332
0.000555616
0.000574245
0.000880077
0.000843512
0.000802895
0.000816036
0.000575505
0.000553482
0.000468522
0.00054172
0.000310087
0.000926331
0.00186693
0.000425262
0.000453603
0.000394731
0.000580718
0.0008521
0.000366421
0.000333055
0.00167608
0.000449171
0.000357417
0.000358142
0.000355725
0.00236255
0.00114393
0.00145744
0.00232429
0.00143477
0.00242374
0.000357497
0.000301282
0.000311942
0.000268532
0.000630712
0.000329801
0.00044003
0.000408175
0.00096429
0.00078441
0.000894573
0.000784562
0.000508619
0.000455733
0.000463343
0.000782314
0.00134377
0.00122621
0.00234558
0.000952564
0.000471081
0.000530399
0.00155008
0.000276314
0.000342132
0.00227671
0.00164372
0.0086238
0.012084
0.0166001
0.0250431
0.0373012
0.0527186
0.0540575
0.0398979
0.0252052
0.02012
0.0581878
0.228327
0.687469
1.04371
0.800877
1.0996
0.978913
0.902709
0.650349
0.47017
0.488764
0.574463
1.04915
0.993958
0.951963
0.00794773
0.0118455
0.0152089
0.0132535
0.0204804
0.0183126
0.0256402
0.0216033
0.0318957
0.0284709
0.0393738
0.0339919
0.048014
0.0437375
0.0530998
0.0517334
0.0572841
0.0553869
0.059492
0.0594393
0.0579013
0.0606113
0.0515007
0.054441
0.0440779
0.0490703
0.0379602
0.0418464
0.0282777
0.0330618
0.0270686
0.0270779
0.0326543
0.0265355
0.0344647
0.0408119
0.104836
0.0421084
0.182305
0.0965915
0.264341
0.212967
0.418144
0.407711
0.678652
0.52197
0.0113333
0.00767418
0.00686547
0.00746564
0.00650862
0.00690528
0.00567315
0.00622321
0.00496756
0.00572331
0.00458317
0.00459299
0.00475063
0.00494736
0.00553932
0.00537832
0.00522406
0.00573775
0.0046803
0.00544751
0.00745719
0.00696715
0.00685308
0.00753955
0.00924121
0.00781297
0.0100014
0.0106951
0.00944944
0.0100702
0.0105337
0.762554
0.0131054
0.020059
0.0300396
0.0437238
0.0546667
0.0505636
0.0297625
0.0229907
0.0346201
0.12196
0.341092
0.407701
0.46247
0.807154
0.783979
0.678732
0.574319
0.718582
0.503289
0.585589
0.408984
0.545189
0.806141
1.05645
0.0138708
1.00741
0.0192446
0.0335739
0.0128667
0.0100162
0.0160549
0.0278411
0.0401288
0.0507297
0.0487771
0.0358987
0.0240188
0.0228966
0.0643679