/*--------------------------------*- C++ -*----------------------------------*\
| =========                 |                                                 |
| \\      /  F ield         | OpenFOAM: The Open Source CFD Toolbox           |
|  \\    /   O peration     | Version:  v2012                                 |
|   \\  /    A nd           | Website:  www.openfoam.com                      |
|    \\/     M anipulation  |                                                 |
\*---------------------------------------------------------------------------*/
FoamFile
{
    version     2.0;
    format      ascii;
    class       volVectorField;
    location    "2";
    object      U;
}
// * * * * * * * * * * * * * * * * * * * * * * * * * * * * * * * * * * * * * //

dimensions      [0 1 -1 0 0 0 0];


internalField   nonuniform List<vector> 
108993
(
(-0.0249129 0.000935384 -0.0335522)
(0.0224515 0.00135423 -0.0525294)
(-0.000473101 -0.00175037 -0.0524772)
(0.0244667 -0.0443878 -0.033957)
(0.00242761 -0.0173144 -0.0199295)
(0.00126782 -0.000715727 -0.00386722)
(0.0338927 -0.00123854 -0.0451536)
(0.00155549 -0.00401126 -9.72153e-05)
(-0.00276527 0.00741599 -0.0590807)
(-0.0289693 -0.000188728 -0.00432316)
(-0.00620873 -0.0017224 -0.0248568)
(-0.00395299 -0.000496626 -0.0257106)
(0.0161529 -0.0399236 -0.0268879)
(-0.00732822 -0.00100627 -0.00101008)
(-0.00156415 -0.000290565 -0.024907)
(-0.0388265 -0.0074327 -0.00276073)
(-0.040793 -0.000946995 -0.000452866)
(-0.00542335 -0.000540779 -0.0109159)
(0.0136987 -0.0448266 -0.0415428)
(0.0272078 -0.0182198 -0.0557418)
(0.000552732 -0.00183687 -0.0300432)
(0.0178287 -0.00762004 -0.0894202)
(0.0147199 -0.000379988 -0.0246892)
(-0.00279005 -0.000411996 -0.0334543)
(0.0148721 -0.0423223 -0.0263983)
(0.011148 -0.00557318 -0.012024)
(-0.0128839 0.0662729 -0.00553921)
(0.0173083 -0.0123979 -0.058581)
(0.0221774 -0.0139625 -0.0430768)
(-0.000309034 -0.00120125 -0.0342951)
(-0.00875048 0.0308912 -0.0280106)
(-0.00462276 -0.000991459 -0.0081915)
(-0.0122124 0.07164 0.00520908)
(-0.0420374 0.000804203 -0.0413049)
(0.0330876 -0.0397269 -0.0864914)
(-0.000655711 -0.00369268 -0.0274319)
(-0.00700711 0.0481482 -0.0150389)
(7.8975e-05 -0.00558604 -0.0349986)
(-0.00324173 0.216369 -0.306485)
(0.0595155 0.0105589 -0.160778)
(0.0160764 -0.00527115 -0.0438577)
(-0.000444292 0.00110214 -0.040037)
(-1.46809e-05 -0.000199189 -0.00316838)
(0.0419442 -0.0566043 6.5107e-05)
(-0.0210267 -0.0177827 -0.000200731)
(0.00325331 0.0342711 -0.138142)
(-0.0051791 0.0557562 -0.00225065)
(0.0314439 9.19926e-05 -0.0305386)
(0.0182774 -0.00298673 -0.0330879)
(0.0374785 -0.00348669 -0.0776221)
(0.00728196 0.0374602 -0.0321009)
(0.0849332 -0.0189044 0.0308931)
(0.0216064 0.000305552 -0.0533486)
(0.00597606 0.0265525 -0.0112119)
(-0.0114498 -2.20214e-05 -0.00994753)
(-0.00737424 -6.05687e-06 -0.0314585)
(0.0127442 0.0716957 -0.0259813)
(-0.00410405 -0.015797 -0.0156645)
(0.00312918 -0.00923972 -0.0451342)
(-0.00501698 -0.0209732 -0.0192034)
(-0.00416458 -0.0197249 -0.0237315)
(-0.00742305 -0.0362152 -0.0300187)
(-0.000832725 -0.00160382 -0.0325477)
(0.0188887 -0.000985693 0.000199256)
(0.00615671 -0.0681029 -0.0174202)
(0.0160888 -0.00785025 -0.0223671)
(0.0104182 -0.0464448 4.39754e-05)
(0.00284248 -0.0240097 -0.0357195)
(-0.0141672 -0.000372886 -0.0095641)
(-0.0268123 0.0169092 0.010798)
(-0.000242912 -0.00076883 -0.033539)
(0.00893631 -0.0262871 -0.0379452)
(0.00195502 -0.0111184 -0.0363479)
(0.00411832 -0.0238955 -0.034136)
(0.0178211 0.000118862 -0.0342726)
(-0.00426791 0.0171596 -0.0394845)
(0.0174317 -0.000393782 0.000155053)
(-0.0422915 -0.000122452 -0.0137785)
(0.0220996 0.0602063 -0.0451473)
(0.0125525 -0.0478269 0.000254776)
(-0.00163603 -0.00428043 -0.0387177)
(-0.0162266 -0.000480422 -0.0122405)
(0.00793404 -0.00234117 -0.0492439)
(-7.7881e-05 -0.000997001 -0.0345872)
(-0.00486619 0.00108481 -0.013178)
(-0.00342074 -0.000679769 -0.00476405)
(-0.00100743 0.000639835 -0.0372655)
(-0.005749 -0.000398009 -0.0240827)
(0.0021895 -0.0204988 -0.0143761)
(0.00287659 -0.0414507 -0.00527591)
(-0.00265308 -0.0371521 -0.0142415)
(-0.00178922 0.0211903 -0.0345494)
(-0.00209161 -0.0317564 -0.00375026)
(0.000356614 -0.0232096 -0.00601807)
(-0.00701569 -0.0313649 -0.00674208)
(-0.0140853 -0.00102769 -0.00774998)
(0.000880455 0.0241181 -0.0381204)
(-0.00082095 -0.00347642 -0.0383495)
(-0.00634695 0.0265593 -0.0343166)
(0.000899062 0.00285791 -0.0309283)
(-0.00657205 -0.0286433 -0.0135339)
(0.00851714 -0.0270094 -0.0690672)
(-0.00128803 -0.000965634 -0.0299784)
(-0.0121587 -0.000453484 -0.0171085)
(-0.00116682 -0.00606931 -0.0376198)
(-0.0044598 -0.0360197 -0.000266378)
(-0.00259022 -0.00339781 -0.0361727)
(0.0224006 -0.0615764 -0.120133)
(0.0188296 0.00768037 -0.0355283)
(0.0447405 -0.000773774 -0.207556)
(0.0378375 -0.0120814 0.00044505)
(-0.00320017 -0.0414144 -0.00829071)
(0.0564443 0.000484679 6.70298e-05)
(0.0622618 -0.0178037 -0.00502775)
(2.34651e-05 -0.000427261 -0.0404441)
(-0.00874376 -0.0599091 -0.077365)
(0.0015023 -0.0151958 -0.0232403)
(-0.00614482 -0.0004216 -0.0374736)
(-0.096584 -0.0100922 0.00790973)
(-0.00202899 0.019676 -0.0418292)
(-0.011107 -0.00134622 -0.00413747)
(-0.0138523 -0.0319854 -0.0657981)
(0.0629238 -0.0295014 -0.126022)
(-0.0128263 -0.00326594 -0.0396168)
(0.000318994 -0.00629005 -0.0337846)
(-0.0477881 -0.00408473 -0.00901727)
(0.0218479 -0.00516084 -0.0417211)
(-0.00800621 -0.00152389 -0.0405216)
(-0.0136762 -0.0308964 -0.0749796)
(-0.0035936 -0.0429185 -0.0808192)
(-0.01727 -0.000682109 -0.0147673)
(-0.0124275 -0.0432372 -0.0750899)
(-0.00113502 -0.00680263 -0.0471213)
(0.0442632 -0.185449 0.166817)
(0.00172898 0.00177669 -0.042497)
(-0.00544336 -0.000917818 -0.046723)
(-0.00720831 -0.0245176 -0.0706575)
(-0.000813212 -0.00496172 -0.0445569)
(0.000668136 -0.00450726 -0.0340109)
(-0.00810747 -0.000522762 -0.00361663)
(-0.0121315 0.000162807 -0.0404012)
(-0.000503752 0.00240993 -0.0367691)
(-0.051149 -0.0152856 0.00491927)
(-0.0102207 -0.0326418 -0.07619)
(-0.00687342 -0.0339206 -0.0794002)
(0.00131594 -0.0101961 -0.0366466)
(-0.00192963 -0.00412918 -0.0380251)
(0.0191533 -0.00563764 -0.187011)
(-0.0120092 -0.00177068 -0.0391541)
(-0.153852 -0.176308 0.179679)
(-0.161885 -0.159374 0.173048)
(0.0106115 -0.00563593 -0.00326674)
(0.0100957 0.00608789 -0.00490159)
(-0.200507 -0.211335 0.227676)
(0.000420607 -0.00154915 -0.046585)
(0.0478014 -0.00360259 -0.0241966)
(-0.0102252 0.000161174 -0.0309463)
(0.00452693 0.00487186 -0.127159)
(-0.0264052 0.115967 -0.0725818)
(0.0476764 0.0192392 0.0369649)
(-0.213107 -0.179661 0.220769)
(0.00675676 0.126489 -0.189531)
(-0.00505473 0.0132758 -0.0231114)
(-0.000727857 0.00112832 -0.0344434)
(-0.00193924 -0.00090759 -0.0122981)
(0.0771681 -0.00708892 -0.00533439)
(-0.0019861 -0.0113089 -0.00366414)
(0.0138582 -0.00129528 -7.03226e-05)
(0.0157134 -0.0039583 -8.09814e-05)
(-0.000303753 -0.000523921 -0.0392581)
(0.00734267 -0.017289 -0.044688)
(-0.00471157 -0.000653284 -0.0330242)
(0.0633937 -0.0143885 0.0245927)
(-0.000353164 0.000446285 -0.0354664)
(0.0189416 -0.0616709 -0.0480866)
(0.0238581 -0.0102946 -0.0166879)
(0.233768 0.0357341 -0.188172)
(0.0114907 -0.00342274 0.00143535)
(-0.00329404 -0.00073773 -0.0403588)
(0.00150533 0.00633787 -0.0390723)
(-0.0341948 0.000101395 -0.00946034)
(0.00539206 -3.10331e-05 -0.050541)
(0.0333128 0.0281882 -0.135638)
(-0.0132932 -0.00432938 -0.0354505)
(-0.0110102 -0.000596906 -0.0089634)
(-0.000754355 -0.00255449 -0.0353725)
(0.0402807 0.00804936 -0.115545)
(-0.00577162 -0.000174387 -0.0168483)
(-0.0081682 -0.000271694 -0.0197502)
(-0.0144669 -0.000746708 -0.0364595)
(-0.00252414 -0.00163159 -0.0327343)
(0.0297482 0.0304866 -0.101755)
(-0.000883234 -0.00196263 -0.0330423)
(0.0781809 0.0276702 -0.168967)
(-0.000366127 -0.000759258 -0.0415115)
(-0.0117225 -0.00218545 -0.0522148)
(0.0191478 -0.00620094 -0.0459236)
(-0.00135887 -0.00304165 -0.036295)
(-0.000133596 -0.00508717 -0.0387299)
(-0.00989233 0.000316534 -0.0351955)
(-0.00256544 -0.0111356 -0.00690268)
(0.115237 -0.0067306 -0.0813087)
(-2.21198e-05 -0.00137652 -0.0354459)
(-0.000784869 -0.00809735 -0.149461)
(0.0437268 0.00233507 -0.0215344)
(0.00101145 -0.088151 0.0995327)
(-0.000707188 -0.00135666 -0.0450103)
(0.0265039 -0.14753 -0.215196)
(-0.00149568 -0.00494779 -0.0433146)
(-0.0559844 0.00794218 0.730819)
(0.0591224 0.0184956 0.00270151)
(0.000101783 -0.0027062 -0.0377834)
(0.326631 0.0225863 -0.192073)
(-0.038117 -0.500806 -0.693376)
(0.00696557 0.225888 -0.0427489)
(-0.000731054 -0.00581469 -0.0373239)
(-0.00646298 -0.000892247 -0.0247706)
(-0.00135915 -0.00111936 -0.044296)
(0.0104764 0.0247608 -0.130878)
(-0.0207016 0.0201636 -0.0376658)
(0.0595872 -0.0190216 -0.0142676)
(-0.150549 -0.110826 0.223528)
(-0.0560383 -0.00759401 -0.0711004)
(0.00808952 -0.0292522 -0.163623)
(0.0306209 -0.00362446 0.000383185)
(0.00955916 -0.00317783 0.00135179)
(0.00718164 0.0203297 -0.134722)
(-0.00341482 -0.000652005 -0.0441678)
(0.072994 -0.126644 0.180257)
(0.00419143 -0.00454518 -0.0194739)
(0.00618206 -0.175345 0.0308737)
(-0.00375294 -0.00149547 -0.0327485)
(0.0102978 -0.00384626 8.99092e-05)
(0.00222445 -0.00491194 -0.0369226)
(0.00241749 0.00725924 -0.0398614)
(-0.000405144 0.0177293 -0.0107037)
(-0.00213227 0.0151957 -0.0778798)
(-0.016716 -0.0299007 -0.0335368)
(0.0445551 0.00966759 -0.00372199)
(0.000644214 0.0169905 -0.134536)
(-0.000357553 0.00469381 -0.0204136)
(-0.00250341 -0.00266177 -0.0438477)
(-1.06185e-06 -0.0010414 -0.00110969)
(-0.00097335 0.00905997 -0.137885)
(0.0019236 -0.00611693 -0.120572)
(-0.0477505 -0.0194491 -0.00580511)
(-0.0744951 -0.575787 -0.628967)
(0.0465414 -0.0322104 -0.0907929)
(-0.00310006 0.0133797 -0.13936)
(0.0131846 -0.00414888 -0.0624398)
(-0.00274658 -0.000383101 -0.0280577)
(0.0121952 -0.0692144 -0.0465976)
(-0.00305787 -0.00220926 -0.0509292)
(-0.000485626 -0.0016024 -0.0404129)
(0.00710168 -0.00287304 -0.122831)
(0.000934481 0.0032205 -0.145675)
(0.00801013 -0.00828097 -0.124626)
(-0.0124687 9.56376e-05 -0.0313033)
(-0.00804539 0.0249529 -0.0579589)
(0.00187832 -0.00120261 -0.000840789)
(-0.00136223 0.000926449 -0.0449552)
(0.0168946 -0.00026436 -0.0319255)
(-0.0557837 -0.00835625 -0.00587018)
(-0.0449817 -0.00391755 -0.00950751)
(0.0775214 0.0743622 -0.0382656)
(0.00664307 -0.00317998 -0.0256121)
(-0.00168751 0.000545279 -0.0429723)
(0.0206162 -0.0105165 -0.0322931)
(0.00297213 -0.00162393 -0.00169892)
(-0.00386292 -0.00409995 -0.0462355)
(0.00108521 -0.00535825 -0.00328929)
(-0.000312288 0.00126192 -0.0507091)
(0.0523563 -0.219943 -0.0325925)
(0.128214 0.185202 0.474068)
(0.0264406 -0.00624165 -0.181908)
(-0.00165558 -0.00202795 -0.0404006)
(0.000262682 0.0172561 -0.0261656)
(0.177313 -0.00109983 -0.357741)
(-0.0113805 -8.2382e-05 -0.033955)
(0.0306932 -0.0104064 -0.03691)
(0.0332147 -0.0105909 -0.0390215)
(0.00946317 0.0493668 -0.0177977)
(0.00827653 0.0510656 -0.0254424)
(0.00781255 -0.00843067 -0.00263281)
(-0.0117985 -0.00587894 -0.0522565)
(-0.042405 -0.000363654 -0.0110709)
(0.00918743 -0.036294 -0.0364263)
(0.0465561 -0.0152389 -0.0454001)
(-0.0192744 -0.00209573 -0.0305896)
(0.00320093 0.000450441 -0.177183)
(-0.0136129 -0.0013371 -0.0037245)
(-0.000337418 0.000321907 -0.0423954)
(0.0425843 -0.014092 -0.0444016)
(-0.000992465 -0.000583554 -0.0424215)
(0.0131273 -0.023898 -0.00968625)
(-0.00144492 -0.000302131 -0.0446655)
(-0.00419178 0.0229619 -0.0435055)
(-0.00136915 0.000601108 -0.0421552)
(-0.0494661 0.00354604 0.000310202)
(-0.000499801 -0.00181601 -0.00572451)
(0.00660876 -0.0752063 -0.0621403)
(-0.00690745 -0.076937 0.25086)
(-0.00222544 -0.00586874 -0.0355337)
(-0.000979595 -0.000137526 -0.00371694)
(-0.000919177 -0.0005227 -0.0491075)
(0.0018986 0.000387696 -0.0178378)
(0.0110418 -0.00492285 0.000561388)
(0.00825876 -5.70416e-05 -0.037359)
(0.00349837 -0.000492534 -0.0164956)
(0.133211 -0.346323 -0.0557356)
(-0.000818803 -0.00574294 -0.0128069)
(-0.00527716 -0.0272708 -0.0251299)
(-0.0464554 -0.00246337 -0.00411652)
(-0.000509512 -0.00380003 -0.0301479)
(0.00372864 -0.000322514 -0.0190485)
(-0.0372892 -0.0951919 0.0994306)
(0.0189117 -0.000133198 -0.000137793)
(-0.0440409 -0.00185824 -0.00389398)
(0.0111542 0.08902 -0.273798)
(-0.00102123 0.000731977 -0.0460687)
(0.028721 -0.00293282 -0.0487829)
(0.0201938 -0.000603793 -0.000762576)
(0.00119523 -0.00260121 -0.0434439)
(0.00142215 -0.00269645 -0.0396373)
(-0.00165848 -0.00264263 -0.0376364)
(-0.00356721 -0.702923 0.083344)
(0.341676 -1.12135 -0.746617)
(0.0338598 -0.253645 0.0763524)
(0.00278767 0.0181296 -0.0571222)
(-0.010065 -0.00178066 -0.0549146)
(0.041133 -0.00274527 -0.0216326)
(0.020516 -0.16132 -0.0304013)
(-1.07105 0.129755 -0.632892)
(-8.92194e-06 0.000983823 -0.0477418)
(-0.002447 -0.0844647 -0.30003)
(-0.0016614 7.83633e-05 -0.0333388)
(-4.9542e-05 0.00126286 -0.0365332)
(-0.00395708 -0.0243417 -0.0261151)
(-0.000423281 -0.00234033 -0.0409895)
(-0.00986627 -0.00173522 -0.0475271)
(0.00350534 0.00544652 -0.0422614)
(-0.0166526 -0.00252332 -0.0369524)
(0.0565969 -0.0113193 -0.0648054)
(-0.00333783 -0.00489307 -0.0375306)
(-0.00551002 -0.00170372 -0.025946)
(-0.00457395 -0.00039279 -0.0186485)
(0.00117431 -0.000108429 -0.0449347)
(-0.0020291 -0.00735608 -0.0268237)
(0.00419197 1.88446e-05 -0.00800857)
(0.0014777 0.000767217 -0.0469495)
(-0.000396795 0.00129682 -0.0406293)
(0.00135278 -0.000853562 -1.78023e-05)
(-0.00321172 0.0161008 4.52018e-05)
(0.0110732 -0.0413503 -0.0169997)
(0.0296437 -0.0165999 0.00896244)
(-0.0032481 -0.00712254 -0.0378326)
(-0.00267409 -0.00459947 -0.0413766)
(-0.00207684 -0.004199 -0.176868)
(-0.00298046 -0.000211903 -0.0283886)
(1.15521e-05 -0.00350776 0.000736937)
(-0.0427976 -0.0052707 -0.0286966)
(0.0637834 -0.0121503 -0.0648724)
(-0.000671739 0.00017366 -0.0475345)
(-0.00276962 0.000147728 -0.0444152)
(0.0169687 -0.00465937 -0.034381)
(0.0360523 -0.0123208 -0.0688277)
(-0.000617878 -0.00101558 -0.0433823)
(-0.0020395 -0.00561184 -0.0666127)
(5.50628e-05 -0.00136837 -0.0222301)
(-0.386326 1.08194 -0.410121)
(0.00905091 0.00754148 -0.0624215)
(-0.0348127 -0.00178071 -0.016513)
(-0.000683123 -4.87936e-05 -0.0468417)
(-0.391064 0.183002 0.771413)
(0.0394566 -0.00896267 -0.0648767)
(0.0553464 -0.525653 0.127317)
(-0.022962 -0.00175772 -0.0227956)
(-0.0025586 -0.00132329 -0.0423577)
(0.00335638 -0.224696 0.142574)
(-0.00192947 -0.00150059 -0.0322901)
(0.0256335 -0.306207 0.0707826)
(0.0338481 -0.252955 0.159941)
(0.0420741 -0.0156905 -0.0656001)
(-0.0496857 -0.0454213 -0.00770432)
(-0.00696981 0.000351731 -0.0202357)
(0.00323055 -0.00134226 -0.00417106)
(-0.0370297 -0.000705717 -0.00522846)
(0.343396 0.0283415 -0.00932272)
(0.0203635 -0.00840163 -0.0338078)
(0.0196576 -0.0474899 -0.164887)
(0.0123997 -0.3352 0.122751)
(0.000759079 -0.00193413 -0.00291152)
(0.0146694 -0.391282 0.0862997)
(-0.0166491 -0.00105505 -0.00227828)
(0.0100853 -0.112835 0.000217661)
(0.0475897 -0.0120768 -0.0541776)
(0.238851 0.547867 0.995092)
(0.00524768 0.0189585 -0.0345766)
(-0.0443647 -0.00373802 -0.00555985)
(-0.00275414 0.00584371 -0.056294)
(0.0428665 -0.011064 -0.0573152)
(0.385168 -0.0465028 -0.344521)
(0.0728404 -0.153063 -0.177454)
(0.00177006 0.00192375 -0.0388499)
(0.0559874 -0.0154058 -0.00590459)
(4.87329e-05 -0.00242636 -0.0017635)
(0.00312267 -0.00160002 -0.00567708)
(-0.0012635 -0.00448647 -0.0364071)
(-0.00677265 -0.00237167 -0.0587821)
(0.0381184 -0.0446933 0.80041)
(-3.38937e-05 -0.000404874 -0.00156346)
(0.0205368 -0.000235464 -0.0582674)
(-0.167771 -0.576105 -0.394033)
(-0.00286128 -0.000233872 -0.0337345)
(-0.00631168 -0.000965636 -0.0192195)
(0.000470224 0.0066881 -0.0513327)
(-0.309803 -0.121175 0.86163)
(-0.040467 0.0113983 0.00494287)
(-0.013286 -0.183824 -0.0377842)
(-0.00162684 0.000135451 -0.0136367)
(0.0878942 0.0992389 0.950849)
(0.0271551 -0.00142021 -0.050908)
(0.229107 0.0242494 0.947414)
(0.00726404 -6.26535e-05 0.00106317)
(-0.00165006 -0.0153609 -0.00680518)
(0.0898677 -0.0914209 0.954054)
(-0.000364612 -0.00288658 -0.0326009)
(-0.0111944 -0.106131 -0.163781)
(0.10559 -0.316283 0.985516)
(0.000356149 -0.00315552 -0.000802789)
(0.175641 0.426804 1.00194)
(0.0190365 0.108671 -0.217755)
(0.344129 -0.011305 0.957334)
(-0.0302876 -0.0185171 -0.0447085)
(0.000558956 0.00153361 -0.0388564)
(-0.0301237 -0.000663844 -0.00351974)
(0.0282388 0.00103262 0.0470638)
(0.0352111 -0.0181304 -0.0162229)
(0.0116617 -0.0113406 8.11939e-06)
(-0.000687127 0.00393364 -0.0396231)
(-0.00566874 -0.000900509 -0.0200849)
(-0.00322539 0.00176967 -0.0430373)
(-0.00454163 -0.000834894 -0.0441429)
(0.00264952 -0.00714895 -0.0113114)
(0.00878722 0.0231768 0.0121411)
(0.0496035 -0.00183165 -0.0651455)
(0.0393496 -0.00134598 -0.0552712)
(0.0572878 -0.0167526 0.0139378)
(-0.00329769 -0.000993699 -0.0451358)
(0.000583532 -0.00587077 -0.0105287)
(-0.0132118 -0.000174823 -0.0119934)
(-0.000916904 -0.0219809 -0.00665537)
(-0.00401386 -0.00101422 -0.0457223)
(-0.035496 -0.000751733 -0.0315715)
(0.0108012 -0.0123944 0.000399411)
(-0.00149406 -0.00111196 -0.0277554)
(-0.00592441 -0.000587052 -0.0184027)
(0.00149548 -0.00965266 -0.00963071)
(-0.00462482 -0.00145096 -0.0375847)
(0.000790057 0.00544229 -0.0298076)
(0.0350156 -0.0171646 -0.0107249)
(-0.0109089 -0.000100914 -0.0525558)
(0.0689023 -0.0225352 -0.0675707)
(-0.0549729 -0.10431 0.00617897)
(-0.0555541 0.0113479 0.00459567)
(-0.00289263 0.00286219 -0.0475475)
(0.0108667 0.000328349 -0.0241907)
(0.0829738 -0.0124551 -0.0438763)
(-0.000650115 0.00243994 -0.0486904)
(-0.00617679 -0.00079023 -0.0502044)
(-0.0448756 -0.00215695 -0.000824799)
(0.00118997 -0.0125633 -0.0243336)
(-0.00177442 0.00728567 -0.0415884)
(0.0137282 0.00353107 -0.0277235)
(0.0183185 -0.000386608 -3.21718e-06)
(-0.042158 -0.00142852 0.000575627)
(-0.0010783 0.000624524 -0.0389114)
(0.0532488 0.0143894 -0.000898853)
(-0.000532165 -0.046937 0.000637774)
(-0.0884844 -0.0351057 0.01154)
(-0.00208593 -0.00689939 -0.038048)
(-0.00589655 0.00671445 -0.0455878)
(-0.00207797 0.0066855 -0.0476115)
(-0.000825574 0.000797733 -0.0445869)
(0.0109385 0.00378608 -0.081549)
(-0.00852162 0.000122653 -0.0475249)
(-0.00299076 -0.000590874 -0.0486004)
(-0.00414821 -0.00067769 -0.048248)
(0.053762 -0.0148112 0.0151738)
(-0.0287405 -0.00095508 -0.0542286)
(-0.00609691 -0.000656629 -0.0175611)
(-0.00643782 -0.000264356 -0.0438497)
(-0.0410465 -0.000701731 -0.00710193)
(-0.00817851 0.00035439 -0.051098)
(-0.0427283 -0.0276459 -0.00567681)
(-0.00167208 -0.00281765 -0.0328699)
(-0.0230734 0.0111726 -0.0933068)
(-0.00383666 0.000709702 -0.0435221)
(-0.0012095 -0.000763007 -0.0454558)
(0.0227795 -0.00434313 -0.0461282)
(-0.000830941 -0.0223425 -0.0163843)
(-0.00158006 0.00511147 -0.0414413)
(-0.00229938 0.00219889 -0.0417296)
(-0.00274118 -0.00177957 -0.0471078)
(-0.0258285 -0.00476496 -0.00139454)
(-0.0516688 -0.0391155 0.0371131)
(-0.00240249 0.000310114 -0.0463577)
(-0.0017133 0.00217631 -0.0393968)
(0.317451 -0.177028 0.00373883)
(9.46976e-05 0.000475148 -0.0461862)
(-0.08513 -0.0236747 -0.00412048)
(0.0482882 -0.00196139 -0.0568326)
(-0.00465282 0.00861551 -0.0403118)
(-0.0292345 -0.00199531 -0.0101354)
(-0.000888063 0.000467194 -0.0458159)
(0.000411721 -0.017098 -0.137741)
(0.00186574 -0.00388737 -0.00958938)
(-0.00204554 -0.00160015 -0.044901)
(0.0185895 -0.000847632 -0.0404813)
(0.00902511 -0.00168927 -0.033915)
(0.184416 -0.011141 -0.0905773)
(0.201968 0.00143938 -0.0547055)
(0.0407944 0.00234221 -0.0543765)
(0.02156 -0.00163223 -0.0266466)
(0.0258458 -0.0137364 -0.0347573)
(-0.11225 -0.0294104 0.0742339)
(5.7076e-05 -0.000448693 -0.00722421)
(-0.00548809 -0.000764923 -0.0410585)
(-0.110705 -0.02802 0.0888178)
(0.0186438 -0.000547944 -0.022083)
(-0.00107815 -0.00850328 -0.0382805)
(-0.00152505 -0.00572946 -0.0301714)
(-0.0879057 -0.0398161 0.0728767)
(-0.0148646 -0.000661368 -0.000609392)
(-0.000198632 -0.00439544 -0.0365739)
(3.41006e-05 -0.000652807 -0.0405162)
(0.0393915 -0.00180738 -0.00391369)
(-0.00275182 -0.00087683 -0.0152902)
(-0.0523423 0.00388023 -0.0156555)
(0.0157815 -0.0671482 0.00108772)
(-0.00242246 2.54503e-05 -0.0347465)
(0.0143587 -0.000749764 -0.100042)
(0.000741434 -0.000216798 -0.00808876)
(-0.00159214 -0.00410728 -0.0331871)
(-0.00246393 -0.000104355 -0.0307529)
(-0.00287499 -0.00185941 -0.0457953)
(-0.00201076 -0.00706988 -0.0310564)
(-0.0907787 -0.0415534 0.0739798)
(-0.00236174 -0.00130322 -0.0388104)
(0.0035725 0.00967647 -0.0301839)
(-0.00022518 -0.0705987 -0.0769995)
(0.000113807 -0.0101432 -0.0380355)
(0.00153051 0.181872 -0.0269786)
(-0.00138484 -0.00261997 -0.0341568)
(-0.00419378 -0.000755468 -0.0186581)
(-0.000361411 0.000319351 -0.0332121)
(-0.00380017 0.000339749 -0.0116324)
(0.0403845 -0.00197784 -0.0572061)
(-0.556807 0.0529371 0.577533)
(0.0224929 -0.00775 -0.0432186)
(-0.0407385 -0.000769397 -0.0336299)
(-0.00257929 0.0033265 -0.0388928)
(-0.00821872 0.000706622 -0.0421855)
(0.0380069 0.000529389 -0.041483)
(0.0128981 0.00256549 0.00256181)
(0.0232094 -0.190706 -0.291399)
(-0.00780377 -0.00102517 -0.028082)
(-0.001984 0.00230568 -0.0403517)
(0.024948 -0.00447846 -0.0507059)
(0.0152583 -0.00446802 -0.0459348)
(-0.0124852 0.000620512 -0.0400608)
(0.010382 0.00242984 -0.0610217)
(0.716342 0.591104 1.02509)
(0.0158846 0.00366752 0.0016638)
(-0.00586956 -0.170483 -0.143553)
(0.041948 -0.00307066 -0.0427911)
(-0.0023657 -0.00176573 -0.0264655)
(0.0171968 -9.92575e-05 -0.00141276)
(0.233007 -0.00915505 0.00157085)
(0.0637106 0.0156224 -0.0601361)
(-0.0374068 -0.00703788 -0.0255188)
(-0.00969089 -0.00189604 -0.0350941)
(0.000926424 -0.00230631 -0.0469762)
(0.00561509 -0.034623 -0.0605401)
(-0.00695069 0.000448596 -0.0360135)
(-0.0370317 -0.00331232 -0.00585329)
(-0.000838927 0.0461258 -0.105085)
(0.0181267 0.00976775 0.00242131)
(-0.00929621 -0.00054926 -0.00646687)
(0.00757378 -0.00391398 9.85077e-06)
(0.0275013 -0.00306137 -0.0448444)
(-0.00157842 -0.000201026 -0.0340732)
(0.0195518 0.000584743 -0.0423448)
(-0.0033574 -0.000762107 -0.0455577)
(0.202779 0.0543005 0.239159)
(-0.00782595 -0.0126329 -0.0538993)
(0.000392266 0.00386051 -0.0551391)
(-0.000895205 0.000382204 -0.0343205)
(0.0145482 0.00231647 -0.0557641)
(-0.05937 0.00400646 0.0030639)
(-0.00489688 -0.00086171 -0.0479859)
(-0.0102808 -0.00251911 -0.0250715)
(0.279387 0.0242622 0.514426)
(-0.0469323 -0.0021167 -0.00203367)
(-0.00744814 -0.000996029 -0.000894595)
(4.79983e-05 0.000316467 -0.0340281)
(0.185529 0.058909 0.758503)
(2.6597e-06 -0.000507754 -0.0327157)
(-0.0531288 -0.0019226 -0.00718705)
(-0.0139542 -0.000155832 -0.0360407)
(-0.337838 -0.175599 -0.147453)
(-0.0188861 -0.000626531 -0.0391722)
(-0.0455411 -0.00528109 0.0575693)
(-0.0146207 -0.00119581 -0.0400541)
(0.0335394 -0.00143585 -0.0427208)
(-0.00536327 0.000438112 -0.0438649)
(-0.0740091 -0.0126813 -0.0139317)
(-0.000684704 0.000352319 -0.0322745)
(-0.0207563 -0.16728 -0.25402)
(0.0038807 0.00577306 -0.0258878)
(0.0911276 -0.0331288 0.0184813)
(0.00206365 0.00742103 -0.0285769)
(-0.00855543 -0.00154837 -0.0406444)
(0.00425018 -0.0474629 -0.157747)
(0.0228109 -0.00222465 -0.0441601)
(-0.00346231 -0.0201824 -0.0345754)
(-0.00550284 0.00411208 -0.0458609)
(-0.00409982 0.0174596 -0.0289691)
(0.0449535 0.0512744 -0.00936523)
(-0.0507115 -0.00800356 -0.0143206)
(-0.0342855 -0.217254 0.141661)
(0.0231133 -0.00694349 -0.041213)
(-0.0198181 0.00672563 -0.0491216)
(-0.115106 -0.251152 0.0908708)
(-0.0584705 -0.00803445 -0.0196524)
(0.00264321 -0.00263996 -0.00673636)
(-0.000560763 0.000351121 -0.0347679)
(0.0815068 0.214496 -0.734504)
(-0.0468823 -0.0486141 0.0131227)
(0.059266 -0.0159466 0.00542475)
(-0.0111336 0.00139083 -0.0031186)
(0.0632582 -0.0174313 0.00593141)
(-0.00315398 -0.000332914 -0.0413243)
(0.0170785 -0.00167652 -0.0617205)
(-0.000387134 0.00347986 -0.0400371)
(-0.0627802 -0.00546041 -0.010726)
(-0.0292581 -0.00105734 -0.0166458)
(0.0680746 0.00355815 0.000355096)
(-0.0339873 -0.0244757 0.00338447)
(-0.0545522 -0.00819954 -0.0137183)
(-0.0555822 -0.0080853 -0.0177273)
(-0.0387598 -0.0340823 -0.00813363)
(-0.0024542 -0.15645 -0.0934157)
(0.00815727 0.000547626 -0.0231919)
(-0.0318115 0.00123061 0.00239987)
(0.0188653 0.000346831 -0.0414112)
(-0.156961 -0.0281365 -0.110918)
(0.00480115 -0.00328777 -0.0112696)
(-0.000498582 0.00854137 0.0089156)
(0.0170247 -0.00019781 -0.0231335)
(0.000131199 0.000258444 -0.0161017)
(0.0141069 -0.00631208 -0.00765654)
(-0.0527175 -0.00243693 -0.011542)
(-0.000342075 0.000883488 -0.0417658)
(0.000152762 -0.0092626 -0.00529479)
(0.037554 -0.000252815 -0.0590851)
(0.00970996 -0.00159589 -0.000201028)
(-0.0458114 -0.00183915 -0.00760427)
(-0.016407 -0.244701 -0.106159)
(0.00436147 -0.141564 -0.0122361)
(-0.0462087 -0.00868326 -0.00235228)
(0.0327142 0.000176077 -0.0261661)
(0.0719613 -0.0138734 -0.00433049)
(0.0129606 0.0054271 -0.0184659)
(0.0138809 -0.00341839 -0.026651)
(-0.0104822 -0.0402004 -0.0186785)
(0.0109356 -0.0138309 -0.115538)
(-0.0493986 0.000383589 -0.00122248)
(0.018823 -0.00929707 -0.00344276)
(0.0154097 -0.00269676 -0.211285)
(0.0250796 -0.000663487 -0.0536022)
(0.0411924 0.0144463 0.00210928)
(-0.0594278 0.0125142 0.00836777)
(-0.0493158 -0.00569981 -0.0133978)
(0.00955411 -0.0133591 -0.178528)
(-0.0518524 -0.00602451 -0.00699674)
(-0.00751367 0.0857338 0.0178241)
(-0.0452363 0.00124096 -0.00130492)
(-0.0492996 0.00164826 -0.00145046)
(0.237829 1.99527 0.932811)
(-0.0700239 -0.0114474 -0.0391708)
(-0.00679625 -0.00161605 -0.0437459)
(0.0512953 -0.0175087 0.0045506)
(-0.0230213 -0.000444109 -0.000875036)
(9.28062e-05 -0.0015647 -0.041758)
(1.47983 2.77614 0.292342)
(-0.0472231 0.000372296 -0.00123369)
(0.0112794 -0.124989 -0.276897)
(-0.0455367 0.00249057 -0.00389264)
(0.160532 0.911765 -0.00777368)
(0.0590528 0.00203446 -0.0298247)
(0.00317084 0.000206882 -0.04079)
(0.0240755 -0.00407218 0.000367376)
(0.0251498 -0.00209861 -0.000350938)
(-0.0605102 -0.0114346 0.00514498)
(-0.000284658 -0.000772981 -0.0163972)
(-0.0196954 -0.0121222 0.000836592)
(0.00876631 -0.00257116 -0.0322232)
(-0.000543213 0.00307232 -0.0393407)
(0.0250999 -0.00425629 8.51447e-05)
(0.0543146 -0.0057706 -0.0457942)
(-0.005573 -0.0652145 -0.085845)
(0.0245341 0.234086 -0.123281)
(-0.0031465 -0.00320365 -0.0406975)
(0.0976067 0.419661 -0.472122)
(-0.000401943 -0.0020545 -0.0491497)
(0.0562501 -0.00932562 0.000437705)
(-0.0872114 0.00627407 0.0238996)
(-0.000599391 -0.000938582 -0.00315014)
(0.0560424 -0.0127093 0.00174521)
(0.0184179 -0.00120532 -0.0414423)
(-0.0603771 -0.0119071 -0.0100469)
(0.0735367 -0.0013868 -0.0240138)
(-0.0505097 -0.0135096 -0.00890334)
(-0.0173211 0.000547258 -0.0137519)
(-0.0527818 -0.0120627 -0.00910481)
(0.0750149 0.00267758 -0.0459098)
(0.0459587 -0.00518787 -0.000980388)
(-0.00498036 -0.000538416 -0.0386154)
(-0.000333512 -0.0150897 -0.0258415)
(0.0607965 -0.013861 0.00816067)
(-0.0584643 -0.012382 -0.00791677)
(-0.0330683 -0.008565 -0.0118935)
(-0.0498609 -0.0124814 -0.00925249)
(-0.0210056 -7.11964e-05 -0.0170473)
(-0.000354367 -0.00340442 -0.00590977)
(0.0492952 0.00585967 -0.00886763)
(0.0156693 -0.00336896 -0.00137796)
(-0.00462519 -8.73978e-05 -0.0478757)
(0.0260418 -0.000641492 -0.0384992)
(-0.0098883 -0.00108613 -0.0256093)
(-0.053992 -0.0274929 -0.0041364)
(0.0452974 0.107515 -0.158032)
(0.0224344 -0.0864723 -0.304081)
(-0.053221 -0.00459022 -0.0290067)
(0.0542399 -0.00706928 -0.0392926)
(-0.0779657 -0.00966538 -0.0210826)
(-0.0659249 -0.0123014 -0.0154574)
(-0.0620968 -0.00509967 -0.0239699)
(-0.0876096 0.0123373 0.0079317)
(-0.00880513 0.000132908 -0.0262346)
(0.013339 -0.00399936 0.000512202)
(0.017084 -0.00281447 -0.00120343)
(-0.0599553 -0.0048244 -0.0340965)
(0.0140624 -0.00174467 0.000674784)
(0.0663385 -0.000748738 -0.0589548)
(0.0176478 -0.00235502 -0.0019696)
(-0.048899 0.00182144 -1.02922e-05)
(-0.0566452 -0.0266099 0.00705955)
(0.0110822 -0.000529706 -0.028169)
(-0.0988188 -0.0155583 -0.00591804)
(0.0150382 -0.00534843 0.00150831)
(-0.0699366 0.000737262 -0.0413348)
(-0.028707 -0.00148435 -0.0392691)
(-0.0405587 0.00501058 0.00274674)
(0.00613456 -0.0083063 -0.0583463)
(0.0231884 -0.00134611 -0.0368392)
(0.0119187 -0.118069 -0.0177401)
(0.00485691 -0.032322 -0.0176389)
(-0.00222277 -0.000767088 -0.0461152)
(-0.0324181 -0.00205091 -0.0381278)
(0.104599 0.0382848 -0.0425192)
(0.000836107 0.00342376 -0.0406977)
(-0.0136617 0.00546481 -0.10488)
(0.0068219 -0.0697185 0.0236762)
(-0.0231062 -0.000841787 -0.0079712)
(-0.0339292 -0.00335248 -0.0370759)
(0.461775 0.17178 -0.0305009)
(0.0315259 -0.129849 -0.210997)
(-0.0374571 0.00110967 -0.0124659)
(0.000143379 -0.000314381 -0.0471433)
(0.164321 -0.0547756 0.0275523)
(-0.0368462 -0.00490314 -0.035031)
(-0.0331096 -0.00263034 -0.0342238)
(0.0455962 -0.00405672 -0.0386601)
(0.0422031 0.00204815 -0.0771252)
(0.0561055 0.00267949 -0.0597871)
(0.000396239 -0.00200266 -0.0143075)
(0.000980719 -0.00218041 -0.0458512)
(-0.0368408 0.00231788 2.78793e-05)
(0.00325538 0.010421 -0.0306834)
(0.00670877 0.032701 -0.226728)
(-0.00141785 -0.000218221 -0.0392628)
(-0.00752333 0.000495701 -0.0380491)
(0.0602172 0.0228101 -0.189753)
(-0.0502768 -0.00387204 -0.00829695)
(-0.00338831 -0.356981 -0.305807)
(0.0245467 -0.00187931 -0.0131165)
(-0.00933563 -0.224434 0.428954)
(-0.000876393 -0.0015422 -0.032765)
(0.0528413 0.00086767 -0.0584699)
(-0.0469822 -0.00271173 -0.00642265)
(0.000700766 -0.0420161 -0.0146133)
(-0.0289719 -0.00141809 -0.0328883)
(-0.048097 -0.00226513 -0.00870751)
(-0.00257877 0.00409319 -0.0395652)
(-0.00722738 -0.00174007 -0.0304507)
(-0.00340235 -0.000765149 -0.000100303)
(-0.00355161 -0.00348022 -0.0434229)
(-0.00469307 -0.00134716 -0.0437072)
(-0.0198319 0.000840032 -0.0487021)
(0.0133831 -0.00475068 -0.0480996)
(0.00169869 0.00577999 -0.0293232)
(-0.0352054 0.0106001 0.00227979)
(-0.0028988 -0.00136443 -0.0381486)
(-0.19466 -0.349729 0.0203715)
(0.00244696 -0.00164853 -0.0216407)
(-0.00880678 -0.000380767 -0.0188734)
(-1.18425 0.689408 0.145776)
(0.00270691 -0.00168802 -0.0227636)
(-1.02092 0.13326 0.586285)
(-0.0311943 0.000380275 -0.000411505)
(-0.0142213 -0.00176327 -0.003553)
(-0.0392271 -0.00232432 -0.0124515)
(-0.000521888 0.0198458 -0.238081)
(0.0390775 -0.00736632 -0.102019)