/*--------------------------------*- C++ -*----------------------------------*\
| =========                 |                                                 |
| \\      /  F ield         | OpenFOAM: The Open Source CFD Toolbox           |
|  \\    /   O peration     | Version:  v2012                                 |
|   \\  /    A nd           | Website:  www.openfoam.com                      |
|    \\/     M anipulation  |                                                 |
\*---------------------------------------------------------------------------*/
FoamFile
{
    version     2.0;
    format      ascii;
    class       volScalarField;
    location    "0.997654";
    object      epsilon;
}
// * * * * * * * * * * * * * * * * * * * * * * * * * * * * * * * * * * * * * //

dimensions      [0 2 -3 0 0 0 0];


internalField   nonuniform List<scalar> 
353077
(
0.00418561
0.0229324
2.27384e-05
0.0217398
2.3539e-05
7.41582e-05
3.15406e-05
2.27645e-05
2.48584e-05
2.0338e-05
0.125803
0.0879331
0.350409
2.14181e-05
1.9832e-05
3.94522e-05
0.0662962
0.0542361
4.73917e-05
2.27041e-05
0.554455
1.8035e-05
1.01779e-05
0.0129996
2.26994e-05
2.44791e-05
0.00846178
2.2083e-05
2.1602e-05
0.182043
3.75974e-05
2.21926e-05
0.0114681
0.000580759
2.31179e-05
0.000595131
8.7615
23.3201
3.18341
2.54237e-05
2.27503e-05
1.04565e-05
6.64411
1.88951e-05
2.47027
2.3076e-05
6.5965e-06
2.49736e-05
0.000786817
0.0160282
2.18802e-05
2.27678e-05
9.84557e-06
7.71867e-06
0.000232708
0.000188438
2.30262e-05
0.0001249
0.00244833
7.97174e-05
1.72574e-05
2.25204e-05
0.0353122
1.28857e-05
1.21285
6.2838e-06
2.0059e-05
2.14307e-05
0.0757281
2.35446e-05
6.2919e-05
0.00111521
0.00116792
2.42107e-05
0.00144633
2.26317e-05
0.145167
0.779672
1.58338
0.0162857
1.85637
2.15173e-05
0.234306
0.0149571
0.00312416
0.318287
1.00254
1.0141
2.27657e-05
1.11534
0.673872
8.01049e-05
2.26377e-05
2.31204e-05
0.540726
1.95526e-05
0.00562822
2.3098e-05
2.26296e-05
2.10661e-05
2.10116e-05
2.2884e-05
2.79372e-05
0.184619
0.000183491
2.46226e-05
7.75038e-06
3.75886e-05
2.08495e-05
2.64335e-05
2.36876e-05
1.13934e-05
1.1043e-05
0.0770648
2.44359e-05
1.93935e-05
0.037863
1.10519
4.79765e-06
2.23992e-05
1.0244e-05
2.04809e-05
0.0360761
0.00602608
0.000799735
0.0202913
1.76433e-05
3.24202e-05
8.03953e-06
0.000566382
0.0537976
4.54896e-06
1.89499e-05
2.29259e-05
2.27731e-05
0.0442538
6.8571e-05
2.55783e-05
2.27881e-05
5.1979e-05
0.00407933
0.000525759
2.31246e-05
2.1432e-05
0.00479362
0.00303052
0.664475
6.98893e-06
0.00394475
1.49523
0.00274564
0.0058469
0.000373471
5.27055e-05
5.38453
7.8944e-06
1.42536e-05
1.87613e-05
1.19194e-05
0.000283125
0.954585
2.24638e-05
1.27218e-05
7.56471e-06
2.26963e-05
23.1166
2.88016e-05
1.81498e-05
2.3758e-05
2.29908e-05
7.03261e-06
2.62344
0.00940691
2.56755e-05
2.4221e-05
2.30198e-05
1.84239e-05
2.30816e-05
0.0154864
0.00287288
2.27535e-05
3.10392e-05
2.13721e-05
2.25663e-05
2.63392e-05
2.3558e-05
1.28632e-05
4.05296e-05
0.0183471
2.47348e-05
0.00011187
2.68337e-05
2.23865e-05
4.51191e-05
2.971
0.195375
0.000117376
0.0087213
0.00741427
0.00167213
0.000268763
0.702259
0.0185711
2.27664e-05
7.8377e-05
3.03407e-05
0.000262638
2.81667e-05
3.61017e-05
5.57024e-06
2.07458e-05
0.0294281
0.000221995
8.01294e-06
0.529644
1.98301e-05
15.6635
0.255096
2.15268e-05
0.000170786
0.4231
4.38487e-05
0.000195706
1.91226e-05
1.02616e-05
2.58683e-05
2.58133e-05
0.790606
2.43375e-05
2.88235e-05
2.80931e-05
9.79403e-06
2.26119e-05
2.36489e-05
2.22363
1.97183e-05
5.76575e-05
1.65842e-05
3.75315e-05
2.61483e-05
2.86763e-05
2.50961e-05
0.0138531
2.4119e-05
8.84035e-06
2.27032e-05
2.97299e-05
2.2726e-05
0.0428669
6.7654e-05
1.05887e-05
8.4668e-06
2.36201e-05
27.709
0.0139778
0.000211684
0.000627691
8.55395e-06
0.00654419
2.44466e-05
7.78459e-06
4.54633
1.13652
0.00428774
0.00278934
0.000232071
5.94082e-05
2.22122e-05
3.95768e-05
0.000369546
4.33384e-05
0.908034
0.000352628
2.34919e-05
0.0151383
0.156742
0.00025941
2.34923e-05
0.295939
0.000119914
0.539829
0.294386
0.000995961
4.04504e-05
0.000165605
4.09987e-05
0.00183206
3.06078e-05
5.13048e-05
2.80437
1.14423
0.580669
1.25214e-05
1.42366e-05
0.36341
5.85391e-05
8.15917e-06
2.05572e-05
2.24806e-05
6.9585e-05
0.132548
1.30328
2.2732e-05
0.172392
4.22218e-05
4.4885e-05
0.0124609
4.96913e-05
5.65965
5.58247e-05
2.16389e-05
2.12488e-05
1.36063e-05
1.33121e-05
0.549975
0.407858
8.76481e-05
0.374736
0.000836342
3.90553e-05
1.71679
3.49004e-05
0.730444
7.98071e-05
2.27214e-05
0.361454
0.0031691
0.00104479
0.00300682
0.000496429
0.000650117
0.00248793
0.27508
0.00294011
0.306795
0.00516052
0.037086
4.74137e-05
0.00163916
3.45901
0.0821754
2.69473e-05
0.0118469
0.0051215
0.000394056
0.00432074
2.22935e-05
0.000900691
3.96792e-05
2.24112e-05
0.000297655
0.00371246
2.09446
0.00233733
0.964075
4.23284e-05
0.986793
1.90714e-05
0.00630843
0.00016794
0.000256041
2.26558
0.197953
0.790836
0.00295471
8.30976e-05
1.92069e-05
0.454199
2.07739e-05
0.0411994
0.0366498
0.435121
0.636682
0.988503
1.26864e-05
4.81254e-05
8.54701e-06
2.23226e-05
1.95597e-05
2.23132e-05
1.50001e-05
3.65647e-05
0.0192
3.95171e-05
7.59219e-05
2.86621
2.24908e-05
3.04772
0.000485063
0.632435
8.74134e-05
1.3156e-05
2.11975e-05
0.0798921
3.23794
0.00392987
0.542473
4.41615e-05
0.000145729
3.69392e-05
2.27396e-05
9.08426e-05
2.27485e-05
0.00112825
0.0223343
4.45492e-05
2.27248e-05
0.00746433
0.00827134
4.58322e-05
5.67006
0.00211368
2.0739e-05
2.42497e-05
2.69035e-05
0.0844601
8.2759e-05
0.000973366
2.32544e-05
0.673012
1.24053e-05
0.159397
0.0995301
2.27868e-05
0.000254504
0.0383526
2.24798e-05
0.249184
0.469771
0.439533
24.1824
0.334929
1.79787e-05
0.295034
0.613701
0.437983
2.70889e-05
0.427511
0.00108718
0.318811
0.135885
0.000111844
0.530031
0.00312045
0.00197975
8.60092e-05
0.00690823
0.00437888
0.036681
0.381024
2.17734e-05
0.452701
0.0484021
0.00314489
1.34095e-05
1.95129e-05
0.362041
9.68011e-05
3.79877e-05
2.99325
0.191541
4.08505
3.50001
0.210421
0.00699295
0.000236698
0.000150431
0.000104785
1.47961e-05
8.15814e-05
0.000103261
0.00753197
2.4072e-05
5.83822e-05
7.08665e-05
5.62229e-05
2.04849e-05
0.000619382
0.323032
0.000126122
2.33234e-05
0.0178269
0.214963
1.46852e-05
0.000223879
2.31297e-05
0.00816891
8.95464
0.673582
0.534993
0.00044654
0.00792786
0.009967
1.78927e-05
1.93957
1.22766e-05
0.0127963
0.481658
5.3624e-05
2.30363e-05
3.33418e-05
0.00132664
0.00031204
1.3843
0.318704
0.000202762
6.19346e-06
0.00506671
0.408073
3.32734
0.463623
2.44634e-05
1.72703
2.23333e-05
4.3303e-05
5.2023
2.75954
7.45847e-05
0.000572924
1.9038
0.140567
0.00394389
4.69598e-05
0.178767
2.23721e-05
0.570681
2.53241e-05
0.688878
2.70649e-05
5.48281e-05
0.000208874
0.000465918
1.43743e-05
1.33211
2.65561e-05
2.27604e-05
0.433556
5.56843
4.41965
3.82677e-05
0.008851
0.169916
0.000134274
0.00473835
0.00114329
0.245318
0.000825992
0.123068
0.00812351
4.98853e-05
0.0697527
4.80356e-05
0.116526
0.00024136
51.0594
2.57307e-05
25.675
0.335856
0.000338101
0.49406
0.00013659
0.255758
0.0162934
5.63837e-05
2.42953e-05
2.50836e-05
1.16167
0.00119632
0.00133338
0.00133078
0.669352
2.46486e-05
2.79923e-05
2.3758e-05
0.890404
2.77347e-05
2.28507e-05
2.82759e-05
0.01077
0.591412
1.4761e-05
2.6161e-05
0.55557
6.74427e-05
0.000185664
0.00649819
1.54274e-05
4.36521
0.396095
0.287493
5.2116e-05
0.000666406
1.27654
0.463087
0.000921601
2.24567e-05
0.052988
0.00584209
0.0456339
1.31332e-05
1.43805e-05
0.00886259
0.000937273
0.00651532
0.107356
4.44852
0.308188
0.438957
0.817562
5.89288e-06
0.00569555
0.0105412
0.270234
0.301515
4.64384e-05
0.00278232
1.63949e-05
1.50462
0.00387936
0.683314
0.74024
0.000306649
1.83165e-05
0.693537
0.00127828
3.60414e-05
0.171772
0.077776
0.0110496
0.108661
8.9041e-05
0.00583917
0.546434
2.94616e-05
0.441521
0.493953
2.70282e-05
0.226154
0.174867
2.52702e-05
2.22985e-05
1.99607e-05
0.769906
1.89647
0.00127719
0.00109377
9.27392e-06
2.17842e-05
0.113295
2.02237e-05
0.0017493
0.00122323
2.28447e-05
7.00507e-06
0.00107177
2.28423e-05
1.18363e-05
3.38602e-05
0.13137
4.68164e-05
0.0141708
2.25857e-05
2.3446e-05
5.59189e-05
0.420831
2.4785e-05
0.00239043
0.308126
2.66022e-05
0.815039
2.28746e-05
0.00108219
2.27584e-05
5.65655
1.58318e-05
0.0056462
0.00221415
0.890231
0.00571533
2.22708e-05
1.74094
0.390684
0.0036513
3.47986e-05
1.33127
0.0112412
0.0133473
1.58049e-05
0.580032
0.00178722
2.2779e-05
0.000820716
0.522259
4.45982e-05
2.27235e-05
0.000861533
0.0726673
0.161927
0.00457673
0.000646352
0.00206231
0.00112455
0.235275
5.65123
0.907855
0.0340037
0.00623389
0.00253787
0.00105391
0.000483983
0.000920345
0.00498934
0.0129171
0.590215
3.07097
0.00419032
0.177247
0.0251309
0.000745176
0.00500439
0.552222
0.458284
0.333958
0.178753
4.11135e-05
0.00711587
0.383116
8.99115e-05
0.0125978
0.384844
5.55676e-05
7.38288e-05
0.0439129
0.00338937
4.25918e-05
0.750572
0.0938436
0.23689
2.37184
2.01611e-05
0.210162
2.27457e-05
2.20694e-05
0.439563
0.19121
1.26037
0.540639
0.968323
0.0216881
3.2201e-05
1.75191
8.1877e-05
6.74785e-05
2.27543e-05
1.41436e-05
3.64723e-05
2.27172e-05
0.520516
2.84204e-05
2.27508e-05
0.171102
5.33894e-05
0.598001
0.0210584
3.40061e-05
2.18711e-05
1.29965
7.83248e-05
5.89596e-06
2.44523e-05
1.34472e-05
0.000312008
3.41258e-05
0.152187
0.000282467
0.00226437
0.000227679
2.26681e-05
1.07079
0.0920635
0.00140789
0.00284013
1.20127
1.18975
0.00350253
0.00222618
7.73366e-05
0.00255818
7.44494
0.00230064
2.37931e-05
1.01486e-05
0.589864
2.58452e-05
0.00190442
2.70901e-05
0.00985644
0.000187267
2.31605e-05
0.0265063
0.782102
82.5608
2.33254e-05
8.43057e-05
1.97296
2.65773
2.42343e-05
0.000100911
7.71996e-05
1.39941e-05
1.88803
3.26118e-05
2.38212e-05
0.227638
9.91286e-05
2.13189e-05
0.628514
2.47629e-05
2.28666e-05
2.48932e-05
8.0443e-06
0.19984
0.000164119
0.141905
2.08173e-05
2.67742e-05
0.000544998
0.23268
0.0136949
2.19996e-05
0.662927
0.0324787
0.276019
0.330831
5.02526e-05
3.26513e-05
3.26379e-05
5.69524
5.83837e-05
0.000297789
4.40311e-05
0.154226
0.55167
0.562984
1.77244
0.000278846
0.0004898
1.87537e-05
0.0438964
0.176607
0.010116
0.00029142
2.07498e-05
0.000513908
3.28557e-05
1.74958e-05
9.06094e-06
6.87841e-05
7.66791e-05
0.0511585
0.797284
3.55564
0.820764
2.49641
2.98193e-05
2.92267e-05
0.620786
2.57337e-05
0.000550223
0.000707329
0.261369
0.0623183
7.69298e-06
0.567469
0.00128211
0.00101873
11.8907
0.000674046
0.00227126
2.13539e-05
2.47373e-05
0.0796819
0.0311737
0.693476
1.80584e-05
1.49834e-05
2.21385e-05
2.27732e-05
0.762256
0.858329
2.34516e-05
0.032874
6.57064
1.75073
1.44463e-05
0.00207962
9.20037e-06
10.6165
8.50743e-06
0.000225671
3.56442e-05
0.00420337
0.00143369
1.03249
0.000415465
2.24982e-05
2.51966
0.325697
2.3479
0.370419
2.37348
0.00190707
0.00211237
0.143209
0.0100371
0.0192548
0.299338
0.180946
0.415727
0.0449405
6.55413e-05
0.000105755
4.52378e-05
5.16391e-05
0.0955103
0.00236701
4.97483e-05
4.87121e-05
4.43069e-05
0.000101338
0.722037
0.0826278
1.15438
3.24788
3.00715e-05
0.00229167
0.00139412
0.0748401
0.000126776
0.0960219
0.187159
0.398261
2.24679
0.00116916
0.57965
11.81
0.129746
2.20455e-05
0.000231798
0.123137
2.41505e-05
1.88303e-05
0.000471014
0.000250019
2.23501e-05
3.69534e-05
3.78229e-05
0.0444684
0.339818
0.657677
0.584945
4.506e-05
2.27534e-05
0.237269
0.682351
2.2258e-05
0.203594
0.147483
2.21678e-05
0.827727
6.74915e-05
2.12629e-05
0.18863
2.26805e-05
0.000279176
0.000104665
2.05297e-05
14.0346
0.000505262
0.113317
2.27402e-05
2.01846e-05
0.008826
1.48714
0.000919664
0.71051
0.699125
8.36413e-06
2.26513e-05
2.1484e-05
0.380187
0.082922
12.4621
2.27359e-05
0.000254029
0.00569936
0.000118012
1.02505
0.000268891
0.356311
0.0646754
0.64243
0.788337
0.783678
0.389087
5.88743e-06
0.813776
0.312749
1.55823
0.000796005
4.19702
6.90263
0.180967
4.34338
6.54881
1.74055
6.94168e-05
0.00574382
0.000399811
0.390576
1.13623
8.15802
2.4441e-05
0.418958
0.00296252
0.201002
0.00671862
0.280945
2.1022
0.0176966
0.00134883
0.321722
0.0016044
0.0114694
0.246772
2.38146e-05
0.00397669
3.63813
2.31535e-05
0.823874
3.25594e-05
0.00405788
4.5489e-05
2.04884e-05
2.0783e-05
0.442105
5.69802e-05
5.4749
0.00300274
0.377588
0.00286668
0.000109647
3.30737e-05
0.318761
0.48944
5.45815e-05
0.27188
4.95508e-05
1.70852
2.56433
2.49823e-05
0.00251102
2.4718e-05
0.000299385
0.000274238
0.600973
3.30741
3.47565e-05
2.30649
0.00570839
0.00191365
5.17452e-05
0.072406
2.50121e-05
5.72479e-05
2.28218e-05
0.000119563
0.347406
2.58009e-05
0.29946
0.00104075
2.34359e-05
2.25949e-05
0.0311172
0.0169814
1.52846e-05
1.32393e-05
0.00018404
2.33569e-05
0.419071
1.26989e-05
0.00621806
1.37653e-05
0.313699
6.20407e-05
0.000211925
0.254572
1.93135e-05
9.3573
4.22284e-05
1.12117
0.0621264
6.23566e-05
3.93218e-05
1.25416
8.79742e-05
0.000263837
0.0629077
0.904198
3.04688
0.000251819
2.29288e-05
0.0149706
1.28639e-05
5.38757
0.204927
1.12815
0.665714
0.173217
4.93233
2.30771e-05
0.0786039
1.32836
0.427869
0.00680534
0.542425
1.31457e-05
0.0194235
0.0716048
0.273381
0.29797
2.24441e-05
0.00630728
2.43512e-05
0.0600268
5.03299e-06
0.908364
3.04106e-05
0.631179
2.12296e-05
0.263101
0.000409389
0.838395
0.357587
1.27168e-05
0.000693237
0.726756
0.000145719
2.32171e-05
0.687123
0.427815
0.359632
0.125858
0.000241968
0.114621
7.98939e-05
0.000328777
0.805893
1.65432e-05
0.000290588
5.13673e-05
0.0020326
0.644947
2.26772e-05
0.358434
0.728925
0.0143385
0.00245632
2.02471
1.82198e-05
2.45682e-05
0.000505136
0.106456
2.27555e-05
2.2691e-05
5.05439e-05
0.125956
3.12266e-05
0.000363047
0.0133552
1.63755
2.21615e-05
0.0181805
0.763383
2.18152e-05
0.0198884
4.89808e-06
1.50675
0.0038325
2.27846e-05
0.0388948
0.262527
0.00418818
0.855405
2.3437e-05
0.000155713
0.612208
2.60629e-05
0.0613784
0.381072
0.00933522
8.34549e-06
0.828537
0.124116
8.89149e-05
0.20748
6.60727
4.03164e-05
3.13929e-05
2.56571e-05
1.18433
0.567076
0.452491
0.22234
0.155075
0.0050201
0.265242
2.27449e-05
0.000108385
1.14209
0.999586
0.192498
1.81124
0.366991
0.303448
0.546255
0.157289
3.165
0.651743
3.45363e-05
0.000298684
0.00124311
8.17501e-05
0.0195513
0.2769
2.2986
0.371129
0.518013
0.254223
0.494788
0.00103558
0.000164087
0.323526
1.17824
0.193288
0.850709
0.219077
2.09436
0.0430964
0.42851
0.000314969
0.150492
0.000747674
0.000330687
6.60076
0.00896693
0.0480134
2.00172
0.248967
2.87743e-05
0.251246
0.000952721
2.85542e-05
0.00151292
0.508346
0.000677428
2.1248e-05
3.48039e-05
0.048174
6.02763e-05
1.41964
0.00391222
0.00169409
0.332601
2.45416e-05
0.627469
0.472894
0.388759
0.00162096
6.35803e-05
5.90159
0.00412015
0.259432
2.56043e-05
0.149029
2.05069
0.189369
1.27304e-05
0.0010117
0.00565638
2.68682
0.781032
1.21912e-05
0.00612276
0.687749
0.799263
3.48889
0.920292
0.000469946
0.547607
0.000274705
0.00516703
1.4389e-05
0.0433818
0.186592
0.252057
2.25156e-05
0.00013478
2.03722e-05
0.00360712
1.63613
0.106911
1.68405e-05
4.06927e-05
2.36739e-05
0.121484
0.228854
1.27251e-05
0.00177436
0.217771
0.742811
0.116333
1.43649e-05
4.70451
0.700886
0.312778
1.38444
1.28037e-05
2.5741
1.4156
0.701439
0.260678
0.488824
0.744361
0.406242
2.74404
0.000120832
2.19592e-05
7.28227e-06
0.789913
2.12483e-05
0.000396094
0.688282
2.1229
4.3728e-05
0.738233
0.000713093
1.70505
3.91383
0.660848
1.75941
3.60031
0.00057622
2.54653e-05
1.19012
0.428669
0.000983464
0.000322922
0.0488247
2.75805e-05
3.77967e-05
3.01686
0.605423
2.94549
26.6245
1.58089
2.40798e-05
3.0922e-05
0.217883
0.0345577
2.01615e-05
0.000202401
0.680635
0.316852
2.24302e-05
3.97365
2.33451e-05
0.0120843
40.3233
6.31913e-05
2.31183e-05
0.00033618
2.26965e-05
3.45793e-05
0.270973
8.58915e-06
10.3701
2.39142e-05
0.116993
0.00019584
2.0632e-05
0.895534
2.27508e-05
4.75936e-05
4.31455e-05
10.2754
0.583919
0.567422
0.0268611
0.0045405
0.00491813
2.28036e-05
0.12959
0.0192269
5.5386e-05
0.00136876
2.24975e-05
0.061827
0.531766
0.0451116
0.00489462
0.362647
2.43927e-05
0.0499833
12.3881
0.00237506
1.12796
2.61777e-05
3.57459e-05
0.112221
2.13462e-05
2.50924e-05
2.28743
1.88861e-05
0.341116
0.00286634
3.30269
0.0194223
10.5533
1.42138
3.48199e-05
0.124015
0.593757
0.73112
0.313488
0.185042
4.65013e-05
1.12148
0.0556579
0.306219
2.27098e-05
1.31746
0.00304411
8.07821e-05
5.93808e-05
4.03353e-05
0.685922
1.29143
0.0839814
0.00127895
0.000329896
3.33766e-05
2.47181e-05
0.000123878
0.335248
0.364221
0.01251
1.0354
0.404481
0.0855159
0.00204741
5.9409
0.0176197
8.26888e-06
0.649807
2.91734e-05
0.000255527
6.97605e-05
0.000546823
0.00108371
0.150578
0.387019
0.273463
0.0879527
2.19916e-05
0.00228624
0.790792
0.0025051
0.00310887
2.18955
1.21792e-05
0.113379
0.0625496
0.695945
1.81122e-05
0.373529
0.000861807
5.50596e-05
0.00197742
0.870906
0.44659
0.00119236
0.000140629
0.00251872
2.34543
0.0122353
10.9053
16.6024
0.477901
5.07467e-05
0.0969391
0.90917
0.00423291
1.30611
0.108816
5.34174e-05
0.0483123
5.95544e-05
0.000239913
2.94926
2.07463e-05
1.02826
0.342085
0.0195452
2.16143e-05
4.05403
1.99632e-05
3.9941e-05
2.76395e-05
2.1787e-05
9.16251e-05
0.168416
2.17059e-05
0.987301
0.40002
1.06932
0.000507702
0.00041369
3.28802
0.885398
0.0102551
2.2671e-05
0.00023643
2.37605e-05
2.03079e-05
0.000913901
0.00327873
0.224108
0.00906685
4.55046e-05
0.537867
0.00384947
0.125298
3.87536
0.0255547
0.496426
0.11941
0.593748
10.7928
0.0274696
0.000745414
23.107
0.00918809
0.452849
0.00277389
0.0135354
0.41729
0.170727
0.00177679
0.0319385
0.0484207
0.0681705
4.1449e-05
5.14984e-05
7.09082e-05
1.27962
0.624157
3.08756e-05
0.307735
0.00100699
0.579273
3.40552e-05
0.00140858
1.639
0.092885
3.69808
0.0021518
3.56267e-05
0.159315
5.53232
3.61754
4.40972
2.23665e-05
4.55422
0.285498
2.09979e-05
8.86211e-06
1.98623e-05
1.20565e-05
0.593086
7.60797e-05
0.1919
0.844994
0.000420888
0.30939
8.50567e-05
0.000507505
1.32337
1.27512
0.0305194
0.107094
0.140901
3.04027e-05
41.8303
0.241189
2.09821
3.18162e-05
1.31298e-05
0.197016
0.00502135
3.11836e-05
3.27996e-05
0.990609
5.48239
0.976333
0.000106264
0.0296143
88.0849
2.35399
0.493407
0.0094963
2.43324e-05
2.27657e-05
1.95041e-05
0.000245278
1.43823e-05
0.642947
0.0018698
7.13446e-05
4.72571e-05
0.0160584
3.18947e-05
2.26312e-05
0.433737
1.75162e-05
2.37891e-05
0.000109146
0.585154
0.0001041
16.7802
0.528915
0.933739
22.639
0.00227144
8.17578
0.000503736
2.97205e-05
0.064065
3.90551e-05
1.64299
0.000164762
8.05407
0.315373
8.07093
0.619118
0.0952819
0.000638097
0.00132617
0.476519
0.024493
0.000241262
0.0073215
1.61982
0.505273
3.72551
0.190286
0.177907
2.89452e-05
7.13863e-05
0.659885
0.0111309
1.00027
1.7203e-05
0.302055
0.535468
0.000432924
7.10152e-05
7.223e-05
0.138851
0.00288861
3.13882
0.00267849
0.333893
0.000103878
0.332745
0.813476
1.05064
6.04959e-05
0.433912
0.00154586
0.00451461
0.00334948
1.37273e-05
0.000212291
0.00325441
0.00125909
0.0211662
0.95011
0.00316788
0.000337088
0.00344833
0.306302
0.295256
0.000196778
3.19106e-05
0.0953413
4.90878
0.840204
4.98849e-05
3.11756e-05
0.00189222
3.30067e-05
1.57608
0.539689
0.0108493
0.00414108
0.00196366
0.00113071
4.56681
0.669576
0.00179984
0.967528
0.54263
0.10758
0.0072669
4.9356e-05
6.8013e-05
3.27562e-05
0.528567
4.78492
0.202571
1.09708
0.00135908
0.0877291
0.0140793
0.2276
0.396072
1.70448
2.08207e-05
1.31379e-05
1.05753
3.1637e-05
0.000143994
2.22857e-05
0.764293
1.48871
1.14983
0.000408232
0.357988
1.51967
2.26217e-05
0.000413415
0.00265488
1.34601
3.42287
0.0433672
0.0020574
0.00161319
0.00012118
0.00258989
0.547519
1.63449
0.0290731
0.000527615
0.607154
1.63453
3.8693e-05
0.00765695
0.280742
8.99655e-05
2.40576
0.000687325
0.000547658
0.000644817
1.21755
0.000638984
0.171347
0.00447588
9.60225e-05
0.00944328
0.0491535
21.6665
0.00337807
0.000133828
0.00124566
0.165419
1.52156
0.00284724
0.00100766
2.16717
0.00360668
0.00884759
1.11554
0.422341
0.0465132
0.000268035
0.8705
0.596841
0.00044721
0.00226565
2.86425e-05
0.000337685
2.06974e-05
0.370494
0.571261
0.00672756
0.000571369
4.62199e-05
0.000265428
2.45589e-05
0.000119372
2.33403e-05
0.186868
2.27043e-05
0.728797
0.000250238
0.405831
0.497933
1.36459e-05
0.352792
0.00811879
0.248372
2.24125e-05
2.94348e-05
0.000110373
6.4993e-05
2.13055
0.0178465
0.235986
0.163396
0.0010258
0.00794534
0.922336
4.48147
3.31807e-05
65.6259
3.39898e-05
0.0686938
0.000673081
2.27787e-05
3.77664e-05
3.75351e-05
10.2716
0.000297109
2.59882e-05
0.314441
0.237119
0.0102333
0.000521188
2.27422e-05
0.739593
0.318067
0.000153689
1.27326e-05
3.83246
0.000199221
2.23138e-05
3.83718e-05
2.2737e-05
0.222375
0.805267
2.28694
0.267566
0.000493418
0.608825
0.00356042
1.43746
0.224465
3.84874e-05
0.354005
2.28389
2.00047
0.000370775
0.183984
0.000406528
0.218172
3.63887
3.93446e-05
0.00151817
0.0623716
2.38532e-05
0.0215994
0.00671322
0.797628
4.15923e-05
3.89425e-05
6.97039e-05
0.198129
2.46196e-05
1.24413
0.300793
2.12629e-05
2.71116e-05
2.55574e-05
0.0480856
0.0238191
2.25855e-05
2.3751e-05
0.0979047
3.38743e-05
0.141533
0.000403357
0.180992
0.000444761
7.08426e-05
0.0133138
0.266284
0.000186919
11.559
0.602302
4.5414
1.50063
0.000597391
3.21032e-05
0.000786672
0.000307122
3.19571
0.0524001
1.04634
0.327946
5.40152e-05
0.000133561
0.0396768
0.0522265
3.13077e-05
3.0099
2.02086e-05
1.8534
0.000468143
0.000116313
0.0279933
4.1087e-05
0.709712
0.572605
0.129045
0.0619774
1.54373
0.000952026
0.0687548
0.000270388
0.0840331
4.71443e-05
1.11053
0.000326604
0.000259787
0.658047
2.46057e-05
9.69453e-06
1.26182
2.27852
0.619676
2.4131e-05
2.27725e-05
1.1802e-05
0.0245807
6.22708e-05
0.497788
0.00322298
0.214928
2.02581e-05
1.15458e-05
0.171876
1.07973
0.0806203
0.00306643
0.541801
3.1469
0.105997
4.4348e-05
0.000223179
0.337865
0.00149443
2.20951e-05
0.00608147
3.54605e-05
2.8948
3.64033e-05
0.388348
0.853436
0.350721
4.76753
0.000123921
0.136787
0.00451283
0.000561847
1.30279e-05
0.397794
4.33268e-05
0.417567
0.0577139
5.37788e-05
2.26952e-05
2.6082e-05
0.311002
2.27855e-05
2.25392e-05
1.26616
0.31089
0.00306282
0.0829395
0.0123429
2.17415
2.34174e-05
0.773624
0.556331
1.59691
0.494684
0.000631342
2.24555e-05
1.64564e-05
0.471599
2.81104e-05
1.80082e-05
2.2117e-05
0.0219421
1.49511e-05
0.000546575
1.09117
5.51067
0.00171282
0.65033
0.00794615
1.46182
0.985036
0.393426
0.217668
1.90679
5.27182
0.443664
8.04686e-05
0.959081
7.0403e-05
1.32634
2.42841e-05
0.00227294
11.5731
11.369
0.0011031
1.45179e-05
0.00664452
0.674013
0.535523
1.76606e-05
2.19193e-05
2.21879e-05
0.532468
0.762578
2.21802
0.823316
0.525227
0.011394
1.43479
1.87181
0.376677
0.352125
0.000154044
0.123943
0.00172576
0.939438
0.000387718
6.2498e-05
2.27066e-05
0.000131194
0.641164
2.18108e-05
0.00307191
5.35545e-05
0.00120437
0.142295
0.000269864
7.56897e-05
0.254228
1.73141
2.30284e-05
5.32539
0.0017244
0.0549034
0.045921
2.75512
0.130103
0.58527
0.0171245
0.650777
10.786
0.00370573
0.333729
0.819563
0.00123144
0.000839098
0.00236737
0.00168289
2.81275
0.00126767
0.378787
0.243092
4.21774
0.84674
0.000493764
4.22094e-05
0.774987
0.062075
2.38814e-05
3.22705e-05
0.000400267
0.0514781
0.0208883
0.0638583
1.44146
1.01413
0.183409
0.00813873
0.000358685
3.74928e-05
0.0582409
2.24645
11.804
3.22147e-05
0.000945776
1.26949
0.671338
2.27338e-05
10.4319
0.00596286
0.356255
2.74049e-05
2.45114e-05
1.19283
1.20099
0.638136
0.230121
11.9834
0.579782
4.81696e-05
0.947636
1.29814
1.03506
0.00550369
2.55046
2.20168e-05
2.28396e-05
2.13136
2.40797e-05
2.22804e-05
0.000234791
2.28178e-05
2.53568
2.43618e-05
1.99199e-05
2.36122e-05
0.210773
4.15379
0.211314
0.294893
2.65066e-05
4.34139e-05
0.93499
3.90203e-05
0.716112
0.554385
0.768389
0.00432867
0.00664619
0.19213
0.000418513
0.402973
0.264115
0.370048
0.000402762
0.299858
0.00983548
0.000193379
2.99556e-05
0.0317684
1.61302
0.095784
0.0805682
3.28142e-05
2.36954e-05
0.000171808
0.0972939
2.48061e-05
0.328216
0.317017
3.55146e-05
0.0238043
1.0166e-05
0.0144525
4.82552e-05
7.36951e-06
0.000792452
2.37847e-05
0.001683
0.00207577
6.12045e-05
0.706437
1.09087e-05
7.53795e-05
7.18445e-06
0.00713705
9.33351
7.4119
0.00354476
2.34968e-05
5.95369e-05
3.44679e-05
3.83335e-05
9.09007e-05
0.832923
0.0828083
2.24591e-05
2.33542e-05
0.712382
1.53829e-05
1.39234
8.09104e-05
0.000806405
0.00775155
1.45216e-05
0.0014074
0.259235
2.49585e-05
2.47518e-05
1.47159e-05
2.64854e-05
2.64014e-05
8.24708e-05
0.00372474
2.46568
0.000818181
0.000752686
0.506778
0.611728
0.000609056
3.27422e-05
2.35738e-05
3.45014e-05
0.229453
0.285764
0.0971639
0.000117821
0.535312
0.305341
0.0550309
2.52858e-05
0.417722
0.687329
25.5261
0.36213
0.00162538
1.88573e-05
2.23774e-05
5.73845
2.37413e-05
0.063192
0.0851425
3.163
6.5288
0.00493121
0.172169
0.00670217
0.0603258
0.00229325
4.34332e-05
2.27544e-05
1.5354e-05
2.11216e-05
0.0272515
1.7593
0.00470398
0.0001192
1.24658e-05
0.00133994
3.3325
0.0128029
2.11774e-05
0.000188756
1.79276
0.00110915
0.816502
3.32133e-05
0.00122221
3.52346e-05
0.0102516
0.00116458
0.000153458
2.21659e-05
0.00146253
0.0019888
0.00147448
0.733514
0.000683407
0.000238102
0.000186585
0.000100454
0.0539128
0.000645894
0.423609
4.55654e-05
0.217384
0.00188156
0.587348
0.00144593
0.0010689
1.13971
0.351848
0.26876
0.236784
9.27647
0.286102
0.678092
1.40067e-05
0.000108825
1.16377
4.82279e-05
0.224768
1.67545e-05
0.00029942
1.33161
1.68962e-05
1.15249
0.000240668
0.000251553
0.000145998
0.350088
1.91486e-05
1.72101
0.497844
0.34626
0.769931
2.83908e-05
2.29656e-05
0.273032
1.52251e-05
0.261233
0.446704
0.740634
0.660889
0.000154672
0.631562
0.572522
0.569493
0.000109823
0.000123389
2.66216
0.595947
0.0294045
0.675261
5.35266
0.0640818
2.46173e-05
0.0437128
7.23062e-05
5.50179e-05
4.4159
0.258964
2.39366e-05
0.000148377
9.13704
4.45753e-05
0.000822803
0.199012
3.85137
2.45138e-05
0.000149146
1.76159e-05
34.1833
0.506647
4.77338e-05
3.90853
3.10706e-05
4.38464e-05
3.51021e-05
2.28488e-05
2.4191e-05
2.86576e-05
2.3731e-05
1.10577e-05
1.22547
0.695325
0.00095582
3.40037e-05
0.00972671
2.18489e-05
0.00019988
0.00086433
3.94783
1.01168e-05
9.92931e-06
0.771824
0.00285204
9.74394e-06
1.00045e-05
0.916059
0.0596004
2.31301e-05
2.82229e-05
2.69136e-05
0.363333
0.214101
7.71024
2.83259e-05
1.82996
0.926526
2.54125e-05
0.000581683
9.82762e-05
2.23408e-05
0.00014636
0.0232875
0.0124609
0.00323539
0.0198008
0.000123474
0.243837
0.000130278
0.409887
0.000954791
0.0546273
0.000132235
4.58644e-05
2.4952e-05
0.00754491
1.02335
2.96795e-05
3.37958e-05
22.6521
0.000410424
17.3692
0.000545325
3.13754e-05
0.249728
2.11878e-05
0.000158342
0.00127546
0.0301253
3.73431e-05
2.27173e-05
13.5221
3.25063e-05
2.27118e-05
0.344147
0.00285746
2.98041e-05
9.46881e-05
0.0538465
0.000634481
2.28566e-05
0.407645
0.000645765
2.24332e-05
8.87644
0.0034085
0.0140325
0.181842
0.124052
0.924701
0.253994
0.0786108
0.00404096
0.000137015
2.54295e-05
10.3825
0.00155047
8.88869
0.0002489
0.713656
0.53734
1.92615
2.27743e-05
0.187555
0.00266587
0.402556
0.75955
0.00361007
7.90123e-06
0.000141397
0.335373
2.27028e-05
0.465543
0.00292675
0.427605
0.00184813
0.926963
0.000205675
2.4322e-05
0.0173683
3.40031e-05
0.00139415
9.23107
6.719e-05
0.736499
0.724471
0.000902014
0.00012116
0.00174986
6.21832
0.00373817
0.277466
0.383203
0.00164723
0.000138214
0.283248
5.16413e-05
0.00164622
0.000475374
2.27992e-05
10.5435
0.00079729
0.992476
0.0156956
2.2441e-05
2.04516e-05
0.125017
5.5995e-05
0.000815728
0.00313652
9.5934e-06
2.27985e-05
0.00105995
0.655768
3.15653e-05
19.9456
2.97202e-05
0.0224314
0.0138351
7.1678e-06
0.1685
2.82817e-05
3.25299e-05
0.000258247
0.0864225
2.13418e-05
5.00359e-05
1.27008
2.36438e-05
5.81786
4.27577
0.485485
0.0268154
2.22946e-05
0.000239742
3.63897e-05
0.000266699
0.119301
2.27985e-05
0.0753697
0.00351919
0.055086
0.00197398
2.24881e-05
3.16052e-05
0.000937369
0.00663787
0.749074
0.660986
3.07784
5.14688
0.00716728
2.71125e-05
0.00090473
0.000465354
8.48239e-05
3.09189e-05
0.0167477
0.523582
0.111129
0.000297262
4.37068e-05
0.0303858
1.79696e-05
2.95516e-05
5.87244e-05
0.000573409
0.00168191
0.708899
0.438131
0.0328057
2.31809e-05
1.20436e-05
0.546727
0.000276035
0.211327
0.051673
0.000278796
3.99091e-05
0.00065712
0.208384
1.04325
0.516561
0.00179376
1.0824e-05
0.000501615
0.0359678
3.4595e-05
4.43635e-05
0.000646077
2.68555e-05
0.000930564
0.00133704
0.000375403
0.000584019
0.000275125
0.010951
0.0834954
0.22836
1.0592e-05
0.000450472
0.000283317
0.000488258
3.09933e-05
1.32348e-05
2.35345e-05
0.0271937
2.24667e-05
3.29412e-05
0.06102
0.300169
3.29762e-05
0.349368
0.843877
0.00496193
1.30085e-05
1.17884e-05
3.29269e-05
2.2742e-05
0.539389
2.83421e-05
2.43255
1.17409e-05
0.873471
8.68167e-05
0.000196608
0.000490661
5.46609e-05
2.22513e-05
4.12981e-05
0.439092
0.000523409
0.00327682
0.000415437
0.0095194
0.000146685
0.00216841
0.245134
0.000729353
0.00187009
0.000146831
0.0222703
0.00274286
0.00875273
2.41112
4.69788e-05
4.84858
0.00197348
11.4384
2.25453e-05
0.255414
0.927603
1.00582
0.000303037
0.69805
0.503402
1.33829
2.54887
0.59577
0.000586377
1.35304e-05
2.50685e-05
0.00175048
0.0044931
2.27334e-05
0.00255928
0.000308842
9.83456e-05
2.26894e-05
4.45851
0.0272853
1.08673
0.45424
3.27144e-05
0.544206
2.34008e-05
0.685128
9.73226e-05
0.00291222
3.99055e-05
6.26169e-05
0.00374186
0.000126793
3.47147e-05
0.000119865
6.37719
4.29648e-05
0.251058
1.06594
0.0531258
1.09405
0.535946
1.46784
4.34408e-05
2.22894e-05
0.575748
2.27379e-05
2.18509e-05
6.09983e-05
0.000118462
1.65148
0.00224856
1.48787
0.0462119
0.00573409
0.743218
2.48708
0.00489071
3.34909e-05
0.0450044
5.59232e-05
0.00226291
0.086644
1.6968
2.30245
3.41567e-05
4.69217e-05
1.62888e-05
0.513528
0.425054
1.08616
0.0818531
3.11983e-05
1.4893
0.766278
0.463909
0.00044845
1.87498
0.034334
1.40084
4.36307e-05
5.69132e-05
2.37807
1.56741
0.128342
2.10443e-05
0.0638231
0.000456451
0.0106435
7.51523e-06
0.486341
7.93553e-06
7.45895e-06
9.9956e-05
0.673372
0.618286
8.82701e-05
1.98307
0.0211028
0.000111789
0.0895197
0.000100967
0.00818925
0.00131195
0.00936698
6.21281e-06
10.538
0.0615543
0.661425
2.38986e-05
8.92887e-06
0.295485
18.3023
0.293506
0.621029
0.721722
0.000135097
8.42433e-06
0.0181059
2.27444e-05
0.817628
1.85064
0.197427
5.75559
0.0123259
0.000946531
0.656956
0.000639869
0.718965
1.08785
0.488661
0.00145328
0.0183977
0.000786141
4.83205e-05
0.0682399
0.823039
0.000183584
8.29509
4.24861e-05
0.127245
2.11048e-05
0.0119941
0.270494
1.19667e-05
1.78355e-05