/*--------------------------------*- C++ -*----------------------------------*\
| =========                 |                                                 |
| \\      /  F ield         | OpenFOAM: The Open Source CFD Toolbox           |
|  \\    /   O peration     | Version:  v2012                                 |
|   \\  /    A nd           | Website:  www.openfoam.com                      |
|    \\/     M anipulation  |                                                 |
\*---------------------------------------------------------------------------*/
FoamFile
{
    version     2.0;
    format      ascii;
    class       volScalarField;
    location    "0.997654";
    object      k;
}
// * * * * * * * * * * * * * * * * * * * * * * * * * * * * * * * * * * * * * //

dimensions      [0 2 -2 0 0 0 0];


internalField   nonuniform List<scalar> 
353077
(
0.000816804
0.00266029
6.64033e-05
0.00278808
6.80295e-05
0.000145573
9.66656e-05
6.64658e-05
7.3777e-05
7.56217e-05
0.0094169
0.00883196
0.131223
6.9608e-05
7.42047e-05
9.79365e-05
0.0106186
0.0633957
0.000108195
6.65676e-05
0.321173
8.06407e-05
9.03824e-05
0.015151
6.65319e-05
6.99329e-05
0.00181245
6.84807e-05
6.91458e-05
0.0144077
9.2122e-05
6.80012e-05
0.0123957
0.000287047
8.87219e-05
0.000208606
0.22247
0.411711
0.125968
7.18395e-05
6.90322e-05
8.66239e-05
0.17778
0.000139425
0.0873164
6.70754e-05
9.45018e-05
0.000114206
0.000353689
0.0180621
6.83037e-05
6.64337e-05
8.96773e-05
9.2167e-05
0.000330573
0.000282236
6.70242e-05
0.000127075
0.000610233
0.000109056
8.12655e-05
6.75026e-05
0.0061246
8.53948e-05
0.463419
9.07243e-05
7.33722e-05
6.92759e-05
0.0652707
6.80337e-05
0.000107899
0.000844277
0.00100833
6.94001e-05
0.000987869
6.70375e-05
0.00875083
0.165093
0.421384
0.00281067
0.265635
7.21949e-05
0.166584
0.0190424
0.00221138
0.0230049
0.0617039
0.0643535
6.64298e-05
0.461184
0.40058
0.000150384
6.69262e-05
8.20367e-05
0.0375784
7.35873e-05
0.00104041
6.95057e-05
6.68088e-05
7.19119e-05
7.44815e-05
6.67153e-05
8.73177e-05
0.0121261
0.000267383
7.42547e-05
8.907e-05
0.000117711
7.77918e-05
0.00013296
7.90634e-05
9.78746e-05
9.58545e-05
0.0112747
7.11813e-05
9.27453e-05
0.00535447
0.355297
9.03949e-05
7.18293e-05
0.000102153
7.61606e-05
0.0146568
0.00317328
0.000866587
0.00707303
7.7102e-05
8.51694e-05
9.16043e-05
0.000662377
0.00508496
9.54704e-05
0.000104441
6.74474e-05
6.64518e-05
0.00827145
0.000122638
7.21667e-05
6.64774e-05
0.000179104
0.00247929
0.000631846
6.71918e-05
6.99098e-05
0.00246929
0.00253261
0.0537839
9.52412e-05
0.00343223
0.283864
0.00235792
0.00279819
0.000483619
0.000107053
0.666392
8.98799e-05
9.24573e-05
7.60102e-05
8.80404e-05
0.00037594
0.0625377
6.72546e-05
0.000107625
9.09163e-05
6.71063e-05
0.457612
0.000233299
8.11812e-05
6.89234e-05
6.69e-05
9.82444e-05
0.282988
0.00125933
8.52024e-05
7.02435e-05
7.2292e-05
8.41748e-05
7.07441e-05
0.0185594
0.00174673
6.64366e-05
8.28276e-05
7.45611e-05
7.43888e-05
7.36626e-05
6.83288e-05
9.49811e-05
0.000161568
0.0214326
8.41542e-05
0.000410757
8.12175e-05
6.73427e-05
0.000117943
0.303122
0.410515
0.000197253
0.00369678
0.00293424
0.00132371
0.000419611
0.38312
0.0042719
6.64381e-05
0.000192565
8.14157e-05
0.000371365
7.71897e-05
8.70309e-05
9.12288e-05
7.17565e-05
0.0101671
0.000324692
9.14015e-05
0.0662677
8.02488e-05
0.251512
0.155987
7.98358e-05
0.000266169
0.252868
0.000104878
0.000299146
9.17443e-05
8.92328e-05
7.27653e-05
0.000118415
0.349231
0.000127819
0.000105796
8.13399e-05
9.92077e-05
6.68471e-05
0.000100214
0.0961464
7.42178e-05
0.000126408
0.000116766
9.12939e-05
0.000119391
7.82238e-05
7.09324e-05
0.00335725
6.9211e-05
9.0631e-05
6.65636e-05
8.05075e-05
6.64582e-05
0.0543025
0.00016243
9.23044e-05
9.378e-05
6.94053e-05
0.414727
0.0194531
0.000308151
0.00058174
9.32769e-05
0.000903355
6.99352e-05
8.97024e-05
0.148053
0.403834
0.00360846
0.00093709
0.000313432
0.000121284
8.45877e-05
9.44471e-05
0.000415975
0.000112459
0.369449
0.000448565
6.79345e-05
0.0152483
0.0138336
0.000456052
6.84959e-05
0.0647774
0.000213942
0.327731
0.0699757
0.000721134
9.77082e-05
0.000154494
9.77728e-05
0.00148542
8.18366e-05
0.000112191
0.15112
0.1364
0.050356
9.81953e-05
0.000102168
0.0361091
0.000121499
0.000100798
9.20294e-05
6.7112e-05
0.000137436
0.0364276
0.0787776
6.64135e-05
0.120038
0.00010015
0.000101009
0.00360065
0.000107555
0.18076
0.000118542
6.91629e-05
6.99047e-05
8.63696e-05
8.51174e-05
0.312689
0.406794
0.000161923
0.345817
0.000629031
9.77096e-05
0.349087
9.01939e-05
0.438439
0.000234212
6.64569e-05
0.503993
0.00139813
0.000438908
0.000772526
0.000776428
0.00064019
0.000460816
0.0292176
0.00183554
0.317319
0.00175389
0.0282853
0.00011114
0.00141969
0.298672
0.0076403
0.000104164
0.00103267
0.00249276
0.000418564
0.00226698
6.82587e-05
0.000488878
9.86284e-05
6.72429e-05
0.000373764
0.0052771
0.263676
0.00064604
0.441664
0.000102368
0.0491316
0.00010455
0.00118459
0.000252316
0.00051815
0.104622
0.10777
0.046477
0.00410461
0.000142785
7.38272e-05
0.104007
0.000117823
0.0154021
0.00469854
0.278254
0.358382
0.406108
8.70043e-05
0.000112279
8.93419e-05
6.74979e-05
7.31231e-05
7.94319e-05
9.44712e-05
9.01489e-05
0.00360917
0.000143242
0.000170275
0.109742
6.7077e-05
0.144328
0.00100435
0.368492
0.000170566
8.76399e-05
7.10572e-05
0.016779
0.0711738
0.00369673
0.258616
0.000105528
0.000189719
0.000109424
6.67131e-05
0.000157132
6.78436e-05
0.000757677
0.00572281
0.000104314
6.81518e-05
0.00323447
0.00259218
0.000105507
0.118784
0.000351517
7.17824e-05
8.12863e-05
8.92754e-05
0.0840977
0.000160974
0.000896173
7.87335e-05
0.385879
9.59564e-05
0.484242
0.0155252
6.8345e-05
0.000364045
0.00472625
7.05198e-05
0.0379198
0.283166
0.392625
0.479188
0.0835344
7.99904e-05
0.0258629
0.398036
0.0227033
8.85391e-05
0.253602
0.000320163
0.159733
0.024917
0.000231028
0.0550105
0.00140472
0.00147318
0.000160559
0.00117814
0.0017196
0.00482939
0.0351393
6.86618e-05
0.0787907
0.0570407
0.0015265
0.000108191
9.21259e-05
0.233792
0.000188742
9.81772e-05
0.261195
0.104703
0.144171
0.160808
0.374982
0.00114502
0.000184001
0.000155927
0.000119603
9.21439e-05
0.000153412
0.000168249
0.00116603
6.90927e-05
0.000124706
0.000142475
0.000121188
7.61543e-05
0.000189519
0.0311305
0.000190339
6.75919e-05
0.00164284
0.0217145
9.16791e-05
0.000309887
6.82719e-05
0.0107995
0.255649
0.026734
0.22203
0.00058433
0.00116642
0.0012964
7.76037e-05
0.474217
0.000102008
0.00228827
0.283295
0.000120662
7.05803e-05
0.000140526
0.000848666
0.000414498
0.399293
0.0745898
0.000264293
8.99466e-05
0.0043352
0.0381835
0.157896
0.278435
6.99012e-05
0.212165
6.74624e-05
0.000103193
0.225443
0.338059
0.000169437
0.000405994
0.077541
0.0152316
0.0011972
0.000119654
0.138032
8.57362e-05
0.465088
8.27474e-05
0.295409
8.79523e-05
0.000163552
0.00014351
0.000609258
8.97177e-05
0.298286
7.4075e-05
6.6427e-05
0.0207381
0.173373
0.136341
9.54217e-05
0.00165425
0.0247967
0.000279035
0.00089752
0.000910585
0.0150198
0.000799825
0.0875044
0.00990677
0.000150785
0.0683497
0.000162655
0.0102282
0.000258501
0.747079
7.75931e-05
0.625179
0.505654
0.00031574
0.354628
0.000151712
0.16354
0.00307269
0.000117509
7.52516e-05
7.98435e-05
0.418887
0.00109857
0.00115756
0.00165724
0.254849
7.02988e-05
8.68421e-05
7.77221e-05
0.359274
8.17409e-05
0.000105819
8.40386e-05
0.0133102
0.0317805
8.9783e-05
7.33652e-05
0.104757
0.000102291
0.00030502
0.00140139
9.24704e-05
0.166382
0.0267662
0.0681901
0.000113214
0.0012123
0.0691739
0.218712
0.000761353
6.71277e-05
0.00921563
0.00112077
0.00661922
0.000102361
9.30036e-05
0.00280944
0.000280172
0.000967065
0.0105208
0.165987
0.0391095
0.411446
0.398393
9.30498e-05
0.00166906
0.00168171
0.18033
0.372178
0.000103369
0.000776553
8.77865e-05
0.05066
0.000754965
0.425394
0.120068
0.000297266
9.03992e-05
0.034838
0.000367902
9.98385e-05
0.330079
0.0635683
0.00225283
0.0160275
0.000124527
0.00102699
0.307646
7.97885e-05
0.197562
0.0354782
8.29862e-05
0.0253107
0.353251
7.16125e-05
6.96413e-05
7.52455e-05
0.377467
0.0819589
0.00121886
0.000992374
8.83344e-05
6.95663e-05
0.015469
0.000142131
0.00233634
0.000887452
6.67376e-05
9.01066e-05
0.000326339
6.74228e-05
8.93621e-05
8.55044e-05
0.0294169
0.000158489
0.00192452
6.74579e-05
6.83622e-05
0.000171931
0.325795
7.06723e-05
0.000609248
0.16295
8.75534e-05
0.0328508
7.41028e-05
0.00162261
6.64569e-05
0.197463
9.07258e-05
0.00123093
0.00156879
0.0538612
0.00150431
6.88685e-05
0.0599511
0.245268
0.00101373
8.99605e-05
0.423793
0.00164982
0.0180544
9.23198e-05
0.0326615
0.000417907
6.64668e-05
0.000229556
0.0673377
0.000105849
6.64327e-05
0.000226789
0.0139372
0.115924
0.0058008
0.000219159
0.000500112
0.001012
0.0197461
0.178705
0.0632868
0.00537456
0.00224751
0.00453227
0.00036436
0.000919452
0.00101731
0.000724042
0.00141747
0.052523
0.145529
0.00068974
0.3773
0.00441273
0.000601135
0.000759403
0.21176
0.291081
0.118336
0.0092777
0.000100546
0.000941499
0.0389899
0.000158426
0.00227713
0.253031
0.000113478
0.000140198
0.00361992
0.00420771
0.000102383
0.123996
0.0121755
0.178853
0.265948
7.23501e-05
0.024327
6.63953e-05
6.80709e-05
0.49296
0.0200402
0.44667
0.421351
0.393932
0.00308576
8.41978e-05
0.0851554
0.000237957
0.000244549
6.64055e-05
9.19764e-05
9.23476e-05
6.64903e-05
0.480303
0.000137514
6.63987e-05
0.144662
0.000143142
0.0446539
0.00346415
0.000128778
6.8528e-05
0.145379
0.000165167
9.48514e-05
7.0038e-05
8.47848e-05
0.000291609
8.73525e-05
0.119455
0.000283331
0.000407356
0.000303193
6.65895e-05
0.0442646
0.387379
0.000893936
0.00193059
0.404026
0.176503
0.00186415
0.00123592
0.000144071
0.00117637
0.14513
0.00124439
6.98064e-05
9.03289e-05
0.371197
7.26835e-05
0.000965909
8.12064e-05
0.00676115
0.000266454
8.45451e-05
0.00451308
0.358467
1.28273
8.18646e-05
0.000163466
0.478128
0.140866
7.79484e-05
0.000182034
0.000139327
9.24933e-05
0.443911
8.5669e-05
8.88294e-05
0.173548
0.000171679
0.000125221
0.475955
9.24992e-05
0.000103753
8.56392e-05
9.57774e-05
0.0128538
0.000424996
0.0117389
8.49181e-05
7.44956e-05
0.000644733
0.179504
0.00939329
0.000127996
0.140956
0.00353699
0.0281015
0.0665796
0.000142137
0.000115089
0.000112126
0.19945
0.000157947
0.000377472
9.61798e-05
0.473711
0.314041
0.235109
0.27658
0.000377711
0.000631179
0.000105712
0.040577
0.398392
0.00311467
0.000144476
9.10743e-05
0.00060424
8.58999e-05
8.50048e-05
9.59415e-05
0.000116267
0.000146135
0.00562213
0.487304
0.161143
0.375503
0.351541
8.75064e-05
8.45354e-05
0.328768
7.82277e-05
0.000442568
0.000669207
0.15978
0.0639888
9.19438e-05
0.488914
0.000753149
0.000787155
0.317705
0.000483894
0.00121565
7.90178e-05
7.16997e-05
0.00873689
0.00332875
0.384509
0.000126865
9.20194e-05
7.96646e-05
7.62855e-05
0.354802
0.408477
6.78465e-05
0.0390228
0.203684
0.338388
8.98049e-05
0.00128877
8.79436e-05
0.355953
9.46478e-05
0.000320379
8.96285e-05
0.00172775
0.000992242
0.0611615
0.000191924
6.83114e-05
0.126795
0.37533
0.118505
0.2328
0.254102
0.00135454
0.00110974
0.456177
0.00374858
0.0018898
0.215592
0.114292
0.463435
0.0151453
0.000115146
0.000133746
0.000104718
0.000113783
0.085079
0.00161664
0.000114774
0.000108484
0.000102725
0.000189065
0.419839
0.00617586
0.401342
0.321947
0.0001252
0.00114177
0.000858625
0.00707686
0.000240687
0.0474897
0.428074
0.497231
0.0964609
0.00033946
0.33993
0.286024
0.0135428
6.80569e-05
0.00028103
0.00896973
0.000160232
7.50319e-05
0.000421047
0.000345676
6.74481e-05
8.97108e-05
9.51388e-05
0.00630642
0.504364
0.449134
0.233088
9.14064e-05
6.64592e-05
0.443652
0.349747
6.76927e-05
0.452613
0.515376
6.78944e-05
0.431663
0.000141717
7.1924e-05
0.090975
6.6552e-05
0.000547206
9.84601e-05
7.13399e-05
0.270585
0.000457885
0.0137543
6.64532e-05
7.23151e-05
0.0115676
0.0633535
0.000958688
0.419177
0.0787205
9.32425e-05
6.72631e-05
6.93462e-05
0.131971
0.0779929
0.306705
6.64479e-05
0.000311948
0.000997475
0.000196979
0.411893
0.000321867
0.110808
0.0104865
0.36489
0.437626
0.410424
0.0323999
9.19211e-05
0.0625684
0.0654845
0.069467
0.000315644
0.151154
0.218468
0.4012
0.13467
0.28085
0.388846
0.000142851
0.00104691
0.000442401
0.0265109
0.411319
0.220648
0.000221164
0.0304857
0.00490486
0.0186808
0.00125487
0.2075
0.0949316
0.00429209
0.000335522
0.477354
0.00190568
0.00145471
0.0576726
0.000113637
0.0007543
0.155027
6.76338e-05
0.4956
8.27156e-05
0.000876077
9.23058e-05
8.23515e-05
8.89279e-05
0.260688
0.000120371
0.204148
0.000949894
0.251946
0.000854185
0.000177569
8.66707e-05
0.103987
0.396643
0.000121174
0.462982
0.000106588
0.443891
0.0972786
7.09575e-05
0.000660843
7.04446e-05
0.000187565
0.000310689
0.297335
0.156537
9.01339e-05
0.430765
0.00142198
0.000342353
0.000116473
0.00630377
7.12389e-05
0.000123444
6.79941e-05
0.000104635
0.123088
8.67911e-05
0.49002
0.000294913
7.72558e-05
6.85172e-05
0.00509339
0.0023008
0.000124176
0.000120022
0.000247498
7.93113e-05
0.49941
0.000116726
0.00184844
0.000111928
0.015972
0.000108225
0.000137501
0.190729
8.76569e-05
0.319531
0.000101926
0.0728721
0.0299806
0.000121769
9.78835e-05
0.486848
0.00013687
0.000198714
0.00790147
0.380338
0.342153
0.00031528
6.79093e-05
0.00502204
0.00012045
0.197978
0.356742
0.40716
0.352184
0.148378
0.364804
6.87011e-05
0.00942225
0.445304
0.20885
0.00105523
0.0409009
0.000117087
0.00257253
0.00866176
0.134295
0.201283
6.71542e-05
0.00105073
7.99566e-05
0.00632573
8.86588e-05
0.420552
9.58777e-05
0.088733
7.28911e-05
0.414853
0.000494138
0.0330687
0.44384
0.000108174
0.0002926
0.0347534
0.000151097
6.79644e-05
0.386849
0.196468
0.212732
0.483795
0.000339375
0.109714
0.00020338
0.000513027
0.428188
8.54936e-05
0.000270141
0.00011146
0.000512717
0.301086
6.66638e-05
0.0443343
0.403516
0.00381644
0.000607394
0.233764
7.98631e-05
8.94744e-05
0.000571971
0.0108399
6.66047e-05
6.66538e-05
0.00011509
0.388237
0.000101667
0.000190765
0.0140033
0.0792145
6.88553e-05
0.00222248
0.382194
6.95236e-05
0.00249552
9.61702e-05
0.0781009
0.000539066
9.72602e-05
0.00422514
0.014319
0.00494922
0.414281
9.87461e-05
0.000451076
0.405921
8.54198e-05
0.0579053
0.0305094
0.00226016
8.95529e-05
0.44198
0.0118948
0.00016681
0.164487
0.242746
9.73262e-05
8.34628e-05
7.18961e-05
0.420357
0.410527
0.032182
0.0188283
0.0113133
0.00111667
0.071826
6.63861e-05
0.000203429
0.378598
0.464125
0.0351454
0.0827794
0.434294
0.203395
0.403504
0.0110537
0.320173
0.0345271
8.52823e-05
0.000355755
0.000907311
0.000164716
0.0206654
0.120566
0.104611
0.100434
0.0432033
0.0422454
0.29495
0.00129568
0.000175314
0.0815781
0.416658
0.414378
0.48694
0.0216726
0.0919696
0.0307564
0.454471
0.000266982
0.131262
0.000634066
0.000310665
0.215131
0.00106142
0.00665433
0.243232
0.0147317
7.83239e-05
0.0151302
0.000662093
7.79902e-05
0.00120889
0.26566
0.000596578
8.75225e-05
9.70932e-05
0.00323472
0.000128027
0.0661051
0.00191647
0.000940941
0.0263648
7.02751e-05
0.386681
0.0327577
0.235977
0.00144427
0.000226158
0.182154
0.00489257
0.198687
7.27278e-05
0.0141588
0.457436
0.339302
8.57745e-05
0.00109691
0.00765153
0.387918
0.420356
9.14719e-05
0.00221515
0.249652
0.0555706
0.357666
0.423468
0.000494456
0.0446271
0.000228433
0.000904242
9.78711e-05
0.00643789
0.154803
0.173313
7.58876e-05
0.000152385
8.03282e-05
0.000714014
0.0905841
0.0946933
8.50174e-05
9.47317e-05
6.94521e-05
0.103676
0.0187548
8.57149e-05
0.000420951
0.0216437
0.373969
0.0474422
9.43801e-05
0.365
0.273654
0.0225536
0.370399
8.74036e-05
0.257215
0.317783
0.373056
0.337757
0.212524
0.418755
0.106179
0.352842
0.000162348
7.04643e-05
8.90568e-05
0.0612721
7.89188e-05
0.0006607
0.391638
0.307188
0.000102072
0.370875
0.00109923
0.295634
0.381976
0.36358
0.0979615
0.106758
0.000231498
8.172e-05
0.0683725
0.0353426
0.000368817
0.000174329
0.00799257
8.05342e-05
9.50677e-05
0.144387
0.377723
0.0661852
0.285883
0.041324
9.19326e-05
8.71672e-05
0.0236556
0.00729848
7.99325e-05
0.000318221
0.392686
0.499607
6.73417e-05
0.430715
9.00473e-05
0.00289887
0.746386
0.000152739
8.94565e-05
0.000221921
6.66912e-05
8.9535e-05
0.127934
8.98768e-05
0.255477
7.03024e-05
0.445018
0.000284438
7.10584e-05
0.0195582
6.64505e-05
0.000111755
0.000103413
0.262519
0.0407483
0.0459689
0.00388432
0.00133596
0.00119615
6.65405e-05
0.121942
0.00334432
0.000100966
0.00167482
6.72756e-05
0.00832182
0.315814
0.00420788
0.00682129
0.022008
6.97894e-05
0.00721323
0.326128
0.00141721
0.44464
7.27403e-05
9.15489e-05
0.0145002
7.5361e-05
7.11807e-05
0.346635
9.42832e-05
0.0259397
0.00125249
0.066072
0.00215263
0.305644
0.0789236
9.00886e-05
0.115594
0.042289
0.0507627
0.207983
0.0412736
0.000108843
0.0611546
0.00922339
0.220119
6.65338e-05
0.0649642
0.00171414
0.000184815
0.000127081
9.83583e-05
0.406147
0.0905123
0.0514356
0.000363063
0.00037309
8.09482e-05
9.0885e-05
0.00012003
0.460453
0.106155
0.015826
0.369747
0.0217564
0.0317238
0.000595839
0.196489
0.00253029
9.59861e-05
0.396374
8.29506e-05
0.000167034
0.000113647
0.000219984
0.00120812
0.0450527
0.403606
0.102355
0.0262902
6.82775e-05
0.00157133
0.0550768
0.00134573
0.00133939
0.352998
8.69533e-05
0.027191
0.0632839
0.408175
0.000108868
0.23923
0.00155598
0.000102795
0.00146394
0.0800791
0.450058
0.000448467
0.000166723
0.000745231
0.0913768
0.00454402
0.245038
0.346449
0.420691
0.000114519
0.0959446
0.473712
0.00253867
0.0617113
0.0115496
0.000119533
0.0563674
0.000128256
0.00045552
0.1214
0.000113709
0.369913
0.313491
0.00242955
0.0001009
0.310462
0.000132737
9.87764e-05
0.00013552
7.39316e-05
0.000165541
0.133269
0.000123549
0.411891
0.0317884
0.0729017
0.000411676
0.000205961
0.11675
0.350054
0.00999281
7.52882e-05
0.000255353
0.000112196
0.000105917
0.000257442
0.00166803
0.0125514
0.00556798
0.000107995
0.170715
0.00147159
0.119085
0.105778
0.00385863
0.24975
0.0142713
0.469314
0.253798
0.00570241
0.000379736
0.463593
0.00933121
0.45575
0.00118348
0.00213321
0.0378018
0.426125
0.00135791
0.00498906
0.00415852
0.00578125
0.000101439
8.34827e-05
0.000159398
0.362426
0.4922
8.26565e-05
0.497828
0.00102337
0.415271
8.85223e-05
0.00117745
0.0824113
0.00764451
0.133393
0.000476628
9.13597e-05
0.019946
0.108946
0.372605
0.196728
6.75464e-05
0.145475
0.0308642
7.10595e-05
9.16232e-05
8.98679e-05
8.74598e-05
0.325666
0.000149782
0.147766
0.41964
0.000699041
0.451358
0.000116495
0.000639088
0.45837
0.493264
0.00420129
0.021127
0.49563
8.15356e-05
0.722612
0.022838
0.4221
8.44392e-05
8.90234e-05
0.446598
0.00103908
8.32595e-05
8.63206e-05
0.345935
0.153337
0.342904
0.000301094
0.00436658
1.42458
0.360388
0.309785
0.00194993
6.96352e-05
7.71534e-05
9.14675e-05
0.000292663
9.6796e-05
0.352388
0.00123258
0.000144285
0.000110826
0.00226277
8.37157e-05
7.34494e-05
0.276255
9.18625e-05
7.26049e-05
0.000173093
0.391753
0.000109173
0.30915
0.458902
0.499026
0.445073
0.00161095
0.200217
0.000435826
0.000169828
0.00708071
9.88771e-05
0.318872
0.000203015
0.298801
0.221877
0.240617
0.333611
0.0831729
0.00059028
0.00101918
0.0269189
0.00355907
0.000331121
0.010843
0.0477907
0.0888317
0.140557
0.111168
0.126659
7.88513e-05
0.000113678
0.122481
0.00142721
0.0741587
9.65564e-05
0.0304167
0.0402956
0.000508756
0.000109681
9.53317e-05
0.104642
0.000839124
0.139618
0.00141671
0.0416269
0.000156907
0.0324439
0.192501
0.0696843
0.000111082
0.0767842
0.000541192
0.00125861
0.000998398
0.000110456
0.00012455
0.00124655
0.00175131
0.00242412
0.409067
0.00148977
0.000430908
0.00129563
0.495892
0.483624
0.000555767
8.45779e-05
0.0160289
0.104934
0.413567
0.000194705
8.32015e-05
0.00103796
8.65773e-05
0.100036
0.478572
0.0035925
0.00105283
0.00111286
0.00091999
0.169711
0.377915
0.00139735
0.418476
0.325422
0.0141347
0.00239463
8.50058e-05
8.75781e-05
0.000143466
0.111869
0.180605
0.0243718
0.0548015
0.000296922
0.0134865
0.00164127
0.416615
0.333521
0.0604268
7.17939e-05
8.58432e-05
0.0492663
8.40977e-05
0.000182962
6.82489e-05
0.0199715
0.0699348
0.379108
0.000518312
0.238587
0.0585719
6.71033e-05
0.000425586
0.00155519
0.398657
0.133072
0.00950615
0.00131276
0.00111666
0.000168027
0.0015305
0.0424016
0.07478
0.00763221
0.000500362
0.350597
0.343082
9.61493e-05
0.00208642
0.39341
0.000110443
0.120576
0.000316279
0.000182552
0.000344619
0.0388863
0.000652426
0.144938
0.00100015
0.00016279
0.00182579
0.048971
0.496165
0.000436734
0.000217847
0.00101362
0.0859936
0.211694
0.00377087
0.000668562
0.103897
0.00157143
0.000887242
0.0384904
0.421048
0.00759479
0.000157921
0.353319
0.317117
0.000563049
0.00145293
0.000130613
0.000286425
0.000123039
0.3981
0.333879
0.0013621
0.000662243
0.000149089
0.00016341
0.000102071
0.000157965
8.33222e-05
0.0198424
8.92261e-05
0.0391859
0.000226155
0.425508
0.364101
8.44666e-05
0.0367171
0.00342468
0.0146225
6.74381e-05
7.98157e-05
0.000159388
0.000110253
0.109678
0.0043019
0.181611
0.400416
0.000837565
0.00324087
0.363017
0.183485
8.18387e-05
1.04214
8.80235e-05
0.0179162
0.000203507
6.6456e-05
9.5064e-05
8.81609e-05
0.297216
0.000216639
7.29771e-05
0.221555
0.14746
0.00147343
0.000233359
6.63976e-05
0.0499558
0.417123
0.000122574
0.000127912
0.120256
0.000273992
6.75293e-05
9.631e-05
6.64351e-05
0.421001
0.0498883
0.345731
0.0251068
0.000181658
0.231182
0.00109198
0.0388167
0.0497264
9.64456e-05
0.0287831
0.283945
0.111679
0.000519371
0.0268222
0.000593283
0.0252487
0.361376
9.73259e-05
0.00212807
0.00958675
8.21816e-05
0.00394296
0.00102741
0.0299633
0.000101556
9.70351e-05
0.000130689
0.0195161
7.3939e-05
0.058403
0.0168396
8.12151e-05
9.13846e-05
7.80005e-05
0.0507521
0.00277841
7.8191e-05
7.11546e-05
0.0276449
8.78558e-05
0.0238799
0.00047196
0.0786706
0.000199717
0.000147278
0.00477697
0.419017
0.000121672
0.289899
0.404192
0.329021
0.453956
0.000261056
8.47905e-05
0.000661642
0.00019058
0.0629854
0.0123858
0.300419
0.0224221
8.94926e-05
0.000120635
0.0452872
0.0123691
0.000110006
0.109181
8.86787e-05
0.0716768
0.00023867
0.000203392
0.00236168
0.00016211
0.364728
0.317567
0.0485618
0.0137734
0.296
0.00125747
0.0166497
0.000167229
0.0221541
9.45886e-05
0.0746805
0.000443821
0.00037307
0.131044
7.02218e-05
9.07077e-05
0.0758218
0.117893
0.0471507
7.03996e-05
6.87044e-05
8.91889e-05
0.00408009
0.000180708
0.0394846
0.000726901
0.414295
7.66613e-05
8.78915e-05
0.0171592
0.0444736
0.00708385
0.00198029
0.430535
0.306238
0.0857323
0.000123013
0.00032378
0.0390325
0.000973542
6.96675e-05
0.00266173
9.08583e-05
0.320593
9.22703e-05
0.022764
0.279543
0.190589
0.177285
0.000205174
0.0139391
0.00246373
0.000653523
8.707e-05
0.13273
0.000104577
0.158032
0.00450323
0.000119535
6.71074e-05
8.72264e-05
0.214136
7.48427e-05
6.77403e-05
0.476129
0.0288827
0.000649044
0.00969266
0.00488021
0.108443
7.3772e-05
0.0530644
0.301487
0.243369
0.0434717
0.00066711
6.78563e-05
9.61682e-05
0.0727811
8.78062e-05
0.000123825
7.43171e-05
0.00483634
8.9123e-05
0.000598978
0.0596461
0.184362
0.00126171
0.476717
0.00170371
0.460684
0.42878
0.254703
0.0239034
0.280695
0.156659
0.221751
0.000154354
0.0768547
0.000123247
0.0672833
7.79047e-05
0.00152158
0.273863
0.3235
0.00102838
8.73912e-05
0.00120648
0.373812
0.0467568
7.87054e-05
6.88176e-05
6.83545e-05
0.431749
0.471804
0.122524
0.35404
0.0394706
0.00433647
0.379166
0.445455
0.240801
0.0871802
0.000113436
0.0151373
0.000959843
0.371563
0.000480595
0.000132911
0.000123277
0.000216493
0.040094
9.53441e-05
0.000449626
0.000119107
0.000926785
0.125284
0.000333677
0.000150701
0.181519
0.0829538
6.69755e-05
0.0957959
0.00095214
0.00530811
0.00585654
0.304278
0.116421
0.045403
0.00332713
0.343914
0.221198
0.00200007
0.029904
0.216787
0.000760366
0.000871043
0.00117577
0.00117322
0.0885149
0.00110248
0.136081
0.0800352
0.165653
0.416062
0.000555448
0.000115034
0.0607331
0.0118005
6.87264e-05
8.66777e-05
0.000629125
0.00814007
0.0276935
0.00939198
0.414575
0.373044
0.0237388
0.00596182
0.000363922
9.55712e-05
0.00882812
0.259495
0.347025
8.58125e-05
0.00156597
0.316526
0.361276
6.80672e-05
0.189785
0.000945366
0.42879
9.03977e-05
8.054e-05
0.047289
0.0485804
0.0363228
0.00860697
0.298362
0.313273
0.000112331
0.385821
0.379178
0.379892
0.000958134
0.0640119
6.97099e-05
6.70212e-05
0.104984
8.40217e-05
7.41825e-05
0.000336637
6.7155e-05
0.123742
8.57763e-05
9.15536e-05
6.81832e-05
0.129604
0.186299
0.159472
0.442399
0.000110781
0.000118043
0.328186
9.48118e-05
0.397459
0.440401
0.378884
0.000802108
0.00223894
0.0215467
0.000537991
0.218197
0.426231
0.112981
0.000543984
0.0599878
0.00148304
0.000272436
8.04568e-05
0.0027328
0.0855265
0.0877886
0.00615488
9.03434e-05
8.15942e-05
0.000278036
0.43742
8.15462e-05
0.0250886
0.0257892
0.00012393
0.00369491
9.07059e-05
0.00183146
0.000112649
9.66749e-05
0.00117692
8.12846e-05
0.00213053
0.000695798
0.000129084
0.449938
9.50745e-05
0.000137404
9.21809e-05
0.00213832
0.282156
0.256068
0.000869377
7.11109e-05
0.000127185
8.9051e-05
9.57154e-05
0.000173372
0.37762
0.0258728
7.12484e-05
7.68444e-05
0.0261475
9.33117e-05
0.474628
0.00015564
0.000534705
0.00121798
8.97927e-05
0.000670396
0.433178
7.51119e-05
7.9356e-05
8.50276e-05
7.99181e-05
7.38323e-05
0.000154849
0.000764767
0.103024
0.000831184
0.00110353
0.0270512
0.326266
0.000745315
8.58935e-05
7.87176e-05
8.91906e-05
0.0420257
0.0820787
0.0124703
0.000284005
0.132732
0.0300606
0.0064296
9.48417e-05
0.268469
0.408767
0.648261
0.0789463
0.000995618
7.717e-05
6.78219e-05
0.249049
7.037e-05
0.00566432
0.0135507
0.156639
0.240453
0.00192753
0.426545
0.00141921
0.0059409
0.0006567
0.000104963
6.67515e-05
8.60326e-05
7.12048e-05
0.00331342
0.110257
0.00124834
0.000162128
9.1581e-05
0.00150768
0.107556
0.0171051
7.13339e-05
0.0002822
0.0484465
0.000800838
0.0514759
8.66711e-05
0.000778553
8.63282e-05
0.00118071
0.000790407
0.000241714
7.44856e-05
0.000997782
0.000702921
0.000956604
0.355088
0.000519265
0.000274666
0.000280549
0.000175506
0.056973
0.000503852
0.0334618
8.65804e-05
0.0172224
0.00258438
0.0190135
0.000509834
0.000715026
0.453566
0.0872775
0.0735214
0.0194986
0.178585
0.0590582
0.21955
9.13827e-05
0.000181701
0.369697
0.000109919
0.0410206
0.00010017
0.000180894
0.404906
0.000109669
0.0489871
0.000313495
0.000311483
0.000238688
0.0242122
9.43033e-05
0.0615328
0.4443
0.238747
0.36048
8.1009e-05
7.00789e-05
0.0385071
0.000102311
0.0266931
0.0385971
0.0556954
0.0434731
0.000229445
0.331013
0.368012
0.0378163
0.000171924
0.000187486
0.278949
0.0432444
0.00414137
0.171286
0.133032
0.320216
7.90683e-05
0.00780067
0.000103367
0.000179586
0.162457
0.193785
7.79336e-05
0.000236847
0.291064
0.000105746
0.000814498
0.161697
0.153137
7.27917e-05
0.000249072
0.000121683
0.336481
0.0337059
0.000115696
0.424851
8.27892e-05
0.000103265
8.17776e-05
0.000119522
7.65541e-05
8.0132e-05
7.21868e-05
9.45569e-05
0.0753921
0.460181
0.00121628
0.000116238
0.00161564
8.02732e-05
0.000254225
0.000938734
0.13678
8.91096e-05
9.38722e-05
0.343561
0.00156798
9.26982e-05
9.26801e-05
0.228364
0.00864648
6.71887e-05
8.42555e-05
8.51304e-05
0.429257
0.510709
0.254494
0.000199599
0.0706848
0.0495286
7.77849e-05
0.000597203
0.000183077
7.02265e-05
0.000233722
0.0256842
0.00142357
0.00169024
0.00484082
0.000150931
0.0240439
0.000214853
0.0336406
0.00159367
0.0192564
0.000271511
8.35978e-05
8.13228e-05
0.00146309
0.403721
9.29805e-05
8.79465e-05
0.425716
0.000221623
0.412413
0.000470099
9.64937e-05
0.172141
7.34507e-05
0.000249817
0.000349088
0.00388903
0.0001274
6.74349e-05
0.328232
8.5453e-05
6.69837e-05
0.0179481
0.00192523
8.05704e-05
0.000168282
0.0480985
0.00075242
7.43738e-05
0.367698
0.000233341
6.80703e-05
0.293751
0.00170511
0.00395173
0.0432601
0.00799986
0.368055
0.436769
0.0118028
0.00198767
0.000235795
8.36278e-05
0.328017
0.00128851
0.198462
0.000271746
0.402337
0.345322
0.278813
7.44755e-05
0.0203862
0.00389221
0.0280191
0.398947
0.00170444
9.21037e-05
0.000144578
0.230649
6.67234e-05
0.0393563
0.000633168
0.156566
0.000918427
0.0644287
0.000296931
0.000122206
0.00453487
8.83395e-05
0.00082168
0.296031
0.000130144
0.385727
0.411123
0.000568988
0.000205251
0.00121243
0.198047
0.00133274
0.0163599
0.250384
0.000966646
0.000221704
0.0169011
0.00010176
0.00085304
0.000289676
6.98982e-05
0.298163
0.000832298
0.0524301
0.00342372
9.37937e-05
8.0644e-05
0.00959048
0.000115981
0.000825456
0.00164103
9.84392e-05
6.65691e-05
0.000932652
0.0215442
8.38568e-05
0.515764
8.03211e-05
0.00538344
0.00321897
9.21585e-05
0.0164405
7.75948e-05
0.000117022
0.000394638
0.0890128
0.000137768
0.000148038
0.0366697
0.000156114
0.156509
0.155665
0.0272367
0.00313256
0.000150119
0.000342874
9.27789e-05
0.000366807
0.418239
0.000118453
0.00827693
0.00164971
0.0068369
0.000540902
9.94567e-05
8.39064e-05
0.000690194
0.00329682
0.409196
0.0412222
0.351629
0.18556
0.00144374
7.51854e-05
0.000684583
0.000454031
0.00015968
8.26461e-05
0.00541074
0.310242
0.0139979
0.000396637
0.000105505
0.0048375
8.84613e-05
7.99234e-05
0.00012926
0.000750109
0.00121188
0.501963
0.0176144
0.00959389
7.22827e-05
9.47157e-05
0.310052
0.000378267
0.333392
0.00586555
0.000379945
9.16556e-05
0.000304661
0.379813
0.407916
0.329169
0.00117941
9.80871e-05
0.000454053
0.00402894
8.94281e-05
0.000108988
0.000754957
7.47808e-05
0.000328523
0.000958972
0.000527255
0.000705138
0.000334959
0.00166911
0.066929
0.0418534
9.66832e-05
0.00038684
0.000383263
0.0005505
0.000110168
9.69449e-05
7.44024e-05
0.00376252
6.71616e-05
0.000135522
0.00527725
0.216694
8.6368e-05
0.23474
0.0574052
0.00112676
8.57656e-05
8.71312e-05
8.65113e-05
6.64207e-05
0.0822161
7.76151e-05
0.232429
8.68964e-05
0.423093
0.000165412
0.000376008
0.000635449
9.4498e-05
6.76647e-05
0.00011862
0.0434507
0.00069937
0.0014474
0.000579524
0.00244703
0.000177217
0.00168063
0.0562681
0.000910624
0.00126397
0.000289569
0.00290077
0.000468045
0.0106761
0.0962624
0.000107334
0.19088
0.00126669
0.346494
6.83055e-05
0.184321
0.0481416
0.0688197
0.000341022
0.313871
0.309676
0.0760291
0.11114
0.471499
0.000954683
0.000136469
8.44424e-05
0.000645507
0.00647569
7.42608e-05
0.00187687
0.000203343
0.000122853
6.65985e-05
0.257825
0.00416424
0.340372
0.220383
8.24176e-05
0.266762
6.77408e-05
0.361358
0.000231702
0.0012906
9.85226e-05
0.000132399
0.000629638
0.000171657
8.72648e-05
0.000158515
0.273621
9.06436e-05
0.0224813
0.0578675
0.055759
0.365431
0.0387436
0.345249
0.000102579
6.77941e-05
0.221474
6.64882e-05
6.89245e-05
0.000134564
0.000155972
0.0906183
0.0021827
0.0897264
0.00634973
0.00147353