/*--------------------------------*- C++ -*----------------------------------*\
| =========                 |                                                 |
| \\      /  F ield         | OpenFOAM: The Open Source CFD Toolbox           |
|  \\    /   O peration     | Version:  v2012                                 |
|   \\  /    A nd           | Website:  www.openfoam.com                      |
|    \\/     M anipulation  |                                                 |
\*---------------------------------------------------------------------------*/
FoamFile
{
    version     2.0;
    format      ascii;
    class       volScalarField;
    location    "0.997654";
    object      T;
}
// * * * * * * * * * * * * * * * * * * * * * * * * * * * * * * * * * * * * * //

dimensions      [0 0 0 1 0 0 0];


internalField   nonuniform List<scalar> 
353077
(
295.15
295.148
295.15
295.147
295.15
295.15
295.15
295.15
295.15
295.15
295.146
295.136
305.034
295.15
295.15
295.15
295.132
299.983
295.15
295.15
308.314
295.15
295.15
296.302
295.15
295.15
295.149
295.15
295.15
295.143
295.15
295.15
296.006
295.149
295.15
295.23
295.139
295.147
295.143
295.15
295.15
295.15
295.147
295.15
295.146
295.15
295.15
295.15
295.149
296.371
295.15
295.15
295.15
295.15
295.15
295.15
295.15
295.15
295.261
295.15
295.15
295.15
295.229
295.15
310.422
295.15
295.15
295.15
300.127
295.15
295.15
294.995
294.937
295.15
294.947
295.15
295.149
307.265
310.426
295.286
294.965
295.15
304.543
296.467
294.596
295.148
295.146
295.149
295.15
310.544
309.676
295.17
295.15
295.15
295.15
295.15
295.15
295.15
295.15
295.15
295.15
295.15
295.15
295.15
295.168
295.15
295.15
295.15
295.15
295.15
295.15
295.15
295.15
295.147
295.15
295.15
295.187
308.639
295.15
295.15
295.15
295.15
295.073
294.925
295.15
295.121
295.15
295.15
295.15
295.15
295.127
295.15
295.15
295.15
295.15
295.15
295.166
295.15
295.15
295.15
294.683
295.15
295.15
295.15
294.647
294.636
295.145
295.15
294.456
309.834
294.685
294.577
295.684
295.157
294.817
295.15
295.15
295.15
295.15
296.008
295.139
295.15
295.15
295.15
295.15
295.16
295.164
295.15
295.15
295.15
295.15
295.048
295.394
295.15
295.15
295.15
295.15
295.15
296.571
295.15
295.15
295.15
295.15
295.15
295.15
295.15
295.15
295.15
296.634
295.15
295.167
295.15
295.15
295.15
309.902
310.171
296.503
295.15
295.15
295.15
297.595
309.144
295.155
295.15
295.174
295.15
295.369
295.15
295.152
295.15
295.15
295.056
295.727
295.15
295.13
295.15
294.955
303.818
295.15
295.818
306.459
295.15
295.387
295.15
295.15
295.15
295.151
309.29
295.151
295.151
295.15
295.15
295.15
295.151
294.695
295.15
295.15
295.15
295.15
295.151
295.15
295.15
295.146
295.15
295.15
295.15
295.15
295.15
298.806
295.15
295.15
295.15
295.15
295.152
296.593
295.72
295.422
295.15
295.385
295.15
295.15
295.151
309.457
295.761
295.38
295.628
295.15
295.15
295.151
295.154
295.152
309.818
295.174
295.15
296.758
295.144
295.186
295.15
304.64
295.15
308.209
304.733
295.152
295.15
295.149
295.359
294.943
295.15
295.49
295.124
295.135
304.531
295.15
295.15
294.601
295.783
295.15
295.15
295.15
295.689
300.032
306.498
295.15
303.3
295.15
295.988
295.149
296.234
295.145
295.627
295.15
295.15
295.15
295.15
308.409
309.978
295.558
309.879
295.302
295.151
310.275
295.15
309.931
295.153
295.15
311.062
294.57
295.207
295.358
295.206
295.354
295.318
295.118
294.656
308.896
294.364
297.979
295.15
294.828
310.15
295.036
295.15
295.349
294.127
295.387
294.394
295.15
295.271
295.15
295.15
295.15
295.472
307.886
295.209
310.019
295.15
295.149
295.15
295.221
295.501
295.206
295.145
303.668
295.137
295.484
297.927
295.15
294.765
295.15
297.272
295.149
307.308
308.765
310.031
295.15
295.15
295.15
295.15
295.15
295.15
295.15
295.151
295.15
295.153
295.159
295.155
295.15
295.139
295.276
309.18
295.15
295.15
295.15
294.224
294.939
295.815
307.801
295.15
297.239
295.15
295.15
297.105
295.15
295.15
293.852
295.395
295.15
295.15
295.15
295.568
295.159
295.145
295.15
295.15
295.15
300.356
295.15
295.158
295.15
309.383
295.15
310.87
295.188
295.15
295.15
295.15
295.15
302.763
307.843
309.958
295.145
304.031
295.15
295.196
310.087
295.141
295.15
307.009
295.223
304.521
295.099
295.154
294.355
294.968
295.15
295.15
295.202
294.897
295.197
294.984
295.15
295.132
298.757
294.889
295.15
295.15
306.635
295.158
295.15
309.658
300.715
295.138
294.572
309.836
295.216
295.31
295.299
295.15
295.15
295.15
295.393
295.187
295.15
295.38
295.327
295.503
295.15
295.143
295.15
295.27
295.15
295.157
295.149
295.15
295.149
295.15
295.866
295.149
295.15
306.915
295.15
295.148
295.149
295.15
310.732
295.15
295.263
307.612
295.156
295.15
295.153
295.14
295.15
310.191
304.366
295.064
295.15
295.098
295.142
294.686
307.469
295.15
307.995
295.15
295.15
310.33
310.335
295.15
295.147
295.143
295.144
295.009
295.154
303.043
295.15
310.427
295.15
307.002
295.15
295.15
295.151
295.15
295.15
309.03
295.15
295.15
295.146
295.139
295.138
295.15
295.158
294.523
295.168
295.171
295.15
295.15
295.158
301.869
295.973
295.15
299.907
295.15
295.15
296.971
294.938
295.15
294.788
310.883
295.149
309.163
295.153
302.527
295.147
295.15
295.15
295.15
310.422
294.729
294.799
295.308
307.969
295.15
295.15
295.15
310.129
295.15
295.15
295.15
296.016
295.14
295.15
295.15
302.337
295.145
295.149
295.147
295.15
307.562
294.973
304.538
295.15
295.254
295.113
306.758
295.15
295.15
294.507
295.148
295.136
295.15
295.15
295.298
295.149
295.148
295.14
294.541
304.013
310.009
309.974
295.15
295.039
295.146
304.078
309.564
295.155
295.107
295.15
295.15
295.147
309.939
306.482
295.121
295.15
295.147
295.149
295.15
310.103
300.318
295.059
294.885
295.15
295.149
309.299
295.15
306.469
295.093
295.15
295.139
309.503
295.15
295.15
295.15
310.014
295.149
295.15
295.176
295.15
295.15
295.137
295.151
295.313
295.15
295.15
295.15
295.149
295.15
295.15
295.151
300.358
295.15
295.277
295.15
295.15
295.15
308.784
295.15
295.149
304.638
295.15
295.141
295.15
295.263
295.15
310.401
295.15
295.143
295.148
295.138
295.15
295.15
295.134
307.196
295.11
295.15
310.098
295.147
296.716
295.15
294.506
295.149
295.15
295.15
303.416
295.15
295.15
295.15
295.133
302.166
295.596
295.15
295.149
295.002
295.136
295.137
294.94
295.15
295.148
295.551
295.114
295.228
294.991
295.148
295.147
294.439
310.072
295.148
310.309
294.782
295.078
295.15
306.827
307.28
304.261
295.145
295.15
295.153
294.472
295.163
295.039
307.327
295.15
295.154
295.147
295.501
295.271
305.49
295.146
303.989
308.354
295.15
295.149
295.15
295.15
311.131
295.143
310.128
310.422
309.855
295.146
295.15
295.111
296.598
295.162
295.15
295.15
295.15
295.15
310.561
295.532
295.15
302.626
295.272
295.129
295.054
295.15
295.15
306.128
295.15
295.15
295.15
295.15
296.229
295.15
302.402
296.646
295.15
295.258
295.15
295.119
309.839
295.071
294.994
309.885
306.247
295.025
295.027
296.129
295.03
294.951
295.029
295.15
295.15
308.885
295.15
295.067
295.15
296.312
295.15
295.15
295.145
308.91
294.546
295.15
295.15
310.565
309.248
295.15
295.15
297.144
295.15
310.373
295.15
295.15
304.249
295.15
295.15
310.855
295.15
295.15
295.15
295.15
295.071
295.179
295.189
295.15
295.15
295.15
304.646
296.935
295.15
305.442
295.085
302.702
303.915
295.15
295.152
295.15
310.334
295.15
295.196
295.151
310.658
308.669
306.972
309.563
295.177
295.16
295.15
298.787
310.973
295.071
295.145
295.15
295.229
295.15
295.15
295.15
295.216
295.155
295.17
310.48
295.153
309.068
309.874
295.15
295.15
308.685
295.15
295.13
295.146
304.471
299.097
295.15
310.719
295.144
295.137
310.95
295.157
295.145
295.15
295.15
295.153
295.153
308.857
295.15
295.15
295.15
295.15
309.206
309.446
295.15
297.71
295.152
310.303
295.15
294.801
295.15
295.093
295.15
295.158
295.15
295.151
295.008
295.155
295.149
295.15
295.156
309.806
310.36
306.881
309.715
294.897
294.948
310.921
295.15
295.15
305.172
303.122
311.102
298.125
295.149
295.241
295.365
295.371
300.845
294.744
295.15
295.216
295.184
295.15
310.019
295.155
309.899
310.855
295.15
294.885
295.15
295.153
295.161
300.455
310.657
310.901
295.144
295.15
308.995
310.601
294.774
295.15
297.224
295.139
295.15
295.15
295.111
295.111
295.15
295.15
295.15
295.148
310.949
310.581
307.328
295.15
295.15
310.773
309.126
295.15
311.044
310.865
295.15
310.124
295.15
295.15
301.433
295.15
295.158
295.149
295.15
295.15
295.15
294.852
295.15
295.15
295.995
295.147
295.158
310.71
304.701
295.15
295.15
295.15
304.821
300.405
310.78
295.15
296.966
295.148
295.645
309.829
296.373
305.445
294.709
309.142
310.372
310.562
295.142
295.15
303.393
304.559
295.144
295.149
295.143
295.142
310.139
295.148
310.41
310.215
295.15
295.148
295.15
295.149
310.58
295.147
295.161
303.749
295.602
303.212
295.15
305.555
295.14
295.134
295.149
310.963
295.354
295.148
304.266
295.151
295.149
309.567
295.15
310.703
295.151
295.148
295.147
295.15
295.15
306.009
295.15
295.123
295.142
306.315
295.144
295.15
295.15
303.408
309.4
295.15
310.835
295.149
310.654
295.087
295.15
295.081
295.15
295.149
295.107
307.81
295.202
295.15
310.518
295.147
295.149
295.15
295.143
295.15
295.15
295.15
295.14
304.546
295.15
310.989
295.149
295.15
295.15
295.144
295.146
295.15
295.15
295.173
295.15
310.903
295.15
295.133
295.15
295.167
295.15
295.149
304.875
295.15
310.396
295.15
295.055
300.056
295.15
295.15
310.445
295.15
295.15
295.142
309.66
310.508
295.15
295.15
294.233
295.152
309.529
310.303
309.567
308.586
302.902
310.224
295.15
295.14
310.34
306.331
295.148
295.15
295.15
295.148
295.146
304.073
304.207
295.15
295.149
295.15
295.146
295.15
310.466
295.15
303.512
295.15
310.704
295.15
295.15
310.591
295.15
295.149
295.148
295.15
295.15
310.083
306.399
305.565
311.003
295.15
301.612
295.151
295.15
309.849
295.15
295.126
295.15
295.149
308.207
295.15
301.548
309.404
295.15
295.15
307.641
295.15
295.15
295.15
294.939
295.15
295.15
295.153
309.712
295.151
295.15
296.446
295.151
295.15
295.143
309.25
295.15
295.147
295.15
295.007
295.148
295.15
295.147
295.126
295.613
310.099
295.15
295.196
309.563
295.15
299.504
295.14
294.995
295.15
310.279
295.144
295.15
303.52
309.618
295.15
295.15
295.15
310.149
310.736
295.141
295.141
295.202
295.149
303.042
295.15
295.165
309.389
310.205
302.029
295.147
310.142
304.397
310.119
295.149
310.42
295.15
295.151
295.152
295.15
295.15
296.832
304.106
295.153
303.726
295.108
301.558
308.324
295.258
295.149
302.735
309.997
310.307
310.641
301.488
295.147
298.672
310.524
295.145
302.243
295.15
295.139
295.073
295.128
295.014
309.592
295.067
295.15
295.15
295.151
295.15
295.15
306.745
295.15
295.15
295.15
295.282
295.534
294.956
295.15
295.055
295.15
295.15
310.056
295.15
305.309
295.043
295.165
295.144
295.581
305.589
295.15
295.15
310.543
310.097
295.15
295.079
295.783
310.546
309.809
295.15
295.15
307.821
295.15
310.589
309.875
295.234
295.15
295.15
295.119
295.15
295.143
303.572
304.835
295.15
295.15
295.15
295.149
295.141
301.223
295.15
295.15
295.15
301.734
295.142
295.15
295.15
295.128
309.382
301.534
295.15
310.595
307.276
295.15
309.899
295.15
308.103
309.56
308.846
309.981
305.722
309.525
304.575
310.509
295.15
295.15
295.15
304.193
295.15
295.192
310.153
310.086
295.152
309.238
295.234
309.809
310.53
309.081
294.859
295.15
295.15
295.15
294.968
302.166
295.15
295.15
295.14
295.15
295.15
294.39
308.983
295.15
295.15
294.917
295.15
295.15
295.142
295.148
295.15
295.192
310.111
311.055
295.15
310.507
295.15
295.043
295.149
295.15
295.15
295.15
295.15
295.15
304.553
295.15
295.141
295.15
310.849
295.15
295.15
295.15
295.15
295.15
295.15
310.636
295.084
295.154
295.146
295.134
295.164
295.15
302.472
295.144
295.15
295.266
295.15
295.14
307.682
295.15
295.612
295.15
295.15
295.138
311.005
295.15
310.403
295.15
295.15
295.122
295.15
295.15
310.318
295.15
295.145
295.067
295.142
295.147
310.612
295.147
295.15
301.668
295.142
295.139
305.717
300.088
295.15
294.691
295.143
305.634
295.15
295.124
295.244
295.16
295.15
295.15
310.387
295.144
299.453
295.179
295.137
295.15
295.15
295.15
310.942
302.591
296.286
310.169
295.124
298.562
295.149
295.127
295.103
295.15
310.243
295.15
295.15
295.15
295.15
295.319
300.853
310.161
303.841
298.652
295.15
295.04
295.15
295.05
295.027
309.799
295.15
300.593
299.485
310.436
295.15
305.418
295.29
295.146
295.042
303.833
310.575
295.149
295.253
295.148
295.148
295.15
295.143
295.148
310.204
295.15
301.139
310.225
295.15
295.135
295.099
295.15
299.313
295.15
295.153
295.101
295.15
310.238
309.998
295.193
295.15
310.249
295.15
295.15
295.15
295.15
295.15
303.14
295.152
309.85
295.151
295.111
295.193
295.15
295.097
308.69
296.372
295.15
295.15
295.15
295.15
295.148
294.398
295.147
296.355
295.161
305.897
294.495
303.014
295.071
295.15
306.269
295.105
310.98
295.144
295.144
295.149
295.152
296.304
310.605
294.838
295.148
294.929
310.66
294.954
294.887
295.148
295.147
295.15
295.15
295.157
309.614
310.51
295.15
311.033
295.15
310.461
295.15
295.019
295.15
295.15
295.15
295.146
295.15
294.895
295.074
310.219
310.048
295.15
295.139
295.138
295.15
295.15
295.15
295.15
308.355
295.15
303.002
309.627
295.195
310.897
295.176
295.18
310.831
310.859
295.149
294.696
310.81
295.15
295.127
295.1
310.465
295.15
295.15
310.645
295.131
295.15
295.15
309.582
295.135
309.579
299.13
295.046
295.148
310.263
307.314
295.034
295.15
295.15
295.15
295.148
295.15
308.925
295.15
295.15
295.15
295.079
295.15
295.15
306.898
295.15
295.15
297.582
310.399
295.15
295.138
310.732
310.851
295.089
295.017
295.138
295.103
295.155
295.146
295.15
309.809
295.131
310.498
305.815
295.053
308.203
300.915
295.081
295.062
295.15
295.167
295.15
296.102
295.15
303.706
295.126
302.822
303.228
295.15
295.145
304.951
295.15
304.153
295.15
302.175
295.069
295.15
295.143
295.15
300.579
295.135
310.165
295.139
302.212
295.157
302.105
305.481
295.138
295.149
303.883
295.136
295.126
295.127
295.15
295.149
295.036
295.283
295.094
309.286
294.913
295.15
295.018
310.75
311.066
295.15
295.15
294.726
295.256
310.822
295.15
295.15
295.02
295.15
307.636
310.817
295.168
295.147
295.021
295.15
310.104
309.306
294.678
309.749
309.014
295.079
294.947
295.15
295.15
295.155
305.764
310.298
303.806
294.752
295.15
294.825
295.149
310.33
308.205
294.931
295.15
295.15
295.146
295.15
295.127
295.15
294.731
295.141
309.228
295.15
306.999
295.246
295.15
295.15
294.961
310.485
295.137
295.026
295.016
295.056
295.141
294.986
295.055
295.113
295.001
295.058
308.36
309.124
295.177
295.017
309.811
295.149
295.105
295.132
295.147
295.101
295.011
295.15
303.484
295.103
295.154
295.148
298.76
294.817
295.147
295.15
294.845
301.945
308.034
295.447
294.889
295.186
295.009
295.139
295.132
310.955
295.002
295.15
308.646
307.703
295.15
295.15
295.15
295.118
295.15
310.13
308.505
295.146
295.15
295.15
295.15
295.15
295.15
295.15
295.141
295.15
295.138
295.142
310.11
309.887
295.15
294.989
294.718
295.131
295.15
295.15
295.135
295.147
294.509
294.403
303.713
310.035
295.15
294.713
309.569
295.147
295.151
295.078
295.15
298.774
295.15
295.15
295.15
295.149
310.246
295.146
295.15
306.054
304.062
295.155
295.145
295.15
295.136
310.194
295.15
295.152
295.146
295.468
295.15
295.15
295.15
311.049
295.147
310.594
295.124
295.149
306.39
295.147
295.15
303.688
295.15
295.129
310.427
295.142
295.15
302.752
295.15
295.144
310.5
295.15
295.313
295.146
295.15
295.128
295.15
295.144
295.15
295.15
295.15
294.845
295.15
295.127
295.146
295.15
295.15
295.15
298.609
295.132
295.15
295.15
298.655
295.15
298.157
295.469
300.839
295.141
295.15
294.646
310.986
295.15
295.051
310.458
310.316
310.75
295.111
295.15
295.15
295.115
295.15
294.906
307.569
295.142
295.177
295.144
298.426
294.881
295.152
295.16
295.15
295.156
295.133
295.15
295.154
295.151
308.512
308.946
299.469
297.473
310.357
295.243
298.832
295.132
299.388
295.15
295.143
295.15
295.15
307.095
295.15
295.15
295.137
295.064
295.139
295.15
295.15
295.15
295.142
295.156
301.002
295.136
310.086
295.15
295.15
295.149
295.16
295.061
294.498
310.089
310.287
301.227
295.15
295.15
293.93
295.15
295.15
295.15
295.15
309.77
295.15
295.149
308.62
304.423
310.448
295.15
295.148
295.15
295.169
295.15
303.738
295.15
305.938
295.14
295.15
295.15
295.15
305.696
295.15
295.15
310.47
295.149
295.15
295.15
294.129
295.099
295.15
295.149
308.281
307.564
295.148
295.15
295.15
295.15
302.429
295.15
295.151
295.15
295.151
295.15
295.15
295.14
310.494
295.15
310.509
295.15
310.759
309.729
306.173
294.921
309.021
295.142
306.664
295.15
304.027
295.153
295.172
295.15
295.18
310.563
295.037
295.193
295.15
295.188
308.843
295.134
295.15
295.15
295.15
310.212
311.069
306.558
309.19
295.127
293.403
310.752
310.698
306.725
302.918
295.148
295.135
294.984
309.398
295.21
295.15
295.15
295.15
295.163
295.15
295.138
295.15
294.897
302.345
295.15
295.15
303.472
294.878
295.15
295.15
295.028
295.145
295.137
309.516
301.931
295.138
295.22
309.124
294.726
294.966
295.143
306.362
295.007
295.15
294.994
295.138
295.145
295.15
304.193
303.173
295.143
309.551
295.15
295.15
295.143
294.426
295.15
295.15
295.15
295.1
297.157
294.841
310.728
309.144
294.937
295.061
295.149
295.15
295.116
308.476
310.68
295.15
295.288
308.977
308.872
295.15
295.138
295.15
309.914
295.15
295.15
294.895
295.131
295.161
295.149
310.486
308.481
295.15
310.214
309.929
310.335
295.147
295.15
295.15
295.15
306.396
295.15
295.15
295.15
295.15
310.231
295.15
295.15
295.15
303.81
309.016
304.17
310.856
295.15
295.15
308.943
295.15
309.199
310.55
309.116
295.15
295.161
303.745
295.15
306.654
310.708
305.653
295.15
304.792
295.055
295.394
295.15
295.164
295.021
300.952
295.266
295.15
295.15
295.166
310.786
295.15
295.15
295.144
295.15
295.116
295.15
295.149
295.345
295.15
295.25
295.15
295.353
295.026
295.15
310.296
295.15
296.005
295.15
295.16
295.128
295.15
295.15
295.15
295.15
295.15
295.15
295.15
309.358
294.937
295.15
295.15
295.15
295.15
310.419
295.15
295.956
295.148
295.15
295.104
310.793
295.15
295.15
295.15
295.15
295.15
295.15
295.147
294.688
295.15
295.236
295.15
308.696
295.15
295.15
295.15
295.15
302.208
303.232
295.138
295.169
304.825
302.096
295.15
295.151
307.144
309.698
295.149
303.443
295.089
295.15
295.15
295.15
295.15
294.994
295.15
309.56
309.772
295.15
310.9
295.149
295.149
295.15
295.15
295.15
295.15
295.15
295.15
295.042
295.053
295.167
295.15
295.379
295.141
296.34
295.15
295.15
295.145
295.149
295.164
295.15
295.149
295.15
295.155
295.149
295.15
295.15
295.149
295.23
295.148
308.934
295.109
295.15
295.15
295.183
298.917
295.113
295.15
295.149
295.15
295.375
295.15
295.136
295.068
310.312
305.204
304.916
303.73
295.146
304.674
307.69
295.15
295.461
310.127
295.158
304.28
295.15
295.15
309.722
295.15
295.14
296.477
295.15
295.15
295.15
295.15
295.133
310.567
307.248
309.455
295.15
295.15
295.104
295.15
295.149
295.15
295.15
295.125
295.15
308.083
310.658
295.143
297.268
297.324
309.575
295.15
295.151
306.69
295.142
310.35
295.15
295.215
295.152
295.151
295.148
305.343
295.15
295.15
311.128
295.183
295.15
303.468
295.136
295.15
295.15
295.15
295.162
295.152
295.15
310.545
295.15
295.278
295.15
295.15
295.15
295.15
295.15
295.15
295.147
310.292
295.234
295.15
295.156
295.15
295.47
295.15
295.149
295.15
295.15
308.646
295.15
295.15
295.15
308.143
295.152
295.15
295.15
295.15
310.375
311.06
295.15
295.159
295.15
295.149
295.15
295.15
295.15
295.15
295.15
296.916
295.254
296.175
295.141
295.15
295.136
295.15
295.084
295.399
297.684
295.15
295.15
295.15
295.1
309.869
295.15
295.15
295.15
295.15
295.15
295.15
295.15
305.441
295.15
295.15
295.138
295.147
295.15
295.15
295.215
295.15
295.15
295.144
295.15
295.15
295.15
299.293
295.15
295.15
309.406
295.148
295.15
309.833
295.077
295.15
295.036
295.191
310.144
310.66
295.114
295.15
295.18
295.15
311.193
295.15
295.157
295.152
309.64
310.166
309.79
295.15
295.149
295.454
295.13
310.082
295.149
295.15
295.159
305.876
295.15
295.15
295.148
304.719
295.149
295.147
295.15
295.15
295.15
295.15
295.149
295.147
296.029
309.316
309.514
295.149
295.29
295.15
295.137
295.15
295.142
305.86
295.146
295.479
294.86
295.15
295.146
295.118
295.15
310.455
295.15
295.175
295.095
295.15
295.15
295.15
295.15
295.15
295.15
295.15
295.15
295.15
295.15
295.15
295.147
295.15
294.615
295.129
295.15
295.207
295.15
295.151
295.176
301.086
295.15
295.153
295.202
295.15
295.157
295.211
295.152
295.148
295.15
295.15
295.151
295.15
310.262
295.15
295.145
295.138
295.117
295.149
295.15
295.15
295.091
294.973
309.68
295.151
310.521
295.149
295.089
295.15
295.092
295.116
295.15
295.15
294.219
308.982
295.113
295.15
295.15
295.15
295.15
295.15
295.15
295.15
295.15
311.025
295.15
295.065
295.15
295.15
308.005
295.15
310.545
295.137
295.15
295.152
295.123
309.968
310.427
308.458
295.011
295.15
295.15
295.127
295.15
295.15
295.15
295.15
295.149
295.15
295.188
295.15
295.15
295.13
300.328
301.918
295.15
295.772
295.15
295.154
295.152
295.15
295.15
295.15
295.15
295.151
295.15
305.458
295.15
306.289
295.137
295.446
295.15
295.15
295.15
295.15
304.067
295.15
307.447
295.15
310.363
295.15
295.15
295.15
295.145
295.15
295.153
304.11
295.15
295.123
295.15
295.115
295.143
295.15
304.164
295.15
295.047
295.15
294.943
295.149
295.845
295.149
295.194
294.657
295.056
295.095
295.15
304.585
295.149
295.143
295.15
308.354
307.454
294.944
295.15
310.558
295.216
295.152
295.15
295.066
295.647
295.15
295.15
295.15
295.15
295.15
295.084
295.08
309.612
306.807
295.151
307.965
295.15
309.283
295.165
295.15
295.15
295.187
295.149
295.148
295.15
295.144
310.646
295.148
295.13
295.137
299.038
309.924
295.123
310.748
295.15
295.15
307.592
295.15
295.15
295.15
295.132
295.123
295.458
295.12
295.02
295.145
310.28
295.125
295.346
296.596
294.308
295.159
295.076
295.084
295.15
295.148
295.151
295.15
295.15
309.147
308.987
309.306
300.402
295.154
310.811
295.078
306.922
295.148
295.15
295.146
295.144
295.15
295.145
295.122
310.314
302.345
295.15
295.05
295.141
295.134
295.15
307.839
295.15
295.15
295.15
309.841
310.415
295.148
295.149
295.237
295.15
295.049
295.15
295.131
295.151
295.15
295.15
295.007
295.146
310.549
295.15
295.15
303.007
295.148
304.473
309.37
309.355
295.147
295.15
295.08
295.15
309.394
309.769
295.15
295.138
295.15
295.15
309.885
295.15
308.598
309.8
302.968
295.132
294.951
295.222
295.15
295.142
308.737
295.15
294.892
295.15
295.083
295.15
294.915
304.612
295.15
295.15
295.15
295.15
295.15
295.256
297.482
295.15
295.15
295.147
296.809
308.096
295.15
295.15
295.15
295.15
295.15
295.145
295.148
295.15
295.15
310.785
309.906
295.15
295.15
295.15
295.15
295.15
295.15
296.68
308.907
310.984
295.15
295.15
295.154
294.674
295.145
295.15
309.049
299.425
310.392
295.15
295.15
295.148
295.452
295.15
295.117
295.143
295.15
295.15
294.832
295.15
295.15
302.665
295.134
294.913
295.15
295.119
310.65
309.536
295.075
308.59
295.143
295.15
295.15
310.061
304.48
295.148
295.092
308.793
295.15
295.147
295.15
295.174
295.184
295.15
295.15
295.15
295.15
295.147
295.15
295.15
295.149
295.149
295.15
295.141
295.841
295.155
295.15
295.15
295.15
295.147
307.181
295.15
295.163
295.15
304.974
295.152
295.151
294.999
295.15
295.148
295.137
295.15
295.148
295.15
295.151
295.15
295.15
295.15
295.15
294.889
295.15
295.156
295.15
295.15
295.144
295.15
295.15
295.15
295.048
295.15
295.15
295.15
295.135
295.149
295.15
295.14
295.15
295.15
303.926
295.147
302.547
295.15
295.132
295.15
295.153
295.15
295.132
295.15
295.103
295.15
295.15
303.858
295.15
295.15
295.15
295.15
295.15
295.15
295.15
295.138
295.145
295.15
295.15
295.15
295.15
295.15
295.15
296.249
295.132
295.072
309.385
295.139
295.15
295.15
295.15
304.212
305.646
295.146
295.141
295.15
307.914
295.15
310.427
295.15
295.15
295.15
303.097
295.15
295.15
310.249
310.698
295.155
310.025
295.18
295.15
300.888
295.15
295.135
295.15
295.151
295.148
303.755
302.422
295.15
307.144
295.15
311.243
295.13
295.15
295.15
295.459
294.702
301.289
295.146
295.391
295.163
295.144
307.334
295.749
310.629
310.161
295.15
295.15
310.309
295.148
300.531
295.223
307.882
295.15
295.15
295.126
295.146
295.15
310.206
302.051
305.591
295.134
295.141
300.401
295.196
295.15
295.15
295.15
295.15
295.151
295.132
295.15
295.15
310.906
295.15
295.135
310.197
295.15
295.14
295.153
295.004
310.088
310.38
307.747
310.567
295.15
295.35
309.895
295.15
295.15
295.15
295.15
310.115
307.743
307.749
295.071
295.15
299.513
310.891
295.011
301.68
300.914
295.15
295.15
295.15
298.078
301.961
311.122
295.151
295.14
295.15
295.146
304.738
295.15
304.842
309.866
295.14
295.341
302.369
295.162
295.15
295.176
295.15
295.12
295.289
305.9
310.173
295.146
307.908
295.15
303.434
295.15
295.149
306.525
310.593
295.433
308.865
297.379
295.666
295.15
295.146
295.15
296.741
295.497
309.421
302.44
303.475
295.383
305.171
295.15
301.342
310.74
310.373
295.15
308.255
295.15
295.15
295.136
295.15
304.89
295.104
295.218
295.15
295.09
295.088
295.15
310.613
295.15
310.053
295.146
295.1
296.459
295.15
295.15
309.2
295.15
295.304
295.15
295.15
295.15
295.15
295.15
295.15
295.452
295.15
295.15
310.616
295.15
295.15
295.15
307.724
295.172
295.169
295.15
295.15
303.657
295.15
309.626
295.149
295.15
295.12
295.15
299.681
295.15
304.775
295.15
295.137
295.15
295.15
295.15
308.522
295.15
295.15
295.15
307.541
295.15
295.15
295.15
295.15
297.889
295.15
295.15
295.15
295.133
295.15
310.127
295.15
309.603
295.133
295.148
295.135
295.141
295.134
295.15
295.15
295.15
295.15
295.15
295.141
295.138
295.15
295.15
295.135
295.15
295.15
295.15
295.15
295.15
295.15
295.087
303.38
295.15
301.858
297.365
308.138
295.15
300.149
305.571
295.149
295.116
297.119
303.099
303.973
295.144
294.749
309.765
294.31
309.498
295.149
295.018
295.15
295.15
310.886
294.72
295.15
295.15
295.168
295.15
311.107
295.15
295.15
295.141
306.597
295.15
295.15
306.657
304.488
295.15
297.899
295.15
295.15
295.141
295.15
295.147
295.15
295.15
295.097
294.813
295.249
295.15
295.15
295.12
295.15
295.15
295.15
295.15
295.15
295.15
295.15
309.888
295.15
295.15
306.633
295.129
295.15
295.056
295.15
295.15
308.128
295.15
295.15
310.063
295.05
295.15
310.038
309.936
295.161
295.124
295.15
310.719
295.15
295.155
295.15
295.15
310.994
295.15
310.114
295.15
295.15
308.5
295.15
310.621
295.15
295.036
295.15
295.04
295.144
308.334
295.127
299.925
301.226
295.15
295.15
310.955
305.182
295.15
309.233
295.15
305.5
295.15
310.488
310.187
310.753
295.15
295.15
297.744
297.291
295.139
295.147
295.15
295.15
308.403
309.831
300.115
300.712
295.088
309.254
295.15
305.473
295.15
295.091
300.034
304.653
311.146
309.474
308.67
295.15
294.763
295.15
295.15
310.279
295.145
310.179
310.341
295.15
310.382
309.699
295.15
295.053
310.796
295.391
296.747
295.15
295.15
309.575
295.149
297.134
294.56
294.656
305.268
310.686
294.492
294.618
301.629
309.359
310.392
304.894
295.032
294.61
295.148
293.529
295.128
294.507
295.145
294.489
300.49
295.026
295.351
295.15
310.572
300.076
295.089
295.153
299.756
295.15
295.14
295.15
309.009
306.924
309.729
309.82
310.105
295.15
295.15
305.501
295.086
295.15
295.15
301.197
295.13
310.823
309.475
295.146
295.15
303.092
295.15
295.036
295.119
309.762
295.15
295.149
295.047
295.149
295.147
311.019
295.15
310.345
296.88
295.16
295.219
300.187
295.15
294.931
295.15
295.15
295.423
295.15
295.156
310.681
295.15
308.708
295.15
295.145
295.15
295.15
295.378
295.15
295.15
304.149
295.15
295.15
295.15
295.145
295.15
295.15
296.832
307.117
300.161
295.15
295.147
295.15
309.45
295.15
295.15
295.149
295.15
295.15
295.15
309.982
295.15
295.156
295.15
295.15
295.15
309.992
302.592
295.15
295.15
309.836
307.221
310.254
310.054
309.855
310.692
296.594
309.439
295.15
295.15
295.124
310.443
295.076
295.143
302.537
295.15
295.15
295.153
295.15
295.344
295.15
293.453
303.57
295.15
303.219
295.139
295.15
295.15
295.15
310.198
295.146
295.15
295.15
295.155
295.15
295.148
295.148
295.146
295.141
295.15
295.149
295.15
295.135
295.15
295.15
295.15
295.141
305.186
295.127
295.297
309.585
309.989
295.173
295.144
300.439
295.248
295.15
295.15
295.15
295.162
295.139
295.145
295.15
310.107
295.15
295.128
310.371
295.15
300.315
295.131
295.15
295.15
309.448
295.15
295.15
295.152
295.15
305.433
310.723
295.15
309.88
295.15
295.126
295.15
295.148
310.944
295.15
295.15
295.15
295.143
310.365
295.15
295.15
295.15
295.134
309.217
297.98
295.15
310.548
295.15
295.15
296.152
309.707
295.147
295.15
310.53
295.15
296.701
295.045
310.158
308.806
295.15
295.129
295.147
295.15
295.094
295.15
295.126
295.16
295.423
295.142
295.189
295.15
295.15
306.077
309.596
310.201
295.15
309.748
310.611
295.482
310.025
295.148
310.523
295.15
295.15
295.138
295.15
309.545
306.106
295.15
295.01
295.15
295.15
310.542
295.15
295.145
295.15
295.148
295.146
295.15
295.154
295.13
295.15
294.37
295.141
295.145
295.15
295.13
295.073
295.089
294.386
295.15
295.151
295.15
295.094
310.962
309.155
295.15
295.15
310.194
295.132
294.901
298.476
295.149
295.15
308.856
295.142
295.15
309.502
295.137
297.924
295.155
295.124
295.148
295.15
306.227
298.617
295.15
295.15
295.113
295.094
293.717
295.15
310.353
295.149
293.973
295.116
295.139
295.129
295.115
295.039
309.691
295.15
295.151
295.148
295.147
294.621
295.15
295.072
295.15
295.15
295.15
295.065
295.17
295.083
295.049
309.552
305.066
295.15
295.15
295.149
295.15
295.15
295.154
295.09
295.108
304.964
295.147
295.146
295.055
295.104
295.13
295.037
294.973
295.15
295.033
295.073
295.162
295.15
295.15
295.147
295.15
295.144
303.257
296.593
295.144
295.145
310.224
311.013
309.973
295.15
295.145
295.15
295.15
295.139
295.15
295.15
295.146
295.991
295.15
295.141
295.15
295.15
295.15
295.15
295.221
295.482
295.129
297.332
295.15
295.118
295.194
308.066
295.228
295.15
311.059
307.099
295.149
310.36
295.149
295.149
295.15
295.15
295.15
295.15
294.946
295.189
295.15
310.479
295.15
295.15
295.15
298.502
295.15
295.15
295.197
295.15
295.151
295.15
308.834
310.832
295.15
295.15
298.926
309.536
295.149
295.15
295.15
309.532
308.702
302.006
309.267
295.149
295.15
308.574
309.86
311.04
295.142
309.253
295.15
295.14
295.15
295.142
310.544
295.15
299.753
295.15
307.466
295.15
310.052
295.15
302.626
295.15
295.15
295.15
295.15
311.26
295.15
297.858
295.201
295.15
295.15
295.15
310.843
295.15
310.387
302.362
295.144
295.15
302.194
295.033
310.716
295.15
295.15
307.295
310.626
309.266
296.663
302.644
294.847
295.114
310.375
309.251
295.15
295.149
295.15