/*--------------------------------*- C++ -*----------------------------------*\
| =========                 |                                                 |
| \\      /  F ield         | OpenFOAM: The Open Source CFD Toolbox           |
|  \\    /   O peration     | Version:  v2012                                 |
|   \\  /    A nd           | Website:  www.openfoam.com                      |
|    \\/     M anipulation  |                                                 |
\*---------------------------------------------------------------------------*/
FoamFile
{
    version     2.0;
    format      ascii;
    class       volScalarField;
    location    "0.828074";
    object      alphat;
}
// * * * * * * * * * * * * * * * * * * * * * * * * * * * * * * * * * * * * * //

dimensions      [0 2 -1 0 0 0 0];


internalField   nonuniform List<scalar> 
83563
(
2.1199e-05
2.65398e-05
3.1958e-05
2.24025e-05
3.5591e-05
3.88952e-05
1.08343e-05
0.000155074
7.26428e-05
0.000512308
6.5559e-05
1.9533e-05
0.00284647
2.09977e-05
0.000167117
0.000113511
2.10738e-05
2.10116e-05
0.000100531
2.095e-05
2.0847e-05
2.09309e-05
0.000150197
0.000916295
2.11786e-05
2.24532e-05
2.43986e-05
0.000546751
2.56228e-05
2.3816e-05
2.91903e-05
8.85821e-06
0.00012769
2.20565e-05
2.10119e-05
6.46351e-05
2.41011e-05
2.57836e-05
2.78303e-05
8.70555e-05
2.22731e-05
6.07757e-05
3.07793e-05
3.60816e-05
0.000186824
0.000151982
9.66737e-05
0.000132361
7.92523e-05
0.00970817
0.00756519
7.06155e-05
0.00178006
0.00235088
5.4529e-05
0.00651549
2.46145e-05
0.00160053
0.0021057
9.15851e-05
0.00212605
0.000752058
5.54668e-05
2.87022e-05
0.0048952
0.00209803
0.0025958
3.04107e-05
1.64006e-05
0.00730317
0.000129505
0.00861571
2.26677e-05
0.00612405
3.01703e-05
0.00718286
0.00137035
2.33388e-05
2.27705e-05
0.00107675
2.20672e-05
1.85921e-05
2.35836e-05
0.00053288
8.25882e-05
2.1568e-05
2.15175e-05
0.000181441
2.22763e-05
3.94832e-05
0.000133345
1.92175e-05
0.000198424
0.000128792
0.000875768
0.000171346
0.00106118
0.00019492
5.80281e-05
0.000132317
5.09688e-05
2.45189e-05
8.04521e-05
2.33104e-05
5.72328e-05
2.8931e-05
3.80376e-05
2.14166e-05
0.000544238
2.10249e-05
0.000164651
5.69885e-05
8.29724e-05
4.3029e-05
2.9792e-05
1.73724e-05
0.0150466
0.000203114
5.15597e-05
1.60786e-05
4.63359e-05
4.42832e-05
8.47625e-05
0.000824793
9.78558e-05
1.78607e-05
0.000724182
1.54079e-05
0.000135783
5.29759e-05
0.0126466
0.000875811
5.68532e-05
0.00216899
3.15184e-05
2.08838e-05
8.30987e-05
2.79787e-05
2.14067e-05
0.0047651
5.68409e-05
0.00402486
6.36707e-05
6.40678e-05
0.00277035
0.00237617
5.65981e-05
2.40973e-05
4.85333e-05
2.89998e-05
0.00119196
2.17888e-05
2.65588e-05
8.70121e-05
2.11144e-05
2.04113e-05
2.13838e-05
5.2772e-05
6.2709e-05
6.40571e-05
9.72549e-05
2.13725e-05
2.52157e-05
1.66549e-05
0.000143965
0.000315975
1.83248e-05
0.0109919
1.99181e-05
0.000176836
1.88465e-05
1.78166e-05
0.000224795
0.000139179
0.000220536
4.76806e-05
4.0822e-05
3.77578e-05
6.94645e-05
2.05352e-05
3.05306e-05
2.27206e-05
8.76871e-05
0.000114447
0.000206696
0.000491234
0.000140205
1.33635e-05
4.63666e-05
2.10849e-05
2.17012e-05
0.000283331
0.000544882
0.000761791
6.29159e-05
0.000483507
4.43508e-05
0.000175459
2.10189e-05
0.00010352
8.25649e-05
6.71892e-05
0.000180649
1.946e-05
0.000240405
0.000183536
3.10902e-05
0.0167979
2.10528e-05
3.01106e-05
0.000133755
0.000422448
1.93707e-05
1.69603e-05
5.10116e-05
0.000112838
6.35983e-05
1.81403e-05
2.17888e-05
6.01071e-05
3.37249e-05
5.47881e-05
3.45172e-05
3.47974e-05
0.000156084
1.79962e-05
0.000314772
2.13784e-05
2.62897e-05
0.000167524
2.15459e-05
2.81553e-05
2.03e-05
3.11094e-05
0.00446956
2.08101e-05
0.000119988
2.29762e-05
1.85603e-05
2.1975e-05
0.000117539
8.64887e-05
6.3934e-05
1.77831e-05
4.97157e-05
2.45649e-05
0.00508321
1.67987e-05
0.00249567
4.63245e-05
7.54619e-05
3.7175e-05
2.81992e-05
0.000360484
3.9128e-05
3.90469e-05
2.08935e-05
0.000195139
2.12286e-05
2.97171e-05
3.00244e-05
6.81261e-05
0.013231
0.000100529
3.99653e-05
3.88108e-05
9.01435e-05
5.66146e-05
1.75555e-05
2.03145e-05
6.06242e-05
8.83269e-05
5.53455e-05
5.03274e-05
9.54401e-05
3.57843e-05
0.0001922
0.000130353
2.53777e-05
4.06416e-05
0.000162694
1.87088e-05
2.13637e-05
0.000166389
0.000157287
2.39704e-05
0.000792693
1.75107e-05
2.36649e-05
3.99136e-05
0.000326782
2.1595e-05
0.000205263
1.97642e-05
2.3954e-05
5.29613e-05
7.67538e-05
9.88277e-05
4.01372e-05
3.28683e-05
2.9997e-05
3.71408e-05
4.16001e-05
2.15682e-05
2.0979e-05
0.000154786
0.000198905
0.00336872
9.67417e-05
0.000232026
5.15546e-05
9.67632e-05
0.0014057
0.000220214
0.0105794
2.22399e-05
0.0194552
7.62171e-05
1.87497e-05
5.57648e-05
0.000286442
7.38241e-05
2.22394e-05
3.15127e-05
5.77452e-05
2.03597e-05
0.000245499
0.00293072
5.47914e-05
0.00115768
4.4929e-05
2.9129e-05
1.94799e-05
0.00245182
2.08696e-05
2.24271e-05
5.89404e-05
0.00405898
0.00012821
2.37641e-05
0.00422912
0.00138902
1.94675e-05
2.39441e-05
3.76728e-05
1.46403e-05
0.000155228
4.37596e-05
0.000183453
2.30979e-05
2.08642e-05
7.47434e-05
3.66921e-05
0.000637268
0.00988508
2.08972e-05
5.61591e-05
7.88699e-05
4.31672e-05
0.000570627
0.0187534
0.000514284
0.0133024
0.0149863
0.0149185
0.00025812
0.000314171
0.000104568
0.000733583
2.10823e-05
2.61015e-05
7.03974e-05
0.0001489
0.00147266
0.00110984
5.38658e-05
0.0142903
3.10529e-05
2.57089e-05
2.78193e-05
3.07002e-05
1.98721e-05
2.23476e-05
2.99941e-05
0.0149588
0.0127027
4.63733e-05
6.47763e-05
0.0149734
6.08386e-05
0.000215148
2.37582e-05
3.56598e-05
0.0138505
0.000131572
0.000164571
7.10803e-05
0.000114351
2.84988e-05
2.06718e-05
0.000353539
1.89687e-05
2.35371e-05
0.00240518
0.000209631
3.35248e-05
0.000878123
3.13651e-05
2.14434e-05
5.40735e-05
0.00339957
0.000110688
1.66125e-05
2.45423e-05
0.0019727
2.47684e-05
2.85519e-05
8.36782e-05
0.0149855
4.2404e-05
2.24097e-05
2.41018e-05
0.00301411
1.81e-05
0.00011404
0.0037456
5.46493e-05
0.000242152
2.14469e-05
4.79199e-05
2.36917e-05
4.85254e-05
6.05661e-05
2.39404e-05
0.0127831
0.000125354
0.0109262
2.23007e-05
0.000100232
0.000698122
0.000178391
9.04342e-05
0.00755949
1.65798e-05
0.000170494
5.98308e-05
8.04507e-05
0.000299208
8.38756e-05
0.00999149
0.000198461
2.97182e-05
4.21664e-05
3.35134e-05
0.000150071
0.000224428
2.26513e-05
1.91299e-05
2.39718e-05
8.32543e-05
1.90649e-05
0.00227319
2.82485e-05
2.33734e-05
2.87759e-05
2.93992e-05
2.02138e-05
2.87844e-05
4.41974e-05
7.38965e-05
9.10316e-05
5.52445e-05
2.85152e-05
0.00011295
3.58871e-05
0.000165482
4.46933e-05
4.48801e-05
5.98359e-05
2.46386e-05
5.03665e-05
2.64286e-05
5.28649e-05
6.2242e-05
1.66997e-05
2.97086e-05
4.02304e-05
0.000138913
0.00449862
2.07066e-05
1.95921e-05
3.45547e-05
5.16702e-05
0.00236374
0.000268826
6.52216e-05
3.20901e-05
4.6812e-05
3.53684e-05
2.36241e-05
2.10287e-05
6.24878e-05
2.53786e-05
2.35105e-05
6.42875e-05
2.06415e-05
5.20114e-05
6.36673e-05
2.4739e-05
7.24016e-05
1.82886e-05
2.63108e-05
2.1197e-05
2.10273e-05
2.69861e-05
1.71112e-05
5.834e-05
0.0030604
0.00323648
2.74214e-05
5.20468e-05
0.000135639
8.35132e-05
6.12388e-05
0.000114828
2.60671e-05
4.95281e-05
0.00322467
2.33082e-05
2.64013e-05
1.90692e-05
2.1831e-05
4.42699e-05
2.81422e-05
2.63038e-05
1.9846e-05
0.0029975
0.000296696
7.35077e-05
0.00236853
6.01836e-05
1.28171e-05
0.00125651
1.57062e-05
3.51337e-05
8.90101e-05
2.63687e-05
0.000148268
0.000859123
5.16564e-05
4.53225e-05
1.84044e-05
7.98102e-05
4.18467e-05
1.7274e-05
8.43233e-05
0.000572149
0.0168267
0.000755867
2.08809e-05
7.38103e-05
0.00864189
2.29544e-05
0.0001008
0.000539354
2.39924e-05
0.000579913
2.31126e-05
1.91003e-05
0.000118736
0.00443094
7.25931e-05
2.58217e-05
5.77238e-05
0.000777907
0.000110779
2.81157e-05
2.47019e-05
1.90457e-05
2.71839e-05
2.48078e-05
0.000423389
0.00140522
5.03087e-05
2.57177e-05
2.84023e-05
2.17215e-05
4.40961e-05
2.09499e-05
0.000742134
2.10096e-05
1.77953e-05
2.11761e-05
2.36758e-05
4.49431e-05
2.13553e-05
2.29286e-05
2.3142e-05
2.10185e-05
1.85129e-05
3.88499e-05
2.14872e-05
2.12637e-05
2.11487e-05
3.31912e-05
4.02476e-05
0.000634319
3.1566e-05
2.43882e-05
2.3858e-05
2.84924e-05
1.87304e-05
2.24286e-05
3.6124e-05
0.00126287
2.89495e-05
5.67633e-05
6.52229e-05
0.000123112
0.000125037
0.000118391
0.00283983
4.82119e-05
2.35467e-05
2.0739e-05
3.26704e-05
5.13198e-05
2.38297e-05
3.5266e-05
2.12504e-05
4.53418e-05
3.64422e-05
3.11675e-05
5.69497e-05
2.15399e-05
0.000370541
5.06514e-05
6.83043e-05
2.10583e-05
2.69332e-05
2.47726e-05
0.000224162
0.000265537
2.11332e-05
6.70214e-05
2.1138e-05
2.13946e-05
1.59471e-05
0.00249714
5.08482e-05
4.10157e-05
6.86783e-05
0.000119148
8.82908e-05
0.000183805
2.70415e-05
0.000226774
1.66603e-05
1.96446e-05
4.96954e-05
2.55256e-05
0.00268526
4.02371e-05
4.69204e-05
0.00141328
2.09546e-05
3.81683e-05
2.22395e-05
2.43615e-05
0.000324632
5.54802e-05
4.78851e-05
2.03074e-05
7.97693e-05
0.000170052
3.82214e-05
0.000322323
3.51832e-05
3.98611e-05
0.000611495
0.0018561
7.23063e-05
0.000201267
0.00162596
2.10935e-05
2.78704e-05
0.000207272
4.9405e-05
0.000355464
3.74559e-05
4.27644e-05
6.3554e-05
2.82347e-05
0.000203431
0.000120034
0.00175432
4.52929e-05
0.000312482
1.88838e-05
2.43088e-05
5.13838e-05
3.13733e-05
2.11093e-05
5.97423e-05
0.00115081
0.00011774
1.52395e-05
4.60227e-05
5.72496e-05
6.16039e-05
2.1119e-05
7.97162e-05
2.1004e-05
2.59106e-05
9.3881e-05
2.00993e-05
2.30837e-05
2.68518e-05
9.33185e-05
0.0129605
2.16914e-05
0.000683914
2.51329e-05
6.6757e-05
1.69476e-05
8.55342e-05
0.00292083
0.000934167
3.64035e-05
0.00430237
1.74478e-05
2.15131e-05
2.46387e-05
0.000185992
0.00175033
0.000134105
2.71401e-05
3.93782e-05
0.00145957
1.58575e-05
3.71707e-05
4.24981e-05
1.99934e-05
7.83221e-05
5.90252e-05
3.96842e-05
7.697e-05
0.00030821
0.00180124
2.99229e-05
3.88573e-05
4.51896e-05
2.07942e-05
0.00407191
7.99838e-05
0.000173239
2.08943e-05
2.98632e-05
0.00018455
4.43948e-05
2.73937e-05
2.33524e-05
6.50274e-06
1.97336e-05
8.25925e-05
3.73818e-05
2.08946e-05
2.53633e-05
7.49705e-05
0.000108643
3.98965e-05
2.18044e-05
1.82473e-05
9.07952e-05
2.8077e-05
5.2141e-05
2.41404e-05
0.000601176
2.22738e-05
3.15257e-05
5.10827e-05
0.00966918
0.00458833
0.00506101
2.29783e-05
0.00391143
2.55384e-05
0.000150997
3.05743e-05
5.5256e-05
5.40366e-05
0.00130672
2.98336e-05
0.0040771
9.72121e-05
7.37592e-05
4.44516e-05
1.3894e-05
2.53632e-05
2.68026e-05
0.000106636
1.84071e-05
9.86734e-05
2.01609e-05
1.4781e-05
2.37015e-05
8.34055e-05
0.00195547
0.000692596
0.000117822
1.83153e-05
4.29807e-05
0.00102864
0.00042778
0.000346323
0.000427373
2.1839e-05
0.000272634
1.6176e-05
2.1126e-05
0.000270903
2.70609e-05
0.000723032
0.000146862
3.99762e-05
9.80679e-05
9.26474e-05
0.000116502
2.23592e-06
3.07026e-05
2.08046e-05
0.0118985
3.17033e-05
0.000219881
4.27251e-05
2.0959e-05
2.11062e-05
5.46777e-05
3.25483e-05
7.20643e-05
3.36203e-06
5.20659e-05
2.33785e-05
2.13675e-05
4.3546e-05
2.55512e-06
0.000174388
2.02476e-05
0.000139004
0.00476516
4.71035e-05
1.84844e-05
1.74425e-05
2.10443e-05
2.73377e-05
3.46431e-05
2.47481e-05
0.000117072
0.000107053
5.89251e-05
2.05178e-05
2.61795e-05
3.06589e-05
1.9043e-05
0.000154624
4.67695e-05
0.000311879
5.04808e-05
4.26239e-05
1.87541e-05
5.09947e-05
0.000336141
0.00025426
4.22379e-05
3.7782e-05
6.2352e-05
1.6975e-05
2.1565e-05
2.61854e-05
2.91516e-05
2.07673e-05
4.45126e-05
2.64062e-05
1.52061e-05
2.08599e-05
0.003903
0.000154425
2.49959e-05
0.00092501
0.00212614
2.32462e-05
0.000291554
2.02073e-05
2.59356e-05
2.19497e-05
2.13037e-05
8.3407e-05
2.05247e-05
9.70013e-05
0.000152803
1.95118e-05
1.90111e-05
3.96145e-05
0.000123207
1.79683e-05
3.55272e-05
4.81455e-05
2.20394e-05
3.76079e-05
0.000111193
1.69855e-05
2.28808e-05
2.03686e-05
3.85547e-05
2.44616e-05
0.00339835
0.00138326
2.08118e-05
0.001388
2.09978e-05
6.51643e-05
0.000171975
8.40981e-05
0.000135081
2.49118e-05
2.80161e-05
8.83747e-05
2.87451e-05
0.000981334
2.89454e-05
0.000115658
0.000388982
0.000108513
0.000109334
0.0017605
9.33709e-05
0.000601881
2.98539e-05
8.40757e-05
0.00125435
0.000119713
2.73432e-05
0.00014539
5.48419e-05
2.21901e-05
2.10172e-05
5.32574e-05
4.73111e-05
3.87783e-05
1.25418e-05
1.21129e-05
1.44923e-05
1.93978e-05
2.24801e-05
2.08622e-05
0.00010789
0.00104518
2.17109e-05
2.06736e-05
2.09631e-05
9.84199e-05
2.09673e-05
2.89588e-05
2.1259e-05
0.000108957
0.000138684
5.75859e-05
2.13133e-05
0.000419423
4.681e-05
0.000210825
4.3129e-05
3.30386e-05
3.06104e-05
3.72128e-05
0.000123097
1.29023e-05
3.32461e-05
2.17347e-05
5.06952e-05
2.85409e-05
4.48212e-05
3.76022e-05
2.29027e-05
2.57071e-05
6.80955e-05
0.000149952
0.000125569
3.10223e-05
2.63478e-05
0.000406156
8.0953e-05
1.93909e-05
2.70223e-05
2.35114e-05
0.000257806
0.000216257
8.44544e-05
0.000109166
0.00032277
3.06901e-05
2.12749e-05
2.07267e-05
2.79029e-05
0.000870915
2.85975e-05
0.0001983
0.000185417
0.000386695
4.21197e-05
3.59643e-05
2.52127e-05
4.65514e-05
1.50885e-05
3.62213e-05
0.0030228
3.72658e-05
0.00011778
0.000285228
0.00772968
6.90953e-05
2.95983e-05
0.000242103
6.97863e-05
3.77241e-05
2.23659e-05
2.08514e-05
0.000159679
2.81262e-05
2.08117e-05
0.000124134
0.00016494
2.7369e-05
5.2764e-05
4.72186e-05
2.07496e-05
4.01767e-05
2.39386e-05
4.01274e-05
2.71979e-05
1.35831e-05
8.9423e-05
1.9603e-05
0.000137444
2.56364e-05
0.000145434
5.62584e-05
3.05171e-05
0.00824084
2.96667e-05
0.00724917
0.00294737
1.53185e-05
2.18353e-05
2.15478e-05
9.0534e-05
2.08581e-05
7.18986e-05
2.18751e-05
0.00669723
2.2427e-05
0.00247552
0.000267555
0.00272113
5.66297e-05
2.00351e-05
6.38561e-05
4.18015e-05
5.73085e-05
8.47056e-05
4.51459e-05
6.13255e-05
0.00527369
2.04292e-05
0.00174095
6.82629e-05
2.18731e-05
3.98731e-05
6.9786e-05
0.0115158
2.11367e-05
8.37624e-05
0.000100205
2.08696e-05
8.35445e-05
0.0117437
2.69841e-05
9.52719e-05
4.64039e-05
0.000580246
0.00163473
0.000143509
0.000118033
6.7975e-05
7.06524e-05
0.00013469
2.21409e-05
9.57454e-05
0.000110835
7.50827e-05
0.000136564
2.34434e-05
0.000168339
5.77358e-05
6.0502e-05
1.97355e-05
6.69444e-05
2.10163e-05
7.5578e-05
2.20537e-05
1.70278e-05
2.669e-05
3.71653e-05
2.17923e-05
0.000258641
2.52599e-05
9.30774e-05
1.31435e-05
8.8151e-05
5.01244e-05
0.00211253
2.15208e-05
3.30581e-05
1.79758e-05
0.000101361
3.32458e-05
0.000286542
2.08187e-05
0.00027886
2.68285e-05
2.12542e-05
0.000123017
5.44913e-05
3.05844e-05
1.84592e-05
2.16943e-05
2.11003e-05
0.000254762
3.44322e-05
5.49495e-05
1.84343e-05
2.86624e-05
1.97903e-05
2.1227e-05
6.87746e-05
4.07982e-05
6.34211e-05
9.15377e-05
3.86278e-05
2.13979e-05
4.78015e-05
2.61183e-05
2.52264e-05
2.50584e-05
2.15922e-05
8.22369e-05
2.07028e-05
2.09043e-05
1.96326e-05
4.03346e-05
0.000234906
2.72575e-05
0.000292934
2.40727e-05
2.42138e-05
2.26501e-05
2.49865e-05
3.98855e-05
3.57849e-05
2.28449e-05
2.78185e-05
2.54919e-05
0.000107055
3.06584e-05
5.19685e-05
4.85541e-05
8.80989e-05
3.88476e-05
0.000201037
2.09832e-05
2.12552e-05
3.73361e-05
0.000245809
2.05869e-05
2.15076e-05
1.92376e-05
2.08034e-05
6.6007e-05
0.000257267
3.31414e-05
0.000102193
0.015103
0.00797303
0.014622
0.000433269
0.00979184
1.91501e-05
1.52863e-05
2.55257e-05
0.000127944
2.71142e-05
0.00162604
5.05016e-05
1.58926e-05
0.000123882
0.000233028
2.17123e-05
8.68614e-05
0.000104956
3.59662e-05
2.83602e-05
6.32762e-05
2.04448e-05
2.61269e-05
0.000884244
2.09912e-05
0.000304875
0.00239412
0.000109024
6.21231e-05
2.13538e-05
2.59112e-05
2.79667e-05
0.000179654
1.9846e-05
0.000156577
8.31828e-05
0.000597683
0.000138774
2.15132e-05
1.36471e-05
2.24578e-05
3.25922e-05
3.61547e-05
4.91498e-05
1.89014e-05
1.94952e-05
0.000350863
2.33762e-05
2.17806e-05
1.14739e-05
2.75527e-05
1.68835e-05
5.58248e-05
1.64499e-05
0.000129059
5.67478e-05
2.24527e-05
4.9728e-05
7.27918e-05
0.000673976
3.1109e-05
2.04691e-05
1.78562e-05
0.000124738
0.00122212
0.000154845
5.94804e-05
2.25134e-05
7.63601e-05
9.76789e-05
4.90628e-05
7.0223e-05
3.75168e-05
2.66959e-05
0.000284831
1.87506e-05
4.92228e-05
5.57765e-05
2.10392e-05
8.09778e-05
0.000116597
3.01932e-05
2.62199e-05
0.000208389
4.81166e-05
2.32134e-05
8.22909e-05
6.07073e-05
6.00681e-05
0.00753055
5.59929e-05
1.90853e-05
6.30882e-05
0.00328685
8.48246e-05
4.29498e-05
0.000130281
2.20598e-05
0.00297551
4.31752e-05
2.00534e-05
2.13841e-05
3.3919e-05
2.07909e-05
3.64135e-05
0.0001193
4.12574e-05
4.20731e-05
3.44884e-05
0.000153028
0.000271122
2.11092e-05
9.47523e-05
3.60291e-05
2.20009e-05
2.46125e-05
2.70324e-05
0.000181705
2.90446e-05
2.10041e-05
2.17739e-05
0.00170919
2.07947e-05
1.94779e-05
2.04494e-05
9.89718e-05
0.0193217
2.10022e-05
0.0015342
3.03122e-05
2.33658e-05
0.00165779
2.97284e-05
0.00282122
0.0181919
4.01876e-05
5.2656e-05
0.0227175
0.000103244
0.020587
9.84245e-05
3.56467e-05
2.13345e-05
2.12979e-05
5.05203e-05
0.000480603
2.08474e-05
0.000146833
2.09675e-05
2.42172e-05
0.000135389
2.61055e-05
3.1955e-05
2.03539e-05
9.39068e-05
0.0152323
3.07248e-05
0.000147732
0.0001161
4.24405e-05
0.000110377
4.84003e-05
7.65306e-05
9.57195e-05
6.25122e-05
3.08745e-05
0.00077708
2.47239e-05
4.31597e-05
2.19103e-05
3.54528e-05
2.3216e-05
2.65823e-05
2.24507e-05
2.09839e-05
4.74242e-05
2.95462e-05
4.41839e-05
2.78767e-05
2.09744e-05
4.35245e-05
0.00161212
0.000102749
2.09441e-05
2.04725e-05
0.00235703
4.13516e-05
0.00752031
0.000193519
2.18273e-05
2.36265e-05
1.787e-05
2.19642e-05
0.0150465
2.46328e-05
4.95879e-05
5.19121e-05
0.000158405
4.09427e-05
1.99653e-05
4.40949e-05
0.00264918
2.08595e-05
0.00437785
5.17043e-05
0.000166906
0.000161476
2.81675e-05
2.67965e-05
2.07646e-05
0.000131518
0.000120473
0.000168647
0.000131997
2.18723e-05
2.11739e-05
2.16392e-05
3.08206e-05
4.03326e-05
0.000114498
2.30267e-05
8.87106e-05
3.00511e-05
6.76174e-05
4.56609e-05
6.78676e-05
3.94172e-05
2.94256e-05
2.16498e-05
3.23888e-05
5.85749e-05
1.9841e-05
4.07355e-05
2.41585e-05
1.91402e-06
4.46136e-05
1.76473e-05
2.91335e-05
3.49607e-05
7.49313e-05
0.000110613
3.48592e-05
2.69795e-05
0.00010559
0.0100797
1.95908e-05
3.27292e-05
0.0027657
2.11203e-05
2.63152e-05
2.10237e-05
2.66559e-05
2.24022e-05
2.1229e-05
2.36055e-05
2.19604e-05
0.00456311
2.31025e-05
6.14552e-05
2.51269e-05
2.13377e-05
0.000161064
2.08957e-05
7.55117e-05
3.53947e-05
0.000177496
0.00236844
3.66555e-05
5.02515e-05
1.79152e-05
5.71061e-05
0.00415654
1.68613e-05
2.12891e-05
0.000150977
6.74923e-05
0.00456592
0.000319287
3.62068e-05
2.07027e-05
8.13659e-05
3.39752e-05
0.00245645
1.74777e-05
2.77117e-05
0.000187464
0.00379006
2.0773e-05
0.0052204
0.000108051
0.000115476
6.47793e-05
0.000119623
2.58784e-05
0.00474363
0.000154786
3.0593e-05
8.735e-05
1.82966e-05
0.000122909
0.00284386
9.54153e-05
2.24984e-05
2.03548e-05
0.000260204
0.000130918
5.02202e-05
2.69792e-05
0.000148467
8.96623e-05
4.82852e-05
1.6311e-05
3.50487e-05
0.00262106
1.93573e-05
8.81683e-05
2.46309e-05
2.59584e-05
1.91027e-05
2.22424e-05
2.48253e-05
2.25817e-05
3.52192e-05
9.17202e-05
4.46705e-05
6.29679e-05
0.00296944
2.03966e-05
2.15337e-05
6.24467e-05
0.000466532
4.34212e-05
2.41926e-05
2.8853e-05
0.000113081
8.40991e-05
2.36852e-05
4.63699e-05
3.98057e-05
2.08128e-05
3.62196e-05
1.82747e-05
5.43796e-05
5.24482e-05
0.000190196
2.11488e-05
2.0921e-05
0.00120349
0.0019122
2.12869e-05
7.42169e-05
0.00249862
0.00232631
3.1494e-05
0.00221733
2.64576e-05
8.29288e-05
2.64053e-05
0.00190886
1.9041e-05
4.88394e-05
2.49411e-05
3.80752e-05
7.79121e-05
2.15179e-05
8.60113e-05
1.76509e-05
0.00726436
4.05161e-05
1.85002e-05
2.09109e-05
4.36492e-05
0.000103078
3.73629e-05
2.03927e-05
3.30421e-05
6.31168e-05
3.73773e-05
2.11644e-05
0.0162853
0.000147173
0.00232485
0.000102746
2.11326e-05
0.0102671
0.000100891
2.2194e-05
2.08511e-05
1.80777e-05
3.51927e-05
1.86327e-05
5.08728e-05
5.16067e-05
8.99466e-05
0.00819154
2.36626e-05
2.15e-05
4.31945e-05
0.00669344
0.0118797
2.43736e-05
0.00161141
0.000127417
5.73457e-05
0.00291693
2.27034e-05
0.00496046
2.98886e-05
2.67297e-05
0.0113274
0.000121964
0.000107486
0.000876688
0.000234813
0.0103338
0.00662041
2.60095e-05
4.19041e-05
1.94409e-05
1.87099e-05
0.000211249
2.61031e-05
5.50459e-05
2.03075e-05
1.82687e-05
1.57612e-05
0.00613459
0.0120049
2.03883e-05
2.33034e-05
1.56152e-05
5.01363e-05
0.0062707
0.0100306
4.47298e-05
6.57376e-05
2.08299e-05
5.493e-05
2.83391e-05
7.24888e-05
4.66368e-05
2.18246e-05
3.94904e-05
4.0792e-05
5.28285e-05
2.67529e-05
2.29053e-05
4.23495e-05
5.1951e-05
4.07785e-05
0.000108152
2.12913e-05
6.43191e-05
5.40805e-05
5.66744e-05
8.04365e-05
5.33634e-05
1.82194e-05
0.000168541
0.000162746
0.000301093
7.81142e-05
7.44546e-05
6.87201e-05
0.000150873
9.11421e-05
0.000162134
9.11558e-05
0.00328062
0.00033722
2.52359e-05
6.24455e-05
3.29084e-05
0.000210004
0.000118061
0.00232075
1.80807e-05
3.56081e-05
3.41041e-05
7.11742e-05
0.000125409
2.18405e-05
3.47807e-05
2.34378e-05
5.62136e-05
2.35136e-05
0.000150655
7.09172e-05
2.21573e-05
2.82891e-05
6.50501e-05
2.78319e-05
0.000213534
0.000176393
3.99159e-05
2.08213e-05
2.01446e-05
2.1277e-05
2.87336e-05
4.66305e-05
2.21236e-05
2.36033e-05
2.87121e-05
2.23552e-05
0.000281519
2.19899e-05
2.52898e-05
1.87364e-05
3.93929e-05
5.04536e-05
4.91758e-05
2.12271e-05
6.18018e-05
2.14642e-05
2.87985e-05
4.15219e-05
2.04558e-05
1.59232e-05
0.000368634
2.53006e-05
2.22728e-05
3.3889e-05
2.70918e-05
2.42511e-05
4.39787e-05
0.00323308
2.13958e-05
2.10284e-05
3.07974e-05
0.000260992
0.000149913
4.55116e-05
0.000151849
3.56538e-05
0.000178089
4.2029e-05
2.17154e-05
2.07675e-05
0.000140438
2.29746e-05
1.5929e-05
2.08444e-05
2.10689e-05
2.56245e-05
0.00146242
0.000165992
2.11533e-05
6.79887e-05
0.0045769
2.07878e-05
4.88685e-05
2.08851e-05
3.36245e-05
2.02046e-05
7.49246e-05
2.60359e-05
1.78547e-05
0.00857948
5.79979e-05
7.08329e-05
5.1268e-05
2.24026e-05
7.71932e-05
0.00118702
3.1892e-05
2.14474e-05
0.00684109
9.07801e-05
3.56194e-05
2.32167e-05
6.25983e-05
2.08973e-05
2.02522e-05
8.0378e-05
2.31025e-05
0.00035648
2.22632e-05
5.15376e-05
0.00246375
4.24308e-05
4.34588e-05
7.48917e-05
0.00524547
2.09773e-05
0.00313002
2.1051e-05
0.00425883
4.98746e-05
2.18788e-05
1.92082e-05
0.000112176
5.03375e-05
3.00406e-05
6.76294e-05
2.7583e-05
2.24405e-05
1.89797e-05
2.94922e-05
2.11712e-05
4.98178e-05
4.7173e-05
2.56603e-05
3.52189e-05
0.000110866
3.09752e-05
2.24192e-05
0.00296598
2.5691e-05
9.59817e-05
0.000114177
2.25284e-05
2.24784e-05
4.19477e-05
7.63421e-05
0.00805483
4.9255e-05
3.12568e-05
0.008849
0.00723402
2.10082e-05
5.67113e-05
5.26348e-05
2.39458e-05
2.08401e-05
4.78275e-05
2.70733e-05
5.60444e-05
3.03615e-05
0.00601788
6.03988e-05
2.27519e-05
7.01854e-05
2.14914e-05
2.61631e-05
2.24194e-05
0.0171663
0.0177425
2.79983e-05
2.53304e-05
4.84818e-05
1.8212e-05
2.0444e-05
5.17823e-05
0.000809082
2.09439e-05
0.00433033
2.43397e-05
2.45344e-05
6.14942e-05
2.83414e-05
7.00951e-05
0.000840229
4.47752e-05
0.000192095
1.53432e-05
2.9212e-05
4.87416e-05
2.59033e-05
2.84239e-05
4.73814e-05
2.09862e-05
0.00271675
5.59215e-05
4.61988e-05
2.71785e-05
2.08923e-05
2.16773e-05
0.000103316
2.11552e-05
2.42028e-05
4.82592e-05
0.000166422
2.15447e-05
3.17803e-05
0.00156425
9.86343e-05
0.00111588
0.000437702
6.47333e-05
8.94253e-05
0.00034025
3.51507e-05
3.69091e-05
4.30243e-05
0.000330837
6.36819e-05
2.07566e-05
3.02265e-05
3.1107e-05
7.19151e-05
3.99708e-05
0.000117045
0.00254186
2.46403e-05
0.000120263
0.0010805
2.2754e-05
2.19347e-05
3.69243e-05
0.000166086
0.00311601
2.19491e-05
1.92307e-05
5.14044e-05
2.12332e-05
0.0001037
0.00403039
3.88656e-05
5.37047e-05
0.00602412
2.73334e-05
3.76259e-05
2.27007e-05
2.09084e-05
8.82023e-05
0.000163664
8.307e-05
0.000191793
6.55706e-05
1.61786e-05
2.32755e-05
0.00851017
2.08997e-05
2.10077e-05
0.00208477
2.88633e-05
5.2359e-05
2.27036e-05
0.00198968
1.992e-05
0.00191943
2.18752e-05
2.02557e-05
0.000128589
0.000310496
0.000112884
5.96361e-05
0.000122124
2.47367e-05
2.10594e-05
0.00277367
0.00213603
0.000932341
2.24604e-05
0.00136282
0.000945967
2.56422e-05
1.88413e-05
1.71519e-05
7.54673e-05
4.45559e-05
1.88272e-05
0.000105237
6.92694e-05
0.00186869
0.00124149
0.000797216
0.000170088
1.91424e-05
0.000114076
1.95715e-05
8.97685e-05
0.000142545
2.08238e-05
2.18232e-05
2.44802e-05
0.000108672
2.08979e-05
0.000607105
0.000229448
0.000115676
2.19541e-05
6.10811e-05
6.71502e-05
2.09883e-05
0.000143644
5.04738e-05
0.000223418
4.21701e-05
0.000863045
3.35021e-05
2.19354e-05
2.04759e-05
2.02686e-05
0.000513616
2.15337e-05
2.49694e-05
0.00125393
0.000660319
0.000190002
0.00134663
2.193e-05
4.11044e-05
1.60034e-05
0.000176387
2.73148e-05
9.54818e-05
2.31453e-05
9.56146e-05
1.72476e-05
0.00118037
2.85044e-05
1.83021e-05
2.10254e-05
0.00166241
0.000428684
1.89649e-05
0.00270483
2.10228e-05
2.14572e-05
3.24792e-05
7.78336e-05
3.8046e-05
3.48293e-05
2.13192e-05
0.000335157
7.3016e-05
2.15598e-05
0.00425468
0.00237859
6.94681e-05
3.15665e-05
6.44562e-05
5.6594e-05
6.8293e-05
4.65929e-05
0.000338156
7.14971e-05
2.02995e-05
6.92271e-05
4.73226e-05
2.24736e-05
2.86975e-05
2.11616e-05
5.41971e-05
2.05773e-05
5.22036e-05
3.51745e-05
9.43284e-05
1.80761e-05
4.83909e-05
8.60139e-05
2.12051e-05
2.07004e-05
1.73563e-05
6.58801e-05
0.000255736
2.00016e-05
4.53535e-05
1.82855e-05
2.09219e-05
2.34226e-05
8.74487e-05
4.464e-05
2.74012e-05
2.14225e-05
3.28115e-05
2.07495e-05
2.11613e-05
2.14592e-05
4.18688e-05
0.000116926
9.01342e-05
0.000754927
0.000123765
3.06692e-05
2.12314e-05
3.52646e-05
0.0017767
0.000444488
7.39595e-05
2.08057e-05
2.08476e-05
2.08532e-05
2.1114e-05
0.00115906
9.61024e-05
4.91903e-05
0.00227766
8.06403e-05
3.52208e-05
2.13428e-05
0.00092785
0.000125971
0.00115363
1.72935e-05
0.00966425
7.19155e-05
6.37307e-05
1.91659e-05
0.00113746
8.34081e-05
0.000488725
9.21745e-05
0.000107176
9.63475e-05
2.25958e-05
0.000982982
2.0356e-05
0.00748502
0.0103356
0.0109435
1.83339e-05
8.64572e-05
0.00023244
7.29039e-05
2.14516e-05
0.00635328
0.0122781
2.1003e-05
7.42474e-05
2.16776e-05
1.67707e-05
1.91048e-05
0.0125485
0.00629035
2.87932e-05
4.81295e-05
0.000147533
0.0121752
8.60445e-05
2.24239e-05
0.0081575
0.000173706
4.81621e-05
0.00015653
0.00108915
7.26556e-05
2.67627e-05
0.000108148
2.23139e-05
2.091e-05
2.17916e-05
2.94914e-05
2.11624e-05
7.70334e-05
2.51064e-05
3.91503e-05
4.99655e-05
3.61458e-05
0.000203924
9.99557e-06
0.00017232
0.00376809
1.85532e-05
2.58628e-05
1.50781e-05
7.62301e-05
2.12472e-05
3.01743e-05
2.17527e-05
0.00263414
0.000111975
7.68464e-06
4.20081e-05
7.54085e-05
7.40119e-05
3.23547e-06
2.11135e-05
0.00124779
0.000147191
0.000153324
0.0143178
5.92365e-05
7.6183e-05
2.06485e-05
0.000134756
2.22175e-05
1.84702e-05
0.000116633
4.31353e-05
3.93657e-05
2.78368e-05
2.79745e-05
2.14019e-05
4.48158e-05
0.000155742
2.07643e-05
7.44416e-05
0.000157953
0.000205136
3.33756e-05
0.000137203
1.87995e-05
3.76848e-05
1.55779e-05
2.39003e-05
2.22778e-05
0.00010852
0.000125409
3.15156e-05
2.73519e-05
2.90434e-05
4.80426e-05
2.65751e-05
0.00019153
1.85775e-05
4.12627e-05
8.74106e-05
4.69502e-05
0.0155459
9.30287e-05
6.06824e-05
2.12006e-05
0.0149361
0.00258023
2.60274e-05
7.17269e-05
5.30912e-05
4.48151e-05
0.00011083
2.12203e-05
0.000155767
2.09668e-05
0.000237553
2.62933e-05
3.2783e-05
1.97511e-05
5.17906e-05
6.76835e-05
2.17856e-05
4.2286e-05
1.91513e-05
2.73373e-05
2.12613e-05
2.08321e-05
0.000192226
2.48642e-05
2.75069e-05
2.46646e-05
0.000825504
5.10899e-05
2.07872e-05
3.42941e-05
2.0428e-05
8.31073e-05
7.01219e-05
0.000104609
3.54443e-05
2.4787e-05
0.000130631
0.000681853
2.97552e-05
3.21497e-05
0.000970525
1.93871e-05
0.000193989
4.49011e-05
2.2227e-05
2.54616e-05
1.67561e-05
0.00906862
3.40318e-05
2.02567e-05
1.90688e-05
2.05792e-05
0.00342254
7.79395e-05
0.000441204
2.37848e-05
6.08958e-05
0.000253199
1.87251e-05
2.13113e-05
0.003175
9.9011e-05
0.00343954
3.19439e-05
1.74859e-05
0.00180355
0.000323219
5.45019e-05
4.3235e-05
1.75449e-05
3.55703e-05
2.0805e-05
8.82242e-05
3.69649e-05
3.6343e-05
4.30901e-05
9.7786e-05
3.43651e-05
0.000442461
0.0180055
5.39566e-05
4.51947e-05
2.09496e-05
4.9625e-05
0.0175024
0.000120388
2.2269e-05
3.09494e-05
3.30029e-05
0.00203821
6.71977e-05
0.000996464
3.63133e-05
2.19912e-05
2.17806e-05
0.000198075
0.000431699
2.09841e-05
2.1003e-05
5.74123e-05
5.70852e-05
2.58918e-05
3.78753e-05
0.000359853
4.78254e-05
4.15758e-05
0.000153698
0.00213318
4.19389e-05
2.09332e-05
0.000115586
2.4659e-05
2.06323e-05
0.000215907
2.39158e-05
0.00017316
2.14793e-05
2.42136e-05
2.56159e-05
0.000212219
4.92174e-05
2.10429e-05
9.61255e-05
2.754e-05
2.10762e-05
2.5745e-05
2.45147e-05
2.2981e-05
5.96531e-05
3.96527e-05
2.96531e-05
6.29549e-05
4.89776e-05
2.59653e-05
0.0059664
8.58267e-05
4.39339e-05
0.000269868
0.011507
3.85994e-05
5.94656e-05
2.12599e-05
7.53248e-05
3.11215e-05
6.31242e-05
9.41814e-05
0.00428265
0.000100047
3.07687e-05
5.58263e-05
0.000132269
2.72283e-05
4.50748e-05
2.07221e-05
2.71154e-05
5.57777e-05
0.00577719
5.1467e-05
2.37916e-05
2.22912e-05
8.20578e-05
2.75585e-05
7.93602e-05
0.00639329
4.85711e-05
0.0137859
2.19409e-05
0.0110812
6.35668e-05
0.00550953
0.000171042
0.000112089
0.0133663
0.00225023
4.05037e-05
0.000159388
2.14261e-05
0.000143693
2.16821e-05
9.66643e-05
1.89359e-05
0.000222409
0.00286002
5.0681e-05
0.000116071
1.91595e-05
0.00250081
1.94293e-05
2.11169e-05
2.94659e-05
9.06712e-05
2.23181e-05
2.09545e-05
0.000580626
5.5412e-05
1.5902e-05
1.87522e-05
5.771e-05
2.10284e-05
4.5964e-05
1.9821e-05
2.37337e-05
2.08798e-05
3.98127e-05
1.65959e-05
5.78742e-05
0.000326682
2.13458e-05
0.000334626
0.000289995
8.9918e-05
9.24592e-05
0.00445853
4.45561e-05
0.000103924
3.24899e-05
0.000144168
0.000125959
1.87776e-05
2.08547e-05
2.00928e-05
0.000242295
2.23087e-05
0.000508666
2.27422e-05
3.21243e-05
2.12341e-05
2.73223e-05
5.59854e-05
0.000137641
2.42294e-05
6.97375e-05
2.1179e-05
5.55356e-05
5.76782e-05
2.06085e-05
3.92277e-05
0.000330392
0.00017012
0.0130992
6.26622e-05
0.00444065
5.66016e-05
0.000136859
0.00015719
0.000223596
2.89445e-05
8.78348e-05
2.89788e-05
0.000635995
0.000111688
0.000143886
0.000147761
7.37358e-05
4.5924e-05
6.59434e-05
3.50584e-05
1.89197e-05
5.76613e-05
0.00041061
2.28889e-05
0.000504159
6.22136e-05
2.1481e-05
3.73375e-05
5.4366e-05
2.39098e-05
0.000105912
3.42411e-05
0.000263175
2.09348e-05
0.000528983
5.42849e-05
1.6658e-05
1.65713e-05
9.02573e-05
9.92021e-05
0.000116277
0.000178852
2.54733e-05
9.71444e-05
4.69108e-05
2.66192e-05
1.53201e-05