/*--------------------------------*- C++ -*----------------------------------*\
| =========                 |                                                 |
| \\      /  F ield         | OpenFOAM: The Open Source CFD Toolbox           |
|  \\    /   O peration     | Version:  v2012                                 |
|   \\  /    A nd           | Website:  www.openfoam.com                      |
|    \\/     M anipulation  |                                                 |
\*---------------------------------------------------------------------------*/
FoamFile
{
    version     2.0;
    format      ascii;
    class       volScalarField;
    location    "0.828074";
    object      epsilon;
}
// * * * * * * * * * * * * * * * * * * * * * * * * * * * * * * * * * * * * * //

dimensions      [0 2 -3 0 0 0 0];


internalField   nonuniform List<scalar> 
83563
(
3.09265e-05
2.92575e-05
8.6153e-05
0.00021895
5.1926e-05
0.000137733
0.000161963
0.00520806
0.000741014
0.0591447
0.000723747
0.000760988
2.0674
2.66667e-05
0.00505785
0.00328281
2.69679e-05
2.67334e-05
0.00368384
2.65085e-05
2.62092e-05
2.64425e-05
0.00950852
0.0619595
2.73141e-05
0.00020574
3.89131e-05
0.0783057
0.000178553
3.71561e-05
0.000122593
0.000119255
0.00234405
3.00784e-05
2.72507e-05
0.0004645
2.87337e-05
5.1136e-05
5.70916e-05
0.00440751
5.13687e-05
0.000627562
9.43484e-05
0.000539993
0.17234
0.011636
0.0197587
0.00555391
1.74965e-05
0.521169
0.645788
0.00097571
0.354691
0.751278
0.00106622
2.93191
6.59801e-05
0.653578
0.725615
0.00385597
0.870963
0.0552429
2.14042e-05
8.03626e-05
5.01252
4.46442
0.703313
0.000688696
0.0574519
0.75789
0.00677235
4.7517
4.62799e-05
3.43423
6.95438e-05
0.666268
0.221983
3.87177e-05
3.43961e-05
0.462815
3.13727e-05
4.2195e-05
4.64106e-05
0.0538551
0.000107288
3.21677e-05
2.81143e-05
0.00989604
3.18899e-05
3.24404e-05
0.0047522
3.60003e-05
0.0290433
0.00422474
0.325026
0.00844493
0.189444
0.0314549
1.45438e-05
0.0052235
0.00135935
3.98446e-05
0.00101856
5.50418e-05
0.000480988
0.000117754
0.00022836
2.84202e-05
0.273478
2.67467e-05
0.00939058
0.00134905
0.00405301
0.000891159
2.9955e-05
5.17785e-05
0.840356
0.0146879
0.000328205
5.93388e-05
0.000462586
0.000515349
0.00389484
0.0964033
0.00601871
8.78689e-05
0.0694058
0.000183963
0.00559401
2.13358e-05
0.846974
0.04576
0.000944912
0.313476
0.000483205
2.63155e-05
0.00403949
3.28107e-05
0.000264262
0.682392
0.00102533
0.666083
2.27277e-05
0.00165411
0.676511
1.20285
0.000988249
3.92613e-05
0.00133355
6.24904e-05
0.129192
2.64462e-05
7.01653e-05
0.00279075
2.86349e-05
3.39679e-05
2.83825e-05
1.61705e-05
5.24274e-05
0.00866674
0.0034716
2.89097e-05
5.68178e-05
9.08776e-05
0.00924977
0.0176717
4.13191e-05
0.425197
3.83359e-05
0.00939943
6.83835e-05
5.25021e-05
0.0153301
0.00611142
0.0159495
2.20897e-05
0.000166605
0.000654588
0.00113155
3.08618e-05
0.00029377
3.26383e-05
0.0038999
0.00279341
0.0186691
0.0830792
0.0066937
0.000215433
0.0038964
4.18471e-05
3.153e-05
0.0308718
0.0665151
0.0538854
2.77935e-05
0.0239858
0.000735701
0.0097186
2.66895e-05
0.00294984
0.0023112
0.000232077
0.0127471
3.11025e-05
0.0213806
0.014845
0.000467427
1.10488
2.68628e-05
0.000316443
0.00513677
0.0883815
5.24673e-05
4.653e-05
0.00124283
0.00223261
0.0015397
4.39356e-05
9.38368e-05
5.59771e-05
4.09881e-05
1.58617e-05
0.000737272
0.000475056
0.0215069
4.93955e-05
0.0678422
2.70313e-05
0.000207186
0.0188871
2.8829e-05
0.000192461
2.96101e-05
0.000299258
1.86068
2.60959e-05
0.00448687
4.07246e-05
4.49759e-05
5.04825e-05
0.0049981
0.00108884
2.09725e-05
4.80083e-05
0.00120936
3.03208e-05
0.358077
5.73094e-05
0.445805
0.000206531
0.00253298
3.17078e-05
0.000153213
0.0280577
0.000348625
0.000204257
2.78873e-05
0.011401
6.64996e-05
0.000213825
0.000200524
0.0007253
0.546389
0.00355528
4.54861e-05
0.000501937
0.00285608
0.00164945
4.72626e-05
3.12508e-05
0.00213513
0.00533895
0.00115378
0.000343392
0.00449713
0.000186227
0.0160569
0.00450252
4.75616e-05
3.70212e-05
0.00717932
0.000101817
3.14581e-05
0.00622112
0.0054598
2.6916e-05
0.07155
0.000109327
3.81213e-05
2.12469e-05
0.0106929
3.29657e-05
0.0196124
5.70525e-05
5.30005e-05
0.00158901
0.00139786
0.00357409
3.57014e-05
2.59032e-05
2.69219e-05
0.000401392
0.00047472
2.69533e-05
2.65449e-05
0.0110053
0.0162303
2.56258
0.00265421
0.0163324
0.00113527
0.000348776
1.08713
0.00602285
0.895976
0.000364741
3.60349
0.00222483
5.12713e-05
2.99943e-05
0.0321629
0.00268721
3.08601e-05
9.05883e-05
3.32915e-05
3.43494e-05
0.0221233
0.767858
0.00150118
0.0912057
0.00157938
4.4412e-05
3.29501e-05
0.671632
3.47302e-05
3.13775e-05
0.000538721
5.35869
0.00457219
3.23338e-05
2.65394
1.65767
8.58221e-05
2.67537e-05
0.000641346
8.11129e-05
0.00736901
0.000162461
0.0105998
2.78851e-05
2.71892e-05
0.00260876
0.000111068
0.358621
2.56481
2.63492e-05
0.00173261
0.00232333
0.000427625
0.0615145
3.09498
0.0533799
1.18064
0.750121
1.27603
0.0209099
0.028683
0.00414242
0.0351608
2.91677e-05
0.000314889
0.00101742
0.0053128
1.66903
0.714009
0.000994303
0.666919
0.000679148
6.49757e-05
0.000414716
7.37451e-05
0.000500262
0.000147044
0.0004185
0.961877
0.729114
0.000237967
0.000701833
0.685595
0.00159609
0.0075596
0.000383253
0.000104089
0.637665
0.000620159
0.00875406
0.00242105
0.00407546
0.000221209
2.77768e-05
0.00587685
4.2827e-05
2.5843e-05
0.125215
0.0213886
0.000101769
0.299149
0.000294395
2.74575e-05
0.00223726
1.7943
0.000133047
8.90519e-05
4.00998e-05
0.767157
5.95398e-05
6.53239e-05
1.49963e-05
1.16523
0.000166298
3.13347e-05
3.77204e-05
2.09236
9.09209e-05
0.00637115
2.52673
0.00136929
0.0227933
3.2371e-05
0.00139989
0.000233046
0.00133266
0.00138043
0.000270737
1.19677
0.00411104
0.56758
3.12952e-05
0.00312837
0.105124
0.00793636
0.00130541
0.277086
0.000152052
0.00850094
0.00126715
0.000992825
0.0219081
0.000320575
24.6855
0.012551
6.33771e-05
0.000637524
8.61276e-05
0.00566247
0.0134149
0.000319878
8.09699e-05
3.93995e-05
0.00423941
5.052e-05
0.635605
0.000152014
3.58613e-05
7.78321e-05
0.000125096
5.60542e-05
0.000263718
0.000196784
0.00105399
0.00163038
0.00168625
5.73389e-05
0.00282441
0.000927448
0.00998331
0.000558188
0.000376562
0.000217511
0.000154893
0.000129107
4.68296e-05
0.000939846
3.52433e-05
6.08199e-05
0.000625797
0.000631755
0.00597517
1.66115
3.07609e-05
3.62667e-05
0.000325221
0.000513982
0.245244
0.0277594
4.08086e-05
0.000212091
0.000186814
0.000186841
8.511e-05
2.73277e-05
0.00125853
0.000355839
3.54838e-05
0.00114732
3.73726e-05
1.97421e-05
0.00202729
0.000560538
0.001114
6.50604e-05
3.63056e-05
2.65583e-05
2.68004e-05
0.000109123
0.000225785
1.92051e-05
0.405849
0.934373
9.74659e-05
0.000527267
0.00870678
0.00158438
0.00230555
0.00498538
6.70776e-05
0.00244551
1.06866
4.55782e-05
4.72564e-05
0.000158353
3.0374e-05
0.000389759
0.000113625
0.00012614
0.000248653
0.527363
0.0276444
0.00301764
0.485452
0.000573488
0.00018856
0.528662
0.000450121
0.00130951
0.00390801
0.000182009
0.00824575
0.355562
0.00154884
0.00092609
0.000370739
0.00239647
0.0040053
4.664e-05
0.00236191
0.0432439
3.69831
0.181982
2.63189e-05
0.00316778
1.11468
0.000285265
0.00299493
0.0246368
8.07115e-05
0.0711197
3.49131e-05
4.60017e-05
0.00329146
0.639212
0.00152421
7.08437e-05
0.000710664
0.142248
0.00539125
5.68044e-05
3.8876e-05
0.000357015
5.41147e-05
4.4653e-05
0.7528
0.0378155
0.000954748
4.47187e-05
0.00018512
3.30597e-05
0.000186771
2.65256e-05
1.24158
2.67447e-05
0.000146506
2.73738e-05
0.000105924
0.000492409
2.78738e-05
3.90159e-05
3.38174e-05
2.68261e-05
3.9728e-05
0.00012554
2.82331e-05
2.75531e-05
2.75061e-05
0.000210401
0.000145874
0.0405601
0.000334858
4.10397e-05
3.83521e-05
7.3869e-05
6.03028e-05
2.7624e-05
0.000122366
0.206142
0.000185795
0.00047082
0.000272193
0.00452159
0.00429588
0.00374563
0.361313
0.000515672
6.06315e-05
3.164e-05
0.000379254
0.00111123
4.80691e-05
0.000312834
3.184e-05
0.000155755
0.000473267
0.000160763
0.00100139
2.84677e-05
0.0269382
0.000725755
0.00155487
2.71554e-05
4.83418e-05
0.000269757
0.00905335
0.0122345
3.66793e-05
2.33259e-05
2.71407e-05
2.80134e-05
0.000114147
1.69737
0.000740479
0.000583334
0.00181653
0.00790356
0.00555729
0.0163311
0.000294784
0.0111628
6.78635e-05
0.000119486
0.00104852
4.52206e-05
0.309548
0.00048076
0.000722632
0.405369
2.65124e-05
2.78758e-05
3.3521e-05
4.0632e-05
0.0190609
0.00158335
0.000904947
0.000167572
0.00211985
0.00886949
0.000761591
0.0128471
0.00102604
0.000844382
0.0388378
0.482562
0.00104796
0.0177959
0.802221
2.77738e-05
0.000887545
0.0185032
0.0011976
0.024375
0.000125048
0.000262177
0.00162127
7.39114e-05
0.0136091
0.0117244
0.248593
0.000797228
0.0372651
0.000341909
0.000187827
0.000843872
0.000132515
2.72388e-05
0.000453094
0.0774199
0.00349811
6.1329e-05
0.00032391
0.000966545
0.00123613
2.7085e-05
0.000648756
2.66556e-05
2.77586e-05
0.00105803
3.07486e-05
4.42085e-05
2.36816e-05
0.00208898
0.950262
2.90413e-05
0.0503236
4.36058e-05
0.000639285
0.000118791
2.03716e-05
2.95636
0.883566
0.000129134
2.16575
4.60223e-05
2.8723e-05
4.115e-05
0.0114682
2.73658
0.00518908
2.53248e-05
9.50552e-05
1.58172
7.10366e-05
0.000147086
0.00260718
3.79903e-05
0.00528414
0.000769301
0.000192693
0.00171911
0.032314
0.331237
8.57953e-05
0.000150647
0.000201373
2.60446e-05
1.27144
0.00211163
0.00823304
2.63238e-05
3.8609e-05
0.0136639
0.000207366
7.18707e-05
3.78135e-05
0.0231756
3.54294e-05
0.00190141
0.000211303
2.63733e-05
6.99022e-05
0.00263004
0.000177781
0.00019906
3.2519e-05
3.67505e-05
0.000897743
5.55416e-05
0.000332738
6.13833e-05
0.0347257
3.73246e-05
0.000315043
0.000911763
0.624273
1.53458
5.5373
3.35191e-05
2.9655
0.000270486
0.00439864
8.35077e-05
0.000672847
0.00126307
0.10937
0.00020751
1.03771
0.00255269
0.0010521
0.0013218
0.000263956
4.29502e-05
0.00024012
0.00230623
0.000130219
0.0051861
4.29455e-05
9.96727e-05
4.103e-05
0.00368057
2.67871
0.191769
0.00608131
0.000244004
4.96411e-05
0.289901
0.0966873
0.0226633
0.101098
2.94178e-05
0.0181023
0.000127512
2.98801e-05
0.00152026
0.000158494
0.288863
0.00569541
0.000990211
0.00400731
0.00246267
9.27136e-05
0.0100138
0.000108033
2.81821e-05
1.09557
0.000388914
0.0165278
0.00021044
2.65545e-05
2.69863e-05
1.78649e-05
9.27504e-05
0.00200081
0.00619553
0.19131
3.49865e-05
2.81793e-05
0.000196395
0.00558444
0.0120981
0.000417552
0.00753168
3.57971
0.00170477
4.50984e-05
4.56122e-05
2.67588e-05
6.43669e-05
0.103201
3.90254e-05
0.00563352
0.00209373
0.00113464
5.02767e-05
0.000360322
5.27131e-05
4.08005e-05
0.00668941
4.25894e-05
0.0183028
7.90287e-05
0.000523068
4.79394e-05
0.00148212
0.0334014
0.0116183
4.63812e-05
0.000145066
0.00132184
0.000106709
3.00015e-05
2.8141e-05
4.0496e-05
2.59726e-05
1.90859e-05
0.000272168
6.41414e-05
2.96555e-05
0.376676
0.0129041
0.000502277
0.0892188
0.695113
5.39852e-05
0.0386915
4.50839e-05
4.78372e-05
2.98786e-05
2.83711e-05
0.0025432
2.86162e-05
0.00184065
0.00291832
0.00019921
4.17518e-05
0.000160808
0.0015271
6.23796e-05
0.000432911
0.000703809
3.35398e-05
0.000119999
0.00290908
4.62622e-05
5.13474e-05
2.98184e-05
0.000386372
0.00039246
0.738607
0.697394
2.86011e-05
0.206434
2.66613e-05
5.76815e-05
0.00729943
0.00233028
0.00739212
0.000607138
0.000158268
0.00213913
0.000292382
0.916588
0.000174539
0.00462235
0.0173985
0.00430135
0.00248342
1.17103
0.00315001
0.0377967
6.72217e-05
0.00307288
0.197289
0.00322386
0.000453503
0.0110736
1.61311e-05
3.06775e-05
2.71156e-05
0.00102392
0.00158934
0.000489609
0.000143959
8.63423e-05
6.55541e-05
0.000179704
3.54527e-05
2.62552e-05
0.00199213
0.243937
3.75951e-05
2.56792e-05
2.66689e-05
0.00260209
2.65751e-05
0.000187308
2.86341e-05
0.00477204
0.00795781
0.000656334
2.91413e-05
0.0341165
0.000758065
0.000865807
0.000354149
4.6643e-05
5.39686e-05
0.000260178
0.00635959
0.00016004
0.000407529
2.90632e-05
0.000518807
4.3869e-05
0.00154068
0.00024892
6.97867e-05
3.62263e-05
0.000854566
0.00569395
0.00512435
2.61765e-05
0.00065484
0.046794
0.00336379
3.91236e-05
7.49238e-05
3.75155e-05
0.00106242
0.00919308
0.00179182
0.00510111
0.0131131
0.000312866
2.82865e-05
2.58357e-05
7.32659e-05
0.0680548
0.000135247
0.0104456
0.0125973
0.037656
0.000225718
0.000154128
4.26169e-05
0.000886719
0.000112029
0.000220784
0.102878
0.000675582
0.00385358
0.0201221
0.497334
0.000524363
0.000132103
0.0139527
0.0028939
0.00101913
3.75222e-05
2.62278e-05
0.00829958
2.25675e-05
2.72308e-05
0.0100399
0.00475828
0.000621503
2.01537e-05
4.0444e-05
2.59152e-05
5.0316e-05
4.06264e-05
0.000662457
0.000255771
0.000137315
0.003768
7.52846e-05
0.00717437
2.84005e-05
0.00948565
1.81219e-05
8.94266e-05
2.1846
7.74676e-05
6.34383
2.41365
6.97439e-05
2.56085e-05
2.83568e-05
0.00308793
3.06174e-05
0.0029195
3.03054e-05
1.3316
3.06754e-05
0.820704
0.00218339
0.309434
0.00147136
3.3023e-05
0.00184528
0.000790686
0.000636763
0.00150628
0.0015739
0.00115637
6.65727
0.000187814
0.200328
2.23531e-05
0.000170616
0.000942713
0.00130147
7.4735
2.71203e-05
0.00149198
0.00387528
2.63894e-05
0.00302448
23.9492
8.79897e-05
0.00377015
2.38431e-05
0.0440155
0.385897
0.00648765
0.00380233
0.0010553
0.00142935
0.00444144
3.50782e-05
0.00519294
0.00617618
0.00157962
0.00909863
4.17545e-05
0.0157996
0.00293068
0.00143612
0.000111559
0.000120566
2.80592e-05
0.0035249
3.10174e-05
0.000169728
4.7938e-05
0.000243413
4.17021e-05
0.00763552
0.000443807
0.00507913
0.000128866
0.00196526
0.000994233
0.541116
2.943e-05
9.22116e-05
4.79294e-05
0.000411166
0.000710518
0.0253478
2.61098e-05
0.0118229
2.57235e-05
2.90717e-05
0.00352972
1.86835e-05
9.44313e-05
5.72922e-05
2.96326e-05
2.71245e-05
0.0162245
3.90156e-05
1.9744e-05
0.000156464
0.000295182
3.43852e-05
2.74904e-05
0.00154311
0.00046411
2.63441e-05
0.00258591
0.00055444
3.10523e-05
0.000502425
5.94423e-05
2.60506e-05
4.17592e-05
2.86859e-05
0.00126052
2.77097e-05
2.64029e-05
3.88284e-05
4.36663e-05
0.0140833
2.65956e-05
0.0100295
2.84174e-05
4.81107e-05
3.21626e-05
0.000245983
0.000208339
0.000480617
0.000275222
0.000144497
0.000412975
0.0047452
0.000515882
0.000376512
0.00112383
0.00331086
0.000146951
0.0150708
3.05846e-05
0.000309995
2.10219e-05
0.0121202
3.85171e-05
2.60077e-05
4.08027e-05
4.48911e-05
0.00235168
0.0238914
9.02813e-05
0.004221
0.817051
0.442386
0.917063
0.0905209
0.63412
7.3657e-05
0.000311106
0.000216762
0.00781388
0.000276249
0.240538
2.10984e-05
6.7741e-05
0.00273251
0.0159697
9.30562e-05
0.00248965
0.00144954
0.000973583
0.000103202
0.00129081
2.79571e-05
6.04488e-05
5.42123
2.66403e-05
0.273633
0.678399
0.00293681
0.000732864
2.78461e-05
0.000150504
0.000123348
0.00993203
3.45875e-05
0.00556089
0.0014946
2.43868
0.00639304
0.000105768
0.000125667
3.50534e-05
0.000583721
3.09843e-05
0.00081792
3.54562e-05
0.0303632
0.300043
3.64058e-05
3.00983e-05
0.0202893
0.000265478
0.000109295
0.00168827
7.5432e-05
0.000837834
0.0990246
2.90566e-05
0.0017234
2.02564e-05
0.0488048
0.000556642
3.19429e-05
4.8818e-05
0.00255941
0.185965
0.00679449
0.0010435
3.87675e-05
0.00169979
0.000313494
0.000470689
0.00212213
0.000548257
4.98961e-05
0.0212616
6.59942e-05
2.86245e-05
1.71581e-05
7.08951e-05
0.00212176
0.00145255
0.000113774
4.87812e-05
0.00067284
0.0015147
3.58985e-05
0.00304529
0.00228456
0.00196102
2.9446
4.22063e-05
5.46718e-05
0.00187068
0.921779
0.00237458
0.000895132
0.00431808
3.16699e-05
0.892829
0.000573377
3.40129e-05
2.87594e-05
0.000815786
4.49208e-05
6.33733e-05
0.0044258
0.000916326
0.000165106
0.000345139
0.00703522
0.0167393
2.85423e-05
0.0042938
0.000451437
3.20164e-05
2.47659e-05
0.000524188
0.00756702
8.37078e-05
2.66886e-05
2.9449e-05
2.0729
3.06805e-05
3.38829e-05
3.21501e-05
0.00338711
5.59136
2.73889e-05
1.49547
0.00012366
2.64357e-05
0.114981
0.000653269
2.16467
2.81277
0.000986145
0.00443278
4.16958
0.183668
3.59788
0.00544766
0.000902315
2.86898e-05
2.76129e-05
0.000447559
0.0405803
2.63055e-05
0.00861715
2.7791e-05
3.81794e-05
0.00635281
8.58407e-05
8.57096e-05
2.93582e-05
0.00212962
1.86784
0.000294975
0.00403524
0.00302325
0.000771597
0.00660019
0.000793042
0.00196071
0.00416216
0.00326856
7.12052e-05
0.0146352
4.021e-05
0.000878834
5.01052e-05
0.000134474
0.000498459
0.000227549
2.96482e-05
2.71692e-05
0.000469928
9.83289e-05
7.35225e-05
4.22985e-05
2.67903e-05
0.000343457
0.128154
0.00139463
2.66264e-05
0.000152601
0.458537
6.73252e-05
0.236518
0.0127271
4.2957e-05
5.59477e-05
0.000153917
2.89814e-05
1.91799
6.31893e-05
0.00122469
0.000322062
0.00968588
0.000287136
3.16916e-05
3.83031e-05
0.579173
2.59273e-05
0.208576
0.00121284
0.0102195
0.0100457
2.52901e-05
5.09928e-05
0.000143889
0.00644436
0.00378386
0.0272439
0.0053272
2.62846e-05
2.88511e-05
2.56834e-05
0.000342565
0.000150378
0.00301793
3.34203e-05
0.00284423
0.000137754
0.00029142
0.000298862
0.000651626
0.000563779
0.000224118
2.93006e-05
2.73539e-05
0.000189753
5.25467e-05
0.000161794
0.000111579
0.0027317
0.000200218
5.10407e-05
0.000192547
0.000718975
0.001985
0.00445962
0.00139787
0.000276878
0.00381497
0.853792
4.33589e-05
8.63596e-05
1.18787
2.71203e-05
0.000226796
2.81247e-05
0.000108584
2.60822e-05
2.81555e-05
4.44078e-05
0.00026063
3.18468
0.000266056
0.000983557
0.000263785
0.000207465
0.00676026
3.00588e-05
0.00213034
0.000819269
0.0413721
0.759341
0.000230609
0.000311938
5.43229e-05
0.000526414
0.998855
4.76435e-05
2.85848e-05
0.00932103
1.1976e-05
1.63328
0.02437
0.000674294
2.57617e-05
0.00263729
2.62901e-05
1.33143
0.000196129
5.45643e-05
0.0137463
10.9013
0.000279542
4.1385
0.00485836
0.00326575
0.00201736
0.00391276
0.000180775
2.83802
0.00508141
6.93528e-05
0.00353118
5.00885e-05
0.0143928
0.862612
0.00473986
3.82445e-05
3.21682e-05
0.0222141
0.00850386
1.99229e-05
7.92364e-05
0.0101243
0.00580214
1.77153e-05
6.39922e-05
0.000271825
0.76334
3.41985e-05
0.0113142
6.67048e-05
0.000213974
3.78189e-05
3.17167e-05
2.65962e-05
3.19973e-05
0.000214596
0.00350047
0.00022265
0.000509839
0.185857
3.68012e-05
3.10048e-05
0.000978449
0.0322462
0.000286002
0.000338368
0.000407191
0.00784658
0.00133158
4.55761e-05
0.000327658
0.00018307
2.74446e-05
0.000120764
0.000154689
0.000411547
0.00134459
0.00996381
3.48414e-05
2.64096e-05
0.14801
0.385434
3.18448e-05
0.00293252
0.636357
0.274326
0.000384498
0.512164
4.71049e-05
0.00371017
0.000722557
1.60299
4.95024e-05
0.000382306
7.10248e-05
0.000123906
0.000149036
2.93726e-05
0.000199749
4.7302e-05
0.49772
0.000482544
0.000305251
3.04895e-05
2.18643e-05
0.00609618
0.000127132
6.91692e-05
9.54071e-05
0.000173311
3.89716e-05
2.75784e-05
1.18377
0.007031
0.0963648
0.0048495
3.05526e-05
0.479862
0.00509764
3.60419e-05
2.62355e-05
0.000224821
0.000551956
0.000176434
0.00132728
0.00157403
0.00417565
10.0593
3.67403e-05
2.82229e-05
0.00327216
0.189786
1.09303
4.59323e-05
0.0963965
0.00471359
0.00206206
0.234012
3.24505e-05
0.500457
8.98787e-05
5.92004e-05
0.852845
0.00463744
0.0040996
0.0178615
0.0296029
16.6793
3.93108
4.65073e-05
0.00068212
4.95296e-05
6.98532e-05
0.0302689
6.54535e-05
0.00170407
3.12665e-05
5.21793e-05
6.77612e-05
17.6955
28.9857
3.30231e-05
3.31918e-05
5.7884e-05
2.20714e-05
2.34107
17.7674
0.000363771
0.000167371
2.62574e-05
0.00129746
4.87163e-05
0.000224568
2.21185e-05
3.1981e-05
0.000261624
2.61635e-05
0.0013433
2.47079e-05
0.000232317
2.69019e-05
0.00161815
0.000515382
0.00789435
2.75433e-05
0.00127091
1.62863e-05
0.00117446
0.00297881
0.00108653
0.000138877
0.00753728
0.0142331
0.0344535
0.00190163
0.000949283
0.00338845
0.00641922
0.00234426
0.00735892
0.00193992
1.00992
0.0331388
7.26352e-05
0.00109029
0.000213644
0.0139335
0.00613324
1.36504
4.07693e-05
0.000424881
0.000485642
0.00175487
0.00424859
3.1245e-05
3.49156e-05
0.000273082
3.24008e-05
4.19424e-05
0.00558175
0.00185249
0.000232988
0.000584628
0.000985657
3.67215e-05
0.0189629
0.0207391
2.15716e-05
2.6512e-05
6.93625e-05
0.000525185
0.000460321
0.000244721
3.36601e-05
3.54205e-05
3.58066e-05
3.12035e-05
0.03454
3.25832e-05
4.22221e-05
3.7588e-05
0.00061548
0.000572763
0.00168111
0.0471365
0.000986924
2.86828e-05
6.80389e-05
2.12348e-05
2.97682e-05
0.000127868
0.0159759
6.05866e-05
3.11079e-05
0.000508325
2.4816e-05
2.86595e-05
0.00107311
0.486226
2.63323e-05
2.63528e-05
7.36759e-05
0.0159589
0.011633
0.0011996
0.00313007
0.000107113
0.00544198
0.000460989
3.19054e-05
2.59622e-05
0.00498361
0.000275908
5.89428e-05
2.62012e-05
2.78982e-05
0.000101845
0.757533
0.000526841
2.72978e-05
2.20528e-05
9.78959
2.60376e-05
0.000266822
2.63478e-05
0.000223196
2.92639e-05
0.000764829
5.23685e-05
6.32669e-05
29.0866
0.000726359
0.00105008
0.000281914
3.12942e-05
0.00194011
0.0364576
7.76469e-05
2.85233e-05
19.1745
0.00545084
0.00032233
6.11165e-05
0.00104297
2.65008e-05
3.71144e-05
1.47633e-05
3.34292e-05
0.0313506
3.36652e-05
0.000808737
1.606
1.93473e-05
3.52815e-05
0.00133134
6.07297
2.66351e-05
1.43317
2.68676e-05
1.16235
0.000948876
0.000153651
4.28014e-05
0.00486784
0.000799888
2.74052e-05
0.00111099
0.000182204
3.2016e-05
5.53437e-05
0.000191471
2.71718e-05
0.000727923
0.000544016
2.50201e-05
0.000270376
0.00679445
0.000184975
3.63234e-05
1.66502
0.00014731
0.00221226
8.24194e-05
3.1576e-05
3.57024e-05
0.000238893
0.000802818
1.00286
0.000473629
3.79482e-05
1.05556
0.957592
2.75911e-05
0.000468884
1.49489e-05
6.78494e-05
2.95556e-05
0.000484
2.27855e-05
0.000891722
7.06088e-05
12.7885
0.000530272
9.35984e-05
0.00116412
2.93141e-05
0.000120959
4.7951e-05
3.23399
2.17516
0.000122548
8.74387e-05
0.000368693
0.000104002
3.55208e-05
0.0010889
0.0216574
2.85804e-05
1.83529
3.83818e-05
3.94261e-05
0.000808718
5.6691e-05
0.00218289
0.0473732
0.000749571
0.0091915
9.49072e-05
0.000301125
0.000264302
5.56823e-05
0.000814745
0.000390899
2.66472e-05
1.33542
0.00160119
5.18547e-05
0.00022796
2.76918e-05
3.25691e-05
0.00365084
2.7438e-05
5.43894e-05
0.000303346
0.00596629
2.57609e-05
4.74724e-05
0.34682
0.00248438
0.283405
0.0924903
0.00386142
0.00239903
0.0157256
0.00135186
0.000730688
0.000560259
0.0582519
0.00186442
2.91083e-05
8.88131e-05
2.42106e-05
0.00127395
0.00216971
0.00329349
8.35779
7.53887e-05
0.00652401
0.0750365
3.47015e-05
3.13949e-05
0.000525215
0.0112604
1.40766
2.98476e-05
4.70858e-05
0.000831618
2.73808e-05
0.00344412
16.1516
0.000611732
0.00036359
19.5935
0.000137212
0.00013196
3.23444e-05
2.65496e-05
0.00220386
0.00807874
0.00177039
0.006302
2.05421e-05
9.36596e-05
6.52034e-05
0.471549
2.63552e-05
2.66899e-05
1.1915
0.00010461
2.69962e-05
4.16315e-05
2.59648
0.000284419
0.38794
3.0437e-05
3.00238e-05
0.0090462
0.0124043
0.00233768
0.00092155
0.00164797
4.02515e-05
2.70296e-05
0.780364
0.608154
1.64822
4.43085e-05
1.16387
1.71538
4.93642e-05
5.11612e-05
0.000157769
0.00342665
0.000756769
5.44064e-05
0.00323787
3.06215e-05
0.886721
0.67591
0.131034
0.0162185
5.40336e-05
0.00405633
0.000419669
0.00323371
0.00452863
2.7122e-05
3.08723e-05
0.000261218
0.00773457
2.78098e-05
0.0329021
0.0239824
0.00498264
4.08904e-05
0.00100265
0.00151496
2.62877e-05
0.00880851
0.000383497
0.011319
0.000619786
0.210768
0.000752771
3.05845e-05
3.1172e-05
0.000368936
0.229313
3.08189e-05
0.000364491
0.0210858
0.0540504
0.00826993
0.136984
2.96738e-05
0.00016007
8.05699e-05
0.0150037
0.000191104
0.0021205
2.60733e-05
0.00713966
9.15768e-05
0.100241
0.000100606
5.38625e-05
2.67977e-05
0.206348
0.103325
3.62459e-05
0.663702
2.67924e-05
3.50193e-05
0.000962662
0.00169655
0.000363833
0.000284692
2.98681e-05
0.0212109
0.00261825
5.46113e-05
0.136963
0.0813545
0.00196186
0.000214882
0.000455552
0.000795486
0.00206736
0.00027909
0.0342178
0.000721891
3.43297e-05
0.00137759
0.0010754
6.5368e-05
0.000107064
2.8589e-05
0.00118141
3.01744e-05
1.49307e-05
2.27147e-05
0.00179854
5.55931e-05
0.00117804
0.00306912
0.000141197
2.98159e-05
6.88957e-05
0.00176874
0.0337087
9.41977e-05
2.06051e-05
8.73235e-05
2.57297e-05
2.54213e-05
0.00403296
1.96483e-05
2.52854e-05
2.79323e-05
0.000275389
2.58786e-05
2.67585e-05
2.82012e-05
0.00107889
0.00649522
0.0029217
0.258047
0.00457898
8.20557e-05
2.74703e-05
2.10066e-05
1.16748
0.363593
0.00192146
2.60825e-05
2.61972e-05
7.31158e-05
2.76403e-05
0.214656
0.00388705
0.000815496
0.288895
1.50338e-05
9.74334e-05
2.92768e-05
0.14116
0.00623284
0.439466
9.96752e-05
3.32645
0.00221958
0.00180804
3.6388e-05
0.415782
0.00240436
0.0370668
0.00299189
0.00239736
0.00332095
3.41572e-05
0.154437
3.92674e-05
5.05828
13.1404
16.0489
0.000138375
0.00354663
0.0113729
0.0020487
3.60696e-05
3.33072
22.8208
2.67404e-05
0.00289759
3.60332e-05
8.85241e-05
3.93287e-05
20.9958
0.205868
0.000109664
0.000732585
0.0056719
1.01637
0.00095632
2.60282e-05
0.282013
0.0246825
0.000291973
0.0128281
0.100381
0.00229169
7.36312e-05
0.00622865
0.000198564
2.76603e-05
0.000322482
6.49235e-05
2.92924e-05
0.000697752
7.5927e-05
0.000327035
0.000368068
0.000132522
0.012875
0.0162671
0.000289159
1.20691
3.93587e-05
0.000349869
0.0265933
0.000895386
3.68153e-05
0.000406081
0.000636144
1.28643
0.00355632
0.0162751
0.000643315
0.00155189
1.7176e-05
0.00510825
3.15792e-05
0.140284
0.0148654
0.00615009
1.32593
0.000899883
0.00179592
4.39689e-05
0.00452121
3.06593e-05
4.61856e-05
0.00354201
0.00116075
0.000392514
6.35888e-05
0.000126838
2.97973e-05
0.000458709
0.00491685
3.20568e-05
0.0031231
0.00645642
0.0112462
0.000230539
0.00737419
0.0242373
6.33409e-05
6.87641e-05
4.09059e-05
3.09359e-05
0.00386238
0.00509754
0.000410428
0.000281903
0.000358324
9.13098e-05
0.000117663
0.00875401
5.52667e-05
9.33692e-05
0.00275485
0.000855546
1.23872
0.00294721
0.0015609
2.73473e-05
1.12017
0.378661
3.39625e-05
0.00101688
1.68104e-05
7.43838e-05
0.00362161
3.14029e-05
0.00439581
2.65584e-05
0.00807468
0.000701996
9.16943e-05
3.57296e-05
0.000396344
0.000948773
4.18761e-05
0.000433811
5.55331e-05
9.17051e-05
2.75679e-05
2.61471e-05
0.0126943
0.000195835
3.94362e-05
0.000560117
0.165895
2.09662e-05
3.11085e-05
8.85367e-05
3.71237e-05
0.00299172
0.000620737
0.00404423
0.00125114
4.01683e-05
0.00694072
0.331357
0.00024218
0.000118266
0.122144
0.000347384
0.00140383
0.000500113
3.07298e-05
0.000588212
0.000234801
2.88327
0.000269418
3.45892e-05
3.37147e-05
5.76063e-05
5.2403
0.00250337
0.125764
0.000123823
0.000995823
0.0371352
4.40865e-05
2.77264e-05
3.57512
0.00302241
1.98149
9.16125e-05
0.000433544
1.06586
0.0608273
0.00104984
0.000168079
6.06511e-05
0.000605586
2.61071e-05
0.00198575
0.000331124
0.000713899
0.000213869
0.0023494
3.21263e-05
0.0342962
2.19637
0.000730206
0.000958317
2.65337e-05
0.000273646
1.48433
0.00947124
5.02349e-05
0.000231605
0.000111667
1.02928
0.00109754
0.278941
0.000150791
3.82662e-05
3.55955e-05
0.0111947
0.365891
2.68711e-05
2.67104e-05
1.59698e-05
0.00303539
7.83252e-05
0.000453716
0.0478799
0.00101758
0.000547027
0.0103786
0.359193
0.000698493
2.64574e-05
0.00497146
5.02304e-05
2.84074e-05
0.0103119
3.67538e-05
0.00983777
3.07364e-05
0.000321502
0.000274883
0.0100548
0.000817284
2.67358e-05
0.00286649
0.000117188
2.69201e-05
0.000274119
3.7932e-05
3.39375e-05
0.000410589
0.000202174
8.69223e-05
0.00111641
0.00048395
5.02693e-05
4.07978
0.000426777
0.000692705
0.0244244
2.04434
3.2525e-05
0.000647644
2.81918e-05
0.000951461
0.000552996
0.000805055
0.00353761
0.137097
0.000675494
0.000129807
2.10866e-05
0.0063909
6.74734e-05
0.00058813
4.88161e-05
5.34156e-05
0.000912254
3.93911
0.0011389
4.02235e-05
3.10117e-05
1.21643e-05
5.24249e-05
0.00180355
4.85492
0.000959812
31.0671
2.98087e-05
16.8041
0.000846417
3.1289
0.00854234
0.00389503
27.1067
0.323349
0.000447659
0.00454416
2.83757e-05
0.00417534
3.81371e-05
0.00444749
0.000199648
0.00899635
0.064317
0.000852764
0.00539879
3.45908e-05
0.653615
5.03475e-05
2.70278e-05
2.30506e-05
0.00347502
3.55425e-05
2.82265e-05
0.0518304
0.000738218
0.000110699
6.20213e-05
2.68345e-05
2.72657e-05
0.000338313
9.98922e-05
3.54314e-05
2.6355e-05
3.89731e-05
5.06786e-05
0.00125087
0.0226118
3.39265e-05
0.046868
0.0394984
0.00229444
0.00375551
4.28877
0.000308894
0.192993
0.000661994
0.00824514
0.00770545
0.000117524
2.8489e-05
0.000116713
0.0276549
3.29828e-05
0.0250784
0.00029383
0.00074605
2.77936e-05
2.49129e-05
0.000410405
0.0050449
0.000108397
0.000868779
8.64504e-05
0.000306361
0.000134256
3.42167e-05
0.000280637
0.0962737
0.0182017
0.725814
0.0021873
0.140401
0.000127119
0.00558047
0.00720012
0.0297933
3.50043e-05
0.00388773
3.84027e-05
0.191927
0.00335959
0.0175229
0.00457131
0.00324538
8.90412e-05
0.00148779
2.82742e-05
4.01113e-05
0.00095971
0.0697693
3.29334e-05
0.0326544
0.000904569
0.000422397
2.53068e-05
2.64972e-05
0.000344605
0.000392202
0.00029709
0.0175044
2.65073e-05
0.0225412
0.00107416
5.86598e-05
0.000139348
0.000463897
0.00169663
0.000516527
0.00962665
0.000301647
0.00348182
0.000344133
0.000300933
0.000101733
0.000449755
0.00273094
4.71665e-05
1.65439
4.15465e-05
0.00116768
2.27909e-05
0.00131933
5.4341e-05
0.0056571
0.00487564
0.0111981
3.00053e-05
2.80575e-05
7.21405e-05
0.0046645
0.00253195
0.896229
0.00354886
0.0518248
0.667216
6.67599e-05
0.118485
4.10986e-05
2.54524e-05
3.91488e-05
0.000686836
2.40984e-05
0.00280268
0.00455169
0.000209661
0.000898733
0.00170131
8.89666e-05
3.21278e-05
4.10905e-05
9.6188e-05
0.000705487
0.000484927
0.00772201
4.26185e-05
0.00119538
0.00644596
0.299893
2.46166e-05
0.0373916
2.62848e-05
7.32062e-05
9.84024e-05
0.000386756
0.00439403
6.20392e-05
0.00403822
0.000432029
6.80843e-05
3.09989e-05
0.000365856
0.00108092
2.58468e-05
0.00181476
0.00127116
4.96666e-05
2.89057e-05
7.53913e-05
0.00911215
0.000948604
0.0198608
6.38871e-05
0.000728135
0.00783873
4.70269e-05
0.000873213
0.000353377
2.67762e-05
2.98503e-05
0.110627
0.00019426
0.000538777
3.98188e-05
2.58824e-05
0.000109035
1.83861e-05
2.6174e-05
2.62548e-05
3.5362e-05
2.59911e-05
5.01415e-05
0.00378655
0.000228056
2.70296e-05
0.00845322
0.0012102
2.63115e-05
3.83883e-05
0.000392339
0.0269418
0.00265161
0.210665
0.00119522
8.46226e-05
0.0450413
0.00190112
0.0075492
0.00288464
0.0142093
4.72026e-05
2.61689e-05
0.261361
8.37553e-05
0.000314237
0.000145484
2.58163e-05
0.026343
2.62002e-05
2.49962e-05
1.56824e-05
0.00161003
2.55376e-05
2.67671e-05
6.64561e-05
0.00379073
3.68486e-05
9.79896e-05
0.000336504
0.954338
0.00327354
0.0785972
0.39268
5.94136e-05
0.133982
4.07983e-05
0.00166316
0.00734842
6.6056e-05
5.7742e-05
0.000114951
0.81067
3.46696
2.83203e-05
0.001341
1.11307
0.000819795
0.00167442
0.00283755
0.00435889
0.00618355
0.00101353
0.352079