/*--------------------------------*- C++ -*----------------------------------*\
| =========                 |                                                 |
| \\      /  F ield         | OpenFOAM: The Open Source CFD Toolbox           |
|  \\    /   O peration     | Version:  v2012                                 |
|   \\  /    A nd           | Website:  www.openfoam.com                      |
|    \\/     M anipulation  |                                                 |
\*---------------------------------------------------------------------------*/
FoamFile
{
    version     2.0;
    format      ascii;
    class       volScalarField;
    location    "0.828074";
    object      k;
}
// * * * * * * * * * * * * * * * * * * * * * * * * * * * * * * * * * * * * * //

dimensions      [0 2 -2 0 0 0 0];


internalField   nonuniform List<scalar> 
83563
(
7.86831e-05
8.56876e-05
0.000161307
0.000215413
0.000132191
0.000225013
0.000128848
0.00276647
0.000713145
0.0169373
0.000669472
0.000377649
0.235524
7.27205e-05
0.00283059
0.00188287
7.32699e-05
7.28353e-05
0.00187441
7.24214e-05
7.18348e-05
7.22982e-05
0.00368293
0.0231992
7.39225e-05
0.000209087
9.47162e-05
0.0201302
0.000208045
9.14485e-05
0.000183645
9.99325e-05
0.00168656
7.91621e-05
7.35382e-05
0.000533156
8.09015e-05
0.000111685
0.000122572
0.0019055
0.000103977
0.00060074
0.000165718
0.000429656
0.0173205
0.00409215
0.00428688
0.00263768
0.000114453
0.21869
0.21471
0.000807277
0.0772086
0.129146
0.000741832
0.424195
0.000123923
0.0994329
0.120161
0.00182762
0.132249
0.0198117
0.000105898
0.000147651
0.480845
0.29724
0.131584
0.000445228
0.00297377
0.228276
0.00288488
0.620189
9.95705e-05
0.445532
0.000140822
0.213905
0.0536167
9.24067e-05
8.60215e-05
0.068374
8.08602e-05
8.59905e-05
0.000101671
0.0164484
0.000289664
8.0942e-05
7.56033e-05
0.00415256
8.19202e-05
0.000110011
0.00244862
8.07759e-05
0.00738719
0.00226889
0.0518375
0.00370055
0.0436422
0.00761987
8.92733e-05
0.00255561
0.000809859
9.60756e-05
0.000880105
0.000110116
0.000509784
0.00017947
0.000286355
7.58146e-05
0.0374887
7.28773e-05
0.00382374
0.000852915
0.00178729
0.000602734
9.18087e-05
9.21162e-05
0.345441
0.00531421
0.000399989
9.48392e-05
0.000449721
0.000464992
0.00176717
0.0274382
0.00236194
0.000121737
0.0218699
0.000164149
0.00268133
0.000103335
0.317923
0.0196278
0.000712579
0.080245
0.000379766
7.20445e-05
0.0017816
9.3176e-05
0.000231374
0.174969
0.000742855
0.158536
0.000116918
0.00100172
0.134008
0.164278
0.000727554
9.45482e-05
0.000782824
0.000130867
0.0382031
7.37847e-05
0.000132736
0.00151658
7.55616e-05
8.08906e-05
7.57048e-05
8.97681e-05
0.000176296
0.00229394
0.00178803
7.63913e-05
0.000116375
0.000119508
0.00355052
0.0072943
8.44995e-05
0.210592
8.48869e-05
0.00396578
0.000110287
9.38621e-05
0.00574765
0.00283853
0.00578574
9.97803e-05
0.000253668
0.000483923
0.000862313
7.73355e-05
0.0002915
8.37022e-05
0.00179944
0.0017424
0.0060475
0.0196469
0.00298486
0.000165154
0.00130712
9.12674e-05
8.03854e-05
0.00909881
0.0185412
0.0197129
0.00012854
0.0105116
0.000555485
0.0040153
7.27854e-05
0.00169981
0.0013442
0.000384116
0.00466682
7.55731e-05
0.00697229
0.00508083
0.000370811
0.418721
7.3083e-05
0.000300448
0.00254985
0.0187812
9.79508e-05
8.62496e-05
0.000775113
0.00154482
0.000962523
8.66805e-05
0.000138982
0.000178392
0.00011418
9.05911e-05
0.000491161
0.000395785
0.00563268
9.15659e-05
0.0142063
7.38809e-05
0.000226986
0.00547014
7.65997e-05
0.000226451
7.53227e-05
0.000296768
0.280455
7.16165e-05
0.00225664
9.3963e-05
8.86421e-05
0.000102347
0.00235766
0.000943747
0.000112562
8.97285e-05
0.000754565
8.3888e-05
0.130367
9.52902e-05
0.102588
0.000300782
0.00134471
0.000105551
0.000202099
0.0097908
0.000359264
0.000274625
7.41762e-05
0.00458583
0.000115467
0.000245156
0.000238601
0.000683615
0.260778
0.00183889
0.000131086
0.000429522
0.00156101
0.000939823
8.84432e-05
7.74049e-05
0.00110636
0.00211211
0.000777345
0.000404252
0.00201421
0.000251158
0.00540203
0.002357
0.000106774
0.000119235
0.00332591
0.000134116
7.9663e-05
0.00312985
0.00286199
7.80779e-05
0.0231781
0.000134473
9.23007e-05
8.95025e-05
0.00574901
8.19652e-05
0.00616895
0.000103183
0.000109543
0.000892269
0.00100746
0.00183009
0.000116354
8.96991e-05
8.7369e-05
0.000375597
0.000432625
7.4108e-05
7.25246e-05
0.0040131
0.00552416
0.285616
0.00155892
0.00599419
0.00074443
0.000565336
0.120167
0.00354542
0.298104
0.000277673
0.812627
0.00126656
9.52406e-05
0.000125693
0.00934016
0.00136978
8.05209e-05
0.000164253
0.000134755
8.12456e-05
0.00716644
0.145972
0.000882738
0.0317588
0.000819769
0.000110602
7.78163e-05
0.12475
8.27176e-05
8.15274e-05
0.000547873
0.45288
0.00235508
8.52142e-05
0.325946
0.147484
0.000125613
7.77999e-05
0.000478287
0.000105748
0.00328914
0.000259199
0.00428815
7.80058e-05
7.31897e-05
0.00135953
0.000196194
0.046606
0.48766
7.21123e-05
0.000960761
0.00131701
0.000418055
0.018219
0.739292
0.0161168
0.384162
0.326024
0.423185
0.00715356
0.00923101
0.00202597
0.0158741
7.62083e-05
0.000279006
0.000822878
0.00273659
0.151724
0.0861851
0.000712397
0.30006
0.000447108
0.00012563
0.000330448
0.000146344
0.00030823
0.000176249
0.00034662
0.368586
0.295003
0.000323151
0.000655446
0.311037
0.000958636
0.00392266
0.000293445
0.000187291
0.288294
0.000879903
0.00369235
0.00127657
0.00210057
0.000244235
7.36315e-05
0.00444586
8.7552e-05
7.58166e-05
0.0541882
0.0065248
0.00017966
0.0496553
0.000295079
7.45738e-05
0.00107032
0.240176
0.000373514
0.000118168
9.64506e-05
0.119596
0.000117978
0.000132813
0.000108871
0.405369
0.00025828
8.14504e-05
9.27068e-05
0.244191
0.00012466
0.00262366
0.299166
0.000841695
0.00722669
8.09494e-05
0.000797002
0.000228657
0.000787062
0.000889842
0.000247756
0.379187
0.00220897
0.242928
8.11878e-05
0.00172225
0.0263455
0.00366256
0.00105713
0.141301
0.000154339
0.00372683
0.000847235
0.000869323
0.00791963
0.000510624
1.52399
0.00487253
0.00013338
0.000504648
0.000165205
0.00283533
0.00533544
0.000263848
0.000120964
9.44902e-05
0.00182851
9.53358e-05
0.116764
0.000201492
8.899e-05
0.000145444
0.000186549
0.000103432
0.000268069
0.000286843
0.000858507
0.00118484
0.000939493
0.000124296
0.00173822
0.000561961
0.00395334
0.000486093
0.000399876
0.000350805
0.000189911
0.000248033
0.000108148
0.000685669
0.000143958
9.78802e-05
0.000421001
0.000491036
0.00280406
0.266866
7.75416e-05
8.18736e-05
0.000326102
0.000501295
0.0739953
0.00840451
0.000158598
0.000253737
0.000287465
0.000249934
0.000137857
7.36666e-05
0.000862607
0.00029231
8.87647e-05
0.000834552
8.53279e-05
9.84918e-05
0.00110412
0.00036242
0.000872814
0.000105956
9.4988e-05
7.29206e-05
7.29555e-05
0.000166819
0.000191115
0.000102866
0.108471
0.169213
0.000158937
0.00050924
0.00334336
0.00111892
0.0011566
0.00232648
0.000128538
0.00107114
0.180549
0.000100178
0.000108559
0.000168934
7.91367e-05
0.000404039
0.000173845
0.00017712
0.000216104
0.122316
0.00881312
0.00144975
0.104343
0.000571196
0.000151115
0.0791887
0.000259529
0.000666331
0.00182002
0.000213014
0.00342018
0.0537025
0.000869344
0.000630329
0.000254388
0.00134562
0.00125976
8.71684e-05
0.00137254
0.0153836
0.764905
0.0360615
7.20451e-05
0.00148798
0.301016
0.000248957
0.00169069
0.0112161
0.000135278
0.0197494
8.73112e-05
9.10293e-05
0.00192357
0.163716
0.00102307
0.000131503
0.00062295
0.032333
0.00237669
0.000122833
9.52502e-05
0.000253604
0.000117929
0.00010231
0.0546283
0.0227004
0.000674407
0.000104213
0.000222978
8.2359e-05
0.000279212
7.24446e-05
0.0929197
7.28507e-05
0.000156957
7.39937e-05
0.000153976
0.0004576
7.49854e-05
9.19371e-05
8.60011e-05
7.29738e-05
8.33009e-05
0.000214865
7.56962e-05
7.43967e-05
7.41261e-05
0.000257021
0.000235566
0.0155965
0.000315927
9.72689e-05
9.29884e-05
0.000141056
0.000103217
7.64926e-05
0.000204509
0.0496517
0.000225517
0.000502677
0.000410001
0.00229407
0.00225437
0.00205295
0.0986417
0.000484813
0.000115974
7.86985e-05
0.000342527
0.000735115
0.000104042
0.000323027
7.99382e-05
0.00025864
0.000404026
0.000217645
0.000735589
7.61159e-05
0.00973447
0.000590043
0.00100204
7.34926e-05
0.000110933
0.00025149
0.00438377
0.00554631
8.55065e-05
0.000121524
7.36123e-05
7.52443e-05
0.000131316
0.200021
0.000596699
0.00047577
0.00108616
0.0029868
0.00215483
0.00532995
0.000274765
0.00489806
0.000103273
0.000148898
0.000702274
0.000104425
0.088611
0.000427904
0.000566503
0.0735854
7.24351e-05
0.000100316
8.39255e-05
9.66873e-05
0.00765127
0.000911754
0.000640539
0.000179334
0.00126476
0.0037772
0.000524995
0.00628434
0.000584535
0.00056458
0.015015
0.0919838
0.000846573
0.00582217
0.110987
7.43792e-05
0.000486242
0.0060232
0.000750207
0.00905949
0.000210353
0.000325597
0.000988482
0.000140445
0.00512184
0.00364908
0.0641261
0.000585166
0.0105003
0.000247695
0.000207486
0.000640447
0.00019824
7.36949e-05
0.000506622
0.0290285
0.00197492
9.38695e-05
0.000375581
0.000723156
0.000850123
7.35e-05
0.000699925
7.27153e-05
8.24693e-05
0.000970079
7.63702e-05
9.81943e-05
7.75158e-05
0.00135796
0.341688
7.71363e-05
0.0180673
0.000101797
0.000636154
0.000137871
0.000128309
0.285516
0.0881971
0.00021076
0.296853
8.70159e-05
7.63971e-05
9.78614e-05
0.00449452
0.212706
0.00256677
8.059e-05
0.000188104
0.147696
0.000103078
0.000227271
0.00102488
8.46617e-05
0.00198001
0.000655359
0.00026883
0.00112001
0.00973256
0.0750886
0.000155771
0.000235231
0.000293329
7.15178e-05
0.221297
0.00126448
0.00367518
7.20718e-05
0.00010428
0.00488633
0.000295279
0.000136474
9.1352e-05
0.00119096
8.1221e-05
0.00121885
0.000273442
7.2142e-05
0.000129458
0.00136608
0.000427944
0.000273965
8.18409e-05
7.95137e-05
0.000878605
0.00012138
0.000405416
0.000118336
0.0140476
8.86218e-05
0.000306628
0.00066401
0.238725
0.257936
0.514379
8.53228e-05
0.331146
0.000255717
0.00250714
0.000155331
0.000592724
0.000802597
0.0367555
0.000241983
0.19996
0.00153148
0.000856767
0.000749447
0.000186783
0.000101474
0.000246711
0.001526
0.000150487
0.00220089
9.04007e-05
0.000117928
9.58648e-05
0.00170435
0.222272
0.0354425
0.00260329
0.00020557
0.000142129
0.0531317
0.0197887
0.00862624
0.0202149
7.79043e-05
0.00683917
0.000139613
7.72061e-05
0.00197384
0.000201354
0.0444403
0.00281438
0.000612184
0.00192808
0.00146983
0.000319707
0.000459671
0.000177109
7.44027e-05
0.351804
0.000341867
0.00590183
0.000291666
7.24997e-05
7.33444e-05
9.60493e-05
0.000168911
0.00116823
0.000443225
0.00967015
8.79273e-05
7.54113e-05
0.000284444
0.000367305
0.00447254
0.000283112
0.00314963
0.401232
0.000877243
8.86681e-05
8.66235e-05
7.29332e-05
0.000128935
0.00579254
9.556e-05
0.00250048
0.00145618
0.00079527
9.86914e-05
0.000298798
0.000123476
8.56142e-05
0.00312915
0.000137193
0.00735548
0.000194164
0.000459428
9.20886e-05
0.000846706
0.0103039
0.00529238
0.000136047
0.000227624
0.000883757
0.000130801
7.81573e-05
8.34512e-05
0.000105596
7.13738e-05
8.96136e-05
0.000260826
9.58901e-05
7.64239e-05
0.117927
0.00434012
0.000344873
0.0279492
0.118127
0.000108808
0.0103302
9.27277e-05
0.000108277
7.87081e-05
7.55499e-05
0.00141824
7.44626e-05
0.00130228
0.00205551
0.000191763
8.65051e-05
0.000245553
0.00133531
0.000102843
0.000381694
0.000566181
8.3548e-05
0.00020648
0.0017526
8.60329e-05
0.000105332
7.57103e-05
0.000375117
0.000301588
0.153997
0.0954835
7.49613e-05
0.0520234
7.27146e-05
0.00018858
0.00344685
0.00136131
0.00307746
0.000380536
0.000204748
0.00133729
0.000282086
0.0921763
0.00021874
0.00226682
0.00799933
0.00210258
0.00160278
0.139572
0.00166733
0.0147001
0.000137802
0.00156425
0.0483622
0.00191125
0.000342856
0.00390311
9.13997e-05
8.01924e-05
7.3365e-05
0.000718478
0.000846392
0.000424055
0.000130682
9.93569e-05
9.4608e-05
0.000181582
8.67727e-05
7.1926e-05
0.00142518
0.0491041
8.77786e-05
7.08074e-05
7.26648e-05
0.00155665
7.25439e-05
0.000226601
7.58223e-05
0.00221778
0.0032315
0.000597909
7.65838e-05
0.0116457
0.000579154
0.00131328
0.000380197
0.000120674
0.000124946
0.000302692
0.00272213
0.000139682
0.000358226
7.72467e-05
0.0004987
0.000108757
0.000808809
0.000297508
0.000122888
9.38279e-05
0.000741812
0.00284248
0.00246947
8.76111e-05
0.000405072
0.0134249
0.00160542
8.46132e-05
0.000138352
9.13023e-05
0.00161096
0.00433415
0.00119619
0.00229496
0.00634998
0.000300947
7.5389e-05
7.11143e-05
0.000139016
0.0236836
0.000191236
0.00443498
0.00470345
0.0117489
0.000299774
0.000228907
0.000100753
0.000625256
0.000126315
0.00027499
0.0544447
0.000488065
0.00207199
0.0073829
0.191784
0.000586269
0.000192282
0.00566083
0.00138545
0.000606685
8.90302e-05
7.18679e-05
0.00354207
7.74602e-05
7.31518e-05
0.00343548
0.00274929
0.000401397
0.000100222
0.000134361
7.12636e-05
0.000138192
9.58522e-05
0.000501377
0.000256486
0.000132652
0.0017867
0.000118041
0.00305653
8.29382e-05
0.00361193
9.81414e-05
0.000160616
0.411822
0.000147392
0.658404
0.258286
0.00010036
7.26759e-05
7.59784e-05
0.00162755
7.76502e-05
0.00140925
7.9126e-05
0.289599
8.06149e-05
0.137767
0.00234969
0.0891444
0.000887949
7.90096e-05
0.00105654
0.000559119
0.000587471
0.00109939
0.000820291
0.000819695
0.574374
0.000190546
0.0575969
0.000120051
0.000187881
0.000596867
0.000926866
0.901257
7.35819e-05
0.00108726
0.0019283
7.21204e-05
0.00154614
1.62857
0.000149828
0.00184841
0.000102223
0.0155467
0.0765448
0.00296885
0.00205917
0.000824353
0.000977774
0.00238029
8.56556e-05
0.00217014
0.00254492
0.0010597
0.00342942
9.61667e-05
0.00501509
0.0012655
0.000906751
0.000144179
0.000276123
7.4624e-05
0.0015873
8.03895e-05
0.000165249
0.000109933
0.000292586
9.26318e-05
0.00432723
0.000325729
0.00211459
0.000126657
0.00128097
0.000687251
0.103985
7.73477e-05
0.000169727
9.01506e-05
0.000628064
0.000473086
0.00830027
7.16495e-05
0.00559115
8.07761e-05
7.63882e-05
0.00202715
9.80583e-05
0.000165228
9.99093e-05
7.79287e-05
7.35209e-05
0.00625774
0.000112657
0.000101237
0.00016475
0.000282962
8.01347e-05
7.42461e-05
0.00100161
0.000423396
0.000125659
0.00149751
0.000450067
7.92208e-05
0.000476457
0.000121132
7.88018e-05
9.94171e-05
7.64822e-05
0.000990171
7.35982e-05
7.21999e-05
8.47765e-05
0.000128971
0.00559269
8.27628e-05
0.00529339
8.0405e-05
0.000104913
8.29476e-05
0.000241182
0.000280324
0.000403587
0.000243976
0.000194796
0.000315903
0.00219263
0.000387119
0.000430204
0.000719085
0.00166172
0.000232265
0.00535206
7.78343e-05
0.000250175
8.60903e-05
0.0053115
8.65176e-05
7.26924e-05
8.60574e-05
9.38887e-05
0.00121176
0.00763276
0.000168177
0.00202137
0.341789
0.18197
0.355742
0.0192636
0.243521
0.000115409
0.000212101
0.000228758
0.0030772
0.000266227
0.0609724
0.000100365
0.000100765
0.00178942
0.00593065
0.000138117
0.00143118
0.00119957
0.000577652
0.000166378
0.000879428
7.34554e-05
0.000122214
0.211894
7.26719e-05
0.0279438
0.123711
0.00174095
0.000656142
7.49383e-05
0.00019205
0.000180671
0.00411126
8.04887e-05
0.00287189
0.00108396
0.116821
0.0028967
0.000146677
0.000127272
8.62345e-05
0.000424571
0.000102905
0.000616701
7.95135e-05
0.00237244
0.031548
8.96947e-05
7.86925e-05
0.00148552
0.000262948
0.000132012
0.000944844
0.000108218
0.00101204
0.00730372
7.85086e-05
0.000899114
0.000118033
0.0178758
0.000404955
7.85601e-05
9.06809e-05
0.00173565
0.046339
0.00316204
0.000766362
9.07791e-05
0.00110741
0.000539019
0.0004674
0.00118732
0.000441351
0.000112176
0.0075624
0.00010808
0.000115366
9.50751e-05
0.000118692
0.00127542
0.00126495
0.000180242
0.000109947
0.00115303
0.000831413
8.87564e-05
0.00153922
0.00115122
0.0010565
0.456858
0.00014944
9.92421e-05
0.00105684
0.169373
0.0013813
0.000603572
0.00230853
8.1237e-05
0.158592
0.000484299
8.02308e-05
7.62171e-05
0.000511681
9.38969e-05
0.000147588
0.00223426
0.000598608
0.0002565
0.000335661
0.0031946
0.00655707
7.54315e-05
0.00196117
0.000392627
8.15577e-05
7.5902e-05
0.000366104
0.00360805
0.000151577
7.2762e-05
7.78312e-05
0.182958
7.76048e-05
7.88965e-05
7.87795e-05
0.00178043
1.00846
7.3708e-05
0.147248
0.000188269
7.6391e-05
0.0425748
0.000428816
0.240298
0.69398
0.000613048
0.00148555
0.94476
0.0133247
0.835164
0.00225108
0.000552204
7.60278e-05
7.45258e-05
0.000462321
0.0136037
7.19666e-05
0.00345929
7.4175e-05
9.34657e-05
0.00285227
0.00014552
0.000161131
7.51003e-05
0.00137716
0.520094
0.00029288
0.00237573
0.00182369
0.000556704
0.00262676
0.000602644
0.0011915
0.00194277
0.00139071
0.000144158
0.0104244
9.69448e-05
0.000599462
0.000101836
0.00021223
0.000330851
0.000239295
7.92965e-05
7.33746e-05
0.000458933
0.000165762
0.000175163
0.000105552
7.28487e-05
0.000375954
0.0448468
0.00116511
7.25725e-05
0.000171956
0.101054
0.000162195
0.130299
0.00482775
9.41074e-05
0.000111753
0.000161192
7.75535e-05
0.521361
0.000121315
0.000757935
0.000397771
0.00381114
0.000333448
7.72752e-05
0.000126432
0.120524
7.1471e-05
0.0936378
0.000770697
0.00401781
0.00391658
8.20243e-05
0.000113673
0.000168134
0.00283292
0.00207765
0.00658885
0.00257992
7.36977e-05
7.59531e-05
7.24557e-05
0.000316195
0.000239521
0.0018086
8.5261e-05
0.00154521
0.000197829
0.000431787
0.000359157
0.000646442
0.00045845
0.000249735
7.7408e-05
9.14975e-05
0.000324261
9.92012e-05
0.000249684
0.000159633
0.000222338
0.000290783
9.21786e-05
0.000230391
0.000487662
0.00118643
0.00216007
0.000679281
0.00026575
0.00195248
0.286512
8.9513e-05
0.00016348
0.176289
7.35593e-05
0.000237232
7.47288e-05
0.0001654
7.4294e-05
7.51313e-05
9.953e-05
0.000232876
0.370701
0.000241297
0.000755709
0.000250419
0.000204666
0.00321205
7.70157e-05
0.00123449
0.000524426
0.0083237
0.130458
0.000282658
0.000384851
9.58181e-05
0.000533002
0.196933
8.70192e-05
7.58111e-05
0.00364993
8.73645e-05
0.265523
0.00858293
0.000480836
7.09713e-05
0.00142557
9.19261e-05
0.177398
0.000180018
0.000119556
0.00493789
0.624212
0.000234322
0.452041
0.00222865
0.00188915
0.00111662
0.00210424
0.000210353
0.356845
0.00272945
0.000141616
0.00170929
9.29634e-05
0.00409181
0.152364
0.00206916
9.01713e-05
7.86154e-05
0.00739916
0.00324602
9.72082e-05
0.00014214
0.00377347
0.00221808
8.98791e-05
9.91924e-05
0.000300214
0.137507
7.90321e-05
0.0030724
0.000124604
0.000229323
8.25574e-05
8.16418e-05
7.89818e-05
8.26248e-05
0.000267286
0.00174407
0.000306703
0.000551043
0.073161
8.4172e-05
7.94014e-05
0.000760532
0.0119362
0.000342582
0.000280685
0.000333604
0.00289985
0.00102914
0.000101006
0.000378977
0.000262452
7.34398e-05
0.000203401
0.000163466
0.000459814
0.00081716
0.00423574
8.3409e-05
7.22365e-05
0.0410678
0.0834301
8.00112e-05
0.00143559
0.122577
0.0776533
0.000338697
0.103574
0.000108492
0.00170629
0.000425418
0.170029
9.42431e-05
0.00042037
0.000129376
0.000211119
0.00033138
7.72721e-05
0.000403172
8.87184e-05
0.184448
0.000430069
0.000231215
7.75782e-05
9.49591e-05
0.00243856
0.000211941
0.000115424
0.000172633
0.000321765
0.000117303
7.42452e-05
0.426472
0.00312992
0.0465351
0.00217061
7.80838e-05
0.215856
0.00220557
8.69231e-05
7.18789e-05
0.000196079
0.000428896
0.000176305
0.000799428
0.000876897
0.00188532
0.880767
9.06219e-05
7.57053e-05
0.0011571
0.110154
0.351407
0.000102841
0.0388599
0.00240923
0.00106491
0.0812392
8.34354e-05
0.154606
0.000159369
0.000122287
0.303391
0.00231279
0.00204131
0.0122518
0.00810801
1.2742
0.495495
0.00010696
0.000520007
9.53199e-05
0.000111064
0.00777591
0.000127086
0.00094167
7.74159e-05
9.4803e-05
0.000100337
1.01185
1.81067
7.97153e-05
8.54929e-05
9.23039e-05
0.000102235
0.372197
1.29598
0.000392461
0.000322572
7.18708e-05
0.000822173
0.000114176
0.000392347
9.87221e-05
8.11938e-05
0.000312581
0.000100396
0.000819637
7.90277e-05
0.000224399
0.000103756
0.000891709
0.000445873
0.00285713
7.44227e-05
0.000879082
9.12086e-05
0.000793763
0.00150674
0.00074109
0.000154613
0.00346711
0.00470497
0.00994696
0.00118587
0.000817672
0.00148998
0.00302625
0.00142209
0.00336211
0.00129306
0.176947
0.0103105
0.000131547
0.000803435
0.000257756
0.00527852
0.00261849
0.173002
8.33686e-05
0.000378354
0.000395859
0.00108702
0.00224357
8.02888e-05
0.000107201
0.000246141
0.000131276
9.64935e-05
0.00282214
0.00111444
0.000221029
0.000395814
0.000778418
9.83107e-05
0.00618578
0.0058825
9.0241e-05
7.22034e-05
0.000114863
0.000326296
0.00035407
0.000328577
8.38587e-05
8.88565e-05
9.85892e-05
8.11777e-05
0.00958613
8.22624e-05
0.000100461
8.15093e-05
0.000479186
0.000522655
0.000884729
0.00306803
0.000759994
7.62506e-05
0.000136072
9.12536e-05
7.58126e-05
0.000138696
0.00755303
0.000120361
8.09054e-05
0.000404111
7.97083e-05
8.10435e-05
0.000671717
0.121811
7.29546e-05
7.23464e-05
0.000146471
0.00627583
0.00406977
0.000718962
0.00212047
0.000189962
0.00303051
0.000428114
8.09001e-05
7.13591e-05
0.00257577
0.000244893
9.40893e-05
7.18202e-05
7.4506e-05
0.000156968
0.102437
0.000910053
7.38523e-05
0.000119014
0.650843
7.14982e-05
0.000351119
7.20918e-05
0.000266343
7.47084e-05
0.000735813
0.000113493
0.000103253
1.53595
0.000631095
0.000838869
0.000369585
8.13818e-05
0.00119081
0.0204357
0.000152992
7.60203e-05
1.11376
0.0021643
0.000329628
0.000115811
0.000785993
7.23204e-05
8.42297e-05
0.00010587
8.54071e-05
0.0102912
8.41503e-05
0.00062806
0.193598
8.81027e-05
0.000120352
0.000970701
0.548978
7.26469e-05
0.205835
7.30917e-05
0.216305
0.000668875
0.000178261
8.80729e-05
0.00227305
0.000617356
8.81889e-05
0.000842673
0.000217974
8.23854e-05
9.95685e-05
0.00023101
7.37087e-05
0.000585774
0.000492707
7.78736e-05
0.000300178
0.00267095
0.000232821
8.77039e-05
0.216242
0.000189116
0.00141699
0.000298677
8.19733e-05
8.70602e-05
0.000307737
0.000762414
0.275077
0.000469443
0.000105871
0.295764
0.254685
7.39876e-05
0.000501587
8.61974e-05
0.000123907
7.62647e-05
0.000467847
7.63661e-05
0.000687264
0.000142313
0.852175
0.000550227
0.000141855
0.000878996
7.7135e-05
0.000172982
0.00010078
0.722663
0.604493
0.000180128
0.000144678
0.000411096
0.000133745
8.27926e-05
0.000730922
0.0128807
7.51798e-05
0.27399
9.3938e-05
9.56167e-05
0.000685657
0.000123269
0.00120355
0.0194534
0.000563922
0.00408979
0.000117239
0.000288348
0.000349381
0.000116777
0.000471088
0.000418593
7.26736e-05
0.185239
0.000921209
0.000150501
0.000242107
7.39186e-05
8.165e-05
0.00188899
7.40417e-05
0.000111496
0.000371967
0.00306533
7.24039e-05
0.000119384
0.0716735
0.00152292
0.0546952
0.0195556
0.0015374
0.0014245
0.0071278
0.000670869
0.000505468
0.000477624
0.0134932
0.00105973
7.55359e-05
0.000159362
8.43907e-05
0.000931104
0.000905316
0.00190821
0.447611
0.000132528
0.00272584
0.0277665
8.63697e-05
8.06556e-05
0.000428534
0.00420778
0.203576
7.86585e-05
9.24299e-05
0.000635666
7.41009e-05
0.00183817
0.783876
0.000474502
0.000429414
1.05548
0.000188359
0.000216681
8.32903e-05
7.24051e-05
0.0013609
0.00353643
0.00117983
0.0033805
0.000112786
0.000119597
0.000119741
0.195254
7.2124e-05
7.27689e-05
0.153158
0.000168956
0.000115566
9.44977e-05
0.220907
0.000231479
0.0839748
7.93076e-05
7.57592e-05
0.00331803
0.00606161
0.00158074
0.000720561
0.00137805
9.70015e-05
7.3321e-05
0.143046
0.110815
0.120456
9.69598e-05
0.122412
0.123807
0.000109365
9.5378e-05
0.000159958
0.00156352
0.000565173
9.832e-05
0.00179585
0.000141556
0.125169
0.0890476
0.0314378
0.00510993
9.88081e-05
0.0020938
0.000278743
0.00165748
0.00249046
7.3029e-05
7.97699e-05
0.000246068
0.00281963
7.40823e-05
0.0137446
0.00725828
0.0023373
9.20919e-05
0.000761229
0.000981273
7.21894e-05
0.0034611
0.000427861
0.00489108
0.000497568
0.041482
0.000488703
7.95943e-05
7.76187e-05
0.000266052
0.0333534
7.91546e-05
0.000293455
0.0158069
0.0183735
0.00385697
0.0417425
7.83981e-05
0.000249431
0.000110319
0.00500231
0.000222224
0.00138392
7.55064e-05
0.0025417
0.000122118
0.0334341
0.000164716
9.64439e-05
7.29514e-05
0.0570829
0.0204572
8.05215e-05
0.129558
7.29352e-05
8.42449e-05
0.000543948
0.00111804
0.000362217
0.000306262
7.75492e-05
0.0082032
0.00134528
0.000105467
0.0749245
0.0433305
0.00113582
0.000253394
0.000527384
0.000652438
0.00115614
0.000350707
0.0104568
0.000698419
8.10972e-05
0.000949863
0.000693539
0.000117832
0.000170411
7.55831e-05
0.000778937
7.6557e-05
8.57927e-05
8.68905e-05
0.00126754
9.73738e-05
0.000735401
0.00158005
0.0001681
7.63315e-05
0.000106224
0.00105017
0.00903447
0.000133388
9.3942e-05
0.00012279
7.13041e-05
7.50181e-05
0.00182687
9.10104e-05
8.0905e-05
7.51751e-05
0.000292274
7.12131e-05
7.31347e-05
7.56102e-05
0.000654561
0.00268029
0.00157865
0.0429252
0.00231636
0.000154265
7.42244e-05
8.36962e-05
0.140063
0.038845
0.00115974
7.159e-05
7.18195e-05
0.000120025
7.42394e-05
0.0485192
0.00188009
0.000616553
0.0788722
0.000107008
0.00018009
7.68193e-05
0.0352638
0.00272541
0.0692074
0.00012758
0.548509
0.00122876
0.00104534
8.11088e-05
0.0668633
0.00137736
0.0130638
0.00161495
0.00156025
0.00173896
8.53939e-05
0.0379031
8.68695e-05
0.597492
1.1319
1.28659
0.00015486
0.00170386
0.00500173
0.00118887
8.54662e-05
0.446866
1.6252
7.28365e-05
0.00142666
8.58697e-05
0.000118385
8.41675e-05
1.57628
0.111366
0.00017277
0.000577551
0.00282535
0.342616
0.000882283
7.42578e-05
0.148136
0.0063708
0.000364852
0.00440839
0.0323023
0.00125588
0.000136454
0.00252297
0.000204672
7.39011e-05
0.000257857
0.000134503
7.65061e-05
0.000713114
0.000134237
0.000348056
0.000416815
0.00021279
0.00498622
0.00122877
0.000688485
0.207277
8.29924e-05
0.00029245
0.00193001
0.000803177
8.59022e-05
0.000340949
0.000361895
0.178823
0.00194144
0.00108112
0.000505907
0.00105291
0.000109596
0.000394885
7.93433e-05
0.0406702
0.00455025
0.00298508
0.423006
0.000710107
0.00113803
9.25265e-05
0.00240093
8.02204e-05
8.96722e-05
0.00197596
0.000690088
0.000382363
0.000129342
0.00018321
7.75985e-05
0.000441174
0.00269244
7.92724e-05
0.00148387
0.00310692
0.00467222
0.000269898
0.00309266
0.0020567
0.000150175
0.000100515
9.6117e-05
8.06793e-05
0.00199163
0.0024593
0.000350044
0.000270244
0.000314036
0.000203671
0.000171912
0.00398465
9.84284e-05
0.000190822
0.00151003
0.000616393
0.426903
0.00161034
0.0009483
7.39966e-05
0.39786
0.0960891
9.14007e-05
0.000830821
9.18213e-05
0.000177509
0.00194851
7.93219e-05
0.00254616
7.25188e-05
0.00427111
0.000417926
0.000168589
8.15996e-05
0.000440639
0.00077943
9.28231e-05
0.000416719
0.000100185
0.00015392
7.44091e-05
7.17238e-05
0.00480716
0.000214541
0.000101227
0.000361696
0.0360383
0.00010059
7.81378e-05
0.000169376
8.46086e-05
0.00153581
0.000641576
0.00200026
0.000650823
9.69991e-05
0.00294057
0.0462316
0.00026092
0.000189639
0.0335326
0.00025248
0.00160709
0.000460897
8.03236e-05
0.000376414
0.00019278
0.496405
0.000294669
8.13083e-05
7.78794e-05
0.000105804
0.411862
0.00135862
0.0228979
0.000166822
0.000757852
0.00943568
8.82486e-05
7.47073e-05
0.327619
0.00168204
0.253761
0.000166277
0.000267815
0.13479
0.0136329
0.000736081
0.000262159
0.00010018
0.000451728
7.16232e-05
0.00128639
0.000340453
0.000496211
0.000295333
0.00147297
0.000102016
0.0120779
0.610922
0.000611187
0.000640288
7.24576e-05
0.000358299
0.494694
0.00328568
0.000102805
0.0002605
0.000186671
0.140803
0.000835354
0.0512538
0.000227527
8.9153e-05
8.55807e-05
0.00458265
0.0386316
7.29764e-05
7.27919e-05
9.30576e-05
0.00127998
0.00013845
0.000403346
0.012776
0.000678963
0.000463879
0.0038854
0.0851936
0.000526995
7.23239e-05
0.00233096
0.000108182
7.43869e-05
0.00459148
9.11209e-05
0.00401575
7.89451e-05
0.000271494
0.000258031
0.00449453
0.000616864
7.28945e-05
0.0016155
0.000174644
7.32044e-05
0.000258445
9.37273e-05
8.58426e-05
0.000481608
0.000275247
0.000156044
0.000816408
0.000473468
0.000111085
0.479967
0.00058891
0.000536809
0.0079018
0.469965
0.000108801
0.000603485
7.52383e-05
0.000823201
0.000403511
0.0006943
0.00177598
0.0750784
0.000799961
0.000194346
0.000105465
0.00282834
0.000131647
0.000500776
9.77429e-05
0.000116997
0.000693518
0.463412
0.000744786
9.50872e-05
8.08106e-05
9.70894e-05
0.000116821
0.00116279
0.541104
0.000664211
2.00928
7.86083e-05
1.32471
0.000713444
0.403247
0.0037185
0.00203176
1.84787
0.0831038
0.000413981
0.00261997
7.57787e-05
0.00238436
8.83334e-05
0.00201668
0.000189131
0.00435336
0.0419376
0.000639361
0.00243507
7.90626e-05
0.124314
9.6069e-05
7.34192e-05
8.01147e-05
0.00172592
8.65624e-05
7.4737e-05
0.0168883
0.000622613
0.000128932
0.000104778
0.000120988
7.35863e-05
0.000383398
0.000136765
8.91147e-05
7.20921e-05
0.000121109
8.90571e-05
0.000827323
0.00846794
8.2688e-05
0.0121884
0.0104066
0.00139805
0.0018147
0.424488
0.000360678
0.0137053
0.000451009
0.00335474
0.00303134
0.000144412
7.48965e-05
0.000148849
0.00796
8.33694e-05
0.011034
0.000251493
0.000476628
7.46574e-05
8.02132e-05
0.000466187
0.00256269
0.000157566
0.000757212
0.000131508
0.000401479
0.000270726
8.15852e-05
0.000322709
0.017354
0.00541387
0.299297
0.00113935
0.0774362
0.000260934
0.00268879
0.00327376
0.00793851
9.78183e-05
0.00179801
0.000102552
0.0339549
0.00188413
0.00488315
0.00252973
0.0015048
0.00019666
0.00096424
9.68005e-05
8.45815e-05
0.000723487
0.0164643
8.43906e-05
0.01255
0.000729789
0.000293351
9.44973e-05
0.000116647
0.000279404
0.000626723
0.000310329
0.00661313
7.23962e-05
0.0106489
0.000742811
9.59837e-05
0.000147694
0.000629623
0.0012616
0.000753798
0.00403906
0.000269753
0.00178892
0.000390526
0.000275301
0.000121299
0.000423823
0.00176631
0.00012989
0.458383
8.70147e-05
0.000839318
0.000102801
0.000932012
0.000136914
0.00280192
0.00266001
0.00448445
7.76117e-05
7.51218e-05
0.00010373
0.00211558
0.00146985
0.157909
0.00211473
0.0214915
0.224476
0.000103383
0.0253032
8.67381e-05
0.000113475
9.15709e-05
0.0006416
0.000112106
0.00159696
0.00224444
0.000197978
0.000670533
0.00102862
0.000129263
9.25849e-05
0.000123591
0.000177365
0.000653468
0.000517139
0.00342998
9.30993e-05
0.000966379
0.00299955
0.0341737
8.168e-05
0.0107813
7.19773e-05
0.00010661
0.000153786
0.000426229
0.00217121
0.000101474
0.0020186
0.000434121
0.000105442
8.04407e-05
0.000326072
0.000782186
7.11313e-05
0.00117043
0.000726561
0.000160143
7.69874e-05
0.000105383
0.00395153
0.00069113
0.00717866
0.000106051
0.000513785
0.00300818
0.000154385
0.00053362
0.000371143
7.28761e-05
9.29761e-05
0.0375379
0.00023378
0.000582066
8.47082e-05
8.00068e-05
0.000149246
0.000113211
7.17509e-05
9.07443e-05
8.7091e-05
7.1415e-05
0.000113829
0.00195493
0.000236686
9.25188e-05
0.00391208
0.000773299
7.21699e-05
8.54886e-05
0.000347858
0.00753172
0.0012039
0.0475272
0.000885374
0.000141538
0.0145253
0.00101923
0.00269968
0.00143229