/*--------------------------------*- C++ -*----------------------------------*\
| =========                 |                                                 |
| \\      /  F ield         | OpenFOAM: The Open Source CFD Toolbox           |
|  \\    /   O peration     | Version:  v2012                                 |
|   \\  /    A nd           | Website:  www.openfoam.com                      |
|    \\/     M anipulation  |                                                 |
\*---------------------------------------------------------------------------*/
FoamFile
{
    version     2.0;
    format      ascii;
    class       volScalarField;
    location    "0.828074";
    object      nut;
}
// * * * * * * * * * * * * * * * * * * * * * * * * * * * * * * * * * * * * * //

dimensions      [0 2 -1 0 0 0 0];


internalField   nonuniform List<scalar> 
83563
(
1.80167e-05
2.25861e-05
2.71818e-05
1.9074e-05
3.02873e-05
3.30841e-05
9.22531e-06
0.000132257
6.17693e-05
0.000436531
5.57341e-05
1.68671e-05
0.00241485
1.78479e-05
0.000142571
9.71941e-05
1.79162e-05
1.78596e-05
8.58359e-05
1.7807e-05
1.77198e-05
1.77908e-05
0.000128386
0.000781773
1.80057e-05
1.9124e-05
2.07489e-05
0.000465741
2.18167e-05
2.02565e-05
2.47592e-05
7.53664e-06
0.000109214
1.87509e-05
1.78604e-05
5.50763e-05
2.05005e-05
2.19538e-05
2.36839e-05
7.41423e-05
1.89418e-05
5.17558e-05
2.61969e-05
3.07678e-05
0.000156667
0.000129522
8.37082e-05
0.000112742
6.73824e-05
0.00825891
0.00642479
6.01129e-05
0.0015126
0.00199803
4.64521e-05
0.00552361
2.09476e-05
0.00136146
0.00179088
7.79617e-05
0.0018073
0.000639452
4.71543e-05
2.44151e-05
0.00415142
0.00178111
0.00221563
2.59048e-05
1.38533e-05
0.00618812
0.000110601
0.00728522
1.92802e-05
0.00520202
2.56639e-05
0.0061807
0.00116553
1.98491e-05
1.93619e-05
0.00090911
1.87569e-05
1.57718e-05
2.00458e-05
0.000452129
7.03849e-05
1.83303e-05
1.82977e-05
0.000156824
1.89396e-05
3.35761e-05
0.000113551
1.63117e-05
0.000169105
0.000109665
0.000744069
0.000145941
0.000904847
0.00016613
4.93181e-05
0.00011253
4.3424e-05
2.08497e-05
6.84423e-05
1.98268e-05
4.86273e-05
2.4618e-05
3.23172e-05
1.82021e-05
0.000462511
1.78713e-05
0.000140129
4.85317e-05
7.09341e-05
3.66893e-05
2.53245e-05
1.47491e-05
0.0127799
0.000173046
4.38727e-05
1.36421e-05
3.93492e-05
3.776e-05
7.21618e-05
0.000702849
8.34215e-05
1.51794e-05
0.000620213
1.31823e-05
0.00011567
4.50433e-05
0.0107403
0.000757702
4.83635e-05
0.00184874
2.68623e-05
1.77514e-05
7.07194e-05
2.38141e-05
1.82322e-05
0.00403768
4.8438e-05
0.00339603
5.4131e-05
5.45969e-05
0.00238909
0.00201926
4.82066e-05
2.0492e-05
4.13583e-05
2.46656e-05
0.00101672
1.85272e-05
2.25995e-05
7.4174e-05
1.79452e-05
1.73368e-05
1.81735e-05
4.485e-05
5.33541e-05
5.4645e-05
8.28827e-05
1.81671e-05
2.14524e-05
1.41442e-05
0.000122658
0.000270976
1.55525e-05
0.00938723
1.69168e-05
0.000150591
1.60082e-05
1.51024e-05
0.000193945
0.000118655
0.000188892
4.05642e-05
3.47605e-05
3.21979e-05
5.91423e-05
1.74413e-05
2.60322e-05
1.93192e-05
7.47244e-05
9.78148e-05
0.000176308
0.000418154
0.000119791
1.13948e-05
3.94646e-05
1.79147e-05
1.84448e-05
0.000241352
0.000465154
0.00064904
5.35026e-05
0.000414601
3.77474e-05
0.000149305
1.78645e-05
8.81547e-05
7.03607e-05
5.72181e-05
0.00015377
1.65265e-05
0.000204632
0.000156506
2.64748e-05
0.0142817
1.78947e-05
2.56735e-05
0.000113915
0.000359193
1.64577e-05
1.43887e-05
4.3507e-05
9.62026e-05
5.41538e-05
1.53911e-05
1.85262e-05
5.11661e-05
2.86264e-05
4.65656e-05
2.94484e-05
2.96767e-05
0.000132769
1.52765e-05
0.000267735
1.81736e-05
2.2381e-05
0.000142585
1.83176e-05
2.398e-05
1.72447e-05
2.64868e-05
0.00380449
1.76887e-05
0.000102147
1.95119e-05
1.57233e-05
1.86746e-05
0.000100092
7.36187e-05
5.43724e-05
1.50934e-05
4.2372e-05
2.08882e-05
0.0042717
1.42598e-05
0.00212466
3.94241e-05
6.4249e-05
3.16227e-05
2.39926e-05
0.000307487
3.33205e-05
3.32312e-05
1.77568e-05
0.00016601
1.80441e-05
2.5297e-05
2.55517e-05
5.79894e-05
0.0112017
8.56015e-05
3.39997e-05
3.30799e-05
7.6786e-05
4.81943e-05
1.48954e-05
1.72551e-05
5.15959e-05
7.52001e-05
4.71353e-05
4.28309e-05
8.11924e-05
3.04855e-05
0.000163567
0.000111047
2.15734e-05
3.4562e-05
0.000138669
1.58995e-05
1.81561e-05
0.000141717
0.000135022
2.0384e-05
0.000675752
1.48863e-05
2.01134e-05
3.39327e-05
0.000278186
1.83417e-05
0.000174636
1.67953e-05
2.03766e-05
4.50927e-05
6.53476e-05
8.43375e-05
3.41285e-05
2.79553e-05
2.55182e-05
3.16313e-05
3.54836e-05
1.83384e-05
1.78333e-05
0.000131705
0.000169219
0.00286503
8.24058e-05
0.000197994
4.39331e-05
8.24724e-05
0.00119545
0.000187835
0.00892653
1.9025e-05
0.0164931
6.48928e-05
1.59226e-05
4.74054e-05
0.000244116
6.28409e-05
1.89087e-05
2.68039e-05
4.90909e-05
1.72951e-05
0.000208929
0.00249748
4.67166e-05
0.000995291
3.82947e-05
2.47894e-05
1.65397e-05
0.00208541
1.77309e-05
1.90648e-05
5.01462e-05
0.00344469
0.000109177
2.0212e-05
0.00360282
0.00118096
1.65468e-05
2.03618e-05
3.21017e-05
1.2408e-05
0.000132129
3.72187e-05
0.000156129
1.96392e-05
1.77315e-05
6.37656e-05
3.11906e-05
0.000545118
0.00834491
1.77621e-05
4.79482e-05
6.71904e-05
3.67829e-05
0.000485639
0.0158934
0.000437948
0.01125
0.0127529
0.0126311
0.00022026
0.000267373
8.91772e-05
0.000645
1.79203e-05
2.2249e-05
5.98982e-05
0.000126864
0.00124133
0.000936275
4.59376e-05
0.0121503
2.64912e-05
2.18613e-05
2.36972e-05
2.61371e-05
1.70921e-05
1.90129e-05
2.58377e-05
0.0127116
0.0107423
3.94945e-05
5.50912e-05
0.0126999
5.18195e-05
0.000183191
2.02213e-05
3.033e-05
0.0117306
0.000112359
0.000140165
6.05795e-05
9.74406e-05
2.42692e-05
1.75666e-05
0.000302698
1.61086e-05
2.00184e-05
0.00211056
0.000179141
2.85451e-05
0.000741798
2.66189e-05
1.82286e-05
4.60843e-05
0.00289338
9.43737e-05
1.41123e-05
2.0879e-05
0.00167801
2.10395e-05
2.43025e-05
7.11347e-05
0.0126921
3.61026e-05
1.90547e-05
2.05064e-05
0.00256487
1.53828e-05
9.7239e-05
0.00318792
4.65646e-05
0.000206213
1.82185e-05
4.08384e-05
2.01915e-05
4.18351e-05
5.16242e-05
2.04054e-05
0.0108128
0.000106824
0.00935772
1.8956e-05
8.53328e-05
0.000594226
0.000152122
7.7047e-05
0.00648513
1.40995e-05
0.000147047
5.09824e-05
6.85065e-05
0.00025766
7.32006e-05
0.00846765
0.000170245
2.52634e-05
3.5952e-05
2.85199e-05
0.000127775
0.000190983
1.95869e-05
1.62643e-05
2.03951e-05
7.09789e-05
1.61916e-05
0.00193051
2.40367e-05
1.98746e-05
2.4461e-05
2.50371e-05
1.71768e-05
2.45243e-05
3.76306e-05
6.29349e-05
7.74954e-05
4.71095e-05
2.42499e-05
9.62776e-05
3.06453e-05
0.000140896
3.80979e-05
3.8217e-05
5.09207e-05
2.0956e-05
4.28857e-05
2.24779e-05
4.50209e-05
5.29224e-05
1.41771e-05
2.54903e-05
3.43495e-05
0.000118431
0.0038585
1.75919e-05
1.6635e-05
2.94287e-05
4.40029e-05
0.00200933
0.000229011
5.54739e-05
2.73204e-05
3.9811e-05
3.009e-05
2.00965e-05
1.78723e-05
5.32115e-05
2.1611e-05
1.99845e-05
5.46341e-05
1.75336e-05
4.4223e-05
5.41203e-05
2.10893e-05
6.1546e-05
1.55303e-05
2.23669e-05
1.80195e-05
1.78738e-05
2.29518e-05
1.45592e-05
4.95872e-05
0.00260919
0.00275799
2.3326e-05
4.42646e-05
0.000115545
7.11179e-05
5.222e-05
9.77108e-05
2.21681e-05
4.22245e-05
0.00274532
1.98166e-05
2.24447e-05
1.622e-05
1.85565e-05
3.76958e-05
2.39381e-05
2.23834e-05
1.69034e-05
0.00255327
0.000252869
6.26848e-05
0.00201847
5.12022e-05
1.08996e-05
0.00106756
1.34674e-05
3.05151e-05
7.6285e-05
2.24372e-05
0.000127676
0.000729988
4.39155e-05
3.86121e-05
1.57096e-05
6.80013e-05
3.56599e-05
1.46623e-05
7.17843e-05
0.000492531
0.0142382
0.000643133
1.77494e-05
6.29043e-05
0.00731596
1.95543e-05
8.58981e-05
0.000459559
2.04061e-05
0.000493585
1.96514e-05
1.62118e-05
0.000101174
0.00377382
6.18033e-05
2.19692e-05
4.91457e-05
0.000661438
9.42972e-05
2.3905e-05
2.10036e-05
1.62132e-05
2.31294e-05
2.10974e-05
0.000356778
0.00122642
4.28744e-05
2.18573e-05
2.41721e-05
1.84657e-05
3.75664e-05
1.78069e-05
0.00062587
1.78597e-05
1.51338e-05
1.8001e-05
2.01444e-05
3.82727e-05
1.81551e-05
1.94977e-05
1.96839e-05
1.78656e-05
1.57198e-05
3.30972e-05
1.82655e-05
1.80792e-05
1.79786e-05
2.82573e-05
3.42363e-05
0.000539757
2.68259e-05
2.07485e-05
2.02914e-05
2.42419e-05
1.59005e-05
1.90631e-05
3.07615e-05
0.00107633
2.46358e-05
4.8302e-05
5.55822e-05
0.000104752
0.000106473
0.000101268
0.00242371
4.1022e-05
1.99648e-05
1.76173e-05
2.7842e-05
4.37673e-05
2.02671e-05
3.00197e-05
1.80625e-05
3.86537e-05
3.10424e-05
2.65188e-05
4.86308e-05
1.83164e-05
0.000316591
4.31737e-05
5.81189e-05
1.79008e-05
2.2911e-05
2.11014e-05
0.000191042
0.000226289
1.79399e-05
5.69809e-05
1.79689e-05
1.81896e-05
1.35961e-05
0.00212136
4.32754e-05
3.49236e-05
5.84499e-05
0.000101586
7.5198e-05
0.000156558
2.30494e-05
0.000193427
1.41444e-05
1.66995e-05
4.23331e-05
2.17028e-05
0.00228292
3.42773e-05
3.99697e-05
0.0012022
1.78111e-05
3.24904e-05
1.8911e-05
2.07068e-05
0.000276418
4.7252e-05
4.08047e-05
1.72728e-05
6.79131e-05
0.000144771
3.25709e-05
0.000276668
2.99707e-05
3.39746e-05
0.000522445
0.00157802
6.15497e-05
0.000171433
0.00138195
1.79271e-05
2.39749e-05
0.000176462
4.22954e-05
0.000303043
3.18468e-05
3.63923e-05
5.42406e-05
2.40183e-05
0.000173486
0.000102216
0.00148875
3.86561e-05
0.000266285
1.61497e-05
2.06283e-05
4.37455e-05
2.66907e-05
1.79444e-05
5.09827e-05
0.000979576
0.000100348
1.29308e-05
3.91945e-05
4.8695e-05
5.2619e-05
1.7951e-05
6.79617e-05
1.78528e-05
2.2051e-05
8.00497e-05
1.70713e-05
1.96295e-05
2.28355e-05
7.94485e-05
0.0110576
1.84393e-05
0.000583792
2.1388e-05
5.69735e-05
1.44014e-05
7.27335e-05
0.00248168
0.000792341
3.09585e-05
0.00366201
1.48071e-05
1.8288e-05
2.09457e-05
0.00015853
0.00148797
0.000114268
2.30812e-05
3.35015e-05
0.00124123
1.34614e-05
3.16053e-05
3.62592e-05
1.69803e-05
6.67735e-05
5.02464e-05
3.37545e-05
6.56719e-05
0.000263819
0.00153197
2.54539e-05
3.30574e-05
3.84549e-05
1.76747e-05
0.00346655
6.81469e-05
0.000147652
1.77592e-05
2.53487e-05
0.000157265
3.78417e-05
2.33233e-05
1.98624e-05
5.50816e-06
1.67578e-05
7.03185e-05
3.18469e-05
1.77605e-05
2.15778e-05
6.38605e-05
9.27109e-05
3.39349e-05
1.85373e-05
1.54833e-05
7.73887e-05
2.38737e-05
4.44571e-05
2.05316e-05
0.00051144
1.89378e-05
2.68594e-05
4.3522e-05
0.00821609
0.0039019
0.00430041
1.9547e-05
0.00332799
2.17578e-05
0.000128612
2.60037e-05
4.69928e-05
4.58998e-05
0.00111171
2.53966e-05
0.00346777
8.26929e-05
6.27931e-05
3.82435e-05
1.18956e-05
2.15768e-05
2.28135e-05
9.08757e-05
1.56518e-05
8.40619e-05
1.71265e-05
1.25573e-05
2.01586e-05
7.10309e-05
0.00165991
0.000589539
0.000100297
1.55871e-05
3.66242e-05
0.000876396
0.000364508
0.000295504
0.000363783
1.85676e-05
0.00023255
1.37577e-05
1.79541e-05
0.000230647
2.30224e-05
0.000615325
0.000125165
3.40627e-05
8.34909e-05
7.89532e-05
9.92211e-05
1.89906e-06
2.61317e-05
1.76785e-05
0.0101672
2.70461e-05
0.000189671
3.63818e-05
1.78147e-05
1.79404e-05
4.64762e-05
2.76848e-05
6.1389e-05
2.85373e-06
4.39917e-05
1.98879e-05
1.81629e-05
3.70772e-05
2.17429e-06
0.000148811
1.72763e-05
0.000118541
0.00404749
4.06272e-05
1.56897e-05
1.48058e-05
1.78907e-05
2.32444e-05
2.92614e-05
2.10594e-05
9.98873e-05
9.11489e-05
5.01663e-05
1.74355e-05
2.23002e-05
2.60308e-05
1.61685e-05
0.000131737
3.97744e-05
0.00026604
4.29333e-05
3.63177e-05
1.59207e-05
4.35335e-05
0.000286077
0.000216971
3.59154e-05
3.2145e-05
5.31777e-05
1.44299e-05
1.83248e-05
2.22725e-05
2.47816e-05
1.76525e-05
3.78684e-05
2.24962e-05
1.29018e-05
1.77254e-05
0.00332276
0.000131376
2.13116e-05
0.000787996
0.00180671
1.97373e-05
0.000248223
1.71648e-05
2.2057e-05
1.86604e-05
1.81065e-05
7.11809e-05
1.74384e-05
8.29234e-05
0.000130301
1.66136e-05
1.61306e-05
3.37462e-05
0.000105084
1.52598e-05
3.02882e-05
4.0992e-05
1.87307e-05
3.19758e-05
9.50281e-05
1.43994e-05
1.94467e-05
1.73009e-05
3.27771e-05
2.08582e-05
0.00288971
0.00117658
1.76821e-05
0.00117994
1.78486e-05
5.54875e-05
0.000146487
7.15728e-05
0.000115308
2.14658e-05
2.38391e-05
7.52416e-05
2.44937e-05
0.000834271
2.4672e-05
0.000100049
0.000331007
9.25006e-05
9.30976e-05
0.00149717
7.94278e-05
0.000514553
2.54239e-05
7.16652e-05
0.00106697
0.000101977
2.33284e-05
0.000123815
4.66089e-05
1.88664e-05
1.78649e-05
4.53736e-05
4.05666e-05
3.30549e-05
1.06767e-05
1.029e-05
1.22885e-05
1.65132e-05
1.91143e-05
1.77337e-05
9.17627e-05
0.000889613
1.84454e-05
1.75718e-05
1.78191e-05
8.38107e-05
1.78225e-05
2.46724e-05
1.80698e-05
9.27636e-05
0.000118102
4.90216e-05
1.81137e-05
0.000357777
3.9822e-05
0.000179281
3.67344e-05
2.80983e-05
2.60342e-05
3.16938e-05
0.000104865
1.09723e-05
2.834e-05
1.84782e-05
4.31436e-05
2.42663e-05
3.82139e-05
3.20022e-05
1.94756e-05
2.18717e-05
5.79541e-05
0.00012771
0.000107105
2.63905e-05
2.25513e-05
0.000346636
6.89588e-05
1.64695e-05
2.29927e-05
1.99984e-05
0.000219844
0.000183904
7.18695e-05
9.29243e-05
0.000276746
2.60533e-05
1.80834e-05
1.76172e-05
2.37394e-05
0.000741786
2.43362e-05
0.00016947
0.000158051
0.000329918
3.58316e-05
3.05971e-05
2.14378e-05
3.968e-05
1.2818e-05
3.08254e-05
0.00259318
3.17336e-05
0.000100266
0.000243795
0.00665611
5.89934e-05
2.51888e-05
0.000206702
5.96956e-05
3.25042e-05
1.9012e-05
1.77236e-05
0.00013605
2.39286e-05
1.76861e-05
0.0001058
0.000142967
2.33317e-05
4.48554e-05
4.01732e-05
1.76369e-05
3.41588e-05
2.03535e-05
3.41518e-05
2.31482e-05
1.15333e-05
7.62488e-05
1.66573e-05
0.000117197
2.17985e-05
0.000123781
4.78348e-05
2.59629e-05
0.00698696
2.52389e-05
0.00615001
0.00248754
1.29976e-05
1.85626e-05
1.83217e-05
7.72048e-05
1.77239e-05
6.12219e-05
1.85935e-05
0.00566843
1.9067e-05
0.00208135
0.000227578
0.00231134
4.8228e-05
1.70132e-05
5.44442e-05
3.55834e-05
4.87795e-05
7.22177e-05
3.84769e-05
5.22937e-05
0.00446001
1.73986e-05
0.00149039
5.8028e-05
1.86204e-05
3.40109e-05
5.94075e-05
0.00978173
1.79676e-05
7.13093e-05
8.63554e-05
1.77391e-05
7.11364e-05
0.00996701
2.29615e-05
8.15607e-05
3.94434e-05
0.000494212
0.00136648
0.000122273
0.000100364
5.79551e-05
6.01976e-05
0.00011481
1.88242e-05
8.16213e-05
9.43778e-05
6.3982e-05
0.000116335
1.99337e-05
0.00014327
4.91815e-05
5.15263e-05
1.67703e-05
5.69148e-05
1.78617e-05
6.43298e-05
1.87514e-05
1.448e-05
2.26893e-05
3.16524e-05
1.85185e-05
0.00022071
2.1516e-05
7.9233e-05
1.12037e-05
7.51452e-05
4.27549e-05
0.00179844
1.82956e-05
2.81163e-05
1.52608e-05
8.63443e-05
2.83496e-05
0.000244617
1.76956e-05
0.000237969
2.28286e-05
1.80644e-05
0.000104779
4.63183e-05
2.60191e-05
1.56805e-05
1.84445e-05
1.79351e-05
0.000217223
2.92766e-05
4.67181e-05
1.56127e-05
2.44122e-05
1.68078e-05
1.80471e-05
5.85114e-05
3.47629e-05
5.39446e-05
7.80491e-05
3.28808e-05
1.81898e-05
4.06647e-05
2.22158e-05
2.14534e-05
2.13016e-05
1.83525e-05
7.00024e-05
1.75932e-05
1.7769e-05
1.66588e-05
3.42829e-05
0.000199884
2.31795e-05
0.000251438
2.0475e-05
2.05902e-05
1.9253e-05
2.12827e-05
3.39463e-05
3.05012e-05
1.94649e-05
2.36343e-05
2.17484e-05
9.11841e-05
2.61445e-05
4.42397e-05
4.14098e-05
7.50611e-05
3.30397e-05
0.000171059
1.78272e-05
1.81709e-05
3.17307e-05
0.000209493
1.74903e-05
1.8286e-05
1.63354e-05
1.76729e-05
5.61952e-05
0.000219464
2.81955e-05
8.71198e-05
0.0128679
0.00673659
0.0124198
0.000368949
0.00841677
1.62746e-05
1.30143e-05
2.17276e-05
0.000109066
2.30912e-05
0.001391
4.29693e-05
1.34899e-05
0.000105464
0.000198221
1.84497e-05
7.40442e-05
8.93441e-05
3.08462e-05
2.41405e-05
5.39238e-05
1.73699e-05
2.22381e-05
0.000745385
1.78417e-05
0.00025683
0.00203038
9.2884e-05
5.28708e-05
1.81504e-05
2.20557e-05
2.38172e-05
0.000153163
1.68575e-05
0.000133486
7.07528e-05
0.000503654
0.000118125
1.83067e-05
1.16008e-05
1.9093e-05
2.77931e-05
3.07589e-05
4.18486e-05
1.60484e-05
1.66834e-05
0.00029854
1.98887e-05
1.85169e-05
9.78894e-06
2.34399e-05
1.43505e-05
4.75905e-05
1.3973e-05
0.000110022
4.84828e-05
1.90911e-05
4.2217e-05
6.18993e-05
0.000589265
2.65143e-05
1.73889e-05
1.51598e-05
0.000105932
0.00103921
0.00013244
5.06546e-05
1.91314e-05
6.49333e-05
8.34107e-05
4.1772e-05
5.97874e-05
3.19762e-05
2.26973e-05
0.000242084
1.59303e-05
4.18467e-05
4.74139e-05
1.78843e-05
6.90004e-05
9.91416e-05
2.56989e-05
2.23027e-05
0.000177833
4.10722e-05
1.975e-05
7.00191e-05
5.22102e-05
5.1227e-05
0.00637937
4.76213e-05
1.62133e-05
5.37355e-05
0.00280096
7.23158e-05
3.66281e-05
0.000111076
1.87544e-05
0.00253535
3.68155e-05
1.70326e-05
1.81789e-05
2.88846e-05
1.76644e-05
3.09339e-05
0.000101512
3.51947e-05
3.58637e-05
2.93798e-05
0.000130556
0.000231166
1.79415e-05
8.06176e-05
3.07331e-05
1.86982e-05
2.09361e-05
2.30125e-05
0.000154833
2.47025e-05
1.78537e-05
1.85131e-05
0.00145333
1.76668e-05
1.6534e-05
1.73735e-05
8.42293e-05
0.0163698
1.78524e-05
0.00130486
2.5797e-05
1.98672e-05
0.00141881
2.53334e-05
0.00240078
0.01541
3.42998e-05
4.48067e-05
0.0192661
8.70009e-05
0.0174478
8.37174e-05
3.04147e-05
1.81326e-05
1.81027e-05
4.29812e-05
0.000410434
1.77198e-05
0.000124983
1.78178e-05
2.05929e-05
0.000115255
2.22022e-05
2.7263e-05
1.729e-05
8.01511e-05
0.0130337
2.6172e-05
0.000125883
9.9008e-05
3.61493e-05
9.40861e-05
4.12162e-05
6.51652e-05
8.16148e-05
5.32552e-05
2.62668e-05
0.000668259
2.10357e-05
3.68009e-05
1.86279e-05
3.01452e-05
1.97642e-05
2.26483e-05
1.90876e-05
1.78344e-05
4.03376e-05
2.51497e-05
3.75585e-05
2.37057e-05
1.78282e-05
3.70373e-05
0.00141245
8.76026e-05
1.78022e-05
1.74389e-05
0.00200435
3.51672e-05
0.00646043
0.000164817
1.85548e-05
2.00901e-05
1.51931e-05
1.86778e-05
0.0127548
2.09618e-05
4.22163e-05
4.4215e-05
0.000134962
3.48506e-05
1.69582e-05
3.756e-05
0.00225726
1.77315e-05
0.00378338
4.40765e-05
0.000142165
0.000137429
2.39429e-05
2.2806e-05
1.76818e-05
0.000112081
0.000102672
0.000143414
0.000112449
1.85973e-05
1.79958e-05
1.83965e-05
2.6267e-05
3.43357e-05
9.75477e-05
1.95764e-05
7.55535e-05
2.55693e-05
5.75789e-05
3.88455e-05
5.77169e-05
3.35518e-05
2.50451e-05
1.8405e-05
2.75449e-05
4.98704e-05
1.68551e-05
3.46784e-05
2.05545e-05
1.62868e-06
3.80081e-05
1.49826e-05
2.48105e-05
2.97691e-05
6.38215e-05
9.41633e-05
2.97081e-05
2.29561e-05
8.99345e-05
0.00865319
1.66317e-05
2.78523e-05
0.00235464
1.79566e-05
2.23334e-05
1.78702e-05
2.26751e-05
1.90461e-05
1.80435e-05
2.00767e-05
1.8727e-05
0.0038835
1.96957e-05
5.22579e-05
2.13956e-05
1.81714e-05
0.000137355
1.77594e-05
6.43821e-05
3.02123e-05
0.000150719
0.0020172
3.1181e-05
4.27328e-05
1.52109e-05
4.85705e-05
0.00349443
1.43044e-05
1.80956e-05
0.000128632
5.73586e-05
0.00388495
0.000272056
3.08593e-05
1.75968e-05
6.93529e-05
2.89287e-05
0.00212727
1.48708e-05
2.35765e-05
0.000159639
0.00321685
1.76776e-05
0.00444381
9.20105e-05
9.83538e-05
5.56252e-05
0.000101848
2.20293e-05
0.0040382
0.00013195
2.60257e-05
7.44653e-05
1.55285e-05
0.000104695
0.00242208
8.1295e-05
1.91342e-05
1.72915e-05
0.000221809
0.000111514
4.26871e-05
2.29482e-05
0.000126578
7.63145e-05
4.10405e-05
1.3838e-05
2.98411e-05
0.00222932
1.64377e-05
7.50884e-05
2.09484e-05
2.21196e-05
1.62198e-05
1.89138e-05
2.11095e-05
1.92021e-05
2.99621e-05
7.82072e-05
3.80239e-05
5.36019e-05
0.00259193
1.73267e-05
1.83008e-05
5.32034e-05
0.000397647
3.69319e-05
2.09552e-05
2.45984e-05
9.64521e-05
7.15846e-05
2.01464e-05
3.94499e-05
3.3863e-05
1.76868e-05
3.08325e-05
1.55467e-05
4.62369e-05
4.4696e-05
0.00016206
1.7971e-05
1.77826e-05
0.00102554
0.00162532
1.80928e-05
6.32506e-05
0.00212499
0.00197831
2.68517e-05
0.0018851
2.2489e-05
7.06246e-05
2.25425e-05
0.00162315
1.61479e-05
4.16001e-05
2.12099e-05
3.23746e-05
6.63141e-05
1.82956e-05
7.32382e-05
1.49758e-05
0.00615186
3.44971e-05
1.57623e-05
1.77653e-05
3.71177e-05
8.7791e-05
3.17993e-05
1.7335e-05
2.81133e-05
5.37642e-05
3.17768e-05
1.79891e-05
0.0138279
0.000125398
0.00202249
8.74396e-05
1.79604e-05
0.00873887
8.58843e-05
1.88671e-05
1.77238e-05
1.5391e-05
2.99945e-05
1.58559e-05
4.3335e-05
4.39671e-05
7.66102e-05
0.00694056
2.01172e-05
1.82765e-05
3.68255e-05
0.00575411
0.0101679
2.07234e-05
0.00140988
0.000110827
4.94956e-05
0.00253826
1.93073e-05
0.00429861
2.54329e-05
2.27341e-05
0.00971355
0.000103809
9.14785e-05
0.000756353
0.000199865
0.00876078
0.00562095
2.21391e-05
3.5678e-05
1.65099e-05
1.58929e-05
0.000179783
2.22076e-05
4.6833e-05
1.72514e-05
1.5502e-05
1.33717e-05
0.00520727
0.0101798
1.73184e-05
1.98186e-05
1.32472e-05
4.26194e-05
0.00532567
0.00850781
3.81071e-05
5.59517e-05
1.7705e-05
4.68893e-05
2.40833e-05
6.1693e-05
3.96566e-05
1.85522e-05
3.36117e-05
3.46718e-05
4.50104e-05
2.27492e-05
1.95075e-05
3.60155e-05
4.42253e-05
3.47164e-05
9.3065e-05
1.80983e-05
5.47251e-05
4.59718e-05
4.82822e-05
6.85921e-05
4.54926e-05
1.54918e-05
0.000143537
0.000139976
0.000258458
6.65566e-05
6.33878e-05
5.89659e-05
0.000128402
7.76409e-05
0.000138246
7.7571e-05
0.00279025
0.000288713
2.14417e-05
5.32844e-05
2.79879e-05
0.000179973
0.000100613
0.00197333
1.53432e-05
3.0323e-05
2.90407e-05
6.06002e-05
0.000106629
1.85683e-05
2.96224e-05
1.99672e-05
4.7869e-05
1.99795e-05
0.000128419
6.03393e-05
1.88715e-05
2.41181e-05
5.53277e-05
2.36878e-05
0.000181604
0.000150168
3.39756e-05
1.76977e-05
1.7119e-05
1.82454e-05
2.45109e-05
3.9705e-05
1.88029e-05
2.00616e-05
2.44308e-05
1.9007e-05
0.000239446
1.86918e-05
2.15129e-05
1.59077e-05
3.35767e-05
4.29238e-05
4.19053e-05
1.79723e-05
5.26719e-05
1.82435e-05
2.44918e-05
3.52935e-05
1.73769e-05
1.35396e-05
0.00032138
2.15196e-05
1.89377e-05
2.89136e-05
2.30419e-05
2.06258e-05
3.78417e-05
0.00274649
1.81911e-05
1.78752e-05
2.62071e-05
0.000222116
0.000128142
3.87809e-05
0.000129287
3.03204e-05
0.000151886
3.57825e-05
1.84619e-05
1.76522e-05
0.000119815
1.95629e-05
1.35174e-05
1.7718e-05
1.79081e-05
2.17732e-05
0.00124667
0.00014148
1.79822e-05
5.78065e-05
0.00389431
1.76698e-05
4.15843e-05
1.7753e-05
2.86047e-05
1.71652e-05
6.37108e-05
2.21367e-05
1.51659e-05
0.00729969
4.93493e-05
6.03127e-05
4.36069e-05
1.90473e-05
6.57812e-05
0.00103094
2.71303e-05
1.82349e-05
0.0058224
7.73416e-05
3.03382e-05
1.97508e-05
5.331e-05
1.77625e-05
1.7204e-05
6.83286e-05
1.96383e-05
0.00030404
1.8931e-05
4.38973e-05
0.00210038
3.61078e-05
3.69488e-05
6.36977e-05
0.00446633
1.78329e-05
0.00266063
1.78957e-05
0.00362277
4.24348e-05
1.86132e-05
1.63106e-05
9.55263e-05
4.2883e-05
2.5541e-05
5.7524e-05
2.3469e-05
1.90799e-05
1.6122e-05
2.50842e-05
1.79954e-05
4.24245e-05
4.01614e-05
2.18139e-05
2.99939e-05
9.44975e-05
2.63739e-05
1.90588e-05
0.00252755
2.18507e-05
8.16847e-05
9.7413e-05
1.91527e-05
1.91066e-05
3.56777e-05
6.51639e-05
0.00679061
4.18765e-05
2.6583e-05
0.00745847
0.00609635
1.78563e-05
4.82914e-05
4.47325e-05
2.03653e-05
1.77113e-05
4.0701e-05
2.30348e-05
4.76717e-05
2.5815e-05
0.00511072
5.1384e-05
1.93493e-05
5.97338e-05
1.8267e-05
2.22641e-05
1.90633e-05
0.0145337
0.0151194
2.38285e-05
2.15447e-05
4.12538e-05
1.54796e-05
1.73677e-05
4.41568e-05
0.000689469
1.77982e-05
0.00368136
2.06919e-05
2.08702e-05
5.23191e-05
2.41234e-05
5.9723e-05
0.000718951
3.81828e-05
0.000163779
1.30343e-05
2.48502e-05
4.15664e-05
2.20413e-05
2.45146e-05
4.03424e-05
1.78379e-05
0.00231254
4.76998e-05
3.93129e-05
2.3142e-05
1.77582e-05
1.84225e-05
8.79651e-05
1.79822e-05
2.05704e-05
4.10501e-05
0.00014174
1.83149e-05
2.70205e-05
0.00133307
8.40194e-05
0.000950023
0.000372125
5.50892e-05
7.61253e-05
0.000290768
2.99632e-05
3.14701e-05
3.66459e-05
0.000281296
5.42109e-05
1.76414e-05
2.57355e-05
2.64744e-05
6.12474e-05
3.3997e-05
9.9503e-05
0.00215751
2.09678e-05
0.000102501
0.000924722
1.93471e-05
1.86489e-05
3.14685e-05
0.000141512
0.00264971
1.86563e-05
1.63297e-05
4.37297e-05
1.80486e-05
8.82952e-05
0.00342391
3.31252e-05
4.5644e-05
0.0051172
2.32713e-05
3.20215e-05
1.93033e-05
1.77715e-05
7.56326e-05
0.000139325
7.07641e-05
0.000163202
5.57327e-05
1.37446e-05
1.97905e-05
0.00727636
1.77638e-05
1.78561e-05
0.00177186
2.45594e-05
4.45249e-05
1.93047e-05
0.00169151
1.69554e-05
0.00163597
1.85982e-05
1.72047e-05
0.000109531
0.000266591
9.62007e-05
5.07066e-05
0.00010371
2.10387e-05
1.79003e-05
0.00235992
0.0018173
0.000792298
1.90959e-05
0.00115875
0.000804212
2.18068e-05
1.60029e-05
1.45959e-05
6.42064e-05
3.79877e-05
1.5991e-05
8.96447e-05
5.88938e-05
0.00159018
0.00105584
0.000678831
0.000144897
1.62616e-05
9.72699e-05
1.66627e-05
7.64604e-05
0.000123264
1.76974e-05
1.85504e-05
2.08617e-05
9.25104e-05
1.77612e-05
0.000516752
0.000197705
9.86761e-05
1.86665e-05
5.20145e-05
5.72032e-05
1.78418e-05
0.000122396
4.29621e-05
0.000190215
3.59506e-05
0.000734781
2.85542e-05
1.86425e-05
1.73945e-05
1.72673e-05
0.000436611
1.82969e-05
2.12637e-05
0.00106646
0.000562118
0.000161895
0.0011448
1.86415e-05
3.49812e-05
1.35947e-05
0.000150102
2.32571e-05
8.12883e-05
1.96795e-05
8.14356e-05
1.46559e-05
0.00100364
2.42712e-05
1.5542e-05
1.78736e-05
0.0014212
0.000364527
1.60993e-05
0.00227614
1.78692e-05
1.82399e-05
2.7662e-05
6.63121e-05
3.24548e-05
2.96519e-05
1.81213e-05
0.000285529
6.22094e-05
1.83312e-05
0.00368883
0.00207706
5.91826e-05
2.68927e-05
5.49489e-05
4.81602e-05
5.819e-05
3.96631e-05
0.000287601
6.08139e-05
1.72419e-05
5.89445e-05
4.02544e-05
1.91164e-05
2.44115e-05
1.79843e-05
4.62218e-05
1.74813e-05
4.43672e-05
2.99144e-05
8.03976e-05
1.53499e-05
4.13172e-05
7.32103e-05
1.80116e-05
1.75874e-05
1.47399e-05
5.61178e-05
0.000217924
1.69994e-05
3.85467e-05
1.55394e-05
1.77843e-05
1.9924e-05
7.44792e-05
3.79402e-05
2.32983e-05
1.82089e-05
2.79174e-05
1.76369e-05
1.79899e-05
1.82446e-05
3.57408e-05
9.95429e-05
7.67678e-05
0.00064264
0.000105459
2.61017e-05
1.80498e-05
3.00122e-05
0.0015123
0.000373505
6.29986e-05
1.76847e-05
1.77204e-05
1.77327e-05
1.79461e-05
0.000987021
8.18426e-05
4.19529e-05
0.00193798
6.85502e-05
2.99579e-05
1.81409e-05
0.000792848
0.000107255
0.000980894
1.46968e-05
0.00814011
6.1222e-05
5.43934e-05
1.62712e-05
0.000967726
7.10126e-05
0.000414377
7.84543e-05
9.13901e-05
8.19519e-05
1.92139e-05
0.000837221
1.7296e-05
0.00635191
0.00877504
0.00928272
1.55979e-05
7.36705e-05
0.000197976
6.20921e-05
1.82259e-05
0.00539582
0.0104166
1.78555e-05
6.32187e-05
1.8417e-05
1.42488e-05
1.62114e-05
0.0106506
0.005422
2.4497e-05
4.09793e-05
0.000126666
0.0103946
7.32581e-05
1.9067e-05
0.00700317
0.000147993
4.10328e-05
0.000136345
0.000935528
6.19414e-05
2.27591e-05
9.19758e-05
1.89871e-05
1.777e-05
1.85565e-05
2.50786e-05
1.79837e-05
6.55932e-05
2.13594e-05
3.33386e-05
4.24816e-05
3.0751e-05
0.000173796
8.35352e-06
0.000147535
0.00320383
1.57499e-05
2.20009e-05
1.26063e-05
6.48418e-05
1.80394e-05
2.57637e-05
1.8529e-05
0.0022372
9.53868e-05
6.46348e-06
3.58064e-05
6.4293e-05
6.29369e-05
2.74733e-06
1.79416e-05
0.00106118
0.000125354
0.000130399
0.0121455
5.04317e-05
6.49028e-05
1.75238e-05
0.000114749
1.88908e-05
1.56694e-05
9.92082e-05
3.69244e-05
3.35228e-05
2.36778e-05
2.38173e-05
1.81875e-05
3.81878e-05
0.000132693
1.76428e-05
6.3452e-05
0.000134558
0.000174695
2.84379e-05
0.000116732
1.57072e-05
3.20445e-05
1.32233e-05
2.03262e-05
1.89367e-05
9.24287e-05
0.000106784
2.68689e-05
2.3316e-05
2.477e-05
4.08866e-05
2.26054e-05
0.000163236
1.57768e-05
3.50989e-05
7.44933e-05
3.99682e-05
0.0132412
7.91898e-05
5.18513e-05
1.80199e-05
0.012718
0.00219452
2.21382e-05
6.10926e-05
4.51388e-05
3.81246e-05
9.43506e-05
1.80326e-05
0.000132731
1.78214e-05
0.000203329
2.23927e-05
2.7897e-05
1.67722e-05
4.40897e-05
5.76281e-05
1.85178e-05
3.6027e-05
1.62666e-05
2.32509e-05
1.80756e-05
1.7707e-05
0.000163837
2.1153e-05
2.33851e-05
2.10209e-05
0.000704592
4.3434e-05
1.76639e-05
2.91624e-05
1.73548e-05
7.09569e-05
5.96803e-05
8.9039e-05
3.04692e-05
2.10811e-05
0.000112125
0.00058053
2.52999e-05
2.73678e-05
0.000828524
1.65153e-05
0.000165581
3.82281e-05
1.8896e-05
2.16791e-05
1.42452e-05
0.00769183
2.90059e-05
1.72017e-05
1.61908e-05
1.74895e-05
0.00291333
6.63611e-05
0.00037521
2.02278e-05
5.19074e-05
0.000215776
1.58983e-05
1.81165e-05
0.00270203
8.42481e-05
0.00292482
2.71614e-05
1.48895e-05
0.00153412
0.000274991
4.64483e-05
3.68009e-05
1.48925e-05
3.03263e-05
1.76844e-05
7.50001e-05
3.15041e-05
3.10412e-05
3.67046e-05
8.31142e-05
2.91555e-05
0.000382807
0.0152936
4.6041e-05
3.8502e-05
1.78079e-05
4.22225e-05
0.0148384
0.000102586
1.89348e-05
2.63701e-05
2.80847e-05
0.00173355
5.7222e-05
0.000847582
3.0898e-05
1.86938e-05
1.85182e-05
0.000168836
0.000367093
1.7837e-05
1.78537e-05
4.88031e-05
4.85777e-05
2.20255e-05
3.22711e-05
0.000306817
4.07723e-05
3.54033e-05
0.00013091
0.00181857
3.57843e-05
1.77934e-05
9.8362e-05
2.09695e-05
1.75309e-05
0.000183996
2.03318e-05
0.000147529
1.8249e-05
2.06339e-05
2.17991e-05
0.000180817
4.19033e-05
1.7887e-05
8.19414e-05
2.34242e-05
1.7916e-05
2.19301e-05
2.08434e-05
1.9542e-05
5.08421e-05
3.3726e-05
2.52119e-05
5.37319e-05
4.16892e-05
2.20929e-05
0.00508193
7.31375e-05
3.74398e-05
0.000230075
0.00972346
3.27557e-05
5.06103e-05
1.80716e-05
6.41008e-05
2.64991e-05
5.38904e-05
8.02436e-05
0.00370036
8.52626e-05
2.61874e-05
4.74734e-05
0.000112654
2.3117e-05
3.83757e-05
1.76137e-05
2.30633e-05
4.74506e-05
0.00490659
4.38347e-05
2.02305e-05
1.8952e-05
6.97429e-05
2.34285e-05
6.74706e-05
0.00542778
4.13683e-05
0.0116956
1.86568e-05
0.0093987
5.41225e-05
0.00467727
0.000145681
9.53847e-05
0.0113373
0.00192226
3.44554e-05
0.000135951
1.82133e-05
0.000122545
1.84138e-05
8.23005e-05
1.61251e-05
0.000189594
0.00246107
4.31426e-05
9.88482e-05
1.62639e-05
0.00212795
1.6498e-05
1.79495e-05
2.50602e-05
7.71484e-05
1.89738e-05
1.78097e-05
0.000495258
4.726e-05
1.35153e-05
1.59309e-05
4.90948e-05
1.78739e-05
3.91042e-05
1.68524e-05
2.01722e-05
1.77482e-05
3.38709e-05
1.4085e-05
4.92473e-05
0.000285406
1.8138e-05
0.000285273
0.000246763
7.66673e-05
7.89196e-05
0.00378129
3.79029e-05
8.75945e-05
2.7654e-05
0.000122846
0.000107328
1.59706e-05
1.7721e-05
1.7085e-05
0.000206204
1.89657e-05
0.000436925
1.93731e-05
2.74052e-05
1.80486e-05
2.32439e-05
4.76595e-05
0.000117161
2.06134e-05
5.93975e-05
1.80044e-05
4.73516e-05
4.91326e-05
1.75076e-05
3.33979e-05
0.000281537
0.000144926
0.0111076
5.34132e-05
0.00384378
4.82053e-05
0.000116597
0.000133967
0.000190371
2.46015e-05
7.48391e-05
2.46473e-05
0.000540643
9.50989e-05
0.000122472
0.000125994
6.27964e-05
3.90918e-05
5.62435e-05
2.98268e-05
1.60519e-05
4.90867e-05
0.000349676
1.94623e-05
0.0004341
5.29903e-05
1.83357e-05
3.17573e-05
4.62158e-05
2.03885e-05
9.01331e-05
2.91742e-05
0.000224858
1.77955e-05
0.000452764
4.62309e-05
1.4135e-05
1.40885e-05
7.69098e-05
8.44311e-05
9.90055e-05
0.00015252
2.17109e-05
8.27218e-05
3.98857e-05