/*--------------------------------*- C++ -*----------------------------------*\
| =========                 |                                                 |
| \\      /  F ield         | OpenFOAM: The Open Source CFD Toolbox           |
|  \\    /   O peration     | Version:  v2012                                 |
|   \\  /    A nd           | Website:  www.openfoam.com                      |
|    \\/     M anipulation  |                                                 |
\*---------------------------------------------------------------------------*/
FoamFile
{
    version     2.0;
    format      ascii;
    class       surfaceScalarField;
    location    "0.828074";
    object      phi;
}
// * * * * * * * * * * * * * * * * * * * * * * * * * * * * * * * * * * * * * //

dimensions      [0 3 -1 0 0 0 0];
oriented        oriented;


internalField   nonuniform List<scalar> 
156950
(
-0.0023682
0.00106572
0.000929641
0.000372838
0.00050563
-0.00134733
0.00018192
0.000659777
-0.000393907
0.000730416
-0.000336509
-0.000145818
5.18613e-05
0.000260726
-0.000166769
0.000426448
-0.000467675
3.69003e-05
4.32649e-06
3.55039e-05
-0.000181322
0.000641314
0.000995818
-0.00191635
0.000279218
0.00141951
-0.00140812
-1.13904e-05
0.000233327
-0.0005759
0.000342573
1.77397e-05
-7.68504e-07
5.5408e-05
-7.23792e-05
4.71803e-05
-0.000544751
0.00049757
-0.00229948
0.00123284
0.00170795
0.00418142
-0.0053627
-0.00360011
0.00478139
0.000583796
0.000516115
-0.00111689
1.69765e-05
1.24004e-05
-0.00137553
0.00136313
-0.00153073
-0.000475364
0.00122843
0.000777666
0.000213001
-0.000128062
-0.000120821
3.58819e-05
4.29403e-05
0.000964912
-0.000424057
0.000789969
0.00143617
-0.00222614
0.000791725
-0.000790865
0.000515255
0.000101663
-7.1322e-05
-0.000914675
0.000884334
0.000510842
8.18579e-05
0.000199025
-0.00149826
0.0013986
0.00198151
-0.00188185
-0.000991662
0.000717151
0.000274511
0.000349488
-0.000182252
9.4286e-05
-0.000261522
0.00181332
-0.00138085
-0.000718223
0.000285745
0.000133711
0.000134419
0.000114769
-0.000382899
-0.000581716
0.000443559
4.76116e-06
0.000133397
-0.000410866
0.00202249
0.000201696
-0.000807765
8.23772e-05
0.000188988
0.0005364
-0.000348077
0.000338088
-1.86641e-06
1.18556e-05
-0.000435098
2.47503e-05
0.000573564
-0.000163217
-0.000401105
-0.000596598
0.000512243
0.000485461
-0.00102874
2.36608e-05
0.000128378
0.000876699
4.63392e-05
-3.172e-05
-0.000846426
0.000831807
2.87247e-05
-0.000136353
0.000107629
9.30488e-05
-1.71475e-05
-8.66186e-05
1.07173e-05
0.000323131
0.000233259
-0.000428357
-0.000128033
0.000338238
-0.000568387
0.000230149
-0.00233268
0.00388274
-0.00396722
0.00241716
8.69908e-05
-0.000702753
0.000708538
-9.27755e-05
-0.00137739
0.00119121
-0.00022469
-0.00044026
-8.32652e-05
0.000408859
0.000114667
0.000298362
-0.00141875
-0.000260463
0.000582585
0.00789271
-0.00596953
-0.00250576
0.00285806
-0.00139509
-0.00146296
-0.000922173
0.000999111
0.000380443
-0.000457382
-0.000191911
0.000538464
-0.000177763
-0.00016879
0.000147964
0.00114844
0.000479051
-0.00177546
-0.000381151
0.00185064
0.00045532
-0.00192481
-0.000382233
-0.00014962
0.000625474
-9.36209e-05
-0.00107903
-0.000644358
0.000192801
0.00120585
-0.000754289
-0.00127408
-0.000126788
0.000756515
-0.00159115
0.00133522
-0.00102285
0.00127878
4.64262e-05
9.50174e-05
-0.00156175
0.00142031
0.000602475
0.000114036
0.000327711
-0.00104422
0.000996807
0.000482364
-0.000984505
-0.000494666
0.000227504
0.000769303
-0.00151151
-0.00170675
0.00141371
0.00180455
-0.00104658
6.21372e-05
0.000716212
-0.000547705
-0.000230643
-0.000501829
0.000494473
7.35608e-06
-0.000170481
0.00025586
-0.000102464
1.70853e-05
0.000867199
-5.72858e-05
-0.00085082
4.09069e-05
0.00125329
7.21181e-05
0.00055609
-0.000203677
-0.000409699
-0.00224929
0.000503828
0.000233953
0.00299178
-0.00239017
-0.00266226
0.00206065
-0.0013592
-0.000534707
0.000490535
0.00140337
-0.00039335
-7.62228e-05
0.000729993
-0.000260421
-0.00178726
-0.0039125
0.00439362
0.00130614
-0.000384589
0.00012306
-0.00012691
0.000388439
-0.000379465
0.00177908
-0.000831259
-0.000568356
-0.000176128
-0.00029318
0.000469308
0.00199795
0.000546456
-0.00167676
-0.000867642
0.000162777
-0.00181019
0.00153178
0.000391489
0.000120387
0.000260483
-0.000772359
-0.000533845
0.000405529
0.00060118
-0.000472864
-3.33964e-05
-0.00180632
0.0006933
0.00114642
-0.000321455
0.000310992
0.00212746
-0.00211699
-0.00127412
0.00132151
0.00240237
-0.00244976
-0.000683522
-0.000508303
0.000560414
0.000631411
0.0011858
-0.00104808
-0.00181388
0.00167617
0.000431552
0.000196764
-0.000784018
0.000155702
0.00140285
-0.00113222
0.000149629
-0.000420265
-5.73585e-05
3.51703e-05
8.13938e-06
1.40488e-05
-0.00094882
-7.7489e-05
0.00102631
-0.000344595
0.000924654
-0.000936915
0.000356856
-0.00052459
0.00084468
-0.000360545
4.04551e-05
3.24172e-05
0.00148259
-0.00151501
0.000150657
-3.22857e-05
0.00152277
-0.00164114
-0.000596494
-0.00115174
0.00429184
-0.00254361
0.000897127
-0.00170384
-0.00112496
0.00193168
-4.42247e-05
0.000494267
9.37209e-05
-0.000543763
0.00148837
-0.00170028
0.000211914
0.000129318
-3.56452e-05
-0.000137898
-0.00109233
-0.00301969
0.00351553
9.79346e-05
-1.53979e-05
-8.25367e-05
0.00167745
-0.0014472
-0.000230249
-0.00231939
-0.000809346
0.00131629
0.00181245
-8.58469e-05
-0.000183203
0.000269049
3.36942e-05
0.000989268
-0.00102296
0.000111506
-0.000478554
-0.000143979
0.000511027
0.000132335
0.000148831
-0.000281166
0.000185
0.000217031
-0.000209395
-0.000192636
0.000101793
0.000239175
-0.000208633
0.000510668
-0.00146979
0.000633068
0.000326054
0.000549444
9.14577e-05
-5.79606e-05
-0.000711919
0.000342595
0.000427286
-0.00157279
-0.00013396
-0.000939165
-0.00154308
0.00133324
0.001149
-0.00164517
0.00343057
-0.000381068
-0.00140433
-0.000197845
0.000308206
0.000409016
-0.000519377
0.00013716
-3.2045e-05
-0.000105115
-0.00185278
-0.000124808
0.00207555
-9.79603e-05
-0.00142288
0.00249604
0.00227002
-0.00334319
0.00102174
-0.000991141
-3.06022e-05
-0.000811003
0.000522336
0.000288666
0.00110909
0.00119879
-0.000148697
-0.00215918
0.000286793
-0.00317189
0.00525392
-0.00624254
0.00416052
-0.00112261
0.00148507
0.000687989
-0.00105045
-5.30465e-05
0.000172978
9.38748e-06
-0.0024372
0.000283154
0.00215405
-0.000224405
0.00189962
-3.14413e-05
-0.00164377
-0.000946017
-0.00194161
-0.000583524
0.00347115
-0.000812217
0.0021618
-0.00132099
-2.85951e-05
-0.00166996
0.00135811
0.000311848
0.000414443
-0.00013711
-0.000277333
-0.00168636
0.00146087
-0.00245099
0.00267648
0.000314551
-0.00419667
0.00385298
-0.000658586
0.00103627
0.000756291
-0.00113398
0.000670298
-0.000579927
-0.000359682
0.000269311
-0.00183169
0.00191115
0.000269856
-0.000349324
0.000983543
-7.69497e-05
-0.00080493
0.000893579
-0.000657825
-0.000725922
0.000490168
-4.80361e-05
3.75687e-05
-0.000393089
0.000403557
-0.00189176
-7.21511e-05
0.00198491
-2.09946e-05
0.000777868
-0.00384483
0.00170776
0.00152194
-0.000805944
7.15432e-05
-0.000787544
-0.00541697
-8.27179e-06
0.00179516
0.00363008
0.00146817
-6.85637e-06
-0.00146131
0.0011452
0.000988659
-0.000611909
-0.000318984
0.00104696
-0.00133967
0.00061169
0.00270444
-0.00191587
-0.000488978
-0.00104787
0.00179536
0.000103206
-0.000850701
0.000164584
0.000133649
-0.000122235
-0.000175998
-0.00129903
-0.000928069
0.00356108
-0.00133398
-0.000145738
-0.000235236
0.000380973
0.000239766
0.000784517
-0.00111631
9.2029e-05
-0.000461686
0.000478371
-1.99314e-05
3.24681e-06
0.00046733
-0.000131843
-0.000349876
1.43896e-05
-0.00165388
0.00166978
0.00157066
-0.00158656
-0.00075489
0.000881478
0.00151994
-0.00164653
0.000265612
-0.000388874
0.00193229
-0.00180903
0.00102007
9.74989e-05
0.000439108
-0.00155668
6.27849e-05
-4.01378e-06
-5.87711e-05
0.00157484
-0.00157486
2.50611e-08
-0.00404225
-0.00110378
-0.00317511
0.00832113
-0.00166821
0.00178112
-0.000112909
-0.000238603
-0.000421918
0.00108184
-0.000421315
9.89671e-05
0.000730452
-1.18053e-05
-0.000817614
0.00243804
-0.000767944
-0.00041282
-0.00125728
0.00140558
0.000355788
-0.00113423
-0.000627135
0.0017848
-0.0006745
-0.000332011
-0.000778293
-0.000161453
0.00222775
-0.00025233
-0.00181397
-0.00375178
0.00213617
2.91362e-05
0.00158648
0.00244089
-0.000660323
-5.10472e-05
-0.00172952
0.00170363
-0.000210842
-0.00149278
0.000214327
0.00131317
-0.000832414
-0.000695082
-0.0011452
0.000519336
0.00132819
-0.000702332
0.00197775
-0.00222839
0.000250638
5.48185e-05
-0.00168731
0.0016325
-0.000230604
0.00220836
0.000256288
0.000113182
4.49726e-05
-0.000574833
0.000574111
7.2178e-07
0.000100806
0.0020733
0.000545932
-0.00272004
-6.75986e-05
-0.00124698
0.00131458
0.0030664
2.82833e-05
-0.00341631
0.000321627
-0.00210202
-3.70308e-05
6.89785e-05
0.00207007
-5.17071e-05
0.000858448
-0.000502394
-0.000304347
-0.000855541
0.000926061
0.00244421
-0.00251474
-4.30593e-06
0.000419595
5.07624e-05
-0.000466051
0.000483042
0.000237983
-0.000479458
-0.000241567
-0.000658364
7.66473e-05
0.000186216
-0.000261968
-0.000128006
0.000203759
0.000132351
-0.000543659
-8.32451e-05
0.000494553
-0.00202003
-0.00741017
0.00625348
0.00317672
0.00017902
-0.000802791
0.00208653
-0.00146276
-0.00131651
-0.000131392
0.00112644
-0.000175322
0.00141691
-0.00142694
1.00326e-05
-7.8888e-05
0.0016026
-0.000194017
-0.0013297
-0.00168641
-1.63511e-06
0.00168805
0.00114601
-0.000390284
7.39199e-05
-0.000829642
0.000634886
0.00158146
-0.000669635
-0.00154671
0.00135935
-0.00130995
-4.93986e-05
-0.000101172
-0.00136646
0.000658392
0.000809235
0.00119797
-2.70372e-05
-0.00139334
0.000222408
-0.0017286
0.00149965
0.00126359
-0.00103464
0.000119966
0.000653095
-0.0004689
-0.000304162
0.00146638
-0.0012695
-0.000196886
0.00203002
0.000568024
-0.0022369
-0.000361144
0.00126859
0.000197795
0.000322954
-6.00913e-05
-0.000103159
-0.00146985
0.00145838
0.000114631
0.00123915
-0.0037242
-0.00182172
0.00430677
-0.000490442
-0.00102257
0.00118925
0.000323759
-8.81976e-05
-0.00027315
1.15079e-05
0.000349839
0.00109481
0.00378049
0.000117264
0.000535395
-0.00443315
-0.000308592
0.00183216
-0.00142603
-9.75441e-05
0.00215257
0.000154459
-0.00125806
-0.00104896
0.000451145
-0.00195469
-0.000292088
0.00179564
-0.000418798
0.000320899
9.70155e-06
-0.00157375
0.00147814
9.56118e-05
0.0003937
0.0016421
-0.00202055
-1.52453e-05
-0.000363234
-7.81898e-05
0.000168274
0.000247727
-0.000110405
-0.000137322
0.00207942
-0.00160822
-0.00210097
0.00162977
-7.52909e-06
-0.000121177
0.000128706
7.76957e-05
-9.80019e-05
0.00157131
-0.00155101
0.00061242
-0.000127902
-0.000236791
-0.00346604
0.00486662
-0.00474266
0.00334208
-0.000140281
0.000286997
-0.00212752
0.0019808
-0.00185581
0.00193548
-7.967e-05
0.000105346
-1.97571e-05
-0.000181209
9.562e-05
0.000266249
0.00116369
-0.00262168
0.00119174
-0.00270215
0.00353524
-0.000597643
-0.000235446
-0.00014243
8.84762e-05
0.00011024
-5.62861e-05
0.00154677
4.3981e-05
-2.36609e-05
-0.00156709
-0.00165247
0.00165148
-0.00240849
0.00240947
-0.00175613
0.000259243
0.00339363
0.00122978
-0.0102055
0.00558209
-0.000825314
0.000119946
-7.22165e-05
0.000777585
-0.000758451
0.00107831
-0.000507361
-0.000586242
1.5294e-05
-0.000741798
-3.02118e-05
-9.90758e-06
0.000781918
-4.97849e-05
0.000123205
-5.52565e-05
-1.81636e-05
-0.00149882
0.000156439
0.00134238
-0.000894662
0.000812317
8.23447e-05
-0.00167543
-0.000296322
0.000529489
0.00144226
0.00257441
0.000218733
-2.08276e-05
-0.00277231
0.00267778
-1.42139e-05
0.000303008
-0.00296657
-2.9767e-05
-0.000147974
0.000147252
3.04893e-05
0.00756954
-0.000456425
-0.000872807
-0.00624031
-0.00214261
-3.36652e-05
0.00269132
-0.000515042
0.000177305
0.000912829
-0.000247801
-0.000842333
0.000394469
2.40851e-05
-0.000418554
0.000835378
0.00106245
-0.00106234
-0.00083549
-0.000318876
4.91738e-07
0.000288617
-0.00113769
-0.000132415
0.000113823
0.00115628
-0.00117243
0.00115107
2.13652e-05
0.00133238
-0.000206062
0.000485984
-0.0016123
6.15131e-05
0.000776377
-0.00083789
-5.17813e-05
-0.00177783
0.000965693
0.000863915
0.00127867
0.000239365
-0.00129942
-0.000218617
0.000764323
2.72419e-05
0.00164398
-0.00243554
-0.00111979
-0.000227448
0.00134723
4.61525e-09
-0.000114873
9.67609e-05
-0.00110168
-0.000756634
-0.000138028
0.000757877
-0.00185268
-0.00452039
0.0056152
-0.000937943
0.000782882
-0.00168531
0.00184037
0.000350069
5.88152e-06
-0.000333113
-2.28371e-05
1.97499e-05
-0.000606588
0.00060588
-1.90414e-05
-0.00165875
0.000997576
-0.000837643
-0.0028322
0.00102164
0.000450423
0.00136013
-0.0024342
0.000603181
0.000266447
0.00156457
0.00188377
-0.00214125
-0.000545668
0.00080315
0.00157901
-0.00313669
-0.00127451
0.00126972
-0.0020328
0.000763084
-0.000465396
0.000447779
-0.00127109
0.00128871
0.000845369
-0.000915073
6.97034e-05
0.00107915
0.00122997
-0.00128748
2.13365e-05
-0.000561949
0.000579348
-3.87353e-05
-0.000685994
-0.00150522
0.00219121
-0.000255454
-0.00113232
0.00155349
-0.000165718
0.00122055
-0.00280924
0.00248732
-0.000898639
0.000332197
1.78715e-05
-0.00174371
0.000538053
0.00134916
-0.000143501
0.0019066
-0.00268319
-0.000641113
0.0014177
-0.00208496
-0.000800127
0.00156859
1.08621e-05
-0.0010663
0.00105544
0.000114294
-0.000659484
0.00054519
-0.000202757
4.94054e-05
5.37723e-06
2.44085e-05
-0.000902626
0.000841772
0.00317881
-0.00257336
-0.000217415
-0.00038804
-0.000117055
0.000214257
0.000981106
-0.000318693
-0.000438972
0.000274619
0.000483046
-0.000100026
0.000214321
0.000584763
-0.00067662
-2.51979e-05
0.00203304
-0.000748224
-0.00128482
0.000303731
0.000598674
-0.00210471
0.00120231
-0.000497436
0.000233081
-0.00019029
0.000454645
-0.000963863
0.00242714
-0.000944957
-0.000518317
0.000415017
-0.000316278
0.00116752
-0.00126626
0.00209279
0.00010494
-0.00245245
0.000254715
1.33218e-05
-0.000664684
0.00039122
0.00202557
-0.00175211
-5.5425e-05
0.000221341
-0.000156876
-9.0401e-06
1.12622e-05
0.00161148
-0.00160394
-1.88073e-05
0.00255671
4.99237e-05
-0.00253127
-7.53617e-05
5.63164e-05
-3.06774e-05
5.74209e-05
-8.30599e-05
-6.48457e-05
3.14474e-05
8.97147e-05
0.00219841
0.000904651
-0.00107002
0.00151242
-0.00075918
0.000441881
0.00236757
-0.00205028
-0.00235309
0.0024143
-6.1217e-05
0.000207774
0.00120701
-0.00141479
0.00121891
-0.00113182
-6.12816e-05
-2.5805e-05
5.01288e-06
-0.00107314
0.00106813
-0.00141573
0.00175163
-0.00174594
0.00141005
6.82638e-05
-0.000225819
-0.00071266
0.000870216
0.00325872
-0.00328839
0.00291735
-0.00288767
0.000397661
-0.000351774
-0.000259065
0.000213178
-0.00256734
-0.00187888
0.00197307
0.00247314
-0.000461405
0.00182986
0.000120324
-0.00148878
0.000678134
-0.00275845
0.000672451
0.00140786
0.00123462
-0.00122954
-5.07431e-06
0.00149113
0.000249163
-0.00174029
0.00145232
-0.00104138
-0.00173122
0.00132028
-3.65406e-05
-5.44861e-05
0.000389673
-0.000298646
-9.71109e-05
-0.000371983
0.000838931
-0.000369837
-4.14133e-07
0.00123503
0.00226774
0.00147485
-0.00306445
0.00207474
-0.00123452
-0.000840223
-0.000463189
8.48163e-05
1.73773e-05
0.000360996
0.00205387
0.000290083
-0.0017721
-0.000571854
0.000831048
-0.000424254
0.000521083
-0.000927877
0.00137618
-0.00138368
0.000101164
-9.36633e-05
-8.16221e-05
0.00012212
-8.13018e-05
4.08041e-05
-9.1267e-05
0.000389897
0.00112296
-0.00142159
0.00302611
-0.0014128
-0.00175137
0.000138065
0.00203842
-0.00294645
-0.00049487
0.00140291
-0.000349383
0.000238148
-0.000600504
0.00071174
-0.000387051
0.00123242
-0.00107449
0.000229106
0.000344475
0.000101233
-0.00172056
0.00161933
-0.00012106
-8.2999e-05
0.000148634
-0.000707126
0.0010779
-0.00108431
0.00071353
0.00315622
-0.00346662
-0.00189828
0.00220869
-8.92536e-05
0.000468716
-0.00160296
0.0012235
0.000219698
2.8349e-06
-1.747e-05
-0.000205063
-0.00181761
0.00186561
5.32363e-05
0.000581022
-0.000303464
-0.00101936
3.56666e-05
-0.00168085
0.00164519
0.000137436
-0.00020518
6.77449e-05
0.00115318
-0.00120981
5.66344e-05
0.00020782
1.40225e-05
-2.14474e-06
0.000856212
-0.00176324
0.00031958
0.000587451
8.58938e-06
-5.58144e-06
0.00152086
-0.00152387
-0.000138226
0.000167459
-2.92332e-05
0.001689
0.0003548
-0.0021397
0.00368253
-0.000758602
-0.00292393
-0.000241256
-0.000892279
0.000391584
0.000741951
0.000538739
-9.31471e-05
-5.31113e-05
-0.00039248
8.75786e-05
0.00262906
-0.00271664
-0.000500526
0.00171634
-0.00148366
0.000267851
-0.000161412
-0.000322831
0.00133329
-0.000849049
0.000160243
-8.55002e-05
-0.00251469
0.00243995
-0.000210373
0.00118359
-0.000726051
-0.000247166
0.00291498
-0.00350621
-0.00159241
0.00218364
0.00157131
-0.000530377
0.000198214
0.00064684
-0.00126436
0.0035325
-0.000357783
0.000281611
-0.000134201
0.000160335
0.000216991
-0.00134525
0.001232
0.00165847
-0.00154522
0.00056305
0.00166904
0.000121183
-0.00235327
-0.000165268
-7.9404e-05
0.00113058
-0.000885913
0.00276431
-0.00272434
5.54253e-05
-9.54036e-05
-0.00124818
0.000670359
0.000577821
-0.00127939
1.54505e-05
0.00126394
-0.000205785
-0.000264939
0.00280785
-0.00233713
-0.00223775
-0.000286401
0.00231837
-0.00212038
0.00129977
-2.65875e-05
0.000847195
-0.00368785
0.00570664
0.000196179
-0.00221497
-0.000158396
0.000153636
0.00179302
-0.00178826
-0.00057141
0.000596891
-0.00049408
0.0004686
0.000759454
0.00171398
-0.00234058
-0.000132853
0.000157556
0.000424408
-0.000581963
-0.000425542
0.000388227
-0.00170266
0.00173998
-0.00172959
0.00071173
0.00162692
-0.000609066
0.00121268
-0.000116649
0.000710945
-0.00180698
0.00479199
-0.000833689
-0.00233407
-0.00162424
0.00283422
0.00228151
-0.00146533
-0.0036504
-0.000634713
0.000303671
0.000331041
-0.000223792
-0.000691059
0.000914851
-0.00500481
0.00150662
-0.000671527
0.00416972
-0.000631741
-0.000873014
0.00189445
-0.000389691
0.000687378
1.21411e-05
-0.000699519
0.000617941
-7.62254e-05
-0.000861094
0.000319378
-0.000270249
-2.25428e-05
0.000292792
0.000131159
-0.00230175
0.0014884
-0.0014624
-2.59987e-05
0.00112059
-0.00125915
0.000138565
-0.00152872
0.00190011
-0.000318237
-5.31608e-05
-0.000568564
-0.00112392
0.00158686
0.000105624
-0.000109007
0.00158688
6.88998e-05
-0.00194663
0.001431
0.000618548
-0.000102919
8.06731e-05
0.000797173
-0.000884162
0.00188956
-0.00182024
0.000423861
-0.000493181
0.000115308
-9.23669e-05
0.000560535
-0.000583477
0.00308437
-0.000326197
-0.000779248
-0.00197893
0.00235867
-0.00233869
-0.00020089
0.000180906
-0.000591469
0.000481917
0.000146487
-3.69355e-05
-0.00120915
-0.00024121
0.00118542
-5.59183e-05
-0.000708156
0.000764074
-0.000743989
0.00155178
0.000148465
-0.000956255
-0.000627044
0.00153162
-0.000415626
-0.000488948
-0.00198458
0.00196241
0.000224388
-0.000202221
-0.0015112
5.72627e-05
0.00145394
0.000341802
0.00109267
-0.00177386
0.000339393
-3.17088e-05
0.000260662
-9.63436e-06
-0.000219319
0.00188393
-0.000113604
-0.00156102
-0.000209306
-0.00152915
-0.00350503
0.0003867
0.00464749
0.000260038
0.000101519
-0.000361557
-0.00111577
0.00111213
3.63881e-06
-0.000693128
0.00362148
2.84945e-05
0.000217885
-0.000246379
-6.30653e-05
0.000341644
-0.000310287
4.88376e-05
0.000153939
5.78856e-05
0.00199579
-0.000111859
-0.00109354
0.00158827
-0.00021245
-0.000282285
-0.000658343
-0.00117718
0.00183552
1.12101e-05
-0.00170585
0.00222297
-0.00254015
0.00202303
-0.000169399
0.000759374
0.000318545
-0.00090852
0.00136507
0.00211325
-0.0024722
-0.00100611
-0.00281049
-0.00116977
0.00279499
0.00118528
0.00265545
5.55177e-05
-0.00268535
-2.56186e-05
-0.00123742
-0.000225201
0.00129762
0.000164997
-0.000116528
7.90896e-05
-0.00226217
0.0022996
0.00204078
-0.00233489
0.000131929
0.000162178
-0.00195278
0.00361937
0.000827876
-0.00249446
3.2185e-05
0.00114942
-0.00118161
-0.001772
0.00242429
-0.00065229
0.000561311
0.000686182
-0.000911586
-0.000335908
0.000963626
0.000624724
-0.000348651
-0.0012397
-0.000625137
0.000342133
6.58855e-05
-0.00126541
0.00119952
0.000260191
-2.7266e-05
-0.00025281
1.98849e-05
0.00120252
-0.00156738
-0.00189225
0.00225711
-0.00189151
0.00113349
5.79736e-05
0.000700044
-0.000459063
-0.00164174
0.00164805
0.000452754
0.00139713
-0.0014506
-0.000988574
0.00104205
0.000292515
-3.23243e-05
0.00124051
-0.00169958
0.000570965
0.00254762
-0.000653204
-0.00246538
-0.0025204
-0.000775004
-0.000860505
0.00415591
0.00147958
-0.000239061
-0.000250773
0.00012288
0.000127892
-0.00284141
0.000433614
0.00087976
0.00152803
0.000144586
0.00027529
-0.000419876
8.72287e-05
0.00114477
5.98868e-05
-0.00129189
3.04501e-05
0.0013289
-0.000431249
0.00343167
-0.000194618
-0.0028058
0.00024127
-0.000234491
-3.40448e-05
-0.000214616
0.000229392
0.000129811
0.00255026
-0.00242608
0.000421097
-0.000545282
0.00121881
0.000336815
-0.00184812
0.000292495
0.00403094
-0.0012666
-0.000739204
-0.00202513
0.000905191
-0.000505592
0.000684765
-0.00108436
0.000158882
0.000397273
-0.000487056
-6.90991e-05
1.93181e-05
-1.92932e-05
0.000339646
-0.000339671
-0.000136024
-0.00109084
0.000221184
0.00100568
-0.00149822
-0.00152063
0.00210912
0.000909726
1.4657e-05
-0.00289417
0.00291198
-3.24633e-05
-3.07865e-05
-0.000649041
0.000679827
-0.00138527
-0.000194554
0.0011157
0.000464117
-0.00149427
-0.000582376
-0.000292561
-0.00106744
0.00194238
0.000133689
-0.000370894
0.000237205
0.00165167
-0.00167562
2.39573e-05
-0.00140876
0.000111731
-8.13261e-05
0.00137836
-0.00182164
0.000570989
0.00125065
0.00158378
0.000257212
-0.00237144
0.000530448
-0.000435528
-2.77384e-05
0.000482584
-0.000430284
-5.24396e-06
-0.00103377
0.000216957
0.000668676
0.000148141
1.26852e-06
4.56018e-05
4.92302e-05
-8.97656e-05
-5.06646e-06
0.00127338
-0.000193099
9.1091e-06
-0.00108938
0.000411728
-0.000739555
-0.00038236
0.00026123
-0.00197455
0.00209568
0.000249301
-0.00065965
0.000308552
0.000101797
0.000268458
-1.07979e-05
-0.00180911
0.00155145
0.00162042
0.000274339
-0.00189476
0.00328451
-0.0036035
-0.0014892
0.000252224
0.00153274
-0.000295761
0.00227767
-0.001423
0.00166785
-0.00252252
0.000792305
-0.000541374
0.00184987
-0.0021008
0.000983489
-0.00241147
7.46967e-05
0.00135328
0.00147034
-0.000950823
0.000323124
-0.000842645
0.00140487
-9.1839e-05
-0.00131303
-6.02554e-07
-0.00178379
0.00178439
-0.00232886
0.00214647
0.00116588
-0.000190632
0.000331628
-0.000140997
-0.000631675
0.000561696
0.000730843
-0.000660864
0.00103239
-0.00139806
-0.000432168
0.000797845
0.000749922
0.000164788
0.00138392
-0.00229863
-0.00231817
0.00138071
-0.000890928
0.00182839
0.00108668
-0.00164221
0.00141095
-0.000855422
0.000563841
-0.000480675
-0.000535761
0.000452595
-0.000757067
-0.000667559
0.00142463
0.00149986
-0.00262191
0.00246619
-0.00134413
-0.000243121
2.48097e-05
8.97001e-05
0.000128612
-0.00113359
-0.000647858
0.00178145
0.000173353
0.000615141
2.01724e-05
-0.000808667
-0.000896453
0.000379802
0.000516651
-0.00217916
0.00182195
-0.00223339
0.00259061
-8.41986e-05
0.000234431
-4.2929e-05
-0.000107303
-0.000130835
-0.0001984
0.000237569
9.16655e-05
-3.67793e-05
-0.000119253
0.000155896
1.36126e-07
0.000920125
0.00035467
-0.000928983
-0.000345812
-0.0012274
0.00361982
-0.000375035
-0.00201739
-0.000239077
-4.0446e-06
0.000330189
0.000288119
-8.77926e-05
-0.000530516
-0.000198153
6.5153e-05
-0.000231524
9.25588e-05
0.00105909
-0.000441212
-0.000455241
-0.00349117
0.00339924
-0.000491033
0.000582965
0.00128519
-0.000361299
-0.00124289
0.000319002
0.00103786
0.000485964
-0.00285965
0.00133582
-0.00181511
0.00164423
0.000170884
0.000783513
-0.000805682
-0.000361782
0.000383951
-0.000457784
0.00309255
-0.000299543
-0.00233522
-0.000533458
0.000993872
-0.000375598
-0.00110511
0.000203947
0.000868229
3.29346e-05
-1.90284e-07
8.25296e-05
-8.23393e-05
-0.000847295
-0.00240025
0.00296606
0.000281488
-0.000497906
-0.00137804
0.00187661
-6.65764e-07
0.00101407
-0.00104865
-0.000291242
0.000325819
-0.000351454
0.000256602
-0.000222386
0.000317239
0.000905222
-0.000457757
-3.19185e-05
-0.000415546
5.743e-05
-0.00268388
0.00273069
-0.000104239
0.000179132
-0.000424471
0.00105325
-0.00103971
-1.35371e-05
0.00214914
-0.000849505
-0.00168259
0.00038295
-0.00127638
0.00070196
0.00037627
0.000851684
0.000125159
-0.000976844
-0.001682
0.00179633
0.00308199
-0.00319632
0.000935042
-0.000449162
-0.000249537
-0.000236343
0.000400177
0.000229413
-0.00242253
0.00179294
0.000910688
0.000613728
-0.00115021
-0.000374206
-0.00100308
-0.000517675
0.00152076
0.000920804
5.75014e-05
0.0011234
-0.00210171
-0.00141164
0.000408562
0.00103915
0.000118419
0.000650714
-0.00178431
-0.00147236
0.00141877
0.000297657
-0.000244068
0.0020063
0.00197933
-0.000111487
-0.00387413
-0.00153801
0.00199535
-0.00193691
0.00147956
0.0004656
0.00807398
-0.00757475
-0.000964825
0.00281493
0.000392688
-0.00153902
-0.0016686
-0.00143757
0.000427553
0.00137355
-0.00036353
0.000866019
0.000559237
-0.000108553
-0.0013167
-0.0030866
0.00230122
0.000785382
-0.00107324
0.00281
-0.000697608
-0.000790012
0.000359432
-0.000229584
0.000660164
0.000651166
0.00209849
-0.000458359
-0.0022913
0.00180415
-0.000390168
-0.00141399
-0.000215404
0.00214397
2.74749e-05
-0.00195604
0.00141569
3.21372e-05
-0.00144783
-0.000188689
0.000381643
-0.000192141
-8.13326e-07
-0.000785512
0.00133389
-0.000820475
0.0002721
-0.000820069
-0.000666
0.000412828
-0.00029118
6.58517e-05
0.000175543
0.00365461
0.000480352
-0.00211719
-0.00201776
-0.000129653
-0.0012064
0.00112065
3.45251e-05
0.00118785
-0.00122237
-0.000905172
0.00119394
-0.000288764
-0.000599992
0.00015801
-0.000282841
0.000724823
0.000521748
-0.00214091
-0.000445257
-0.000823974
2.76584e-05
-0.00175508
0.00172742
0.000208358
1.99512e-05
-0.000228309
0.000356184
-0.000392519
3.88446e-05
-2.50947e-06
-0.00241321
0.000245179
-0.00227739
0.00444543
0.000132255
0.000538954
-0.000606129
-6.50808e-05
0.000439577
3.44109e-05
-0.000117804
-0.00639949
0.00324193
0.0108169
-0.00765934
0.00321048
0.000336116
3.45514e-05
-0.00358115
-0.000123748
-0.00136271
-0.00135495
-7.61402e-06
-3.21557e-05
3.97697e-05
-0.00164098
-0.000166132
-0.000125762
-0.000536526
0.000544017
0.00011827
0.000250988
-0.000354105
0.000103117
0.000624042
-0.000595371
-0.000114815
8.61439e-05
0.00133591
-0.00576255
-0.00197285
-0.000488554
-2.78617e-05
-0.000299757
0.000816173
-0.00124349
0.00168256
0.000255672
-0.000694745
0.000502985
0.00027053
-0.000325523
-0.000447992
-0.000114753
-0.000802335
-0.000245016
0.0011621
-0.000960277
-6.05412e-05
-0.000288455
0.00130927
-0.000117294
0.000145468
-0.000194678
0.000166503
0.000606437
-0.00015672
0.000167919
-0.000617636
-1.42937e-05
-8.19734e-05
1.4216e-05
8.20511e-05
-0.0010522
0.000860291
-0.00133253
0.00152443
-0.00259152
0.00037268
0.00255967
-0.00034083
-0.000387068
-0.000112748
0.000499816
-0.000969472
0.000629595
-0.000111304
0.000451181
1.3417e-06
3.20991e-05
-4.77345e-05
0.000561695
-0.000358685
0.000481615
-0.000684625
0.000379415
-0.000486845
-0.000914155
0.00102159
-0.000132756
0.000458106
-0.000325351
-0.000100808
-0.000945906
0.00194384
-0.000652379
-0.000569477
0.000512128
0.000709727
7.78259e-05
9.04495e-08
-9.3382e-05
1.54657e-05
-0.000105275
0.000495842
7.49702e-05
-0.000465537
-0.000458873
-0.000622627
0.0004836
0.0005979
-0.000459627
0.000103366
-0.00131827
0.00167453
0.000704121
0.00140793
-0.0015189
-0.000593153
-2.91743e-05
-0.000714087
0.000665616
7.76459e-05
0.00220937
-0.0017249
0.00116813
-0.00165259
0.000254596
-0.000295211
-0.000875467
0.000916082
-0.000291276
-0.000678453
0.000969728
-0.000339348
-9.64481e-06
0.000348993
-0.000635854
-0.000896957
0.00153281
0.00121432
-0.00111024
-0.000183217
7.91341e-05
0.000234255
-0.000244546
3.86856e-05
-2.83939e-05
0.00137089
-0.00299396
0.00162307
-0.000436587
0.000309663
0.000556959
-0.000430035
0.000440279
0.000399929
-0.000377512
-0.000462696
0.000312077
-0.00239513
0.00239625
-0.000313191
-0.000189168
0.00149614
-0.00142269
0.00011572
0.000287206
-0.000302942
0.00193989
-0.00192415
-0.000242238
-0.000439757
0.000247253
0.000434742
-0.000574061
-0.000230412
0.000513198
7.07286e-05
0.000676772
-8.11434e-05
-0.000666357
0.000238935
0.00100373
-0.00116276
-7.99115e-05
0.00101077
-0.00151404
0.000130748
0.000372525
0.000837742
-0.000225371
0.000125392
-0.000737762
0.0018733
-0.00171443
-0.000352894
0.00019403
-5.83782e-05
6.08355e-05
-1.11553e-06
0.00287912
0.00014639
-0.00203108
-0.000994429
-0.000153021
0.00133406
0.000144368
-0.00132541
-0.00123843
0.000602573
-1.2173e-05
-0.000913979
0.000433019
0.000493134
-4.14749e-06
2.96284e-05
-0.00113375
-4.91594e-05
0.00115328
0.000866689
-0.00083706
4.28626e-05
0.000823826
0.00179329
0.00135693
-0.0014722
-0.00167802
-5.79899e-06
-0.00142397
0.00142977
-8.83705e-05
9.32598e-05
-8.82815e-05
8.33922e-05
-6.86588e-05
1.03711e-05
-0.00124825
0.00193707
0.00041162
-0.00110044
-0.00285457
0.00239542
-0.000856063
-0.00158255
0.00120018
-0.00189866
0.000714701
0.000327896
0.000861262
-0.00207975
0.00151182
-0.00029333
0.000530412
0.00263139
-0.000556876
-0.00260492
-0.00171582
0.00315466
-0.00591392
0.00447508
-0.00155548
0.00208589
-0.00224908
0.00124379
-0.000101598
0.00110689
0.000113047
-0.000988963
0.00111485
-0.00243705
-0.000150395
0.0025181
6.93386e-05
0.000105799
-0.00234657
0.000996702
0.00124406
-0.00167026
0.00166217
-7.33111e-05
8.14079e-05
0.000850131
0.00296127
-0.00259085
0.000175268
-0.000476935
0.000268073
3.35942e-05
-0.00193703
0.000992091
0.00105074
0.000427026
-0.00138407
-0.000979982
0.000407277
0.000244076
-0.000629147
-2.22052e-05
0.000211859
0.000608381
-0.0004653
-0.000354941
0.00011708
-0.000279233
-0.000153887
0.00031604
0.00034067
-0.000764065
-0.000203819
0.000627214
-2.21292e-05
0.000854745
-0.00119151
0.000358894
-0.000926719
0.000969582
-0.00111609
0.00078525
0.00132294
0.00167308
-0.00195763
0.00167826
-0.00139371
-0.000664965
-0.00125457
0.00120869
0.000533907
-0.0017426
0.00169661
-0.00181404
0.000117429
0.00139716
-1.74832e-05
1.52027e-05
-0.00139488
-0.000643526
-0.00086089
0.000844932
-0.00022861
-0.000623515
0.00011224
-0.000199243
0.00181576
-0.00172876
0.000729148
0.000108421
-1.37299e-05
-0.000823839
-4.01774e-05
0.000447454
-0.00157203
0.00128632
4.0458e-05
0.000245253
-0.0010698
0.00118204
0.000563021
-0.000603199
0.00243463
-0.000431541
-0.000352447
-0.00165064
-0.000248659
0.000297545
0.000720807
-0.000769693
0.00112974
0.000372978
-0.00150271
-0.00192508
-0.000479761
0.00251129
-0.000106447
-0.000245043
-0.000404785
1.22397e-05
0.000637588
-0.000183994
0.000312857
-0.000128863