/*--------------------------------*- C++ -*----------------------------------*\
| =========                 |                                                 |
| \\      /  F ield         | OpenFOAM: The Open Source CFD Toolbox           |
|  \\    /   O peration     | Version:  v2012                                 |
|   \\  /    A nd           | Website:  www.openfoam.com                      |
|    \\/     M anipulation  |                                                 |
\*---------------------------------------------------------------------------*/
FoamFile
{
    version     2.0;
    format      ascii;
    class       volVectorField;
    location    "0.828074";
    object      U;
}
// * * * * * * * * * * * * * * * * * * * * * * * * * * * * * * * * * * * * * //

dimensions      [0 1 -1 0 0 0 0];


internalField   nonuniform List<vector> 
83563
(
(0.0222761 0.339736 -4.12095e-05)
(-0.0565496 0.0672632 0.000372797)
(-0.103155 0.0690679 -9.32666e-05)
(0.0483405 0.0557082 0.00072491)
(-0.000528859 -0.194098 -0.000898146)
(-0.0248091 0.0406635 0.00124405)
(0.403712 -0.027289 -0.000151758)
(0.360939 -0.00352202 -0.000234174)
(-0.0911917 -0.073612 0.00110701)
(0.0530281 -0.0516499 0.00298032)
(0.12395 -0.101447 -0.00109511)
(0.385215 -0.0571301 -0.000389884)
(1.11283 0.37069 -0.00530067)
(0.121352 0.0367533 -0.000598567)
(0.32795 -0.00257514 -0.000689487)
(0.105802 -0.299415 -0.000126008)
(0.0536978 -0.0220121 -0.0011191)
(0.111811 0.0175517 -0.000601287)
(0.304533 0.0578949 -0.000416787)
(0.119237 0.0302241 -0.000853846)
(0.156232 0.00421622 -0.000578706)
(0.11751 0.0395086 -0.000710324)
(0.39787 0.126265 0.00121615)
(0.223844 -0.0814656 0.00136818)
(0.0887155 -0.0137311 -0.00132315)
(0.265579 0.0187164 -0.000450412)
(-0.023233 -0.0488776 -0.000492028)
(-0.0218414 -0.223245 0.00629193)
(0.261139 0.0194693 -0.0005529)
(0.0384419 -0.0874324 0.00048391)
(-0.0710981 0.0188996 0.00146189)
(-0.0591205 -0.117637 -0.000124757)
(-0.112796 -0.0175919 7.81942e-05)
(0.126101 -0.0642309 -0.000137321)
(0.132075 0.120732 0.000207075)
(0.010036 -0.0902434 0.00611913)
(0.0107066 -0.0245001 -0.0010017)
(0.0808624 -0.0299931 -0.00170995)
(0.0817341 -0.0635655 -0.00156079)
(-0.376103 0.340554 -0.000104294)
(0.146953 -0.0148623 -0.00078044)
(0.255565 0.0238873 -0.000565496)
(0.00663812 -0.0940327 -0.00106592)
(0.255225 0.00964686 -0.000682611)
(1.24946 0.0832618 -0.00420677)
(0.431479 0.246711 -0.000412775)
(0.106903 -0.247284 -0.000664468)
(0.147998 -0.0566226 -0.00110404)
(0.316973 -0.003437 -0.000468769)
(-0.0864282 -0.29981 5.65651e-05)
(-0.0549062 -0.119114 -0.00894048)
(0.250844 0.0166466 -0.000721751)
(-0.0647462 0.375367 -0.000116881)
(-0.306462 0.401936 0.026021)
(0.273184 0.172143 -0.000205846)
(-0.156589 -0.786607 0.00107592)
(0.175314 -0.0664447 -0.000917471)
(0.0233394 0.414565 0.0166541)
(-0.204815 0.555274 0.0280786)
(0.325229 0.192045 -0.000220369)
(-0.480739 0.42895 0.0700725)
(0.0434651 0.17891 0.000273044)
(0.151075 0.000621062 -0.00105153)
(-0.00284751 -0.0812703 0.00127155)
(-0.156015 -0.128262 0.013518)
(0.484544 0.675964 -0.00966977)
(-0.0146777 0.209725 0.00389511)
(0.322858 0.193785 -0.000196601)
(1.9483 -0.334909 0.0684187)
(0.146268 -0.300104 -0.00563462)
(0.0374409 -0.102748 0.00125291)
(1.06686 0.55219 -0.00899292)
(0.089012 -0.0382481 -0.00053128)
(-0.62432 0.244031 0.00909017)
(0.0880641 0.0339515 -0.000193363)
(-0.400633 0.289263 -0.000301007)
(0.433181 0.289642 0.0243327)
(0.0969077 -0.0113616 -0.00103202)
(0.0396707 -0.115073 -0.000897359)
(0.102724 0.355774 -0.00539835)
(-0.0883463 0.310765 0.000212033)
(0.458614 -0.0353846 -8.85346e-05)
(0.159125 0.0301854 3.58117e-05)
(-0.344078 -0.199659 0.000295044)
(0.000200019 0.224664 -0.000268571)
(0.05499 -0.20997 -0.000901846)
(-0.0144933 0.00306248 0.000675007)
(-0.203145 0.209853 0.00420976)
(0.0906984 -0.137893 -0.00090736)
(0.00264339 0.208589 -0.000286393)
(0.364082 0.00713761 -0.000250878)
(0.341807 0.00400196 -0.00043804)
(0.77914 0.519612 0.00220818)
(0.191858 -0.0289533 0.00343404)
(0.000354296 0.166669 0.0063101)
(0.396309 0.0471937 2.00417e-05)
(0.0896217 0.277421 -0.00654262)
(0.778608 0.46432 0.0022643)
(-0.0118637 -0.0234351 -0.00106036)
(0.374292 -0.0470295 0.000115862)
(0.419094 0.233244 -0.000277123)
(0.0155698 -0.0525854 -0.000849242)
(0.206149 -0.121124 -0.000306354)
(0.0253386 -0.0854298 -0.00117417)
(0.0411057 -0.0634745 -0.00229789)
(0.0528762 -0.075514 -0.00179639)
(0.0435292 -0.0605037 -0.00187484)
(0.289534 0.0364499 -0.000446592)
(-0.447649 0.647704 0.0269508)
(0.081272 -0.00637814 0.000339816)
(0.325007 0.181407 -0.000164084)
(0.31276 0.166705 -0.000165622)
(0.442114 -0.0146978 -0.00100039)
(0.0647906 0.10715 0.00238367)
(0.00102778 -0.0416949 -0.00173378)
(0.360565 0.019513 -0.000287082)
(0.54002 0.458672 0.000933373)
(0.346854 -0.00900837 -0.000228764)
(0.119197 -0.126255 -0.00165381)
(0.430156 0.0305737 -3.93914e-05)
(0.0529669 -0.0612969 -0.00201427)
(0.916395 0.0512841 0.00202091)
(0.316146 0.172099 -0.000191175)
(-0.136594 -0.14172 0.00306862)
(0.548418 0.0621329 -0.000513369)
(0.334191 0.00832453 -0.000333729)
(0.434066 0.187107 0.00176932)
(0.229132 -0.14262 -0.000172989)
(0.387266 0.0738466 -0.000334276)
(-0.0065419 0.0783879 0.000860854)
(0.303266 -0.349542 -0.00195967)
(0.86936 0.0459558 -0.0149255)
(0.17393 -0.160912 0.000624961)
(-0.022533 -0.0190818 -0.0293223)
(0.344905 0.0271111 -9.63228e-05)
(0.16969 -0.00899977 -0.000549562)
(-0.0571396 0.419356 -0.00175468)
(-0.0634365 0.0186947 0.001115)
(0.341224 0.0297737 -0.000542229)
(0.481023 -0.272455 -0.000201625)
(0.1836 -0.248766 -0.000600619)
(0.819393 -0.0346902 0.00118383)
(0.329429 -0.00023881 -0.000228112)
(0.187822 -0.23877 -0.000814065)
(0.301547 -0.0810858 0.0129543)
(0.400127 0.917626 0.0501801)
(0.354961 0.0539743 -0.000779303)
(0.0597396 0.0311051 0.000165745)
(0.348793 0.0541714 -0.000486649)
(0.0588601 0.0516917 -0.00203463)
(-0.0408066 -0.187895 -0.0010502)
(0.09905 0.0243018 -0.0011387)
(0.0749328 -0.0495021 -0.000756535)
(0.405956 0.0225485 2.55711e-05)
(0.269778 0.0380365 -0.000665198)
(0.308553 0.0217052 -0.000370467)
(0.339976 -0.0115134 -0.000611042)
(0.0168769 -0.00355263 0.000572909)
(0.438925 0.0026067 -0.000154067)
(1.50458 0.720258 0.00871855)
(0.408765 0.0235279 0.000148697)
(0.141064 0.0318887 -0.000406181)
(0.166472 -0.00340471 -0.000804706)
(0.348589 -0.00402646 -0.000432038)
(0.398084 0.0303587 -4.93206e-05)
(0.0525079 0.260453 -0.00108898)
(0.368633 0.144174 2.65714e-06)
(0.0647531 0.447541 0.00488745)
(0.404825 0.0282114 -5.6177e-05)
(0.39942 0.0466882 0.000160716)
(0.334422 -0.000338083 -0.000788436)
(0.333233 -0.00684516 -0.000921297)
(0.50626 0.0535917 0.0014974)
(0.40121 0.0171932 -0.000778671)
(0.499214 0.0414551 0.00170373)
(0.0143868 0.0682882 0.0013361)
(0.140147 -0.000685078 -0.000631581)
(0.412004 0.0509051 -0.000390161)
(0.218392 0.130503 -1.41066e-05)
(0.397472 0.0537343 -1.34152e-05)
(0.312999 -0.00878478 -0.000833348)
(0.0777904 -0.0837218 -0.000250873)
(0.410524 0.10602 -0.000262932)
(0.0101752 -0.191962 -0.000993108)
(0.0712479 -0.0906063 0.00434979)
(0.00761799 -0.388016 0.0054673)
(0.0133067 0.117126 0.00199706)
(0.123851 -0.0467932 -0.000294977)
(-0.0867125 1.20048 -0.00264009)
(-0.12798 0.369373 -5.90791e-05)
(-0.0537534 0.263156 -0.000189061)
(0.0605478 -0.481291 0.0171543)
(0.455211 -0.00548973 0.000256226)
(0.203944 -0.0313072 -0.00179882)
(0.405911 -0.0135612 0.000310881)
(0.22045 -0.0553709 0.000205725)
(0.293222 0.043037 -0.000702337)
(0.372768 0.0108955 -0.000134416)
(0.179767 0.00388209 -0.000806989)
(0.30744 0.0462964 -0.000617389)
(-0.270197 0.274157 0.000695203)
(0.140482 0.0189246 0.00211631)
(-0.217863 0.333551 0.00142391)
(0.350481 0.0243396 -0.000156813)
(-0.246584 0.340454 0.000700366)
(-0.118115 0.0176481 0.00305156)
(0.288271 0.0518132 -0.000759054)
(0.317111 0.438965 0.00184626)
(0.207477 -0.0405598 -0.000846196)
(0.158852 0.00128372 -0.000545335)
(0.310717 0.04681 -0.000763175)
(0.118911 0.972032 0.00572253)
(0.258057 0.142844 -0.000503105)
(0.346445 0.00254081 -0.000327389)
(0.384864 0.0496014 -0.000251903)
(0.183859 0.00750935 -0.000457655)
(0.344389 0.0155603 -8.74366e-05)
(0.390987 -0.0181578 6.645e-05)
(0.148458 0.000615558 -0.000810167)
(-0.112159 -0.00579169 -0.00116585)
(0.3519 -0.000131101 -0.000355305)
(-0.0193736 0.0233084 -0.00160299)
(0.318576 0.0257114 -0.000449509)
(-0.125967 -0.0647487 -0.000884054)
(-0.367579 0.877666 0.00785679)
(0.353587 -0.0068219 -0.000249037)
(-0.296596 0.544438 -8.53964e-05)
(0.0294923 0.00759478 -0.000512051)
(0.347692 0.0573413 -0.000411794)
(0.0486021 0.767548 0.00199178)
(0.0288488 -0.0228263 -0.00089375)
(0.316562 0.0187617 -0.00053362)
(0.346403 0.00576269 -0.000333689)
(0.282888 0.0507118 -0.000592336)
(1.70587 -0.311595 0.0056222)
(0.141642 -0.00865763 -0.000693894)
(0.308886 0.0411785 -0.000486694)
(0.13703 -0.108547 0.0013059)
(0.1193 -0.0814703 -0.000509137)
(-0.0355932 -0.0156078 -2.80278e-05)
(0.379435 0.0364673 -0.000248346)
(0.21195 0.0114103 -0.000577604)
(0.317711 -0.00623384 -0.000595575)
(0.368519 0.0269169 -0.000223536)
(0.480544 0.147867 0.000649803)
(-0.022985 0.0574231 -0.00048508)
(0.95541 0.355868 0.00381434)
(0.453154 0.0228339 4.42469e-06)
(0.0831906 0.422647 -0.00169313)
(0.107336 0.00621083 -0.000712736)
(0.28646 0.107966 0.000201304)
(0.00433987 0.0902499 -0.00049574)
(0.0244265 0.244987 0.000620235)
(0.371891 0.00521561 -0.0003262)
(0.0152888 0.242558 -0.000241889)
(0.149552 0.00962739 -0.000626622)
(0.333747 0.00566438 -0.000537342)
(0.377382 -0.0547274 0.000301278)
(0.287062 -0.0655786 -0.000220396)
(0.0272117 0.249119 0.000399243)
(0.0223255 0.244063 0.000700516)
(0.205841 0.00361067 -0.000773112)
(0.632855 0.402599 0.000224142)
(0.375842 0.0613516 -0.000315101)
(0.0091325 0.115661 -0.000419853)
(0.190043 -0.00490518 0.00137771)
(0.379402 0.0369775 -0.000329716)
(0.374889 0.291685 -0.000739031)
(0.428591 0.0343403 -0.00026514)
(0.362821 0.0111429 -0.000323271)
(0.37667 0.281739 -0.000464772)
(0.379805 0.298239 -0.000755488)
(0.109958 -0.259681 -0.000664982)
(0.131889 0.0909942 0.00185602)
(0.358012 0.286762 -0.00083525)
(0.170301 -0.0457058 0.000705314)
(0.355509 0.339215 -0.00146378)
(0.331715 -0.00930783 -0.000396613)
(-0.361344 0.143295 0.000456422)
(0.00356911 0.0962606 -0.000653636)
(0.394009 0.0717946 0.000207871)
(-0.224369 0.406367 0.00104098)
(-0.0456896 0.281177 -7.69517e-05)
(-0.145709 0.285659 0.00129975)
(0.100085 -0.121051 0.00236555)
(-0.0131468 0.0466511 -0.000502626)
(-0.232981 0.143253 0.00568322)
(0.407961 0.294422 0.000250055)
(0.122226 -0.10115 0.000263876)
(0.0213769 -0.0591335 -0.00153743)
(0.00803764 -0.00897731 0.00527732)
(0.0599268 -0.102149 -0.000354159)
(0.373553 0.309666 -0.00034654)
(0.332713 0.0260627 -0.000709641)
(0.0423177 -0.0783592 -0.00129269)
(-0.321845 0.237933 0.00144817)
(0.291073 -0.00594416 -0.000564229)
(0.481521 0.0288582 0.000313186)
(0.00171627 0.0907901 -0.000735975)
(0.353379 9.15893e-05 -0.000177274)
(-0.072899 0.00791677 -0.000610687)
(0.285423 -0.00179437 -0.000486199)
(0.378636 0.013469 -0.000204317)
(-0.0169869 0.00672528 0.0003374)
(-0.00378909 0.0141432 0.000283076)
(0.364032 0.318547 -0.00049549)
(0.365885 0.330444 -0.00127068)
(-0.77422 0.669203 -0.0146262)
(0.389895 0.00761334 -7.87905e-05)
(0.372869 -0.051697 -0.000904941)
(0.168281 0.319038 -0.000401791)
(0.356801 0.00294013 -0.000813827)
(-0.0922425 0.723531 -0.0227908)
(0.143681 -0.129829 -0.000194465)
(0.213087 0.749042 0.00615602)
(0.0285562 0.0374452 0.00021476)
(0.641887 0.431494 0.0011666)
(0.158256 0.374928 -0.000403597)
(0.170347 0.366485 -0.000743443)
(0.328971 -0.00148864 -0.00057279)
(0.482984 0.0657782 0.000380241)
(0.14601 0.335417 -0.000472054)
(0.037808 -0.106667 -0.000759763)
(0.184511 -0.017195 -0.00125059)
(0.329839 0.000391493 -0.000581665)
(0.175193 0.363665 -0.000134444)
(0.425422 0.191033 -0.000521205)
(-0.684145 -0.0724773 0.0010648)
(0.352416 0.0350718 -5.04452e-05)
(-0.171481 0.0651372 -0.00463443)
(0.402208 0.0248149 -6.46574e-05)
(-0.0228047 0.0380993 0.00127907)
(0.36806 0.0348037 -0.000252808)
(0.803672 0.130778 -0.00456535)
(-0.0289152 0.358149 -6.96479e-05)
(0.0991494 -0.0795771 -0.000242467)
(0.131938 0.146302 0.00132893)
(-1.76144 1.5697 -0.0801003)
(0.383465 0.0228992 -2.5868e-05)
(-0.0349782 0.0227499 -0.000654944)
(-0.39288 0.267579 -0.0121329)
(0.917029 0.697919 0.0362356)
(0.209632 0.238898 -0.000132839)
(0.00225266 0.0773547 0.000184387)
(0.395975 0.0182321 -6.02823e-05)
(0.12624 -0.0911933 -9.37535e-05)
(0.39673 0.0104537 5.46797e-05)
(0.0652491 -0.0175278 0.000669544)
(0.352717 0.0147358 -0.000363291)
(-0.00198978 0.08166 0.000148587)
(0.337765 0.00951367 -0.000364021)
(0.411444 -0.00475618 -0.000790534)
(0.0440773 -0.0250704 -0.00107551)
(-0.125948 -0.802212 0.0108756)
(0.839854 0.284373 -0.00174598)
(0.106966 0.0427378 0.000352781)
(-0.134996 0.0550211 0.00030233)
(0.370024 0.074236 0.000120874)
(0.366481 0.00316912 -0.000291466)
(-0.246361 0.239149 0.0060348)
(0.666611 0.345716 0.00189876)
(-0.178621 0.218246 0.000909088)
(0.788027 0.259107 0.00186112)
(0.347901 0.414199 0.00114187)
(0.741341 0.261713 0.00108717)
(-0.111405 -0.0988101 0.00644646)
(-0.0909219 -0.18943 0.0018654)
(0.355907 -0.00195682 0.000101888)
(0.373598 0.168672 0.00340551)
(0.177218 -0.00703527 -0.000853538)
(0.354165 0.0143795 -0.000271293)
(0.25545 0.0121531 -0.00101902)
(0.340949 0.00160773 -0.000442324)
(0.260037 -0.866985 0.0240415)
(0.152944 -0.800416 0.0123997)
(0.323423 0.0291144 -0.000952646)
(0.736348 0.228901 0.00148428)
(0.320754 0.0359552 -0.000440926)
(0.131261 0.0119902 -0.000551092)
(0.394351 0.0135169 -3.91381e-05)
(0.0259099 -0.113353 -0.00121732)
(0.263187 0.163398 0.000297503)
(-0.0782111 0.347197 -0.000683837)
(-0.0938963 -0.145714 -0.00105082)
(0.748935 0.19193 0.0028474)
(0.71475 0.338021 0.0033562)
(0.169118 -0.0290851 0.00244055)
(0.0454495 0.195029 0.000561323)
(0.636092 0.351779 0.00324362)
(0.342107 0.10325 0.000483409)
(0.0018648 0.2314 0.000881011)
(0.137752 -0.00784548 0.000813618)
(0.0705304 0.0337201 0.000572301)
(0.679995 0.365876 0.00245324)
(0.450026 0.00540362 -0.000662168)
(0.355663 0.0369833 -0.000221585)
(0.401925 0.0507281 0.000171282)
(0.336325 0.00857269 -0.000346645)
(0.318262 0.0203573 -0.000310023)
(0.357155 0.0178892 -0.00031322)
(0.228054 0.124532 0.00853801)
(0.294551 0.0105724 -0.000821207)
(0.130792 0.00582149 -0.00110891)
(0.471164 -0.176398 -0.00129997)
(0.641701 0.0497202 0.000514204)
(0.140244 0.0159919 -0.000628744)
(0.0398274 -0.68337 0.0112083)
(0.158408 0.0201412 -0.00110734)
(0.026456 0.195961 3.07696e-05)
(0.33762 -0.0145012 -0.00118979)
(-0.0313653 0.716406 -0.0133056)
(0.35093 -0.0156162 -0.00111353)
(0.385814 0.287137 0.000668646)
(0.06778 -0.0116809 0.000177472)
(0.0419795 0.512576 -0.00824994)
(-0.36031 0.46631 8.61076e-05)
(0.057813 -0.0156977 0.00219974)
(0.00486127 0.228102 0.00034985)
(0.674667 0.31961 0.00360694)
(0.037453 0.0963821 0.000971056)
(0.0506371 0.078301 -0.000249741)
(0.00684768 -0.0282769 0.00195142)
(0.257352 0.873539 -0.0415952)
(0.32433 -0.00382076 -0.000474678)
(0.395125 0.105467 0.000895824)
(0.0690319 0.843521 -0.0108053)
(0.367234 0.103116 0.000946819)
(0.134657 0.0576223 -0.00116368)
(0.442101 -0.076818 -0.000165224)
(0.439769 0.0340758 0.000163943)
(0.366299 -0.00689336 0.000179954)
(0.237848 -0.17697 3.82426e-05)
(0.392224 0.0223348 -0.000109829)
(0.343177 0.0291849 -0.000143894)
(0.530959 0.395607 0.00219878)
(0.313693 -0.0062504 -0.000348336)
(0.291449 0.29718 0.00549417)
(0.2172 0.111549 -5.71337e-05)
(0.347614 -0.00609569 -9.83283e-05)
(0.0108775 0.211845 -0.0043827)
(0.36133 -0.01953 -0.00103969)
(-0.00133151 -0.109829 -0.00070642)
(0.432192 0.275984 0.00168527)
(0.345937 -0.00641341 -0.000184041)
(0.33757 -0.154168 0.000691593)
(0.342365 -0.0127846 -0.000469228)
(0.0188249 -0.104953 -0.000814243)
(0.337851 -0.131762 0.000717295)
(0.634956 -0.0453341 -0.000665368)
(-0.413547 -0.725904 0.141188)
(0.320241 -0.103896 0.00118398)
(0.0465218 -0.0328385 0.00067522)
(0.355916 -0.0105652 6.11872e-05)
(0.0897921 -0.0202219 0.000750797)
(0.390779 0.0533921 -0.000135631)
(0.372761 0.00592435 -0.000398485)
(0.500911 -0.105558 0.000492285)
(0.0132283 -0.0889154 -0.000787397)
(0.0378809 -0.0356614 0.000639749)
(0.417089 -0.10553 0.000350398)
(-0.0375606 0.282459 0.000967301)
(0.666801 0.110277 0.0249977)
(0.153898 -0.0747569 -0.000780889)
(0.0653094 -0.036743 0.000347144)
(0.00418543 0.209539 -0.000244808)
(0.196938 -0.0472619 -0.000897769)
(0.261507 0.144146 -9.36245e-05)
(0.328802 -0.00850279 -0.000126571)
(0.158826 0.00570403 -0.000653353)
(0.310628 0.0246766 -0.000280826)
(0.308854 0.0201051 -0.000302899)
(0.355654 0.00862426 -0.000299621)
(0.0716219 0.0221631 0.000322149)
(0.351711 -0.00522555 -0.000159466)
(0.324041 0.0258108 -0.000320451)
(0.400711 0.129109 -0.000382279)
(0.31476 0.0399178 -0.000369841)
(0.000765605 0.229989 -0.000189012)
(0.000553671 0.226169 -0.000175478)
(0.180193 -0.0499972 0.000734875)
(-0.000669543 0.225531 -0.00018679)
(0.00355257 0.0150632 -7.63315e-05)
(0.325412 0.0556964 9.78565e-05)
(0.00115743 0.214549 -0.000288123)
(0.359166 0.0163871 -0.000107902)
(-0.0352817 -0.104985 0.000378789)
(0.36919 -0.0518674 0.000126429)
(0.37426 0.040585 -0.000263847)
(0.811095 -0.10889 0.0210245)
(0.339693 -0.0279336 -0.000283528)
(0.335309 0.0177429 -0.000230493)
(0.267147 0.146254 -0.000492067)
(0.272145 0.154896 -0.000472662)
(0.378288 0.211072 -0.0126722)
(0.430058 0.0227047 -0.000298908)
(0.45361 0.00147222 -0.000131896)
(0.262656 0.14534 -0.000368976)
(0.0332809 -0.070756 -0.00125159)
(0.0437442 0.16862 2.20825e-05)
(0.255993 0.149435 -0.000190885)
(0.327921 -0.0325743 -0.000470328)
(0.368196 0.0844084 -4.72856e-05)
(0.449239 0.00649421 -0.000420069)
(0.109769 -0.0900435 -4.48759e-05)
(0.157703 0.218922 -0.000302845)
(0.375427 0.0892658 4.16503e-06)
(-0.00154283 0.0549541 0.000196829)
(0.342294 0.086023 -0.000536261)
(-0.165417 -0.0266469 -0.000802072)
(0.121453 0.171651 -0.000408362)
(0.354086 0.111737 -0.00195213)
(0.00410399 0.0506906 0.000287148)
(0.000681617 0.0347542 0.000363198)
(0.0305247 0.00300011 0.000462506)
(0.135269 0.132388 -0.000290648)
(0.450734 0.0140531 -0.000271886)
(0.00151143 0.0565698 0.000306756)
(-0.319781 -0.055774 -0.00321469)
(-0.0182236 -0.0290046 -0.0016338)
(0.138448 0.152653 -0.000467961)
(0.118002 0.157759 -0.000379882)
(0.54393 0.381923 0.00179245)
(0.287656 0.041129 -0.000490897)
(0.400683 0.0368868 0.00014085)
(0.378523 0.0638635 -0.000317571)
(0.120391 0.0341229 -0.000479114)
(0.489571 0.0590515 0.000217125)
(-0.48596 -0.273397 0.00455955)
(0.167741 0.117681 0.000466357)
(0.0229884 0.0112547 0.000514576)
(0.457203 0.0220728 -0.000228802)
(-0.118622 0.275826 0.000201987)
(0.0760156 0.191115 0.000370998)
(0.0534336 0.100314 0.000516439)
(0.185599 -0.0206274 -0.000472627)
(0.356264 0.015592 -0.000265245)
(-0.295395 0.128783 -0.0169568)
(0.379678 0.00619745 -0.000587833)
(0.508678 0.0676367 0.000360118)
(0.493785 0.178025 -0.00288009)
(0.0258069 0.198805 0.000678035)
(0.526318 0.045586 0.000329496)
(0.33654 0.210939 0.00127305)
(0.314527 -0.0882884 -0.000503083)
(0.21934 -0.125547 0.00105105)
(0.223688 -0.174964 0.00195639)
(0.131892 0.214975 0.000439322)
(0.245741 -0.182145 0.00210209)
(-0.417722 0.315141 0.018678)
(0.351569 0.077177 -0.000486537)
(0.345228 0.0581554 -0.000431774)
(0.448517 0.164819 0.00104553)
(0.347557 0.0574975 -0.000683829)
(0.947686 1.10648 0.0066674)
(0.347858 0.0473702 -0.000489992)
(0.35113 0.0519215 -0.000320184)
(0.0373042 -0.214231 -0.00316099)
(0.748145 0.289804 -0.00273713)
(0.221179 0.446363 -0.00319522)
(0.136577 0.000521673 -0.000878273)
(0.382188 0.117534 0.000474025)
(0.0955115 -0.438695 0.00218682)
(0.361928 0.00462391 -0.000642317)
(0.35155 -0.00275306 -0.000361139)
(-0.0824927 0.0824957 0.00079328)
(0.187403 -0.00844904 -0.000535768)
(0.248282 0.389221 -0.00437245)
(-0.0481892 0.0133095 -0.00013256)
(0.383677 -0.0862025 -0.000910355)
(0.33109 0.000839289 -0.000556767)
(0.311836 -0.0138057 0.00104421)
(0.175958 0.210092 -9.24615e-05)
(0.136319 -0.0333333 -0.000788317)
(0.271745 0.152637 -0.000629331)
(0.113897 0.441177 -0.00449328)
(0.404132 0.00710121 -0.000211852)
(0.0562486 0.0274416 0.000589603)
(0.158405 -0.0206483 -0.00109831)
(0.446783 0.465524 -0.00100813)
(0.127369 0.0161219 0.000790025)
(0.177778 -0.0268254 -0.00155135)
(1.87741 -0.666325 0.108556)
(0.571156 0.000441456 -0.000232983)
(0.354322 -0.0129875 7.07862e-05)
(0.012463 -0.00195188 0.000750571)
(0.258584 0.143964 -0.000269344)
(0.132733 0.0159376 -0.000475449)
(0.106776 -0.0566135 -0.00115688)
(0.130585 0.0300865 -0.000587984)
(1.50279 -1.50325 0.225206)
(0.0886518 -0.0468284 -0.000995797)
(0.368634 0.0878398 -0.000814183)
(0.0447472 -0.0750229 -0.00124037)
(0.0561377 0.180869 0.000646487)
(0.227988 0.0455842 -0.00122934)
(0.0390026 -0.0246952 0.000590854)
(0.0916359 -0.0728962 -0.00110695)
(-0.00179383 -0.0323807 -0.00135982)
(0.0876017 0.132499 0.000566645)
(0.284076 0.233631 0.000250084)
(-0.0121913 0.114197 0.00329475)
(0.159687 0.0410212 -0.000771862)
(-0.0166216 0.011904 -0.00139359)
(0.132049 -0.0739782 -0.000955291)
(0.171661 -0.0904869 -0.000506018)
(0.0975228 0.0310595 -0.000205571)
(0.295842 0.16622 -0.00230214)
(0.152257 -0.0328596 -0.00214435)
(0.00327618 -0.0420974 -0.00139781)
(0.0386699 -0.0794022 0.00145845)
(0.136693 0.00163936 -0.000486835)
(0.338422 -0.0033584 -0.000381468)
(0.358963 -0.0116697 -0.000344643)
(0.155463 0.00204918 -0.000633913)
(0.537203 0.264219 0.00194759)
(0.0612032 0.221334 0.000585181)
(0.0573401 0.186252 0.000544001)
(0.179028 -0.000216704 -0.000610998)
(0.156216 0.274787 -0.000350201)
(0.34704 -0.0697433 -0.00111082)
(-0.0381483 -0.0918365 0.00416281)
(0.584293 -0.0282364 0.00757909)
(0.0656359 0.175387 0.000506434)
(0.148641 -0.0735409 -0.000197253)
(0.386916 0.0203684 -0.000188566)
(0.263384 0.0762021 0.000578273)
(0.3632 0.0631392 3.07169e-06)
(0.137204 0.0506038 -0.000516418)
(0.0585031 0.16425 0.000548391)
(0.119917 -0.0274864 -0.000633992)
(0.264171 0.000476518 -0.000853895)
(0.316625 0.15878 -0.000344195)
(0.0399568 -0.107961 0.00112071)
(0.350477 -0.029493 -3.77351e-05)
(0.00651577 -0.0100292 -0.00161838)
(0.475329 0.114604 0.00218448)
(-0.0464924 0.260342 0.000376691)
(0.144225 0.264063 -0.000439872)
(0.142995 -0.0857308 -0.00102368)
(0.00889479 -0.0346018 -0.00135497)
(-0.0122758 0.26876 0.000635575)
(-6.49254e-05 0.27431 0.00056105)
(-0.00882243 0.281743 0.000630799)
(0.063457 -0.251175 -0.000721181)
(0.308619 -0.00653706 -0.000522412)
(0.0104494 0.0111939 0.000564497)
(-0.000628255 -0.0301865 -0.00138727)
(0.0475623 -0.305734 -0.000585858)
(1.76972 -0.277794 0.00772463)
(0.150357 0.256652 -0.000416679)
(0.153949 0.257915 -0.000303737)
(0.194687 0.390067 -0.000648983)
(0.516966 0.135359 0.000533835)
(-0.591935 0.701862 -0.00619312)
(0.507197 0.122739 0.000299225)
(0.349336 -0.000319838 -0.000406723)
(0.316047 0.000953186 -0.000784805)
(0.371927 0.0616456 -0.000312558)
(0.218276 -0.254413 -0.000317098)
(0.325646 0.0137305 -0.000269113)
(-0.372816 0.131288 -0.000121381)
(-0.00948693 0.164747 -0.00231333)
(0.21641 -0.227079 -0.000258708)
(0.213882 -0.235736 -0.000428886)
(-0.145954 0.301466 0.014943)
(0.0351583 0.082261 0.000401787)
(0.0569411 -0.124118 -0.000981042)
(0.130156 -0.0442599 -0.00074908)
(0.156865 -0.000981584 0.000751249)
(-0.00211106 0.307383 0.000355351)
(0.22634 -0.217553 -0.000315538)
(0.349387 0.00877585 -0.000278253)
(0.221162 -0.264956 -0.000358794)
(0.218331 -0.244969 -0.000240256)
(0.417843 0.0256702 -4.69649e-05)
(0.325601 0.184959 -0.000307544)
(0.122552 -0.0863358 0.00112786)
(0.323866 0.185748 -0.000241857)
(0.383613 0.0359089 9.50082e-05)
(-0.0339859 -0.069601 0.00041358)
(-0.138449 0.248568 0.0230541)
(0.261993 0.129667 -0.000764267)
(0.388576 0.0325655 0.000101706)
(-0.247721 0.168097 0.0351584)
(0.308945 -0.0014053 -0.000432268)
(0.0573595 -0.0978238 0.00112943)
(0.435957 -0.103465 0.000395125)
(0.425817 -0.0758203 0.000678239)
(0.0436974 0.104913 -0.0014827)
(0.0488203 0.0713657 0.000288978)
(0.1371 -0.0370261 -0.000612413)
(0.426653 -0.0102185 0.000216192)
(0.0137809 0.141716 4.93355e-05)
(0.372772 -0.0154024 -0.000187749)
(-0.4921 0.318066 -0.00167247)
(-0.154424 0.33583 0.00258542)
(0.350509 0.0194121 -0.000767391)
(0.481795 0.0655699 0.000168413)
(0.0433767 -0.0909973 0.000832196)
(0.0324878 -0.0780004 0.00122635)
(0.318292 0.0498018 -0.000498672)
(0.002717 0.226273 0.000666478)
(0.065762 -0.0162335 -0.000712462)
(-0.00276747 0.258907 0.000567267)
(0.186444 0.349332 -0.00182202)
(0.352464 -0.0443361 -3.8086e-05)
(0.344263 0.00838134 -0.000204213)
(0.17774 0.00110946 -0.000846825)
(0.275003 0.0970287 0.000116527)
(-0.00288808 0.252001 0.000595929)
(0.150764 0.0168676 -0.000746337)
(-0.000212277 0.258666 0.000675816)
(0.0761292 0.140037 0.000364068)
(-0.00658348 -0.0243247 -0.00166615)
(-0.00320328 0.261043 0.000689233)
(0.41962 0.0407112 -7.80833e-05)
(0.120336 -0.0503064 -0.00108192)
(-0.0192281 0.0108361 -0.00166219)
(0.356541 -0.0665609 -0.000872233)
(0.335585 -0.347095 -0.000332043)
(-0.0109701 0.0254353 0.000167131)
(0.279308 0.454116 -0.00119427)
(-0.0224792 -0.214786 -0.000268665)
(0.0582312 0.266819 0.00627221)
(0.358788 -0.00225205 -0.000661094)
(0.433849 0.00296672 4.56472e-05)
(-0.562041 0.416062 0.0073397)
(-1.09323 -0.513209 0.0801153)
(0.100147 -0.0378667 -0.00117356)
(-0.0410431 -0.541606 0.0154355)
(0.391394 0.0783726 -0.000245253)
(0.0276022 0.0248397 0.000364122)
(0.0355104 0.0326877 0.000362417)
(0.407145 -0.0680941 -0.000424545)
(-1.00158 0.790825 -0.0368619)
(0.356411 -0.0484824 -7.36101e-06)
(0.13918 0.0033358 -0.000825404)
(0.0756734 -0.106787 0.00160879)
(0.0785655 1.10728 0.0750723)
(0.38807 0.0795223 -0.000474719)
(0.118459 -0.00882777 -0.000935011)
(1.46316 0.56249 0.0036898)
(0.295552 -0.0142743 -0.000449985)
(0.646832 0.166605 0.000607344)
(-0.06603 0.224745 -0.000476907)
(0.103253 -0.133345 -0.000701874)
(0.365655 0.0432048 7.72431e-05)
(0.457335 0.0735283 0.00046992)
(-0.289206 1.13901 0.00150287)
(0.108041 -0.043013 -0.000862555)
(0.133924 0.0124778 -0.000556413)
(0.129516 0.00622334 -0.000402851)
(0.112302 0.049845 0.000288022)
(-0.45121 -0.943831 -0.0294668)
(0.336913 0.123039 -0.000442777)
(0.358297 0.00217401 -0.000495742)
(0.0964175 0.029532 -0.000438582)
(0.487671 0.009499 -0.000109923)
(0.485602 0.0626836 -0.000155118)
(0.0936303 0.0205837 -0.0022157)
(0.0885413 0.00631661 -0.00190806)
(0.134963 -0.00561056 -0.00162298)
(0.163648 -1.34273 0.0401839)
(0.366748 0.0752061 -0.000461863)
(0.211515 0.177128 0.000553484)
(0.0841596 -0.128927 -0.000988084)
(0.169249 -0.0509657 -0.00075549)
(0.13227 0.00331817 -0.000897124)
(0.414915 0.217457 -0.000449559)
(0.3184 -0.0028648 0.0036954)
(0.14301 -0.0183428 -0.000653017)
(0.134449 -0.00202168 -0.000669706)
(0.338179 0.00167933 -0.000309331)
(0.120819 0.00399288 -0.00079366)
(0.0328189 -0.020265 -0.000317531)
(0.11293 0.0051858 -0.000765111)
(0.152131 0.00290655 -0.00064363)
(-0.2907 0.357968 -0.00741529)
(0.121441 0.0123511 -0.000323859)
(0.246479 0.131226 0.000328186)
(0.266085 0.132028 0.000307751)
(-0.0295975 -0.324764 0.000415414)
(-0.403551 0.0871397 -0.000467622)
(-0.453015 -0.0648206 0.00239364)
(-0.0100532 -0.0589141 -0.00105717)
(-0.0411161 -0.0444346 -0.00592047)
(0.34513 0.0132795 -0.000502106)
(0.370153 0.0145982 -0.000329496)
(0.129076 -0.0295489 -0.000819398)
(0.126916 0.151893 3.94226e-05)
(-0.307626 -0.0299791 0.00460442)
(-0.0320017 0.325844 -0.000758827)
(0.179813 0.1991 0.000365127)
(-0.328026 0.337721 -0.00104046)
(0.307168 -0.0591462 -0.00118635)
(0.162287 0.174102 0.000878884)
(0.213419 0.0833507 -0.00154376)
(0.060944 -0.121889 0.000157004)
(0.0670965 -0.0423911 0.000214589)
(0.165826 0.176624 0.000721657)
(0.364907 0.0154513 -0.000407334)
(0.366404 0.0829875 -0.000652178)
(0.345099 0.322146 0.000883914)
(0.285899 0.00980113 -0.000892072)
(0.423908 0.0665103 -0.000150881)
(0.164926 0.00127264 -0.00116489)
(0.437229 0.0111677 -0.000273347)
(0.695475 -0.0125138 -0.0282237)
(-0.0823954 0.403851 0.00844659)
(0.365256 0.00324501 0.000286375)
(0.374998 0.0754496 -0.000680106)
(0.327474 0.00220936 -0.000657411)
(-0.245992 0.257105 0.00311618)
(0.327375 -0.285565 -0.00983991)
(0.194499 -0.40214 -0.00912636)
(0.321702 0.0886067 -0.00720353)
(0.0510975 -0.0397247 -0.000281744)
(0.133447 0.115296 -0.0129581)
(0.275956 0.205764 0.00050159)
(0.367485 0.092689 -0.000313743)
(2.83264 0.322186 0.0298881)
(0.129858 0.157347 1.76147e-05)
(0.544819 -0.197924 0.00127628)
(0.284711 -0.12208 0.00064863)
(0.371093 0.125475 -0.000328887)
(0.377641 0.151337 -0.000287413)
(-0.193219 -0.0653153 -0.000508607)
(-0.188589 -0.0341597 0.000113922)
(1.95303 -0.405181 0.106454)
(0.112747 -0.119946 -0.00119632)
(0.362508 0.00767759 -0.000151502)
(0.0301965 0.410829 0.00164037)
(0.350905 0.0193059 -0.000140142)
(0.408741 -0.0998013 0.00297813)
(0.163861 -0.0022411 -0.000500095)
(0.156131 0.00344382 -0.000754711)
(0.0516096 0.0974937 0.000477328)
(0.10294 0.00158968 -9.05248e-05)
(0.0986017 0.0317188 0.000347599)
(0.364908 0.133877 -0.000388214)
(1.61935 -0.0948568 0.0272528)
(1.63415 0.46654 0.122973)
(0.0580602 -0.0215623 -0.00150334)
(0.0390182 0.134724 0.00057124)
(0.0127349 -0.113724 -0.00106743)
(1.36021 -0.79073 -0.303306)
(0.40853 -0.0223665 0.00120677)
(0.356054 -0.0742359 0.00116045)
(0.39558 0.0120054 0.00112708)
(0.484053 0.108716 -0.0108003)
(0.376762 -0.0342284 0.000766092)
(0.404906 0.0622201 -0.000385019)
(0.395891 0.115087 -0.000111406)
(0.117851 0.00613782 -0.00181844)
(0.0956414 0.0567671 -0.000108915)
(2.04036 0.0301068 0.00344728)
(-0.013134 -0.025662 -0.00195126)
(0.352138 -0.0222919 0.00095905)
(-0.0114586 0.239136 0.000835369)
(0.333338 0.059704 -0.00036874)
(0.125965 0.228949 0.00053046)
(0.79409 0.0509452 -2.1977e-05)
(0.0092357 0.22151 0.000565744)
(0.367825 0.0830853 -0.000533752)
(0.354133 0.0359316 0.000273777)
(0.00326123 0.114776 8.79068e-05)
(0.389565 0.0293036 -5.79451e-05)
(-0.000166221 0.118408 0.000181799)
(0.30261 0.0610309 0.000270992)
(0.395974 0.0122429 -0.000255365)