/*--------------------------------*- C++ -*----------------------------------*\
| =========                 |                                                 |
| \\      /  F ield         | OpenFOAM: The Open Source CFD Toolbox           |
|  \\    /   O peration     | Version:  v2012                                 |
|   \\  /    A nd           | Website:  www.openfoam.com                      |
|    \\/     M anipulation  |                                                 |
\*---------------------------------------------------------------------------*/
FoamFile
{
    version     2.0;
    format      ascii;
    class       volScalarField;
    location    "1.37745";
    object      epsilon;
}
// * * * * * * * * * * * * * * * * * * * * * * * * * * * * * * * * * * * * * //

dimensions      [0 2 -3 0 0 0 0];


internalField   nonuniform List<scalar> 
353077
(
0.00496771
0.00681326
1.79572e-05
0.00535746
1.9569e-05
6.0776e-05
2.98126e-05
1.79921e-05
2.16553e-05
1.59657e-05
0.0755802
0.0488835
0.387511
1.67618e-05
1.59872e-05
4.07838e-05
0.0186165
0.0809603
6.22966e-05
1.7913e-05
0.538937
1.49056e-05
9.66798e-06
0.0342343
1.79055e-05
2.006e-05
0.00477224
1.73192e-05
1.7017e-05
0.0815916
5.27702e-05
1.75404e-05
0.0168666
0.00345072
2.14865e-05
0.000879676
7.70804
32.3021
0.378273
2.12447e-05
1.81616e-05
9.32954e-06
6.3664
2.68172e-05
1.04921
1.83037e-05
6.34233e-06
2.45423e-05
0.00748233
0.0400882
1.72298e-05
1.79912e-05
9.28017e-06
7.38038e-06
0.000192119
0.000164072
1.82438e-05
0.000109293
0.0038724
9.57421e-05
1.41392e-05
1.78287e-05
0.0331835
1.17453e-05
1.22591
5.8964e-06
1.61946e-05
1.67584e-05
0.0880715
1.8881e-05
7.68328e-05
0.000528354
0.000567365
1.96612e-05
0.00063441
1.7896e-05
0.387849
0.748614
1.63672
0.0115555
1.18438
1.72605e-05
0.245173
0.044185
0.0162694
0.551483
0.969786
1.24672
1.79868e-05
1.07287
0.69724
0.000139091
1.78229e-05
2.72942e-05
0.383558
1.52619e-05
0.00379188
1.84501e-05
1.78423e-05
1.65567e-05
1.64718e-05
1.81192e-05
2.40552e-05
0.340029
0.00127687
2.08088e-05
7.222e-06
3.88484e-05
1.82039e-05
2.63132e-05
2.14334e-05
1.11691e-05
1.04682e-05
0.0915573
2.06593e-05
1.78794e-05
0.0273895
1.15411
4.40643e-06
1.79923e-05
1.03342e-05
1.74581e-05
0.00281443
0.00275198
0.000985282
0.00102627
1.35034e-05
2.97917e-05
7.65443e-06
0.000502851
0.00565513
4.38664e-06
2.00806e-05
1.83194e-05
1.79974e-05
0.0304035
0.000110115
2.12948e-05
1.80199e-05
5.51393e-05
0.0048214
0.000425495
1.84137e-05
1.69881e-05
0.00477421
0.00571609
0.14994
8.25648e-06
0.00531616
1.56238
0.00438984
0.0060451
0.000482077
7.56119e-05
6.50976
7.36072e-06
1.37267e-05
1.51535e-05
1.11193e-05
0.000434567
0.805318
1.77437e-05
1.18251e-05
7.09534e-06
1.79461e-05
22.4876
0.000717721
1.45318e-05
1.91479e-05
1.82193e-05
7.26884e-06
2.00032
0.0114555
2.28134e-05
2.01378e-05
1.92915e-05
1.53444e-05
1.8814e-05
0.0191533
0.00290803
1.79718e-05
2.65903e-05
1.77497e-05
1.82872e-05
2.22946e-05
1.89958e-05
1.27868e-05
5.21362e-05
0.0415156
2.18771e-05
0.0009504
2.42276e-05
1.76651e-05
3.81287e-05
3.01898
0.19409
0.000180559
0.00889818
0.00686845
0.00258389
0.00021183
0.718955
0.0322598
1.79921e-05
6.92486e-05
2.56708e-05
0.000346278
2.32857e-05
0.000652185
5.19043e-06
1.63817e-05
0.00762381
0.000327599
7.59762e-06
0.486536
1.68265e-05
20.8705
0.283698
1.84322e-05
0.000249647
0.42041
3.89771e-05
0.000264655
1.96897e-05
9.62986e-06
2.16933e-05
6.90404e-05
0.819282
9.68092e-05
5.38541e-05
2.77014e-05
9.35138e-06
1.78388e-05
5.24218e-05
1.07636
1.56242e-05
5.32472e-05
7.43053e-05
4.45757e-05
5.49276e-05
2.37823e-05
4.07219e-05
0.0399888
1.98478e-05
8.3559e-06
1.79227e-05
2.53001e-05
1.7945e-05
0.0794228
7.66873e-05
1.00823e-05
8.08934e-06
1.88469e-05
26.1147
0.0417816
0.000301578
0.000776654
8.16223e-06
0.00621372
2.02598e-05
7.21264e-06
3.83991
1.16313
0.00592574
0.00328587
0.000324415
7.47095e-05
2.02608e-05
0.000242103
0.000767666
0.000155318
0.941138
0.000466746
1.88246e-05
0.0157962
0.168064
0.00475811
1.87753e-05
0.297745
0.000168819
0.555768
0.302918
0.00170524
4.13128e-05
0.000153383
6.84082e-05
0.000333477
2.67761e-05
9.11424e-05
0.0328031
1.56441
0.594456
1.07306e-05
1.27215e-05
0.125108
0.000114664
8.69766e-06
1.74008e-05
1.77695e-05
0.000119986
0.145716
1.22747
1.79489e-05
0.188311
4.54367e-05
0.000114096
0.0210839
0.000117719
5.74469
0.000109593
1.70371e-05
1.66371e-05
1.26159e-05
1.21414e-05
0.55836
0.426398
0.000136854
0.378487
0.000739151
0.000822134
1.75657
3.12227e-05
0.744145
0.000202342
1.79411e-05
0.366769
0.00827979
0.00124135
0.00339639
0.00452667
0.000664099
0.00291369
0.376917
0.0712742
0.319081
0.00323864
0.0374253
5.27645e-05
0.00232035
3.60779
0.264589
2.8885e-05
0.0144725
0.00373517
0.000411188
0.00621557
1.77937e-05
0.00143416
3.67594e-05
1.75946e-05
0.000349563
0.0154538
2.09886
0.00390808
0.926302
4.20402e-05
1.56766
1.82147e-05
0.00875291
0.000206514
0.00177506
0.586124
0.160965
0.058331
0.0198072
0.000167944
1.48468e-05
1.01375
3.20957e-05
0.066592
0.0190945
0.44254
0.653164
0.943017
1.1695e-05
4.20025e-05
7.93436e-06
1.7511e-05
1.50475e-05
1.98797e-05
1.38645e-05
0.000262459
0.0133462
0.000367249
0.00092581
2.63085
1.76704e-05
2.46349
0.000958739
0.607901
8.99071e-05
1.20981e-05
1.68566e-05
0.05591
1.3611
0.00443654
0.542073
3.36961e-05
0.000211429
0.000216997
1.79626e-05
0.000209905
1.82034e-05
0.00101591
0.641228
9.28692e-05
1.81581e-05
0.00549308
0.00818858
0.000107508
7.5885
0.0028391
1.66831e-05
2.1766e-05
2.4962e-05
0.111195
7.30881e-05
0.00125455
2.04321e-05
0.686565
1.11328e-05
0.160705
0.0834853
1.82451e-05
0.000226728
0.130342
1.8032e-05
0.227967
0.473529
0.437094
22.3101
0.302637
1.42783e-05
0.259335
0.573723
0.249038
2.95365e-05
0.44263
0.000634524
0.335416
0.2835
0.000114119
0.0706902
0.00285769
0.00241617
7.06322e-05
0.00447163
0.00345309
0.0259072
0.613043
1.71352e-05
0.348772
0.0825175
0.00252251
1.36682e-05
1.76409e-05
0.381516
0.00142641
3.37443e-05
3.10058
0.213996
3.7047
7.48831
0.194122
0.00211963
0.000257218
0.000179176
0.000270797
1.45042e-05
0.000105287
0.000142642
0.00965321
2.41343e-05
0.000103338
0.000105641
0.000112651
1.68409e-05
0.00196718
0.173259
0.0001527
1.85213e-05
0.00914083
0.306558
1.40113e-05
0.000302788
1.85551e-05
0.0220068
3.61998
0.735115
0.50745
0.000475127
0.0182032
0.0199613
1.39007e-05
1.96602
1.24949e-05
0.0168379
0.511242
7.29502e-05
1.86615e-05
0.000105605
0.00019452
0.000344694
1.41047
0.272955
0.000135854
5.98291e-06
0.000449823
0.467984
3.268
0.457333
2.25085e-05
1.75444
1.76601e-05
4.25805e-05
5.17
2.82649
0.000118096
0.000137516
1.78354
0.195941
0.00450315
0.000807422
0.191121
2.15703e-05
0.571499
2.31217e-05
0.733922
2.28084e-05
8.82789e-05
0.000960725
0.000511995
1.34036e-05
1.36787
2.4855e-05
1.79837e-05
0.629722
3.38806
3.81867
3.44231e-05
0.0235431
0.00360064
0.00186805
0.0160659
0.00132559
0.22207
0.00131822
0.137264
0.0173039
9.34913e-05
0.0797974
9.44077e-05
0.11768
0.000392655
18.8267
2.30047e-05
21.4471
0.341268
0.0010782
0.505851
0.000226351
0.276488
0.012372
5.55141e-05
2.08465e-05
2.22056e-05
1.14169
0.00200155
0.0100919
0.00464355
0.642442
2.00796e-05
2.49022e-05
1.99547e-05
0.918781
2.43331e-05
2.64461e-05
2.53208e-05
0.0341348
1.20897
1.39055e-05
2.15051e-05
0.560589
0.000216786
0.000243526
0.00435229
1.51305e-05
4.61221
0.381861
0.289657
0.00014323
0.00644933
0.238929
0.465407
0.000941798
1.76393e-05
0.0900361
0.00339262
0.0597981
1.14102e-05
1.36774e-05
0.00904474
0.000588596
0.00272751
0.0439476
0.975064
0.295681
0.454761
0.840194
5.69674e-06
0.0172097
0.00473069
0.291219
0.317618
6.99183e-05
0.00274442
1.46308e-05
1.52819
0.00241603
0.700556
0.669394
0.000107281
1.66552e-05
0.0286264
0.00202557
3.71254e-05
0.177896
0.0615028
0.013811
0.0269638
0.000123525
0.000728745
0.567897
2.6537e-05
0.375324
0.194726
2.46271e-05
0.0907418
0.180802
2.14668e-05
1.79598e-05
1.62749e-05
0.816115
0.871135
0.00104691
0.00125382
8.50492e-06
1.73565e-05
0.0888297
7.34931e-05
0.015559
0.00120191
1.80811e-05
6.5024e-06
0.00186758
1.81077e-05
1.108e-05
0.000197229
0.0696161
5.63006e-05
0.0089993
1.79494e-05
1.88349e-05
8.43802e-05
0.432417
2.01807e-05
0.00320819
0.349415
2.40456e-05
0.633779
1.92194e-05
0.00264923
1.79822e-05
5.56725
1.52639e-05
0.00304959
0.00370122
0.750725
0.00575446
1.7829e-05
1.60415
0.402168
0.0153433
2.91399e-05
1.3711
0.00468227
0.0363672
2.31135e-05
2.07496
0.00100724
1.80082e-05
0.000949861
0.609552
4.20987e-05
1.79351e-05
0.00109311
0.0623121
0.186401
0.00991497
0.000555365
0.00200036
0.0014677
0.0891148
4.60027
1.31714
0.0307106
0.00789266
0.0133508
0.00280252
0.00321977
0.00146443
0.0150989
0.0380908
0.489209
3.17999
0.0118189
0.182467
0.487249
0.0178189
0.00287696
0.507645
0.489765
0.37685
0.703459
3.82576e-05
0.00694699
0.368131
0.000151703
0.0330073
0.407382
0.000217528
0.000766577
0.127345
0.0135038
6.33241e-05
0.79871
0.228972
0.2589
2.50255
1.57307e-05
0.261397
1.79655e-05
1.73784e-05
0.452574
1.24467
1.2322
0.56382
0.997495
0.137145
4.21264e-05
0.0332207
0.000102898
0.00158667
1.79765e-05
1.32597e-05
3.05347e-05
1.79314e-05
0.529477
2.94667e-05
1.79733e-05
0.204878
5.90956e-05
0.173819
0.010298
3.76171e-05
1.72075e-05
1.4019
6.97457e-05
5.87953e-06
1.95526e-05
1.22525e-05
0.000237449
0.0170138
0.163342
0.000218442
0.00383612
0.000297465
1.78687e-05
0.720173
0.0960332
0.00100677
0.00259391
1.16332
1.29116
0.00267087
0.00166652
0.000141406
0.00204812
7.12744
0.00219035
1.90027e-05
9.56511e-06
0.619827
2.19545e-05
0.00117573
2.37379e-05
0.0227371
0.000203012
2.14985e-05
0.0730508
0.725708
57.8393
2.14913e-05
0.000237071
1.98599
2.58949
2.1643e-05
0.000102554
0.000176894
1.3227e-05
1.88858
2.60844e-05
2.1844e-05
0.222153
0.000115259
2.26375e-05
0.629551
3.69064e-05
2.41723e-05
2.69704e-05
7.65111e-06
0.968369
0.000534266
0.120621
1.73365e-05
2.22807e-05
0.000603238
0.250229
0.0118552
2.59935e-05
0.67522
0.0450983
0.288397
0.340955
5.59815e-05
8.0743e-05
3.42445e-05
5.88122
6.71785e-05
0.000315373
0.0012325
0.154573
0.57009
0.60225
1.7186
0.000300235
0.0005329
1.99764e-05
0.0379603
0.171983
0.0020254
0.000216177
1.9275e-05
0.000666306
2.7168e-05
1.33498e-05
9.10344e-06
0.000108422
0.000806024
0.0586673
0.799849
3.62686
0.841708
2.59619
2.69313e-05
2.75811e-05
0.657038
2.38471e-05
0.00082596
0.00115778
0.302862
0.0974176
7.32924e-06
0.576879
0.00197644
0.00158095
12.0674
0.000769034
0.00357993
1.89712e-05
2.11798e-05
0.0569664
0.0234123
0.728474
2.09447e-05
1.42727e-05
1.87484e-05
1.97694e-05
0.775131
0.831803
1.88686e-05
0.0702833
4.95392
1.72568
1.37382e-05
0.00112174
8.47813e-06
11.1259
8.22375e-06
0.000401067
3.37304e-05
0.00576937
0.00128743
0.970347
0.000604713
1.77415e-05
2.46282
0.34472
2.42176
0.382631
2.28945
0.00153845
0.00168404
0.139563
0.0108708
0.0197935
0.323299
0.148809
0.430036
0.0329691
7.26821e-05
0.000160361
8.47532e-05
8.77812e-05
0.102699
0.00144554
5.46162e-05
7.3163e-05
6.51488e-05
9.56662e-05
0.754516
0.133752
1.13628
3.32376
4.56908e-05
0.00146311
0.00131245
0.102678
0.00102029
0.0604294
0.183933
0.404315
4.37347
0.00224881
0.600511
12.3026
0.126577
1.73469e-05
0.000345659
0.876361
7.39421e-05
1.46149e-05
0.000262194
0.000166064
1.76512e-05
4.18605e-05
3.63024e-05
0.0523337
0.345221
0.648539
0.619234
4.6901e-05
1.79797e-05
0.231971
0.708934
1.75746e-05
0.210647
0.14948
1.75045e-05
0.806057
5.77779e-05
1.6739e-05
0.216884
1.78914e-05
0.000325173
8.78907e-05
1.60835e-05
30.0401
0.000462794
0.521031
1.7956e-05
1.58423e-05
0.0366046
1.48877
0.00127647
0.724206
0.603936
7.99228e-06
1.78711e-05
1.68078e-05
0.37303
0.0792208
12.6495
1.79533e-05
0.000363232
0.00602662
0.00012554
1.05719
0.000300492
0.361944
0.0902557
0.655283
0.814205
0.79847
0.507647
5.51625e-06
0.933966
0.320364
0.848466
0.00245453
2.71443
7.76231
0.192818
6.6404
6.07118
1.80735
5.97475e-05
0.00201472
0.000439572
0.254813
1.17511
10.753
0.000684586
0.426919
0.0186714
0.194568
0.00266863
0.302926
2.40274
0.00460909
0.00266023
0.327786
0.00325894
0.0155544
0.2481
3.91094e-05
0.00664152
3.72094
1.84601e-05
0.835957
0.000470701
0.00856367
3.59891e-05
4.68802e-05
3.88405e-05
0.461661
5.06331e-05
2.5891
0.00203969
0.393201
0.00195664
8.16211e-05
3.40347e-05
0.361279
0.512629
4.81519e-05
0.261923
5.64616e-05
1.65246
4.51709
2.05866e-05
0.00233301
2.04059e-05
0.000143153
7.65343e-05
0.622588
1.65604
3.69737e-05
2.32159
0.00652128
0.00118721
4.52401e-05
0.0174147
2.10036e-05
0.00149998
1.82776e-05
0.000196651
0.361838
2.34854e-05
0.309382
0.000499171
2.03006e-05
1.81241e-05
0.0275117
0.00666532
1.83838e-05
1.60454e-05
0.000905432
1.93844e-05
0.421328
1.49403e-05
0.00591911
1.51086e-05
0.0880887
7.00674e-05
0.000364842
0.259395
1.68246e-05
9.38925
3.76931e-05
0.804295
0.0322591
5.27702e-05
3.56009e-05
1.26196
6.72451e-05
0.00015059
0.0252878
0.927505
3.06563
0.000271489
1.83427e-05
0.0275387
0.000111226
5.06743
0.206476
1.16945
0.687622
0.203661
5.05698
1.8446e-05
0.0302801
1.3166
0.446104
0.00292383
0.522286
1.53969e-05
0.014766
0.0356549
0.22021
0.317539
1.76524e-05
0.00854841
2.1726e-05
0.110241
4.59985e-06
0.861844
2.87633e-05
0.736829
1.72303e-05
0.270542
0.000512004
0.845728
0.34362
1.41056e-05
0.0219916
1.10061
0.000729053
1.84376e-05
0.714592
0.460249
0.377691
0.128148
0.000275045
0.142028
0.00014904
0.000295417
0.759538
1.50377e-05
0.000452969
0.000797246
0.0115573
0.675331
1.78988e-05
0.424075
0.742876
0.0170274
0.00729922
2.15446
1.6052e-05
2.20696e-05
0.00041714
0.072494
1.79803e-05
1.79144e-05
0.000862929
0.124293
0.000324997
0.00709234
0.019767
1.72199
1.77622e-05
0.0138527
0.749887
1.74455e-05
0.0101833
4.78474e-06
0.86771
0.0026215
2.16306e-05
0.0129204
0.323412
0.0107933
0.889701
2.22488e-05
0.000520343
0.636819
2.29277e-05
0.0522989
0.446862
0.0319993
7.77406e-06
0.842287
0.14088
8.1097e-05
0.242949
6.78931
3.96015e-05
2.75659e-05
2.50562e-05
1.15963
0.577201
0.564238
0.081282
0.14257
0.00108772
0.280254
1.79649e-05
0.0006026
1.18514
1.01608
0.202253
1.97938
0.384582
0.334528
0.569657
1.24415
3.13821
1.45581
0.00014554
0.000608367
0.00196708
7.67212e-05
0.0355996
0.321595
2.34691
0.387447
0.64833
0.2708
0.515559
0.00482587
0.000183649
0.336663
1.13347
0.202852
0.854567
0.219365
2.54891
0.0333508
0.402114
0.000428332
0.171652
0.000644117
0.000467572
2.19009
0.0277745
0.0817655
2.05533
0.352712
2.4991e-05
0.397924
0.000793814
2.61392e-05
0.00215532
0.548198
0.000605839
1.86638e-05
2.9626e-05
0.0589729
0.000127085
2.37253
0.00333486
0.00101786
0.239838
3.82728e-05
0.641133
0.185861
0.408215
0.00109572
0.00012019
3.79051
0.0126553
0.280868
2.20958e-05
0.0506414
2.06868
0.196016
1.16552e-05
0.000667376
0.0308959
2.6959
0.793621
1.06144e-05
0.00669741
0.664525
0.340843
3.45392
0.933824
0.00125604
0.24686
0.000396362
0.00203474
1.44369e-05
0.0435141
0.221409
0.231283
1.81238e-05
0.000144543
1.62124e-05
0.00386708
0.0321743
0.104284
1.3019e-05
3.69721e-05
1.93347e-05
0.104265
0.00142892
1.17307e-05
0.00147842
0.264006
0.70518
0.0690582
1.37876e-05
4.71445
0.746503
0.411596
1.35102
1.19001e-05
2.6545
1.44607
0.716538
0.239774
0.53228
0.756808
0.453751
2.8206
0.00011307
1.72339e-05
6.73503e-06
0.887033
1.77751e-05
0.00498333
0.712721
2.21501
0.000821594
0.744552
0.00963094
1.75297
4.02006
0.671053
0.34637
2.86665
0.000320075
2.20229e-05
2.38404
0.439923
0.00112371
0.000296074
0.0667303
2.49359e-05
3.6845e-05
5.83184
0.63397
3.12578
27.3419
4.87309
2.40646e-05
2.88769e-05
0.299507
0.0347608
1.88357e-05
0.000210903
0.695221
0.322203
1.77253e-05
4.03634
2.19099e-05
0.0201682
38.1315
6.6147e-05
2.16848e-05
0.000332952
1.79116e-05
3.28147e-05
0.243298
8.03084e-06
11.8044
1.92869e-05
0.114596
0.000164032
1.60701e-05
1.04452
1.79739e-05
5.36213e-05
4.59255e-05
10.1604
2.2537
0.685049
0.0135565
0.016085
0.00532478
1.80417e-05
0.158063
0.0077048
5.85527e-05
0.00701667
1.77986e-05
0.0172925
0.56056
0.0297422
0.0194393
0.339545
1.98974e-05
0.0170928
12.5982
0.00216958
1.14357
2.87043e-05
3.26326e-05
0.0369711
1.80515e-05
2.17021e-05
2.24159
1.73489e-05
0.308025
0.00298431
2.73967
0.0154797
10.4592
1.52601
3.24718e-05
0.152777
0.115978
0.0614386
0.297224
0.210765
4.41383e-05
0.841944
0.0281638
0.308504
1.79397e-05
2.12714
0.00391648
0.000671405
5.56395e-05
3.99339e-05
0.70046
1.90838
0.106514
0.00308801
0.000290954
3.58642e-05
2.31533e-05
0.000291268
0.322945
0.374595
0.0361024
1.05655
0.54096
0.113059
0.00154163
1.58078
0.116335
8.32723e-06
0.663685
3.00979e-05
0.00103945
7.38987e-05
0.0011372
0.00176145
0.153438
0.396092
0.301986
0.108045
1.7328e-05
0.00169423
0.684477
0.00179911
0.00207372
2.24947
1.12303e-05
0.0771639
0.0559984
0.710505
3.15183e-05
0.391093
0.00744328
4.70936e-05
0.00117913
1.0268
0.43425
0.00293281
0.00014399
0.00450109
0.692635
0.0120237
17.2672
20.3926
0.501857
4.42893e-05
0.127055
0.922985
0.00482478
1.97277
0.087835
4.68035e-05
0.0758526
5.1087e-05
0.000634257
0.809648
2.27249e-05
1.08479
0.336551
0.0205281
2.16769e-05
4.19706
2.59765e-05
3.43009e-05
3.50311e-05
1.76663e-05
7.51703e-05
0.160016
4.11829e-05
0.990756
0.459367
0.340562
0.00055541
0.000120325
2.67617
0.925239
0.0184506
1.92163e-05
0.000152913
2.74991e-05
3.27936e-05
0.00311179
0.0010754
3.29345
0.0115215
7.7349e-05
0.582231
0.00135719
0.155071
3.23203
0.0296941
0.518296
0.132923
0.60487
5.21217
0.025809
0.0285157
22.0625
0.0120849
0.436096
0.00113163
0.081681
0.0214978
0.162657
0.000630737
0.0153615
0.981953
1.34633
3.98302e-05
3.98937e-05
0.00121283
1.31888
0.632221
2.88859e-05
0.313311
0.000984205
0.607227
3.12819e-05
0.000733583
1.13446
0.0486095
2.59153
0.00312225
3.27485e-05
0.00736384
2.157
3.65822
4.35311
1.76569e-05
4.5402
0.08935
1.6614e-05
8.40791e-06
1.60532e-05
1.11399e-05
0.588025
7.41097e-05
0.221877
0.850692
0.00413786
0.30078
9.3531e-05
0.000525236
1.35465
1.29329
0.0587438
0.133925
0.142761
2.73017e-05
21.0194
0.119221
2.05584
2.9035e-05
1.23146e-05
0.189204
0.0362288
2.87881e-05
3.11389e-05
1.03427
1.39916
1.02353
0.000118474
0.00117651
74.6645
2.40253
0.521959
0.000972574
1.9526e-05
1.95486e-05
1.71607e-05
0.000390454
1.51546e-05
0.654414
0.00175109
5.93803e-05
3.71375e-05
0.0110749
3.26053e-05
1.8678e-05
0.460454
1.59864e-05
1.92504e-05
0.000159428
0.605725
0.000153978
16.6573
0.507792
0.935262
13.4224
0.00116814
10.9488
0.000381436
0.00040309
0.0709636
3.6505e-05
1.61476
9.19376e-05
7.93409
0.318369
6.03557
0.649152
0.0837842
0.000245854
0.0010132
0.724498
0.0238962
0.000222402
0.0234443
1.56497
0.453907
3.27696
0.149632
0.19112
2.55386e-05
4.6045e-05
0.603748
0.012022
1.09965
4.40562e-05
0.26831
0.371288
0.000522318
0.00015206
5.36498e-05
0.164734
0.00211378
3.23066
0.00424758
0.30195
0.000804701
0.294238
0.79904
2.5457
4.81356e-05
0.387657
0.00126288
0.00302413
0.00215968
1.45757e-05
0.000225441
0.00337801
0.00467358
0.0119788
0.962434
0.00301614
0.000355747
0.00343404
0.310955
0.299899
4.11056e-05
2.70223e-05
0.218823
5.22935
0.816048
6.63717e-05
2.72596e-05
0.00213508
2.81964e-05
1.66865
0.55563
0.00912919
0.00345581
0.00232401
0.00118134
4.70787
0.644342
0.00446777
0.971614
0.566707
0.130084
0.00979368
0.000148491
0.000104921
0.000195041
0.538608
4.63831
0.203424
1.06098
0.000354421
0.0831436
0.013374
0.237289
0.411316
1.29437
1.64942e-05
1.20764e-05
1.24745
2.83244e-05
6.70971e-05
1.76464e-05
1.12144
1.32098
1.19213
0.000407471
0.375857
1.69735
1.78596e-05
0.000377431
0.00116598
1.41391
2.92386
0.0450766
0.000897686
0.00088626
5.23689e-05
0.00110128
0.366954
2.17754
0.0312981
0.00376582
0.609571
1.70361
4.61798e-05
0.0042602
0.292363
8.47666e-05
2.20915
0.000496479
0.000127279
0.000156591
11.0697
0.000926625
0.199158
0.0135513
0.000157007
0.0806451
0.0446
20.3148
0.00254863
0.000112629
0.0257796
0.193641
1.54115
0.00721169
0.00099139
2.15758
0.00312631
0.117437
0.981831
0.43118
0.192341
0.000173499
0.823329
0.595677
0.000398771
0.00260775
3.49642e-05
0.00053035
2.45997e-05
0.392413
0.540482
0.00252313
0.000504226
4.34667e-05
0.000136418
2.64213e-05
0.0114449
2.15108e-05
0.146328
2.12644e-05
0.5757
0.000186212
0.420473
0.50872
1.24194e-05
0.610655
0.0541645
0.174574
1.76273e-05
2.62053e-05
5.78422e-05
7.95968e-05
1.69208
0.0260415
0.267038
0.170667
0.00105024
0.00607736
0.938029
4.20606
0.000260169
34.8098
5.21643e-05
0.0833514
0.000799362
1.80102e-05
4.00675e-05
3.23124e-05
10.5644
0.000258709
2.18046e-05
0.323108
0.199658
0.0148078
0.00915253
1.79618e-05
1.05069
0.330216
0.000437291
0.000179962
4.73753
0.000203801
1.75682e-05
3.96123e-05
1.79563e-05
0.227291
0.330908
2.24548
0.282652
0.00122377
0.565249
0.00706107
1.61706
0.226271
4.41626e-05
0.403615
2.3491
0.94415
0.000361677
0.177149
0.000358143
0.263274
3.71415
4.63815e-05
0.0174762
0.0184994
2.16343e-05
0.0330731
0.0271584
0.677196
4.57025e-05
4.54078e-05
5.34722e-05
0.172287
2.06486e-05
1.78678
0.848363
1.82269e-05
2.54926e-05
2.14496e-05
0.074361
0.0284035
3.64936e-05
1.98373e-05
0.117632
3.14626e-05
0.173719
0.000591375
0.20553
0.000264627
6.94634e-05
0.0134855
0.271991
0.000665509
14.2804
0.614904
4.65131
1.44569
0.000393542
3.44666e-05
0.000633558
0.00237499
3.29268
0.0319194
1.08408
0.27535
6.51928e-05
0.000276864
0.070484
0.0228227
0.00010863
4.26215
1.67792e-05
1.59505
0.011665
9.23198e-05
0.0408795
0.000131405
0.739447
0.58585
0.154442
0.0790649
1.54966
0.00724616
0.0862014
0.00541626
0.0977544
0.00181695
0.996181
0.000316995
0.000232883
0.690389
2.04418e-05
9.04752e-06
1.78615
1.6381
0.20534
1.96455e-05
1.81393e-05
1.10188e-05
0.0466767
0.000206435
0.502512
0.00174395
0.224954
1.64566e-05
1.07139e-05
0.390761
1.40376
0.060758
0.00160275
0.516733
3.08581
0.088267
3.84952e-05
0.000188867
0.34149
0.00156092
1.74435e-05
0.0108933
3.35488e-05
3.02055
3.59113e-05
0.462615
0.808768
0.374476
4.62459
0.000123992
0.141913
0.00660284
0.000737657
1.20085e-05
0.44249
3.62495e-05
0.347156
0.0512695
4.13516e-05
1.79821e-05
2.33919e-05
0.294694
1.91625e-05
1.79319e-05
1.2719
0.334431
0.00313479
0.0638741
0.0109583
2.18043
1.9602e-05
0.778957
0.585059
1.68447
0.516225
0.000659195
1.78239e-05
6.14193e-05
0.470172
2.5261e-05
1.94746e-05
1.83957e-05
0.0258703
1.40984e-05
0.000681789
0.30286
5.35
0.00174329
0.660605
0.0164374
1.4156
1.00253
0.420454
0.00897475
1.82772
7.46285
0.454716
8.41469e-05
1.07483
0.00010311
1.78593
2.61692e-05
0.00272649
11.7773
13.2742
0.00125546
1.36084e-05
0.00785976
0.6856
0.75624
1.35973e-05
1.70266e-05
1.75439e-05
0.558895
0.775212
2.4109
0.863376
1.31235
0.0069103
1.36284
1.78665
0.394062
0.365944
0.000207914
0.256628
0.00082919
0.95864
0.00240709
6.30104e-05
2.42654e-05
0.000126048
0.757282
1.85611e-05
0.014314
5.27089e-05
0.000968945
0.1602
0.000268992
6.4978e-05
0.27579
1.93387
1.83616e-05
5.14517
0.00103259
0.0390989
0.0717444
2.87368
0.154749
0.335319
0.0205871
0.677091
19.0974
0.0020218
0.277371
0.885691
0.000665617
0.000813959
0.00140015
0.000330572
3.05323
0.00213107
0.428022
0.280133
2.77032
0.865693
0.000562133
4.80216e-05
0.62605
0.0142518
1.91817e-05
4.50526e-05
0.000372162
0.0035162
0.052317
0.0110407
1.37522
1.05325
0.138438
0.00206199
0.00033333
3.51684e-05
0.00212941
2.34701
11.8873
3.592e-05
0.00752041
1.32411
0.648288
1.81375e-05
13.3523
0.00200802
0.376633
2.55154e-05
2.19275e-05
0.739023
0.343055
0.793726
0.174402
11.4006
0.613015
4.01988e-05
0.985458
1.30633
1.08497
0.051705
2.97538
1.762e-05
1.80761e-05
1.85732
2.13752e-05
1.85664e-05
0.000198955
1.80829e-05
2.59927
2.10697e-05
1.88664e-05
1.92549e-05
0.219626
4.34795
0.241046
0.304923
2.76539e-05
4.63427e-05
0.979443
3.70367e-05
0.731224
0.53803
0.76798
0.00255757
0.00848281
0.183357
0.000372345
0.384375
0.25911
0.380423
0.000463409
0.303285
0.000721182
0.000215766
2.9055e-05
0.0294904
1.40477
0.115128
0.0526298
3.02045e-05
2.16414e-05
0.000219024
0.0939242
2.14405e-05
0.588243
0.328342
5.15322e-05
0.123923
9.78052e-06
0.0182063
4.13082e-05
7.22852e-06
0.00823121
2.23936e-05
0.00380767
0.000677338
7.77203e-05
0.718849
1.0509e-05
0.000175239
6.83907e-06
0.0106947
6.04195
6.50829
0.00275429
1.89157e-05
5.74283e-05
3.69785e-05
3.72685e-05
0.000153577
0.837455
0.607893
1.78523e-05
1.99599e-05
1.1975
1.46798e-05
1.40239
8.84002e-05
0.000699965
0.00309895
1.35932e-05
0.00190772
0.253525
2.16016e-05
2.22661e-05
1.20818e-05
2.4206e-05
2.2185e-05
0.000104405
0.00270973
6.4981
0.00105457
0.00974272
0.467915
0.586421
0.000579308
2.65923e-05
2.05568e-05
3.38826e-05
0.242865
0.299747
0.165045
0.000435404
0.556122
0.3309
0.056424
0.000309298
0.412476
0.700921
23.0921
0.380963
0.000734678
1.5095e-05
1.76335e-05
6.3985
1.90893e-05
0.0529471
0.0893911
3.24485
6.03756
0.0687422
0.169152
0.00410375
0.0509165
0.00250272
3.70142e-05
1.79751e-05
1.41831e-05
1.68562e-05
0.082696
2.84412
0.00105556
0.000508193
1.18238e-05
0.00443034
4.65381
0.0333147
1.67988e-05
0.000207666
2.10079
0.00224524
0.72907
2.79075e-05
0.00124145
3.70604e-05
0.00815637
0.00162774
0.000175317
1.80231e-05
0.00340454
0.00259429
0.00342306
0.766089
0.00105223
0.000251898
0.000215941
0.00016687
0.0663357
0.000870397
0.193142
4.27741e-05
0.0283632
0.0144909
0.58491
0.00127673
0.00133119
1.12713
0.351429
0.270928
0.222049
18.9914
0.29044
0.659642
1.32026e-05
0.000144657
1.20468
5.47576e-05
0.227504
1.61289e-05
0.000180567
1.3602
1.74514e-05
0.976404
0.000291868
0.000286355
0.000153017
0.0327008
1.79073e-05
1.69753
0.483481
0.368265
0.76781
2.23721e-05
1.8192e-05
0.274309
1.56957e-05
0.183661
0.289942
1.03639
1.12424
0.000154038
0.663317
0.606535
0.502977
0.000216902
0.00027669
2.71493
0.735011
0.0835476
0.690919
3.61458
0.062975
2.14455e-05
0.0672181
7.44053e-05
0.000172059
4.48501
0.278807
2.08847e-05
0.000186517
9.28285
6.02386e-05
0.000748718
0.226157
4.07915
2.18426e-05
0.000170845
2.12761e-05
36.829
0.344743
4.71391e-05
3.94709
2.6178e-05
9.16209e-05
4.14891e-05
2.67578e-05
2.01651e-05
2.48535e-05
1.92764e-05
1.05423e-05
1.12502
0.708226
0.00777695
3.3888e-05
0.0137702
1.80339e-05
0.00020157
0.000803545
3.96496
9.52429e-06
9.60406e-06
0.816055
0.00328025
9.31477e-06
9.63881e-06
0.865146
0.100954
1.84773e-05
2.48428e-05
2.36799e-05
0.346992
0.217915
5.77303
0.000518219
1.76454
0.559517
2.38589e-05
0.000553309
0.000100502
1.78375e-05
0.00017064
0.0489423
0.00730691
0.00310081
0.0152043
0.000237797
0.236211
0.000143511
1.31111
0.00171762
0.0668869
0.000119262
0.00240338
2.26648e-05
0.000945428
1.01301
2.78733e-05
3.05708e-05
14.5181
0.000101752
23.3161
0.000543911
2.99869e-05
0.241529
1.67927e-05
0.000172017
0.000815223
0.0480846
3.65018e-05
1.80322e-05
14.4761
2.88902e-05
1.79979e-05
0.403439
0.00289397
2.63203e-05
9.48207e-05
0.0386748
0.000669539
1.91764e-05
0.422905
0.00257168
1.7805e-05
9.23328
0.154426
0.0143884
0.0555823
0.150291
0.916286
0.242572
0.00548729
0.00386835
0.000160679
2.26006e-05
10.5799
0.00237627
9.95927
0.000438292
0.721876
0.531955
1.99171
1.9139e-05
0.120871
0.00612813
0.653219
0.778673
0.00941395
7.7514e-06
0.000164229
0.36182
1.7922e-05
0.353791
0.00213529
0.48006
0.00234288
0.941384
0.000191099
2.58068e-05
0.0176388
3.04735e-05
0.00276669
7.98099
0.00011889
0.746146
0.734194
0.00194746
0.000179231
0.00203553
6.94121
0.00424765
0.933609
0.403845
0.00288772
0.000178367
2.37853
5.17287e-05
0.00390711
0.00103527
1.82743e-05
11.0484
0.000916797
0.802493
0.0623292
2.12067e-05
1.65635e-05
0.0751675
7.06217e-05
0.000886821
0.00367872
9.53964e-06
1.80323e-05
0.00118628
0.604363
3.01482e-05
13.0961
2.45381e-05
0.0591189
0.0191262
6.87896e-06
0.135238
2.51336e-05
0.000148856
0.00184015
0.117464
2.97776e-05
0.000303272
1.47696
3.70109e-05
6.55777
4.27738
0.269182
0.110413
3.19044e-05
0.000232766
3.45838e-05
0.000249286
0.126377
4.41881e-05
0.333875
0.00258494
0.0486669
0.000542461
4.00806e-05
2.70431e-05
0.00050282
0.0126536
0.778723
1.62644
3.10369
4.97842
0.411086
2.25069e-05
0.000649273
0.000317161
8.79057e-05
2.71551e-05
0.0275679
0.533961
0.0420099
0.000265627
3.82066e-05
0.0483269
1.51702e-05
2.31485e-05
5.44281e-05
0.000490712
0.00165339
0.718839
0.431779
0.0697202
1.88769e-05
1.04838e-05
0.572673
0.000236259
0.208744
0.0875136
0.000239807
0.000166539
0.000248492
0.216923
1.0665
0.542549
0.00110735
1.08419e-05
0.000511867
0.0852413
3.19905e-05
4.92777e-05
0.000528452
2.24795e-05
0.000430336
0.0012369
0.00301875
0.000549213
0.000235444
0.0630198
0.0622591
0.146161
1.08081e-05
0.000467234
0.000246448
0.000787882
6.91522e-05
1.19184e-05
1.90008e-05
0.0271547
1.77712e-05
6.64853e-05
0.0566331
0.328527
2.91289e-05
0.343952
1.05892
0.00284302
1.19804e-05
1.09344e-05
3.12672e-05
1.7964e-05
0.608911
2.49831e-05
2.50195
1.0861e-05
0.840247
7.55345e-05
0.000201706
0.000445013
4.82701e-05
1.75763e-05
0.000158068
0.436467
0.000484289
0.00414321
0.000392713
0.0274367
0.000128809
0.00362132
0.240478
0.000655581
0.0241421
0.000138925
0.00631737
0.00297694
0.0215195
1.0814
5.95711e-05
4.43957
0.0172457
10.9053
1.79727e-05
0.256645
0.577535
1.04274
0.000437495
0.723981
0.533557
1.70067
2.57255
0.606451
0.00465462
0.000244295
2.23756e-05
0.0117231
0.0197031
1.90915e-05
0.00438436
0.000638215
0.000114057
1.79079e-05
1.71804
0.024153
1.11127
0.474006
0.000199547
0.557503
1.99789e-05
0.69647
0.000926963
0.0496936
3.83003e-05
7.52893e-05
0.00210902
0.000800917
3.6573e-05
9.17769e-05
6.28187
0.000262957
0.118725
1.02867
0.083832
1.11621
1.14499
1.51235
4.56473e-05
1.76969e-05
0.595915
1.79643e-05
1.73878e-05
4.87452e-05
7.28526e-05
0.470547
0.00501196
0.577109
0.0202042
0.0100641
0.760397
0.697969
0.00436723
3.40303e-05
0.0506276
0.000147651
0.0069746
0.211217
1.92493
1.51437
7.2275e-05
4.41312e-05
1.44796e-05
0.538058
0.441198
1.10173
0.10959
8.07789e-05
1.53602
1.02721
0.439539
0.000748025
1.79373
0.0108172
3.33549
4.70145e-05
4.09557e-05
1.23156
1.57773
0.154499
1.65392e-05
0.402355
0.0175617
0.0154965
6.98373e-06
0.518959
7.58642e-06
6.90309e-06
0.000124266
0.690802
0.654229
8.83825e-05
2.11892
0.0206292
0.000161236
0.327811
9.34302e-05
0.0165939
0.00225778
0.00838249
5.78085e-06
9.77706
0.0751243
0.697182
1.91638e-05
8.50854e-06
0.262906
19.0696
0.331928
0.636633
0.740062
0.000444363
7.79113e-06
0.0641933
1.79656e-05
0.858444
1.91989
0.200868
11.2699
0.0301834
0.00106258
0.680055
0.000771442
0.743364
1.1112
0.54904
0.000486268
0.0104598
0.00408054
4.7257e-05
0.0559953
0.855251
0.000155051
5.8729
6.21548e-05
0.0286643
1.65652e-05
0.0130507
0.215095
1.10397e-05
2.02208e-05
1.70348e-05
1.70849e-05
1.83583e-05
0.00305343
0.000435869
0.0003949