/*--------------------------------*- C++ -*----------------------------------*\
| =========                 |                                                 |
| \\      /  F ield         | OpenFOAM: The Open Source CFD Toolbox           |
|  \\    /   O peration     | Version:  v2012                                 |
|   \\  /    A nd           | Website:  www.openfoam.com                      |
|    \\/     M anipulation  |                                                 |
\*---------------------------------------------------------------------------*/
FoamFile
{
    version     2.0;
    format      ascii;
    class       volScalarField;
    location    "1.37745";
    object      k;
}
// * * * * * * * * * * * * * * * * * * * * * * * * * * * * * * * * * * * * * //

dimensions      [0 2 -2 0 0 0 0];


internalField   nonuniform List<scalar> 
353077
(
0.000993277
0.000898045
5.87628e-05
0.000776565
6.20454e-05
0.000133657
9.30998e-05
5.88508e-05
7.17912e-05
7.4948e-05
0.00527246
0.0041619
0.136224
6.43861e-05
6.95762e-05
0.000104649
0.0045814
0.0926185
0.000139692
5.91622e-05
0.317763
7.87433e-05
8.73384e-05
0.0398191
5.90916e-05
6.35077e-05
0.00111621
6.25751e-05
6.31863e-05
0.00623523
9.88242e-05
6.13724e-05
0.0169862
0.000964267
8.44976e-05
0.000338007
0.232573
0.517777
0.0202415
6.61602e-05
6.34074e-05
8.02815e-05
0.1782
0.000176068
0.0432647
5.95165e-05
9.20573e-05
0.000119778
0.00187183
0.0465204
6.16793e-05
5.87795e-05
8.62103e-05
8.9454e-05
0.000301161
0.000270269
5.94885e-05
0.000132447
0.00107081
0.000114437
7.88365e-05
6.03819e-05
0.00663916
8.02782e-05
0.466238
8.69567e-05
6.8118e-05
6.33856e-05
0.0783409
6.0838e-05
0.000108684
0.000538052
0.000590113
6.26514e-05
0.00057064
5.967e-05
0.0267989
0.159815
0.431429
0.00256833
0.16149
6.83471e-05
0.177722
0.0552082
0.00308023
0.0499525
0.0722672
0.0742103
5.87703e-05
0.451479
0.410376
0.000243055
5.98307e-05
9.97641e-05
0.0282314
6.98768e-05
0.000776911
6.47748e-05
5.95563e-05
6.68897e-05
7.25763e-05
5.91571e-05
9.0299e-05
0.0228365
0.00197351
7.53628e-05
8.49753e-05
0.000138526
7.10637e-05
0.000143053
7.73998e-05
9.65842e-05
9.24914e-05
0.0139711
6.92635e-05
9.81069e-05
0.00415535
0.367644
8.54094e-05
6.66427e-05
0.000102751
7.15639e-05
0.00169296
0.00135193
0.000996173
0.000528134
7.50493e-05
8.3823e-05
8.86549e-05
0.000629327
0.000834826
9.31841e-05
0.000108573
6.05611e-05
5.88148e-05
0.00640869
0.000193161
6.63065e-05
5.88545e-05
0.000205087
0.00274947
0.000559297
5.98532e-05
6.37449e-05
0.00248243
0.00283086
0.0121722
0.000106562
0.00414517
0.292498
0.00254158
0.00286256
0.000613997
0.000150037
0.786959
8.57819e-05
9.01652e-05
7.17619e-05
8.40559e-05
0.000533642
0.0556135
6.0119e-05
0.000119597
8.71145e-05
5.98129e-05
0.453427
0.00198939
8.10152e-05
6.25212e-05
5.93241e-05
0.00010044
0.228161
0.00149124
9.49937e-05
6.62726e-05
7.04829e-05
8.7263e-05
6.71679e-05
0.0260324
0.00177421
5.88026e-05
7.77905e-05
7.20299e-05
7.44799e-05
6.8462e-05
6.18665e-05
9.46096e-05
0.000228619
0.0510338
8.79188e-05
0.00175943
8.29405e-05
6.03163e-05
0.000123725
0.307472
0.408969
0.000281094
0.00381421
0.0027875
0.00169815
0.000393674
0.390788
0.00617409
5.87957e-05
0.000209551
7.569e-05
0.000476503
7.05417e-05
0.00116739
8.70316e-05
6.72178e-05
0.00320388
0.000448338
8.82149e-05
0.070213
8.04629e-05
0.389099
0.170046
7.90313e-05
0.000358269
0.252458
0.000100514
0.000387972
9.92678e-05
8.55315e-05
6.72413e-05
0.00022866
0.359102
0.000322539
0.000167182
8.65216e-05
9.61898e-05
5.96376e-05
0.000162808
0.0662309
7.07316e-05
0.000124416
0.000319
0.00010936
0.000196241
7.16795e-05
9.86047e-05
0.0156655
6.30468e-05
8.72886e-05
5.90917e-05
7.56771e-05
5.88894e-05
0.0925185
0.000179858
8.93364e-05
9.09697e-05
6.35858e-05
0.386219
0.0540744
0.000410931
0.000722394
9.0406e-05
0.00104538
6.41676e-05
8.5252e-05
0.124065
0.411535
0.00447506
0.00118221
0.000416512
0.000146561
9.33727e-05
0.00044618
0.000676838
0.000326158
0.379503
0.000583315
6.07238e-05
0.0195551
0.0150413
0.00792475
6.19923e-05
0.0658665
0.000287718
0.336141
0.0712902
0.00103135
0.000102981
0.000187268
0.000135859
0.000377122
7.79984e-05
0.000167583
0.00428632
0.174632
0.0511475
0.000103467
0.00010899
0.0128962
0.000188468
0.000105191
9.05998e-05
5.97883e-05
0.000198342
0.0387883
0.0756946
5.87946e-05
0.126493
0.000107505
0.000182791
0.00777991
0.000181492
0.176351
0.000182254
6.35056e-05
6.46892e-05
8.2126e-05
8.00505e-05
0.318276
0.417293
0.0002214
0.347869
0.000640294
0.00143046
0.356234
8.72218e-05
0.444321
0.0004627
5.88761e-05
0.50841
0.00221371
0.000581194
0.000863813
0.00713958
0.000678987
0.000533473
0.0355144
0.00925053
0.325159
0.00128664
0.0281676
0.000124423
0.00116262
0.308808
0.0216456
0.00012209
0.00124806
0.00197528
0.000482045
0.00207772
6.12633e-05
0.000581008
9.80605e-05
6.05531e-05
0.000421141
0.0226674
0.263737
0.000896607
0.43093
0.000106107
0.0724246
0.000112687
0.00156415
0.000292922
0.00225312
0.0338703
0.0940068
0.00541018
0.0273465
0.000230694
7.01319e-05
0.237602
0.00014339
0.0211889
0.00315711
0.283373
0.366815
0.393903
8.24106e-05
0.000106519
8.50194e-05
6.10059e-05
6.9359e-05
7.91136e-05
9.70635e-05
0.000481357
0.00303681
0.000777639
0.00174252
0.110913
6.02218e-05
0.123637
0.00173368
0.358614
0.000189019
8.28758e-05
6.62434e-05
0.00849416
0.0301018
0.00572359
0.25894
9.10991e-05
0.000225321
0.000391049
5.93681e-05
0.000269558
6.12853e-05
0.000749808
0.053553
0.000162532
6.17052e-05
0.00272378
0.00257468
0.000176648
0.167826
0.000456027
6.59618e-05
7.80658e-05
8.49271e-05
0.110186
0.000155892
0.00108567
7.46974e-05
0.392262
9.72983e-05
0.486513
0.0137956
6.17328e-05
0.000361357
0.0152503
6.6513e-05
0.0387683
0.285359
0.390684
0.455421
0.0824325
8.00687e-05
0.0233944
0.381776
0.0140003
0.00010344
0.261809
0.000284084
0.165898
0.0651111
0.000279658
0.0144118
0.00136731
0.00171826
0.000147773
0.000847414
0.0014659
0.00365577
0.0480313
6.23699e-05
0.0561933
0.0925644
0.00139431
0.000109578
9.50887e-05
0.243594
0.00240265
9.78083e-05
0.268175
0.110625
0.134911
0.263478
0.358237
0.000530072
0.000234095
0.00020681
0.000174763
9.09307e-05
0.000197038
0.000219777
0.00157817
7.00625e-05
0.000179199
0.000187851
0.000186068
7.28374e-05
0.000477573
0.0175426
0.000230618
6.00461e-05
0.00106802
0.0274994
8.88527e-05
0.000410659
6.1924e-05
0.0302423
0.0925039
0.0309703
0.211967
0.000654814
0.00277197
0.00297569
7.43503e-05
0.4792
0.000103213
0.00298464
0.29741
0.000152203
6.62743e-05
0.000303588
0.000238021
0.000467471
0.405095
0.0705122
0.000229984
8.79037e-05
0.000862812
0.0421875
0.149577
0.277268
6.79303e-05
0.21152
6.03428e-05
0.000105044
0.224508
0.344146
0.000181456
0.000213699
0.0763869
0.0200156
0.00199107
0.00159277
0.151272
8.74382e-05
0.465941
8.69771e-05
0.3096
8.14979e-05
0.000225193
0.000350526
0.000688607
8.5632e-05
0.304534
7.27646e-05
5.87828e-05
0.0302398
0.126997
0.12774
9.29265e-05
0.00434761
0.00188532
0.00336119
0.00285058
0.00106334
0.0147215
0.00122312
0.0945177
0.0231752
0.000232431
0.0768458
0.000255905
0.0108484
0.00036279
0.240939
8.21499e-05
0.390217
0.51035
0.000435935
0.360008
0.000225262
0.172612
0.00251671
0.000112608
7.77924e-05
8.71398e-05
0.414529
0.00114848
0.00363282
0.00626124
0.246992
6.35885e-05
9.07512e-05
7.7942e-05
0.366043
8.40821e-05
0.000118064
8.83347e-05
0.0415611
0.0523387
8.62805e-05
6.67138e-05
0.105033
0.000147599
0.000365651
0.000962239
9.12877e-05
0.172577
0.0237096
0.0708057
0.0001437
0.0116679
0.022379
0.220037
0.000773075
6.02308e-05
0.0124787
0.000703756
0.00946921
0.00010967
8.99462e-05
0.00251034
0.000197769
0.000484543
0.0046312
0.0517831
0.0380433
0.420025
0.406682
9.09756e-05
0.00520112
0.00127721
0.189624
0.383538
0.000145299
0.000617162
8.74675e-05
0.0530539
0.000796602
0.432791
0.110194
0.000157276
9.19609e-05
0.00240367
0.000464099
0.000110892
0.336785
0.0555372
0.0032675
0.00630951
0.000194983
0.000227575
0.317058
7.76757e-05
0.172929
0.0189966
7.97813e-05
0.0130108
0.359692
6.68556e-05
6.38702e-05
7.06928e-05
0.390496
0.0400714
0.00108617
0.00118648
8.33803e-05
6.33691e-05
0.012708
0.000336593
0.0205022
0.000919834
5.93094e-05
8.57415e-05
0.000435064
6.05342e-05
8.55131e-05
0.000345615
0.0192573
0.000179189
0.00133065
6.04532e-05
6.21725e-05
0.00022615
0.331822
6.39807e-05
0.000768415
0.177192
8.18486e-05
0.0270058
6.87295e-05
0.00429298
5.88433e-05
0.195376
8.85488e-05
0.000725776
0.00246706
0.0449868
0.00152596
6.19407e-05
0.0558055
0.251565
0.0048348
8.33275e-05
0.431691
0.00077457
0.0477535
0.000116633
0.099434
0.000269021
5.88463e-05
0.000246965
0.0746232
0.000105824
5.88478e-05
0.000259725
0.0147732
0.126811
0.0144751
0.000194289
0.000462048
0.00125965
0.00869533
0.150782
0.0780507
0.00515457
0.00263329
0.0214575
0.00114353
0.00609901
0.00132414
0.00213526
0.00454944
0.0519728
0.148944
0.0018498
0.383477
0.0480638
0.00503393
0.000612715
0.198952
0.306663
0.126454
0.0339284
9.9248e-05
0.00113057
0.0426021
0.000255828
0.00691331
0.264965
0.000137949
0.00124486
0.0106212
0.0177247
0.000131717
0.131575
0.0237551
0.197807
0.276868
6.7821e-05
0.0307299
5.87367e-05
6.16585e-05
0.501655
0.0706395
0.440204
0.431947
0.403386
0.0154464
8.89831e-05
0.00601808
0.000277151
0.002884
5.87447e-05
8.81031e-05
8.50852e-05
5.89593e-05
0.485613
0.00014091
5.87384e-05
0.17238
0.00016515
0.0192206
0.00159175
0.000137951
6.24377e-05
0.154724
0.000174082
9.46813e-05
6.29336e-05
7.96852e-05
0.000252886
0.00330195
0.13189
0.000248782
0.000566961
0.000391669
5.92293e-05
0.0279631
0.396242
0.000831565
0.00171449
0.394751
0.184136
0.00154507
0.00107907
0.000218263
0.00101432
0.144706
0.00140231
6.24866e-05
8.6832e-05
0.383864
6.7724e-05
0.000700287
8.44536e-05
0.0117867
0.000294812
8.7416e-05
0.0110359
0.342435
0.966744
8.24663e-05
0.000254487
0.4805
0.138451
7.78966e-05
0.000194876
0.000233514
8.90795e-05
0.443103
7.64485e-05
8.96634e-05
0.174849
0.000204865
0.000136673
0.476967
0.000119712
0.000116992
0.000100032
9.26287e-05
0.051614
0.000931586
0.010373
8.12339e-05
6.83884e-05
0.000729434
0.196427
0.00854855
0.000143044
0.144031
0.00602636
0.0289338
0.0690463
0.000167931
0.000201065
0.000132548
0.203754
0.000185771
0.000417634
0.000301936
0.474503
0.323061
0.247739
0.270722
0.000421841
0.000722087
0.000117296
0.042631
0.39267
0.000949194
0.00013283
9.28698e-05
0.000756278
7.82608e-05
8.86466e-05
9.62464e-05
0.000143141
0.00126382
0.00640916
0.488385
0.159942
0.384338
0.361469
9.36459e-05
8.95258e-05
0.343277
8.22934e-05
0.000675817
0.00104922
0.176868
0.100186
8.90221e-05
0.493753
0.00100469
0.00113388
0.320834
0.000622148
0.00179309
7.62191e-05
6.88223e-05
0.00678567
0.00291093
0.396983
0.000140069
8.90848e-05
8.78157e-05
7.34323e-05
0.360379
0.401519
6.08182e-05
0.0805492
0.163099
0.335149
8.68494e-05
0.0008839
8.32783e-05
0.376305
9.25339e-05
0.000506011
9.13602e-05
0.00236238
0.000998946
0.0579994
0.000254707
6.2803e-05
0.123626
0.388649
0.120972
0.242126
0.246568
0.00125499
0.000972957
0.449941
0.00416996
0.00194766
0.233327
0.101021
0.472681
0.0123242
0.000127985
0.000212885
0.000154274
0.000160053
0.0975481
0.00123855
0.00012735
0.000141953
0.000132665
0.000190975
0.432481
0.00976124
0.390519
0.327173
0.000169091
0.000846087
0.000824573
0.00932493
0.00171823
0.0334725
0.423977
0.501591
0.15083
0.00054898
0.348984
0.293895
0.0127916
6.14337e-05
0.000393523
0.0539781
0.000250349
7.19724e-05
0.000306587
0.000274923
6.04978e-05
9.61126e-05
9.67806e-05
0.00840397
0.50931
0.445324
0.243409
8.96595e-05
5.88624e-05
0.438296
0.360603
6.08456e-05
0.461236
0.519122
6.11633e-05
0.424876
0.000142463
7.02182e-05
0.0985903
5.90822e-05
0.000606249
9.00364e-05
6.63845e-05
0.587708
0.00045996
0.045885
5.88381e-05
6.78506e-05
0.0452112
0.0657463
0.00130792
0.424296
0.0713954
9.04572e-05
6.01758e-05
6.39192e-05
0.129793
0.0809633
0.309759
5.8863e-05
0.000434018
0.00104854
0.000215676
0.421795
0.000374977
0.111561
0.0111254
0.370781
0.446995
0.415497
0.0400858
8.80137e-05
0.0685688
0.0663904
0.043985
0.00101881
0.113938
0.259457
0.415416
0.193645
0.267033
0.399398
0.00013575
0.000688072
0.000488232
0.0188228
0.421564
0.287413
0.00203611
0.0308694
0.0290172
0.0182797
0.000728353
0.224316
0.0966481
0.00175491
0.000578328
0.482565
0.004647
0.00194061
0.0580294
0.000158421
0.00116423
0.157361
6.078e-05
0.500443
0.000781455
0.00191956
9.48346e-05
0.000143034
0.000138111
0.272076
0.000114872
0.137723
0.000620807
0.262466
0.000560025
0.000146354
9.2519e-05
0.110159
0.407811
0.000116325
0.453353
0.000116298
0.434359
0.16631
6.47239e-05
0.000495436
6.44466e-05
0.000140879
0.000138124
0.3065
0.0985841
9.73269e-05
0.431352
0.00182943
0.000270591
0.000110177
0.00195789
6.65262e-05
0.000450297
6.14101e-05
0.00013198
0.127672
8.15177e-05
0.4991
0.000189126
7.30081e-05
6.18199e-05
0.00437948
0.00107024
0.000145369
0.000136446
0.001385
8.42454e-05
0.50071
0.000130096
0.00177228
0.000127955
0.00764307
0.000105903
0.000191828
0.198782
9.31684e-05
0.320247
9.89662e-05
0.0585262
0.0214137
0.000115454
9.55965e-05
0.48855
0.000121473
0.000149917
0.00342687
0.388184
0.342368
0.000346059
6.11958e-05
0.00750227
0.000509548
0.190058
0.358412
0.4183
0.362257
0.174204
0.371713
6.20811e-05
0.00398942
0.442782
0.215632
0.000526101
0.0401232
0.00013214
0.00234675
0.00501784
0.113873
0.212029
6.02902e-05
0.00209314
7.68079e-05
0.00953445
8.34964e-05
0.406289
9.23813e-05
0.0983439
6.75191e-05
0.421717
0.000591034
0.0354855
0.433604
0.000115992
0.00499309
0.0471283
0.000290036
6.0805e-05
0.395987
0.206936
0.223416
0.488571
0.000387521
0.134221
0.000308502
0.000498378
0.413581
8.02243e-05
0.000305617
0.000293129
0.00235854
0.311456
5.92802e-05
0.0495834
0.409282
0.00428123
0.0015009
0.242658
7.33955e-05
9.26272e-05
0.000539006
0.0098649
5.90934e-05
5.92386e-05
0.00149137
0.385373
0.000635681
0.00207974
0.0229291
0.0829351
6.21524e-05
0.00172268
0.378872
6.30646e-05
0.00159663
9.46805e-05
0.054044
0.000445734
0.000105505
0.00188026
0.0156743
0.0141312
0.424931
0.000112538
0.00100575
0.416099
9.32228e-05
0.0563738
0.0315954
0.00400398
8.54167e-05
0.446689
0.0121295
0.000166544
0.189053
0.247163
9.51547e-05
7.97819e-05
6.96656e-05
0.413534
0.415481
0.0347329
0.00928803
0.0111358
0.000409388
0.0749905
5.87181e-05
0.00100919
0.388979
0.468096
0.038254
0.0939349
0.446908
0.223151
0.413841
0.071786
0.318228
0.0789306
0.000269404
0.000641581
0.00122037
0.000167417
0.0399598
0.130742
0.110241
0.10598
0.0471321
0.0463025
0.306299
0.00706748
0.000239582
0.0861036
0.406489
0.426313
0.487492
0.0216886
0.107741
0.0292347
0.437716
0.000404929
0.148917
0.000645493
0.000464295
0.0657615
0.00423948
0.00995206
0.249435
0.0189142
7.40982e-05
0.0227674
0.000676568
7.66785e-05
0.00150201
0.280539
0.00059639
9.87757e-05
0.000102369
0.00396775
0.000199553
0.120483
0.00172132
0.000670024
0.0201922
9.18629e-05
0.39286
0.0137632
0.247604
0.00112182
0.000345458
0.136113
0.0175131
0.214487
6.95666e-05
0.00529012
0.461094
0.345854
8.08735e-05
0.000808587
0.0409454
0.388502
0.425439
9.22107e-05
0.00239679
0.241543
0.0254108
0.354065
0.428876
0.00175231
0.0214007
0.000306208
0.000630599
9.80906e-05
0.00653681
0.179596
0.165817
7.62767e-05
0.000184668
8.29803e-05
0.000838211
0.00374834
0.0980151
8.76554e-05
9.20541e-05
6.36028e-05
0.0977948
0.000346763
8.11903e-05
0.000428648
0.0245864
0.358148
0.0323543
9.18342e-05
0.364678
0.286982
0.0316683
0.364037
8.32453e-05
0.264397
0.322815
0.38094
0.321772
0.227231
0.424689
0.110339
0.359714
0.000172753
6.69606e-05
8.45378e-05
0.0661798
7.64624e-05
0.00785795
0.399854
0.316097
0.00133587
0.373748
0.014644
0.301539
0.389224
0.368514
0.0276767
0.093745
0.00024399
8.51547e-05
0.108752
0.035954
0.000406515
0.000249165
0.00984825
8.45492e-05
9.80504e-05
0.250507
0.390916
0.0711252
0.296627
0.114934
9.19201e-05
8.93137e-05
0.0281544
0.0073229
7.8525e-05
0.000361765
0.398931
0.5045
6.0233e-05
0.435473
8.63321e-05
0.00565206
0.759924
0.000190409
8.57464e-05
0.000216696
5.93755e-05
9.04876e-05
0.119009
8.59379e-05
0.281652
6.49933e-05
0.440163
0.000260385
6.63248e-05
0.0232113
5.88529e-05
0.000118975
0.000100854
0.260557
0.113509
0.0518537
0.00197915
0.0046861
0.00120975
5.89558e-05
0.147555
0.00132158
0.000101147
0.00923412
6.01251e-05
0.00244701
0.329298
0.0029914
0.02716
0.0212738
6.30966e-05
0.00249693
0.329794
0.0013336
0.448406
7.55725e-05
8.99896e-05
0.00486047
7.20975e-05
6.60782e-05
0.341718
9.53218e-05
0.0234682
0.00129604
0.0580615
0.00175595
0.303824
0.084383
8.98765e-05
0.141153
0.011302
0.0097548
0.202355
0.0446135
0.000109674
0.0503614
0.00594518
0.225386
5.90001e-05
0.0955017
0.00212989
0.00124514
0.000127437
0.00010197
0.412166
0.120417
0.0577495
0.000600643
0.000353406
7.82611e-05
9.85841e-05
0.000168143
0.450642
0.110743
0.0449523
0.375643
0.0293151
0.0368763
0.000558196
0.082305
0.014489
9.64426e-05
0.402332
7.99265e-05
0.000334137
0.000122785
0.000424143
0.0024486
0.0465411
0.409669
0.109272
0.029454
6.19736e-05
0.00129144
0.0496468
0.00110242
0.00102305
0.359697
8.23759e-05
0.0210466
0.0629267
0.414087
0.000148977
0.250289
0.0123715
0.00010093
0.00099931
0.0893427
0.443417
0.000934151
0.00016663
0.00134242
0.0300347
0.00449879
0.334493
0.444948
0.433106
0.000108967
0.126332
0.479288
0.00276804
0.0766562
0.00962494
0.000111933
0.0861204
0.000117826
0.00104869
0.0514395
0.00013455
0.383191
0.311077
0.00264608
0.0001221
0.318848
0.000158801
9.27402e-05
0.000158732
7.01377e-05
0.000146985
0.134248
0.000188777
0.411958
0.0383171
0.0321865
0.000503503
0.000144708
0.0987411
0.361502
0.0196821
7.04672e-05
0.000214955
0.000134734
0.000146059
0.000501389
0.000790854
0.125076
0.00653876
0.000151193
0.178958
0.000735379
0.145322
0.0815189
0.00471156
0.260518
0.0161484
0.474694
0.129307
0.00549169
0.00390696
0.46062
0.0151588
0.445768
0.000651637
0.00957507
0.00327341
0.414643
0.000673807
0.00223721
0.0465624
0.0638032
0.000102864
7.83088e-05
0.00229584
0.37046
0.496857
8.25973e-05
0.503061
0.00106953
0.427392
8.74408e-05
0.000779286
0.0619194
0.00432207
0.0983423
0.000660107
9.03253e-05
0.00163809
0.0496391
0.375259
0.195039
6.06131e-05
0.142575
0.0120413
6.61688e-05
8.84649e-05
9.64338e-05
8.29693e-05
0.325727
0.00015258
0.166962
0.421718
0.00652213
0.44446
0.000144695
0.000643308
0.464985
0.497572
0.00845309
0.0254625
0.499299
7.90385e-05
0.328467
0.0130964
0.415839
8.29793e-05
8.52991e-05
0.436353
0.00429697
8.24585e-05
8.71812e-05
0.356986
0.03673
0.354457
0.000323826
0.00043495
1.33473
0.366671
0.32394
0.000378234
6.23058e-05
7.97181e-05
9.77172e-05
0.000451057
0.000100244
0.357716
0.00117975
0.000132969
9.77338e-05
0.00145852
8.39958e-05
7.44337e-05
0.291169
9.65613e-05
7.12591e-05
0.00022739
0.39978
0.000105634
0.31192
0.448641
0.49911
0.246741
0.000946626
0.291032
0.000375825
0.000968076
0.00669925
9.06302e-05
0.314206
0.000155781
0.295833
0.227228
0.198348
0.346244
0.0802056
0.000302469
0.00084986
0.0430183
0.00367063
0.000339891
0.0337653
0.0480313
0.084751
0.126905
0.0944903
0.13708
7.55708e-05
9.57234e-05
0.120539
0.00150444
0.078972
0.000172681
0.028104
0.0315299
0.000634443
0.000135206
8.57478e-05
0.118667
0.000583791
0.142319
0.00193982
0.0408651
0.00121069
0.0298856
0.194475
0.132235
0.000108815
0.0732786
0.000427698
0.000859776
0.000696992
0.000114973
0.00012711
0.00127694
0.00745968
0.00146218
0.414274
0.00151851
0.000488617
0.00129088
0.500368
0.487722
0.000197064
7.87375e-05
0.0299981
0.113842
0.406725
0.000235672
7.93578e-05
0.00126634
8.12603e-05
0.103914
0.487079
0.00319882
0.00102543
0.00136266
0.000947041
0.173175
0.368577
0.00172411
0.419092
0.334398
0.0159634
0.00182489
0.00011086
9.45431e-05
0.000480694
0.112471
0.176898
0.0244395
0.0535864
0.000234271
0.0131301
0.00151469
0.426427
0.340778
0.0587769
6.68425e-05
8.11545e-05
0.0553845
8.13875e-05
0.000111407
6.15595e-05
0.0314667
0.0612013
0.389623
0.000532435
0.249414
0.0684029
6.00865e-05
0.000421446
0.00087845
0.411481
0.113221
0.00992303
0.000757073
0.000750862
0.000119615
0.000867561
0.0342024
0.0892426
0.0080549
0.00166132
0.352691
0.352793
0.000106933
0.00108371
0.403232
0.000144053
0.115005
0.000194281
0.000160149
0.000135814
0.281296
0.00088529
0.164244
0.00414809
0.000252311
0.0126658
0.050551
0.51891
0.000363126
0.00020031
0.00786271
0.0943835
0.213846
0.0106884
0.00066664
0.0998327
0.00142739
0.0103656
0.0331546
0.426335
0.0252062
0.000188332
0.341052
0.316406
0.000544669
0.00166279
0.000149188
0.000284817
0.00013901
0.412198
0.321059
0.00052583
0.000640216
0.000163685
0.00017552
0.000115185
0.00385913
9.14706e-05
0.0164293
9.80513e-05
0.027005
0.000131225
0.434216
0.368872
7.9326e-05
0.055163
0.0108246
0.0126459
6.0681e-05
7.70436e-05
0.000122394
0.000152488
0.0839066
0.00558966
0.204492
0.410092
0.000871368
0.00253864
0.36776
0.175894
0.000440138
0.613342
9.88102e-05
0.0203753
0.000221512
5.88232e-05
0.000103098
8.42289e-05
0.302815
0.000242541
6.74148e-05
0.23123
0.130551
0.00234301
0.00307408
5.87456e-05
0.061182
0.425949
0.000163716
0.000751207
0.13483
0.000303457
6.08021e-05
0.000102729
5.88319e-05
0.426307
0.0277803
0.341241
0.0253202
0.000325164
0.220683
0.00189241
0.044927
0.0520601
0.000103743
0.0314069
0.289413
0.0673161
0.000529653
0.0261508
0.000571485
0.0289091
0.365961
0.000101001
0.0242746
0.00349389
7.91309e-05
0.00687541
0.00330311
0.0266381
0.000105018
0.000103335
0.000114585
0.021373
6.95619e-05
0.0803207
0.0446342
7.82546e-05
8.77093e-05
7.39935e-05
0.0803663
0.00315993
0.000109765
6.66266e-05
0.0308616
8.74785e-05
0.0273582
0.000654647
0.0845452
0.000141988
0.000152068
0.00487773
0.424312
0.000198553
0.264112
0.409718
0.334395
0.443567
0.000198548
9.34279e-05
0.000572198
0.000768328
0.0653493
0.00902117
0.309461
0.0184537
0.000114702
0.00017413
0.0786474
0.00719545
0.000255111
0.141245
9.93859e-05
0.0638751
0.00311652
0.000185686
0.00339002
0.000353058
0.376617
0.324999
0.0529179
0.0161877
0.296693
0.0103011
0.0193526
0.00170407
0.0245018
0.000672539
0.0697951
0.000463245
0.000363778
0.137723
6.43477e-05
8.6624e-05
0.0955085
0.0920737
0.0224957
6.41867e-05
6.27579e-05
8.51973e-05
0.00650185
0.000421891
0.0397275
0.000548108
0.424886
7.39495e-05
8.36175e-05
0.0327663
0.0577282
0.00638171
0.00128391
0.417391
0.30303
0.080258
0.000121322
0.000302887
0.0388755
0.00102995
6.42636e-05
0.00349792
9.18221e-05
0.328196
9.54634e-05
0.0283484
0.267208
0.201895
0.173727
0.00022007
0.0148097
0.00294346
0.000845926
8.24665e-05
0.141861
9.64187e-05
0.134938
0.0045297
0.000102976
5.98841e-05
8.11193e-05
0.208241
6.93385e-05
6.06849e-05
0.476504
0.0306677
0.00074974
0.00815622
0.00480328
0.108875
6.79971e-05
0.0532775
0.314244
0.252679
0.0447942
0.000741151
6.09315e-05
0.000169885
0.075545
8.17664e-05
0.00013046
6.84585e-05
0.00549809
8.57018e-05
0.000761277
0.0153878
0.180766
0.00133074
0.481784
0.00248424
0.451175
0.435616
0.271293
0.00174019
0.27078
0.216997
0.228001
0.00016789
0.0828982
0.0001775
0.0813161
7.60527e-05
0.00173333
0.277062
0.347811
0.00112257
8.37045e-05
0.00143639
0.380226
0.0600474
7.79054e-05
6.40703e-05
6.21255e-05
0.444394
0.476482
0.129505
0.3654
0.0729949
0.00312343
0.365568
0.432421
0.247786
0.0911313
0.000130375
0.0275368
0.000693851
0.376956
0.00342915
0.000139794
0.000128893
0.00022382
0.0497325
9.66327e-05
0.00161023
0.00012356
0.000871832
0.143081
0.000341395
0.000141986
0.200265
0.0884334
5.96474e-05
0.0945797
0.000676439
0.00378104
0.00616067
0.311952
0.141101
0.0313517
0.003805
0.354982
0.411499
0.00125868
0.0260091
0.227515
0.000504829
0.0009009
0.000828755
0.000373008
0.0987236
0.00141828
0.146004
0.0871192
0.139918
0.423724
0.000655015
0.00011373
0.0530126
0.00454184
6.15322e-05
9.58524e-05
0.000617396
0.00135711
0.0652017
0.00240922
0.401515
0.382746
0.0151408
0.00238472
0.000335376
8.71526e-05
0.00097178
0.26806
0.348643
8.4833e-05
0.011936
0.325036
0.354054
6.15717e-05
0.282516
0.00100929
0.443239
8.61934e-05
7.72976e-05
0.0271524
0.0131661
0.0437446
0.00703072
0.288616
0.326948
0.000103442
0.395944
0.380988
0.390837
0.00805792
0.0797308
6.34775e-05
5.959e-05
0.0957804
7.76062e-05
6.84363e-05
0.000316734
5.98153e-05
0.125795
8.77951e-05
9.33551e-05
6.16498e-05
0.136274
0.192048
0.177677
0.451514
0.000113958
0.000137211
0.338499
9.72085e-05
0.404321
0.432529
0.380447
0.000641091
0.00265824
0.0208866
0.00052353
0.211626
0.421254
0.115224
0.000627796
0.0612015
0.000252458
0.000314618
7.8574e-05
0.00279123
0.0665701
0.108818
0.00453011
9.78722e-05
8.58235e-05
0.000343347
0.429241
8.88527e-05
0.0437138
0.0264496
0.000165349
0.0157412
8.84037e-05
0.00244664
0.000109141
9.54375e-05
0.0124384
8.26246e-05
0.00583029
0.000263383
0.000157932
0.455024
9.27386e-05
0.000227581
8.92042e-05
0.00284824
0.207568
0.243308
0.00091171
6.66019e-05
0.000128414
9.77805e-05
9.72304e-05
0.000203323
0.379148
0.165533
6.77437e-05
7.62157e-05
0.0458672
9.0451e-05
0.478163
0.000172161
0.000469797
0.000726219
8.59242e-05
0.00105407
0.427388
7.79891e-05
8.08291e-05
8.26946e-05
8.54462e-05
6.82327e-05
0.000185775
0.000729264
0.255149
0.00102422
0.0142238
0.0256896
0.316305
0.000762275
7.74096e-05
8.05028e-05
9.23242e-05
0.0458843
0.0858972
0.0177559
0.000807999
0.136784
0.0317132
0.0065466
0.000536564
0.268501
0.41452
0.646869
0.0819604
0.000456707
7.47006e-05
6.15634e-05
0.262656
6.53998e-05
0.00499652
0.0143293
0.159318
0.228244
0.0105006
0.422442
0.00098779
0.00507899
0.000832322
9.83313e-05
5.94521e-05
8.16025e-05
6.59969e-05
0.0107912
0.151403
0.000539426
0.000754544
8.84086e-05
0.00505451
0.145131
0.042807
6.60709e-05
0.000327943
0.0545583
0.00174541
0.0478289
8.02776e-05
0.000786824
9.23716e-05
0.00119243
0.00114421
0.000284796
6.94372e-05
0.00219643
0.000762627
0.00198889
0.366404
0.000689539
0.000290607
0.000338578
0.00025968
0.0751489
0.000618135
0.0178862
9.16017e-05
0.00344495
0.0210071
0.019351
0.00045546
0.000844923
0.45056
0.0874326
0.0750557
0.0186807
0.382221
0.0595097
0.214559
8.78508e-05
0.000231577
0.378637
0.000123661
0.0425312
0.000104206
0.000202904
0.411678
0.00011206
0.0451616
0.000375064
0.000389729
0.000260827
0.00365992
9.69899e-05
0.06006
0.436747
0.252084
0.361025
7.2792e-05
6.40295e-05
0.0382736
0.000104412
0.0193721
0.0261492
0.070811
0.0631201
0.0002392
0.343606
0.38066
0.0358125
0.000255974
0.00031591
0.283021
0.0496905
0.00596469
0.175719
0.0944965
0.317482
7.84685e-05
0.0104094
0.000113509
0.000440398
0.163401
0.209479
7.62097e-05
0.000302763
0.294146
0.000127515
0.000781991
0.183152
0.165075
7.217e-05
0.000319297
0.000138011
0.375141
0.0242932
0.000113501
0.429091
7.67602e-05
0.000158373
7.89481e-05
0.000136033
7.72056e-05
7.77148e-05
6.7583e-05
9.15949e-05
0.0709863
0.465665
0.0113659
0.000124621
0.00246682
7.88448e-05
0.000282381
0.000933878
0.1378
8.55985e-05
9.18108e-05
0.358111
0.00177526
8.9955e-05
9.04099e-05
0.218394
0.0123044
5.99217e-05
8.8792e-05
9.00632e-05
0.417769
0.515828
0.215401
0.00154737
0.0703312
0.0310942
7.49626e-05
0.000598068
0.000197697
6.52384e-05
0.000281534
0.0539542
0.00145771
0.0015134
0.00379354
0.000183947
0.0231761
0.000246822
0.0848274
0.002356
0.0220302
0.000258501
0.000826324
7.87535e-05
0.000383474
0.401753
8.91673e-05
8.58869e-05
0.291943
0.000161898
0.635274
0.000481672
9.36231e-05
0.170468
6.9076e-05
0.000285509
0.000253853
0.00615741
0.00013345
6.02495e-05
0.352787
8.25174e-05
5.97329e-05
0.0199629
0.00195195
7.72585e-05
0.000173733
0.0416288
0.000830222
6.87908e-05
0.376173
0.000515542
6.11522e-05
0.301545
0.0206215
0.00401769
0.0117402
0.00993179
0.366582
0.425615
0.002002
0.00193616
0.000279245
7.73042e-05
0.332152
0.00178761
0.230582
0.000492974
0.405029
0.343004
0.28522
6.89913e-05
0.0137321
0.00971873
0.0435525
0.40619
0.00369591
9.09405e-05
0.000176787
0.24752
5.94265e-05
0.031669
0.000462663
0.169363
0.00107714
0.065057
0.000308064
0.000146856
0.00459993
8.57501e-05
0.00139212
0.282636
0.000192376
0.388672
0.415234
0.000952247
0.000301927
0.00139329
0.218095
0.00155419
0.039564
0.263177
0.00154661
0.000264156
0.0882949
0.000101859
0.00151455
0.000594852
6.48407e-05
0.307584
0.000956565
0.0443292
0.00857347
9.51345e-05
8.38131e-05
0.00662846
0.000144036
0.000912262
0.00182741
9.80712e-05
5.90385e-05
0.00104868
0.0213887
8.51223e-05
0.351331
7.35532e-05
0.0106181
0.00389644
8.96709e-05
0.0139667
7.48329e-05
0.000322506
0.00300287
0.119255
0.000178796
0.000586486
0.0435771
0.000210695
0.182574
0.160452
0.0161093
0.0118069
0.000190718
0.00036199
9.29315e-05
0.000382019
0.431506
0.00019757
0.0303148
0.00139404
0.00641338
0.000259519
0.00014821
7.87633e-05
0.000455859
0.00502878
0.419572
0.0887386
0.352565
0.181849
0.0329492
6.90329e-05
0.000561349
0.000413725
0.000173429
7.89863e-05
0.00750702
0.315904
0.00635481
0.000399269
0.000100643
0.00560765
9.24566e-05
7.03452e-05
0.000127597
0.00069213
0.00120134
0.506503
0.0176083
0.0166988
6.99559e-05
9.79843e-05
0.32116
0.000364973
0.330846
0.0103296
0.000370017
0.000303745
0.000178626
0.388343
0.415066
0.340812
0.000880107
9.81989e-05
0.000484185
0.00806397
8.87448e-05
0.000112789
0.000672429
6.90847e-05
0.000196907
0.000910559
0.00484302
0.000735696
0.000342409
0.0078061
0.0579611
0.0310738
9.79998e-05
0.00038267
0.000378277
0.000798092
0.000171836
0.000103805
7.35656e-05
0.00379268
5.99057e-05
0.000216765
0.00490785
0.234341
8.27594e-05
0.234659
0.0676799
0.00107813
8.11851e-05
8.28706e-05
8.74469e-05
5.87918e-05
0.0891103
7.41559e-05
0.238934
8.24985e-05
0.412988
0.000156832
0.000400908
0.000640545
8.67679e-05
6.07536e-05
0.000306163
0.0432755
0.000703601
0.00170871
0.000594585
0.00496009
0.000206993
0.00233097
0.0546986
0.00090484
0.00690463
0.000292611
0.00125634
0.000537767
0.0282137
0.0591604
0.000124714
0.142635
0.00515887
0.38372
6.14735e-05
0.188035
0.0382847
0.0705514
0.00041483
0.32367
0.324031
0.0937155
0.114188
0.476651
0.00728754
0.000943452
7.82811e-05
0.00412368
0.0282978
6.89486e-05
0.00263448
0.000309829
0.000143298
5.91757e-05
0.123389
0.00236326
0.346865
0.22752
0.000339603
0.271442
6.28003e-05
0.366209
0.00185087
0.005971
9.83456e-05
0.000149351
0.000427789
0.00025616
9.59846e-05
0.000168427
0.27089
0.000174078
0.0139576
0.0629673
0.087988
0.371502
0.0654081
0.352162
0.00011199
6.07943e-05
0.229767
5.89022e-05
6.24351e-05
0.000123677
0.000115194
0.0370241
0.00372326
0.0446944
0.00389421
0.00251952
0.441611
0.0489242
0.00131901
0.000155107