/*--------------------------------*- C++ -*----------------------------------*\
| =========                 |                                                 |
| \\      /  F ield         | OpenFOAM: The Open Source CFD Toolbox           |
|  \\    /   O peration     | Version:  v2012                                 |
|   \\  /    A nd           | Website:  www.openfoam.com                      |
|    \\/     M anipulation  |                                                 |
\*---------------------------------------------------------------------------*/
FoamFile
{
    version     2.0;
    format      ascii;
    class       volScalarField;
    location    "1.37745";
    object      T;
}
// * * * * * * * * * * * * * * * * * * * * * * * * * * * * * * * * * * * * * //

dimensions      [0 0 0 1 0 0 0];


internalField   nonuniform List<scalar> 
353077
(
295.15
295.15
295.15
295.15
295.15
295.15
295.15
295.15
295.15
295.15
295.15
295.15
306.78
295.15
295.15
295.15
295.15
302.562
295.15
295.15
309.212
295.15
295.15
298.451
295.15
295.15
295.15
295.15
295.15
295.15
295.15
295.15
296.521
295.15
295.15
295.925
295.202
295.148
295.149
295.15
295.15
295.15
295.148
295.15
295.149
295.15
295.15
295.15
295.15
298.68
295.15
295.15
295.15
295.15
295.15
295.15
295.15
295.15
296.016
295.15
295.15
295.15
295.54
295.15
310.912
295.15
295.15
295.15
301.79
295.15
295.15
295.053
295.036
295.15
295.01
295.15
295.15
307.789
310.907
295.843
295.114
295.15
306.148
299.392
294.863
295.149
295.148
295.15
295.15
310.946
310.332
295.436
295.15
295.153
295.15
295.15
295.15
295.15
295.15
295.15
295.15
295.15
295.15
295.15
295.358
295.15
295.15
295.152
295.15
295.15
295.15
295.15
295.15
295.148
295.15
295.15
295.804
309.639
295.15
295.15
295.15
295.15
295.141
295.096
295.15
295.148
295.15
295.15
295.15
295.15
295.143
295.15
295.15
295.15
295.15
295.15
295.405
295.15
295.15
295.15
294.486
295.15
295.15
295.15
294.528
294.512
295.15
295.151
294.531
310.43
294.522
294.502
295.566
295.317
295.035
295.15
295.15
295.15
295.15
295.878
295.15
295.15
295.15
295.15
295.15
295.183
295.361
295.15
295.15
295.15
295.15
295.01
295.684
295.15
295.15
295.15
295.15
295.15
297.631
295.15
295.15
295.15
295.15
295.15
295.15
295.15
295.15
295.152
299.008
295.15
295.291
295.15
295.15
295.15
310.538
310.564
296.654
295.15
295.15
295.152
296.106
309.888
295.221
295.15
295.165
295.15
295.422
295.15
295.268
295.15
295.15
295.127
295.763
295.15
295.137
295.15
294.998
305.845
295.15
295.857
307.443
295.15
295.494
295.15
295.15
295.15
295.169
310.01
295.171
295.159
295.15
295.15
295.15
295.161
295.047
295.15
295.15
295.17
295.15
295.163
295.15
295.153
295.131
295.15
295.15
295.15
295.15
295.15
301.78
295.15
295.15
295.15
295.15
295.215
299.301
296.323
295.863
295.15
295.868
295.15
295.15
295.218
310.175
296.065
295.654
296.508
295.163
295.15
295.179
295.248
295.174
310.437
295.292
295.15
297.381
295.149
295.939
295.15
306.409
295.15
309.037
306.588
295.169
295.15
295.15
296.58
295.089
295.15
296.797
295.149
295.146
306.432
295.15
295.15
295.11
297.207
295.15
295.15
295.15
296.85
301.652
307.147
295.15
304.89
295.15
297.511
295.147
297.258
295.236
297.224
295.15
295.15
295.15
295.15
309.328
310.611
296.572
310.372
296.136
295.268
310.782
295.164
310.507
295.177
295.15
311.391
294.418
295.472
295.992
295.769
296.082
296.388
295.145
294.624
309.469
294.325
299.424
295.15
294.815
310.675
295.013
295.15
296.261
294.338
296.29
294.522
295.15
296.161
295.15
295.15
295.15
296.942
308.638
295.748
310.573
295.15
295.15
295.15
295.959
297.121
295.531
295.203
304.411
295.184
297.557
297.562
295.15
294.855
295.152
299.224
295.305
308.405
309.582
310.537
295.15
295.15
295.15
295.15
295.15
295.15
295.15
295.18
295.308
295.212
295.326
295.324
295.15
295.204
295.413
309.864
295.15
295.15
295.15
294.835
295.135
296.074
308.746
295.15
295.554
295.174
295.15
296.955
295.15
295.151
294.875
297.299
295.15
295.15
295.15
297.519
295.237
295.15
295.15
295.15
295.15
302.462
295.15
295.162
295.15
310.07
295.15
311.264
295.587
295.15
295.15
295.15
295.15
304.52
308.728
310.39
295.155
305.469
295.15
295.674
310.544
295.15
295.15
308.025
296.046
305.762
295.094
295.155
294.735
294.957
295.15
295.15
296.014
294.958
295.865
295.131
295.15
295.147
301.488
295.019
295.15
295.15
307.59
295.349
295.15
310.131
301.998
295.212
294.923
310.308
295.938
296.776
297.005
295.172
295.15
295.15
296.379
295.735
295.151
297.04
296.617
297.275
295.15
295.149
295.15
296.273
295.15
295.839
295.15
295.15
295.157
295.15
297.625
295.158
295.15
307.54
295.153
295.492
295.538
295.15
311.142
295.15
295.762
308.683
295.316
295.15
295.178
295.149
295.15
310.689
305.945
295.134
295.15
295.141
295.476
294.962
308.497
295.15
308.617
295.15
295.15
310.796
310.822
295.15
295.15
295.422
295.404
294.82
295.313
304.768
295.15
310.825
295.15
308.396
295.15
295.158
295.446
295.152
295.15
309.628
295.15
295.15
295.415
295.205
295.203
295.15
295.629
295.079
295.489
295.8
295.15
295.15
295.17
303.502
297.467
295.163
301.241
295.164
295.15
295.693
295.112
295.15
295.101
311.249
295.15
309.718
295.3
303.755
295.15
295.167
295.15
295.15
310.876
294.857
294.776
295.813
308.522
295.15
295.15
295.15
310.608
295.15
295.152
295.15
298.14
295.157
295.15
295.15
303.979
295.128
295.152
295.155
295.15
308.857
295.132
306.15
295.14
296.276
295.145
307.958
295.15
295.15
294.957
295.16
295.145
295.15
295.15
295.502
295.151
295.163
295.152
294.93
305.734
310.614
310.549
295.15
295.127
295.167
305.152
310.242
295.296
295.149
295.15
295.15
295.164
310.505
307.105
295.146
295.15
295.15
295.15
295.15
310.513
300.99
295.14
295.127
295.15
295.15
310.064
295.15
306.931
295.142
295.15
295.148
309.995
295.15
295.15
295.15
310.603
295.15
295.15
295.223
295.15
295.15
295.149
295.17
296.729
295.15
295.15
295.15
295.151
295.15
295.15
295.18
300.495
295.15
295.914
295.15
295.15
295.15
309.47
295.15
295.15
306.642
295.15
295.165
295.15
295.524
295.15
310.897
295.15
295.149
295.15
295.186
295.15
295.15
295.186
308.18
295.133
295.15
310.67
295.156
299.508
295.152
294.642
295.152
295.15
295.154
305.844
295.15
295.15
295.156
295.146
303.672
296.482
295.153
295.155
294.861
295.152
295.167
294.991
295.15
295.168
297.137
295.142
295.751
294.85
295.144
295.141
294.744
310.612
295.144
310.71
294.683
294.896
295.234
307.411
308.486
306.243
295.14
295.15
295.323
294.712
295.358
294.914
308.323
295.15
295.248
295.149
296.81
296.268
306.774
295.149
305.574
309.527
295.15
295.15
295.15
295.15
311.448
295.148
310.64
310.942
310.466
295.141
295.156
295.148
296.021
295.428
295.15
295.15
295.15
295.15
310.946
295.319
295.15
304.879
295.327
295.155
295.141
295.151
295.15
307.914
295.151
295.15
295.15
295.15
295.462
295.106
304.17
295.576
295.15
296.348
295.15
295.145
310.373
295.066
295.077
310.457
307.977
295.058
295.059
296.991
295.047
295.095
295.049
295.15
295.15
309.656
295.15
295.075
295.15
297.599
295.15
295.15
295.148
309.553
294.87
295.15
295.15
311.032
309.709
295.15
295.15
297.069
295.15
310.879
295.15
295.15
305.882
295.15
295.15
311.238
295.152
295.15
295.151
295.15
295.123
295.247
295.305
295.15
295.15
295.152
306.443
296.675
295.15
306.749
295.117
304.466
305.529
295.15
295.164
295.15
310.849
295.15
295.197
295.228
311.022
309.564
308.303
309.972
295.193
295.155
295.151
299.534
311.264
295.136
295.148
295.15
295.303
295.15
295.15
295.15
296.222
295.254
295.195
310.933
295.173
309.862
310.499
295.15
295.15
309.575
295.15
295.148
295.15
306.542
301.915
295.15
311.117
295.147
295.148
311.281
295.231
295.149
295.15
295.15
295.19
295.193
309.757
295.15
295.15
295.15
295.15
309.885
310.147
295.15
300.798
295.201
310.785
295.15
294.826
295.15
295.13
295.15
295.295
295.152
295.174
294.969
295.18
295.15
295.15
295.182
310.455
310.861
307.961
310.119
294.861
294.891
311.228
295.152
295.15
306.647
303.712
311.442
298.275
295.15
296.697
297.076
296.913
302.761
294.747
295.15
295.865
295.668
295.15
310.572
295.522
310.39
311.224
295.156
294.872
295.15
295.502
295.297
300.222
310.963
311.277
295.149
295.15
309.802
311.024
295.059
295.15
296.49
295.148
295.158
295.15
295.119
295.124
295.15
295.169
295.151
295.15
311.305
310.925
308.619
295.156
295.15
311.109
309.932
295.15
311.371
311.251
295.15
310.622
295.15
295.15
303.025
295.15
295.156
295.151
295.15
295.15
295.15
295.064
295.15
295.15
298.506
295.393
295.168
311.094
305.149
295.15
295.15
295.15
305.741
301.817
311.16
295.15
296.453
295.303
295.626
310.45
295.401
307.034
294.984
309.791
310.872
310.979
295.158
295.15
305.933
306.437
295.217
295.148
295.225
295.15
310.687
295.384
310.652
310.763
295.15
295.183
295.15
295.301
311.022
295.372
295.336
305.866
297.892
305.436
295.15
307.058
295.371
295.148
295.316
311.325
295.71
295.23
306.174
295.161
295.408
310.101
295.15
311.111
295.215
295.148
295.148
295.156
295.16
307.42
295.15
295.148
295.149
307.548
295.149
295.15
295.15
305.142
310.188
295.15
311.186
295.15
311.066
295.145
295.15
295.14
295.15
295.15
295.141
308.657
295.744
295.149
310.988
295.149
295.156
295.15
295.166
295.15
295.15
295.15
295.117
305.871
295.15
311.342
295.152
295.15
295.15
295.169
295.153
295.15
295.15
295.32
295.15
311.284
295.15
295.144
295.15
295.166
295.15
295.149
306.537
295.15
310.837
295.15
295.139
299.156
295.15
295.15
310.933
295.15
295.15
295.153
310.331
310.898
295.15
295.15
294.748
295.189
309.874
310.729
310.258
309.511
304.959
310.758
295.15
295.153
310.784
307.607
295.159
295.15
295.15
295.15
295.149
304.297
305.395
295.15
295.15
295.15
295.149
295.15
310.873
295.15
305.917
295.15
311.063
295.15
295.15
310.943
295.151
295.15
295.149
295.15
295.15
310.662
307.933
306.829
311.352
295.15
303.85
295.159
295.15
310.431
295.15
295.105
295.15
295.15
309.22
295.15
303.212
310.04
295.15
295.15
309.024
295.15
295.15
295.15
295.046
295.15
295.15
295.269
310.181
295.199
295.15
297.606
295.231
295.15
295.15
309.891
295.15
295.15
295.15
295.12
295.205
295.15
295.15
295.148
296.576
310.663
295.15
295.291
310.299
295.15
300.438
295.149
295.098
295.15
310.776
295.149
295.15
305.773
310.126
295.15
295.15
295.151
310.622
311.109
295.149
295.149
295.37
295.15
304.567
295.15
295.271
310.144
310.739
303.773
295.15
310.67
306.4
310.728
295.15
310.804
295.15
295.168
295.215
295.15
295.15
298.757
306.313
295.298
305.127
295.143
303.37
309.317
295.872
295.23
304.293
310.564
310.8
311.074
303.282
295.15
298.99
310.937
295.15
303.859
295.154
295.149
295.146
295.147
295.013
310.312
295.129
295.15
295.15
295.156
295.15
295.152
308.212
295.153
295.15
295.15
296.205
297.514
295
295.15
295.09
295.273
295.153
310.573
295.15
306.794
295.102
295.186
295.232
296.904
307.136
295.15
295.15
311.013
310.591
295.15
295.112
298.717
310.984
310.407
295.15
295.15
308.357
295.15
311.001
310.466
295.451
295.15
295.15
295.144
295.15
295.149
305.785
305.906
295.15
295.15
295.15
295.15
295.15
302.552
295.15
295.15
295.15
302.988
295.15
295.15
295.15
295.149
309.978
300.925
295.15
311.043
308.576
295.15
310.507
295.15
309.185
310.273
309.709
310.433
307.483
310.113
306.343
310.981
295.15
295.15
295.15
306.618
295.15
295.792
310.611
310.639
295.261
309.984
296.418
310.36
310.993
309.87
295.135
295.15
295.15
295.15
295.011
303.798
295.15
295.15
295.15
295.15
295.15
294.208
309.866
295.15
295.15
294.942
295.15
295.15
295.149
295.15
295.15
295.167
310.616
311.382
295.15
310.939
295.15
295.134
295.15
295.153
295.15
295.15
295.15
295.15
305.158
295.15
295.255
295.15
311.149
295.15
295.15
295.155
295.15
295.15
295.15
311.015
295.132
295.335
295.149
295.139
295.52
295.15
304.649
295.149
295.15
295.951
295.15
295.149
308.82
295.15
297.364
295.15
295.15
295.149
311.339
295.15
310.872
295.152
295.15
295.148
295.15
295.15
310.798
295.15
295.19
294.998
295.15
295.15
310.998
295.15
295.151
303.808
295.148
295.147
306.839
301.785
295.15
294.996
295.15
307.145
295.15
295.147
295.453
295.28
295.15
295.15
310.834
295.15
301.156
295.521
295.147
295.15
295.15
295.15
311.25
304.293
298.522
310.624
295.147
300.341
295.15
295.148
295.099
295.15
310.724
295.152
295.15
295.15
295.149
295.513
302.36
310.609
305.677
300.552
295.15
295.09
295.15
295.072
295.073
310.408
295.15
300.029
300.576
310.877
295.152
306.872
296.379
295.148
295.093
306.2
310.95
295.148
295.197
295.149
295.157
295.153
295.396
295.15
310.768
295.15
303.731
310.714
295.15
295.161
295.145
295.15
301.879
295.15
295.207
295.145
295.15
310.759
310.409
295.303
295.15
310.786
295.15
295.15
295.15
295.15
295.15
304.649
295.161
310.476
295.249
295.147
295.359
295.15
295.146
309.341
297.579
295.15
295.15
295.15
295.157
295.163
294.827
295.148
296.675
295.763
307.473
294.889
305.329
295.108
295.15
307.524
295.146
311.315
295.148
295.149
295.15
295.241
297.174
310.981
295.028
295.152
295.138
311.026
295.094
295.099
295.148
295.148
295.15
295.15
295.358
310.299
310.981
295.151
311.371
295.15
310.96
295.15
295.096
295.15
295.15
295.15
295.15
295.15
295.128
295.144
310.772
310.613
295.15
295.149
295.149
295.15
295.15
295.15
295.15
309.308
295.15
304.902
310.297
295.707
311.222
296.232
295.169
311.21
311.235
295.15
295.097
311.214
295.15
295.148
295.142
310.905
295.15
295.15
311.027
295.144
295.15
295.151
310.225
295.149
310.227
297.941
295.138
295.15
310.744
308.587
295.134
295.15
295.15
295.15
295.165
295.15
309.734
295.15
295.15
295.15
295.137
295.152
295.15
308.213
295.15
295.15
296.843
310.813
295.15
295.149
311.077
311.229
295.146
295.097
295.138
295.125
295.232
295.149
295.152
310.321
295.144
310.829
307.311
295.127
309.186
301.966
295.127
295.101
295.15
295.325
295.15
298.288
295.15
305.204
295.149
303.087
304.974
295.15
295.147
306.244
295.15
306.545
295.162
303.947
295.141
295.15
295.131
295.15
302.226
295.148
310.665
295.144
304.035
295.27
303.889
306.799
295.15
295.149
305.311
295.147
295.146
295.145
295.15
295.15
294.962
295.826
295.124
310.059
294.969
295.15
294.96
311.162
311.4
295.15
295.15
295.125
295.463
311.18
295.15
295.15
294.983
295.15
308.588
311.214
295.233
295.15
294.976
295.151
310.672
309.909
294.665
310.334
309.746
295.144
295.122
295.149
295.15
295.213
307.324
310.82
305.927
294.998
295.15
295.084
295.15
310.876
308.899
294.981
295.15
295.15
295.15
295.15
295.138
295.15
294.672
295.153
310.051
295.153
308.235
295.565
295.15
295.15
295.12
310.971
295.143
295.143
295.13
295.136
295.149
295.125
295.147
295.148
295.139
294.964
309.093
310.032
295.922
295.115
310.498
295.15
295.137
295.147
295.15
295.145
294.899
295.15
305.396
295.132
295.265
295.149
299.746
295.08
295.149
295.15
294.607
303.703
308.783
296.192
294.939
295.644
295.06
295.144
295.149
311.284
295.111
295.15
309.326
308.486
295.15
295.15
295.15
295.108
295.15
310.717
309.29
295.15
295.15
295.15
295.15
295.15
295.132
295.15
295.214
295.15
295.149
295.147
310.682
310.352
295.15
295.049
294.688
295.144
295.15
295.15
295.14
295.149
294.976
295.024
305.825
310.663
295.15
295.019
310.111
295.15
295.186
295.148
295.15
300.491
295.19
295.15
295.15
295.15
310.707
295.15
295.15
307.532
304.621
295.334
295.13
295.15
295.154
310.778
295.15
295.209
295.155
295.226
295.15
295.15
295.15
311.357
295.148
311.004
295.144
295.296
307.462
295.238
295.153
305.496
295.15
295.169
310.903
295.152
295.152
304.394
295.15
295.15
310.97
295.15
297.195
295.15
295.15
295.134
295.15
295.149
295.15
295.15
295.15
294.961
295.15
295.15
295.149
295.15
295.15
295.15
301.177
295.149
295.153
295.15
300.517
295.15
300.046
296.219
302.438
295.147
295.15
295.029
311.306
295.15
295.147
310.893
310.812
311.134
295.131
295.15
295.151
295.128
295.15
295.036
308.854
295.202
295.771
295.145
301.125
295.015
295.176
295.432
295.15
295.172
295.117
295.15
295.742
295.179
309.381
309.676
301.184
299.429
310.834
296.12
300.78
295.119
301.159
295.146
295.201
295.15
295.15
308.136
295.15
295.15
295.145
295.135
295.149
295.15
295.15
295.15
295.148
295.182
302.99
295.15
310.699
295.15
295.15
295.15
295.168
295.107
294.614
310.573
310.788
302.031
295.15
295.15
294.782
295.151
295.15
295.15
295.15
310.441
295.15
295.15
309.152
306.19
310.902
295.15
295.15
295.15
295.242
295.15
305.352
295.15
306.181
295.149
295.15
295.15
295.15
306.998
295.15
295.15
310.934
295.149
295.15
295.15
294.485
295.136
295.15
295.149
309.2
308.924
295.15
295.15
295.15
295.158
304.083
295.15
295.152
295.15
295.153
295.15
295.15
295.149
310.927
295.151
310.901
295.15
311.115
310.376
307.696
295.132
309.41
295.296
307.73
295.15
306.41
295.275
295.59
295.152
295.247
311.02
295.087
295.261
295.15
295.29
309.704
295.164
295.15
295.15
295.15
310.756
311.356
308.207
309.927
295.136
293.96
311.038
311.099
307.639
304.424
295.15
295.147
295.075
309.999
295.586
295.15
295.151
295.15
295.388
295.15
295.127
295.15
295.009
304.577
295.15
295.15
305.229
295.063
295.15
295.15
295.069
295.289
295.149
310.146
304.292
295.148
295.241
309.92
294.447
295.081
295.223
308.056
295.037
295.15
295.068
295.148
295.48
295.15
306.385
305.5
295.164
310.225
295.15
295.154
295.218
294.785
295.15
295.156
295.152
295.147
300.174
295.104
311.083
309.969
295.086
295.108
295.155
295.152
295.148
309.605
311.11
295.153
296.302
309.885
309.619
295.15
295.131
295.15
310.538
295.15
295.15
295.115
295.148
295.197
295.15
310.819
309.374
295.15
310.762
310.466
310.864
295.149
295.15
295.15
295.15
307.244
295.15
295.15
295.15
295.15
310.785
295.15
295.15
295.15
305.314
309.885
306.192
311.228
295.15
295.15
309.662
295.15
309.879
310.937
309.833
295.15
295.175
305.853
295.15
307.437
311.007
307.232
295.15
306.613
295.142
295.262
295.151
295.194
295.12
303.397
295.769
295.15
295.15
295.212
311.119
295.15
295.15
295.15
295.155
295.133
295.15
295.282
295.334
295.15
296.345
295.15
295.778
295.118
295.15
310.788
295.15
297.364
295.15
295.443
295.149
295.15
295.15
295.15
295.15
295.15
295.15
295.15
310.088
294.806
295.15
295.15
295.15
295.15
310.915
295.15
295.3
295.15
295.15
295.121
311.109
295.15
295.15
295.15
295.15
295.15
295.15
295.15
294.823
295.15
296.41
295.15
309.445
295.152
295.15
295.15
295.15
303.946
304.77
295.15
295.25
306.16
303.847
295.551
295.194
308.354
310.319
295.15
304.967
295.127
295.15
295.15
295.15
295.15
294.955
295.15
310.207
310.025
295.15
311.229
295.15
295.15
295.15
295.15
295.15
295.15
295.15
295.15
295.144
295.094
295.272
295.15
296.047
295.38
298.291
295.15
295.15
295.149
295.15
295.663
295.15
295.15
295.178
295.341
295.15
295.15
295.15
295.15
296.089
295.15
309.746
295.014
295.15
295.15
295.651
301.116
295.055
295.15
295.15
295.15
297.067
295.15
295.15
294.889
310.76
306.886
306.635
305.758
295.149
306.499
308.238
295.15
296.834
310.581
295.622
306.158
295.15
295.164
310.367
295.15
295.149
295.508
295.15
295.15
295.15
295.15
295.174
310.96
308.485
310.126
295.15
295.15
295.142
295.15
295.15
295.15
295.15
295.159
295.15
309.143
311.085
295.149
296.875
296.767
310.09
295.15
295.238
307.565
295.149
310.696
295.15
295.634
295.398
295.185
295.161
306.849
295.15
295.15
311.42
296.195
295.15
305.465
295.149
295.15
295.152
295.15
295.177
295.29
295.152
310.997
295.15
296.206
295.15
295.15
295.15
295.15
295.15
295.15
295.15
310.785
296.137
295.15
295.179
295.15
296.587
295.151
295.381
295.15
295.15
309.599
295.15
295.15
295.15
308.658
295.166
295.15
295.15
295.15
310.814
311.387
295.15
295.282
295.15
295.15
295.151
295.15
295.15
295.15
295.15
299.174
295.271
295.405
295.149
295.15
295.152
295.15
295.133
295.62
298.923
295.151
295.131
295.15
295.146
310.46
295.15
295.15
295.15
295.15
295.15
295.15
295.15
306.628
295.15
295.15
295.147
295.149
295.15
295.15
295.792
295.15
295.15
295.15
295.15
295.15
295.15
299.582
295.15
295.15
310.162
295.15
295.15
310.317
295.021
295.15
295.129
295.22
310.62
311.041
295.147
295.15
295.231
295.15
311.475
295.155
295.175
295.208
310.321
310.573
310.403
295.15
295.15
296.113
295.174
310.565
295.15
295.15
295.67
307.319
295.15
295.153
295.439
306.738
295.148
295.167
295.15
295.15
295.15
295.15
295.15
295.15
297.505
310.072
310.21
295.148
295.61
295.15
295.133
295.15
295.15
307.197
295.149
297.196
294.812
295.15
295.148
295.121
295.15
310.907
295.15
295.382
295.149
295.15
295.15
295.15
295.15
295.15
295.15
295.15
295.15
295.15
295.15
295.15
295.15
295.15
295.054
295.148
295.15
295.627
295.15
295.169
295.428
303.628
295.15
295.193
295.3
295.153
295.175
295.745
295.256
295.155
295.151
295.15
295.215
295.15
310.807
295.157
295.241
295.144
295.148
295.15
295.154
295.15
295.118
295.094
310.382
295.483
310.987
295.15
295.064
295.15
295.121
295.137
295.15
295.15
294.772
309.722
295.149
295.15
295.15
295.151
295.15
295.15
295.15
295.151
295.15
311.36
295.15
295.132
295.15
295.15
308.891
295.15
310.869
295.149
295.15
295.177
295.149
310.584
310.909
309.272
295.076
295.15
295.15
295.15
295.15
295.153
295.15
295.15
295.15
295.151
295.616
295.15
295.15
295.149
300.67
301.421
295.15
295.437
295.15
295.183
295.167
295.15
295.15
295.15
295.15
295.162
295.15
307.06
295.15
307.628
295.153
295.354
295.15
295.15
295.158
295.15
306.23
295.15
308.827
295.15
310.849
295.15
295.153
295.15
295.144
295.15
295.178
306.012
295.151
295.149
295.151
295.149
295.149
295.15
305.837
295.152
294.906
295.152
295.124
295.148
297.421
295.15
296.198
295.025
294.967
295.124
295.15
305.83
295.15
295.149
295.15
309.162
308.636
295.121
295.15
310.992
295.78
295.222
295.15
295.021
297.557
295.15
295.15
295.15
295.15
295.15
295.134
295.142
310.199
307.975
295.177
308.743
295.15
309.995
295.345
295.15
295.15
296.09
295.15
295.147
295.15
295.149
311.029
295.128
295.149
295.149
301.612
310.429
295.157
311.173
295.15
295.15
308.528
295.15
295.15
295.15
295.137
295.148
295.738
295.148
295.108
295.148
310.714
295.149
295.399
296.112
295.026
295.181
295.051
295.133
295.15
295.15
295.166
295.15
295.15
309.994
309.717
309.883
302.681
295.173
311.201
295.131
307.689
295.15
295.15
295.148
295.164
295.15
295.146
295.148
310.837
304.299
295.15
294.836
295.069
295.139
295.15
308.909
295.15
295.15
295.15
310.345
310.954
295.148
295.15
295.263
295.15
295.123
295.15
295.147
295.188
295.15
295.15
295.125
295.145
311.046
295.15
295.15
304.61
295.15
306.443
310.093
309.954
295.15
295.15
295.142
295.15
310.027
310.447
295.15
295.149
295.15
295.15
310.504
295.15
309.384
310.35
304.634
295.147
295.137
295.615
295.15
295.149
309.507
295.15
295.102
295.15
295.13
295.15
295.131
304.746
295.15
295.15
295.15
295.15
295.15
295.765
295.979
295.152
295.15
295.15
298.808
309.126
295.15
295.15
295.15
295.158
295.15
295.149
295.149
295.15
295.15
311.129
310.499
295.15
295.15
295.15
295.15
295.15
295.15
295.479
309.604
311.324
295.15
295.15
295.28
294.903
295.149
295.15
309.696
300.823
310.827
295.15
295.152
295.15
296.312
295.15
295.144
295.147
295.15
295.15
295.082
295.15
295.151
303.805
295.133
295.063
295.152
295.141
311.011
310.176
295.137
309.367
295.137
295.15
295.15
310.509
305.383
295.15
295.102
309.523
295.15
295.148
295.15
296.088
295.216
295.15
295.15
295.15
295.15
295.15
295.15
295.15
295.15
295.15
295.15
295.15
296.453
295.277
295.15
295.15
295.15
295.064
308.433
295.15
295.535
295.15
306.431
295.176
295.514
295.038
295.15
295.15
295.149
295.15
295.26
295.15
295.167
295.15
295.15
295.15
295.15
295.109
295.15
295.255
295.15
295.15
295.15
295.15
295.15
295.15
295.109
295.15
295.15
295.15
295.144
295.15
295.15
295.149
295.15
295.15
306.027
295.15
304.187
295.15
295.148
295.155
295.175
295.15
295.149
295.15
295.028
295.15
295.15
305.679
295.15
295.15
295.15
295.15
295.218
295.15
295.15
295.149
295.15
295.15
295.15
295.153
295.152
295.15
295.15
297.338
295.149
295.147
310.043
295.149
295.15
295.15
295.15
304.314
307.597
295.15
295.149
295.15
308.679
295.15
310.891
295.15
295.15
295.15
305.715
295.15
295.15
310.737
311.11
295.341
310.636
295.488
295.15
302.234
295.15
295.15
295.15
295.161
295.154
305.32
304.183
295.15
307.795
295.151
311.523
295.149
295.15
295.15
296.305
294.852
301.97
295.149
297.274
295.315
295.149
308.408
295.922
310.952
310.723
295.15
295.15
310.78
295.195
302.195
296.133
308.896
295.15
295.15
295.146
295.149
295.15
310.719
302.482
307.054
295.148
295.148
301.996
295.31
295.15
295.15
295.15
295.152
295.157
295.149
295.154
295.15
311.265
295.15
295.146
310.715
295.15
295.149
295.222
295.124
310.659
310.803
308.771
310.935
295.15
296.711
310.322
295.15
295.15
295.151
295.15
310.668
308.929
308.737
295.14
295.15
299.526
311.267
295.148
303.919
303.274
295.15
295.15
295.152
296.413
304.14
311.401
295.166
295.181
295.151
295.17
306.268
295.15
306.161
310.353
295.222
296.156
304.409
295.202
295.15
295.893
295.15
295.142
295.276
307.07
310.63
295.16
308.755
295.15
304.83
295.15
295.151
307.862
310.995
297.263
309.637
296.937
296.646
295.15
295.15
295.153
295.484
296.634
310.161
304.063
303.801
296.676
306.797
295.15
301.904
311.146
310.79
295.151
309.196
295.15
295.15
295.15
295.15
306.538
295.067
295.913
295.233
295.072
295.149
295.15
311.053
295.15
310.664
295.366
295.081
297.826
295.15
295.15
309.962
295.15
296.788
295.15
295.15
295.15
295.15
295.15
295.15
296.729
295.15
295.15
310.965
295.15
295.15
295.15
308.976
295.346
295.365
295.15
295.153
305.444
295.15
310.337
295.151
295.15
295.149
295.15
300.557
295.15
306.918
295.15
295.149
295.151
295.15
295.152
309.476
295.15
295.15
295.15
308.664
295.15
295.15
295.157
295.15
300.25
295.15
295.15
295.151
295.134
295.15
310.674
295.15
310.29
295.182
295.15
295.22
295.148
295.148
295.15
295.15
295.15
295.15
295.15
295.157
295.149
295.15
295.15
295.149
295.15
295.15
295.15
295.15
295.15
295.15
295.147
304.598
295.15
303.233
299.584
308.866
295.15
301.709
307.128
295.15
295.147
296.869
304.41
305.236
295.15
294.771
310.379
294.359
310.043
295.15
294.957
295.15
295.15
311.203
294.517
295.15
295.15
295.325
295.15
311.429
295.15
295.15
295.149
307.315
295.15
295.15
307.56
306.335
295.15
298.645
295.15
295.15
295.146
295.151
295.15
295.15
295.15
295.01
295.086
295.59
295.15
295.15
295.148
295.15
295.15
295.15
295.151
295.15
295.15
295.15
310.345
295.15
295.15
307.526
295.149
295.15
295.148
295.15
295.15
309.168
295.15
295.15
310.632
295.146
295.15
310.601
310.522
295.656
295.146
295.15
311.133
295.15
295.194
295.15
295.15
311.333
295.15
310.582
295.15
295.15
309.594
295.15
310.983
295.15
295.111
295.15
295.057
295.15
308.791
295.147
301.979
303.194
295.15
295.15
311.326
306.48
295.15
309.937
295.15
307.423
295.15
310.955
310.731
311.169
295.15
295.15
299.895
299.535
295.145
295.146
295.149
295.15
309.118
310.461
302.112
302.612
295.127
310.042
295.15
307.326
295.15
295.148
302.045
306.17
311.467
310.186
309.56
295.15
295.101
295.15
295.15
310.808
295.15
310.603
310.827
295.15
310.885
310.272
295.15
294.893
311.187
296.209
297.959
295.15
295.15
310.067
295.15
299.053
294.775
294.769
306.565
311.107
294.67
294.928
303.795
309.839
310.751
306.402
294.963
294.748
295.149
294.495
295.149
295.078
295.142
294.686
302.038
295.082
296.557
295.15
311.016
301.709
295.145
295.279
301.346
295.15
295.15
295.15
309.849
308.204
310.348
310.514
310.512
295.15
295.15
307.27
295.123
295.15
295.15
303.478
295.149
311.151
310.163
295.15
295.151
303.542
295.15
295.12
295.147
310.372
295.15
295.15
295.147
295.148
295.15
311.361
295.15
310.741
298.935
295.238
295.796
302.881
295.15
295.026
295.15
295.15
295.289
295.15
295.196
311.089
295.15
309.565
295.15
295.239
295.15
295.162
296.378
295.15
295.152
306.571
295.15
295.15
295.15
295.149
295.15
295.15
299.435
308.035
301.536
295.15
295.15
295.15
310.163
295.15
295.15
295.15
295.15
295.15
295.15
310.52
295.15
295.206
295.15
295.224
295.15
310.574
304.992
295.15
295.15
310.48
307.84
310.769
310.622
310.49
311.069
299.11
310.228
295.15
295.15
295.146
310.9
295.142
295.164
304.761
295.15
295.15
295.169
295.15
296.308
295.15
293.485
305.748
295.15
305.315
295.149
295.15
295.15
295.15
310.742
295.149
295.15
295.15
295.18
295.15
295.15
295.149
295.149
295.148
295.15
295.15
295.15
295.182
295.15
295.157
295.155
295.149
306.78
295.148
295.921
310.315
310.576
295.182
295.148
302.8
295.539
295.15
295.15
295.15
295.232
295.149
295.149
295.15
310.583
295.15
295.148
310.765
295.15
299.887
295.148
295.15
295.15
310.18
295.15
295.15
295.168
295.15
306.981
311.149
295.151
310.355
295.15
295.147
295.15
295.15
311.294
295.15
295.15
295.15
295.15
310.852
295.15
295.15
295.15
295.147
310.01
298.263
295.15
310.948
295.15
295.15
297.162
310.398
295.149
295.15
310.983
295.15
295.795
295.145
310.705
309.683
295.15
295.16
295.148
295.15
295.097
295.15
295.138
295.426
296.16
295.153
295.184
295.15
295.15
307.19
310.256
310.714
295.15
310.13
310.977
295.995
310.511
295.15
310.992
295.15
295.156
295.15
295.154
310.292
307.629
295.15
295.126
295.15
295.15
310.976
295.15
295.147
295.15
295.216
295.159
295.15
295.388
295.147
295.15
294.309
295.146
295.148
295.15
295.129
295.116
295.023
294.939
295.15
295.161
295.15
295.144
311.258
309.938
295.15
295.15
310.756
295.148
295.004
300.395
295.15
295.15
309.709
295.149
295.154
310.046
295.228
300.06
295.166
295.149
295.15
295.15
307.351
300.518
295.15
295.15
295.146
295.143
294.254
295.15
310.832
295.15
294.48
295.146
295.149
295.147
295.147
295.131
310.349
295.15
295.156
295.138
295.145
295.001
295.15
295.094
295.15
295.15
295.15
295.134
295.454
295.137
295.123
310.272
306.803
295.15
295.15
295.161
295.15
295.15
295.214
295.142
295.147
306.974
295.15
295.15
295.143
295.143
295.061
295.068
295.137
295.15
295.143
295.141
295.517
295.15
295.15
295.149
295.15
295.149
305.359
297.89
295.149
295.148
310.798
311.331
310.531
295.15
295.149
295.155
295.15
295.174
295.15
295.15
295.311
295.57
295.15
295.149
295.15
295.15
295.15
295.151
295.776
295.398
295.163
296.135
295.15
295.147
295.411
308.716
296.051
295.163
311.374
308.076
295.15
310.818
295.15
295.15
295.15
295.15
295.15
295.15
295.116
296.22
295.15
310.946
295.15
295.15
295.15
301.219
295.15
295.15
296.039
295.15
295.357
295.15
309.69
311.223
295.15
295.15
300.155
310.181
295.154
295.15
295.15
310.237
309.579
303.075
309.851
295.149
295.15
309.289
310.407
311.318
295.148
310.025
295.15
295.152
295.15
295.149
311.004
295.15
302.426
295.15
308.554
295.15
310.597
295.15
303.952
295.15
295.15
295.15
295.15
311.532
295.152
299.245
295.525
295.15
295.15
295.15
311.182
295.15
310.87
304.18
295.149
295.15
302.422
295.055
311.112
295.15
295.165
308.37
310.921
309.986
297.601
305.002
294.966
295.199
310.797
310.011
295.15
295.147
295.15
300.154
297.438
306.954