/*--------------------------------*- C++ -*----------------------------------*\
| =========                 |                                                 |
| \\      /  F ield         | OpenFOAM: The Open Source CFD Toolbox           |
|  \\    /   O peration     | Version:  v2012                                 |
|   \\  /    A nd           | Website:  www.openfoam.com                      |
|    \\/     M anipulation  |                                                 |
\*---------------------------------------------------------------------------*/
FoamFile
{
    version     2.0;
    format      ascii;
    class       volScalarField;
    location    "5";
    object      alphat;
}
// * * * * * * * * * * * * * * * * * * * * * * * * * * * * * * * * * * * * * //

dimensions      [1 -1 -1 0 0 0 0];


internalField   nonuniform List<scalar> 
108993
(
0.000158403
9.73864e-05
0.000196068
9.26872e-05
0.000100431
5.29312e-05
0.00289553
8.22259e-05
0.000105369
9.41412e-05
0.000107679
0.000104875
9.18061e-05
8.41201e-05
9.10015e-05
9.78849e-05
0.000197978
9.09223e-05
9.39919e-05
9.34969e-05
0.000208437
0.000122419
7.94294e-05
0.000126748
0.000126844
9.07821e-05
0.000193432
9.74768e-05
0.000112793
6.58112e-05
0.000134412
0.000105359
0.00036855
0.000113494
9.90757e-05
0.000101841
0.000127178
0.000161061
0.00158544
0.0020995
0.000115955
0.000109881
9.25958e-05
0.000482423
0.000106302
0.00233817
0.000290896
0.00159779
0.000172419
0.000102211
0.000106784
0.000192932
9.69775e-05
0.000102685
0.000105166
0.000107656
0.000189923
9.54682e-05
8.03395e-05
0.000113646
9.93563e-05
0.000106232
9.48548e-05
9.85419e-05
0.000109189
0.000110663
0.000246732
0.000107425
0.000115379
0.00163729
9.32343e-05
9.51414e-05
9.9821e-05
0.000101573
0.000110392
0.000111566
0.000130989
0.000118794
0.000181057
0.000119601
9.02753e-05
8.70143e-05
8.68685e-05
0.000200858
0.000109385
9.02491e-05
0.000109495
8.92806e-05
9.53759e-05
0.000131567
9.92132e-05
8.50381e-05
0.000121424
0.000149623
0.000122771
9.98887e-05
8.41555e-05
6.91171e-05
8.34962e-05
0.000122992
0.000107481
0.000134031
0.000114984
0.000109168
7.47791e-05
0.000156031
0.000108373
8.80537e-05
0.000137459
0.00203024
0.000178078
9.62414e-05
0.0002297
0.000137501
0.000100567
0.00199996
8.69673e-05
8.08121e-05
0.000129046
9.89693e-05
9.45785e-05
0.000101216
0.00190926
6.72299e-05
0.000168785
9.26546e-05
0.000102612
8.70309e-05
0.000100784
0.000116016
8.83375e-05
0.000124296
0.000110443
0.00181179
0.000106859
7.95506e-05
0.000101094
8.44735e-05
9.25647e-05
9.14849e-05
7.97844e-05
0.000117182
0.000133502
0.000109232
0.000117032
0.000119206
7.96751e-05
0.00269835
9.36021e-05
0.000690208
0.000684317
7.79764e-05
8.49292e-05
0.000740726
9.77259e-05
9.55473e-05
0.00011551
0.000149586
0.000397373
0.000415146
0.000738221
0.000843436
0.000114273
0.000123015
9.28147e-05
0.000123888
9.50372e-05
0.000105227
0.000112394
0.000111405
0.000106821
0.000102285
0.000122967
0.00010998
0.000118276
9.11156e-05
0.00102243
8.56145e-05
0.00010346
0.000162594
8.56641e-05
8.1798e-05
0.000138034
2.99818e-05
0.000114206
0.00010352
0.000176289
9.93431e-05
9.84254e-05
3.59368e-05
9.76828e-05
0.000204025
8.99221e-05
0.000791884
0.00010426
9.60914e-05
0.000112761
9.63596e-05
0.000102993
3.47022e-05
0.000105692
0.000470661
0.000273327
0.000177352
0.00167858
0.00278819
9.91052e-05
0.00124325
9.59458e-05
0.00227101
0.000443182
0.000169157
0.0011832
0.00171819
0.00524385
6.77252e-05
8.65629e-05
9.78585e-05
0.000146196
0.000133709
0.000103695
0.000652485
0.000528885
0.00114412
0.000105797
7.53449e-05
0.0001569
0.000108347
0.000628656
7.98367e-05
0.00119811
9.86687e-05
8.88569e-05
0.00014181
9.26477e-05
0.000105226
0.000109114
9.17358e-05
0.0015815
0.000147026
0.000106197
0.000103096
6.23773e-05
0.000173459
0.000169254
6.46644e-05
0.00179535
0.00193026
0.000183661
0.000111731
0.000165401
0.000134436
9.4367e-05
0.000113745
0.000139323
0.000170205
0.000143738
9.47457e-05
0.000128871
6.14788e-05
9.72461e-05
0.000184042
0.000110724
0.000170407
0.0001457
9.82742e-05
0.000106854
0.000117028
6.07773e-05
9.43555e-05
6.93127e-05
0.000152149
0.00198469
0.00186689
0.00239785
9.11759e-05
0.00010845
0.00203332
0.000107314
9.74906e-05
0.000104586
0.00305682
0.00269113
8.85427e-05
0.000108075
9.98206e-05
8.22318e-05
0.000107529
0.000112372
0.00124154
9.37025e-05
8.04828e-05
0.00010892
0.000101641
0.000117015
8.15229e-05
0.000125145
9.44885e-05
0.00129828
5.54376e-05
0.00453094
0.00179209
0.000105405
7.6049e-05
0.000101877
0.000107582
0.000123792
0.000107814
7.50572e-05
0.00241851
0.000106457
0.000108719
8.30305e-05
9.24648e-05
0.000109066
0.00131958
0.000135893
8.6184e-05
0.00256447
0.000116819
9.05753e-05
8.71203e-05
8.78038e-05
0.000245772
7.67216e-05
0.00061268
0.00242853
0.00275983
9.48883e-05
0.000112387
0.000109031
0.00265883
0.00218136
0.00011464
0.00191144
0.000179153
9.69186e-05
0.000107539
9.95177e-05
9.40737e-05
9.50659e-05
0.00221202
9.56919e-05
0.000102097
8.9205e-05
9.67959e-05
9.19703e-05
8.7057e-05
9.18157e-05
9.92137e-05
0.000100069
6.54714e-05
0.00173693
0.0021219
0.000124274
9.5451e-05
8.67342e-05
0.00138494
0.000138425
5.54797e-05
0.000122424
9.34909e-05
0.00015872
9.04934e-05
0.000128482
0.0001093
0.000103799
8.75871e-05
0.000133243
0.00419386
0.000148458
0.000106103
9.10741e-05
0.00109321
0.000122506
0.0034498
0.000109224
0.000132136
0.0024967
0.000101066
0.00272743
0.00226957
0.000110418
0.000257422
9.68981e-05
6.36392e-05
8.94267e-05
0.00566817
8.98158e-05
0.00142879
0.00341859
7.13023e-05
0.00259522
9.1253e-05
0.00200334
0.000137583
0.00123083
0.00010079
9.44567e-05
9.76394e-05
0.000133284
0.00181977
0.00293153
9.7729e-05
0.000107318
8.49826e-05
8.66441e-05
5.98799e-05
0.000110953
0.0023458
8.95137e-05
0.000123362
0.00252311
9.07318e-05
9.92342e-05
0.000110277
0.00157119
0.00200588
0.00116519
0.000108557
0.00215889
9.56261e-05
0.00094374
7.91388e-05
0.000106651
0.00142516
0.000101574
0.00160553
0.00208427
6.32396e-05
0.00109353
0.00238199
0.00113398
0.000130013
0.000100552
0.000115989
0.000216511
0.000102565
0.000121181
8.70588e-05
9.16633e-05
8.96444e-05
0.000111715
6.60199e-05
0.0015856
0.000112506
8.63177e-05
0.000123171
9.06188e-05
7.65899e-05
9.4671e-05
9.76114e-05
0.000103921
0.000131529
0.000122498
9.77813e-05
9.49925e-05
9.21316e-05
0.000115914
8.41313e-05
0.0024875
9.77821e-05
0.00192085
0.000598896
0.000131092
7.39098e-05
0.000144577
0.00197171
7.0174e-05
9.31699e-05
0.00210459
0.0001029
0.000138064
0.000106715
0.000157564
0.000294928
7.56515e-05
0.0024
0.00115745
0.000139506
8.74948e-05
0.00011406
0.000108418
9.57692e-05
0.000574411
0.000104365
8.48448e-05
0.000187331
0.00013133
0.000168048
9.66039e-05
0.000104616
0.000353298
0.000222091
0.000109404
6.40364e-05
0.000686135
0.000103749
7.31008e-05
9.61148e-05
0.000139928
9.72801e-05
7.66602e-05
9.60366e-05
0.000124553
0.00149655
8.87948e-05
8.22284e-05
0.00294213
9.40255e-05
0.000108609
9.39797e-05
0.000104871
0.00011072
9.36663e-05
0.000169572
8.30875e-05
9.66283e-05
0.000167877
0.000117907
0.000275427
0.00076188
0.00010212
0.000103167
0.000112645
0.000263773
0.000121319
0.000100271
0.000303022
0.000111633
0.00015943
9.03336e-05
0.000178404
9.03912e-05
0.000219731
0.000111134
8.94061e-05
0.00010152
0.000108131
0.00198237
0.0001835
0.00262741
0.000100066
0.000110171
0.000109082
9.51996e-05
7.59005e-05
0.000214601
0.000108736
7.64745e-05
0.00449145
0.000104334
0.00303443
0.000116064
0.000107574
0.000208906
0.000122444
0.000114767
0.00304462
8.36743e-05
0.000107154
9.73454e-05
0.000193784
0.000103088
0.00208203
0.00384016
0.000100755
7.93179e-05
0.000130779
0.000108866
0.000100422
7.41875e-05
0.000786917
0.00137403
0.00167679
9.87098e-05
0.00011346
0.00237772
0.00239203
0.0019206
0.000112789
8.73597e-05
0.000122399
0.000133307
9.74792e-05
0.000127686
0.00368028
0.00126979
0.000108813
7.64638e-05
0.000116358
6.90335e-05
0.000150112
9.31486e-05
0.00198829
9.1669e-05
0.000119325
0.000155963
0.000681866
0.000127444
9.93816e-05
0.000109647
0.00491914
8.32378e-05
8.3165e-05
0.000159983
0.00230111
0.0002331
9.64224e-05
0.000104188
0.000781142
0.000109924
0.000208156
9.63498e-05
0.000119922
0.000126322
0.000106279
0.000273224
0.00172438
8.38261e-05
0.000436453
9.43169e-05
0.000102598
0.00202026
0.00011428
0.000111346
0.000115841
0.00213867
0.00424021
0.000103897
0.00169582
9.60855e-05
0.000800516
0.000853596
9.6707e-05
8.10546e-05
7.39854e-05
0.00209832
0.000145364
0.00010944
9.02353e-05
0.000107507
0.000147325
0.000107455
8.19587e-05
9.20335e-05
9.66407e-05
0.0001457
9.77806e-05
9.60176e-05
0.000102256
0.000125257
0.002212
0.00165724
0.00339985
0.000311092
0.00136947
0.00143532
0.00270072
0.00171194
0.00130669
9.81384e-05
7.64299e-05
9.33918e-05
9.32206e-05
0.000577567
0.000135941
0.00013999
0.00278566
0.0014597
0.00011666
0.000120557
0.000124577
0.00198105
0.00210187
0.000122906
0.000771159
0.00172793
9.80468e-05
0.00236357
0.0001802
0.00178075
0.000114962
0.000104102
0.00128578
0.000136414
0.00395993
0.00223891
0.00159505
0.00125817
0.000144692
9.61984e-05
9.63664e-05
8.98273e-05
0.000201923
0.00353162
0.0010917
0.00136257
8.65491e-05
0.00226553
0.000621929
0.000204728
5.32019e-05
9.74454e-05
0.000123245
8.87888e-05
0.000112672
8.32716e-05
0.00010123
8.20683e-05
0.000112133
0.00175124
0.00265565
0.000106835
0.00140298
9.65536e-05
0.000416928
0.00012082
7.15878e-05
0.000133168
0.000210194
0.000102877
0.000155087
9.19738e-05
8.62058e-05
0.000100704
0.000123003
0.000117107
0.00173891
0.0001013
0.00010338
0.00010047
0.000182487
8.96712e-05
0.000104905
7.66887e-05
0.00224799
8.36121e-05
9.98294e-05
0.000402222
0.000108232
7.59475e-05
0.00348051
0.00138737
0.000113533
0.000114947
0.000121391
0.000131521
0.000106438
0.000165659
0.000104917
7.0889e-05
8.49583e-05
0.00013086
7.63441e-05
9.16885e-05
7.73484e-05
0.000521606
0.00012635
0.000127062
0.000167413
9.70004e-05
0.000133923
9.61515e-05
0.00173152
0.000122441
0.000260601
0.00183398
0.000153476
0.000102359
9.09432e-05
0.00130518
0.000100405
0.00133416
0.00151987
0.000118891
9.93162e-05
0.00169073
0.00261819
8.92609e-05
0.000230925
0.00109012
0.00011313
9.83274e-05
9.89924e-05
0.000566979
0.000104637
7.76997e-05
0.000103098
0.00237598
9.643e-05
0.00217584
0.000124672
9.34389e-05
0.00515714
0.000123651
0.00209953
0.000109874
0.00202443
0.000105653
8.96292e-05
8.6063e-05
0.000118462
0.000127777
9.21265e-05
0.00010591
0.000101917
9.23538e-05
8.07491e-05
8.55989e-05
0.000262438
0.000100934
9.91625e-05
0.00188566
7.78877e-05
0.00243382
0.000140628
9.56971e-05
0.00169474
8.30294e-05
0.00133761
0.000162015
9.49071e-05
0.000104075
0.00408608
0.000157991
0.000179813
0.00192857
0.00187171
0.000149874
0.0029613
0.0013908
0.000399459
0.00013288
0.000110583
0.000215234
0.000319442
0.00268382
0.00144647
0.000430562
9.22478e-05
0.000115052
0.00165811
0.000160801
9.93785e-05
0.00148405
9.68446e-05
0.000105858
0.00134927
0.00010298
0.00144737
0.000114465
0.00168015
0.000113884
0.000103904
5.58141e-05
0.000235254
0.000115754
0.000124861
5.68603e-05
6.67557e-05
0.000809677
9.84799e-05
0.00214805
9.06565e-05
0.000108513
0.000105652
0.000257757
0.000108608
0.000337577
8.47505e-05
8.90878e-05
0.000124775
0.00353912
9.15676e-05
0.000210222
0.000127791
0.00185865
9.02367e-05
0.00290056
0.00119544
0.00232107
8.56631e-05
0.000511802
0.000198291
0.00178582
9.41352e-05
0.00193225
0.00189901
0.00279022
9.85168e-05
0.000132847
0.000447878
9.29181e-05
0.00037516
0.000122538
0.000115108
0.00010726
0.00192594
0.000122777
0.00148102
9.52048e-05
9.18736e-05
0.00168706
0.000138269
9.70962e-05
0.00239904
0.00233098
0.00011665
0.000899326
0.000100347
0.000105051
0.00013164
0.000183879
0.00184025
7.89914e-05
0.00197311
0.000149716
0.000117617
0.000309644
7.60436e-05
0.000108959
8.84092e-05
0.000103207
0.000293412
0.000113441
7.63809e-05
0.0002224
9.72181e-05
0.000159001
0.000867191
0.000106374
9.59792e-05
0.000115276
0.000127632
8.3919e-05
8.98779e-05
0.00290102
0.000103525
0.00118638
0.000221476
0.000113549
0.000152606
0.000316737
0.000165316
8.40304e-05
0.000119859
0.000604784
0.000116332
0.00106802
9.7784e-05
0.000102828
0.00166671
0.00265194
8.95352e-05
0.000539942
0.00245135
9.09906e-05
0.000334027
0.000102951
9.78317e-05
0.000132152
0.00287073
0.000135604
0.000966767
0.000574886
0.00010931
0.000110271
0.000107299
9.12505e-05
0.000824863
0.000925595
8.16897e-05
9.65496e-05
0.000130036
0.000994541
9.35566e-05
0.000100642
0.000126296
0.00146196
8.78949e-05
8.47182e-05
8.72651e-05
7.82179e-05
8.85904e-05
9.87082e-05
0.000104477
0.00163238
0.000109365
0.00016036
0.000152285
0.000114123
0.00344607
0.000106488
8.52859e-05
0.000233403
0.000119187
7.67099e-05
0.00266511
0.000749603
0.000273229
8.07421e-05
9.14837e-05
0.000350551
0.000174062
0.000137326
9.73488e-05
8.5353e-05
0.00456683
8.97516e-05
0.000573601
0.000490274
0.00243132
5.03489e-05
9.98348e-05
9.95046e-05
8.59062e-05
0.000224876
0.000100497
7.36181e-05
7.10373e-05
8.83863e-05
9.42091e-05
0.0018304
0.000105869
0.000113362
0.0004656
9.12639e-05
0.000119458
0.000133067
0.000112018
0.000107646
0.000102801
0.00010576
0.0001161
0.000147532
0.000101808
0.000264659
0.000109626
0.00257502
7.93745e-05
0.000112007
0.000106858
0.000332657
0.000402646
0.000216115
0.00343778
0.000375494
0.000211391
8.87498e-05
0.00144171
0.00010462
0.000134176
0.000102814
0.00224308
0.000100389
0.000125963
8.50788e-05
7.90726e-05
0.000138038
0.00210873
0.00016579
9.52046e-05
0.000126875
0.000123284
0.000238242
0.000127243
0.000182986
0.000294647
0.000538898
0.000121952
0.00195018
0.000200145
0.000135564
0.000116202
7.2197e-05
6.04276e-05
9.19417e-05
7.6742e-05
8.86821e-05
7.44938e-05
0.00121056
8.15776e-05
0.00446565
0.000125725
0.000105996
0.000150101
0.000126083
0.00105979
7.94789e-05
0.000103868
0.000107778
0.0001048
7.3313e-05
0.000125459
0.00157998
0.000587373
0.000180021
0.00162104
9.77874e-05
0.00014175
0.000125147
0.000764806
0.000236305
0.000112371
0.00106864
0.000111577
8.64092e-05
0.000106265
7.93756e-05
0.000111526
9.04385e-05
5.9953e-05
0.00118517
0.000112233
0.000131937
7.34865e-05
0.000100648
0.000112481
9.02433e-05
8.75339e-05
9.76673e-05
6.67622e-05
8.70161e-05
0.00151206
0.00010541
0.00107664
0.00010409
0.000103805
0.00252967
9.60485e-05
0.000138379
4.08095e-05
0.000102324
0.000116479
0.000108033
9.93445e-05
0.000100705
0.000112524
0.000246429
0.000103534
0.000107893
0.000371974
0.000239048
0.000103203
0.000119596
0.00201374
0.00209251
0.000102721
9.86938e-05
0.000105113
0.000117367
0.000136793
9.54404e-05
0.000935391
0.000109595
0.000103305
0.00011253
0.000109097
7.05193e-05
8.94647e-05
0.000132019
0.000316116
0.000901007
9.10102e-05
9.01222e-05
9.30218e-05
0.00316849
0.000120347
9.49384e-05
6.53247e-05
8.10013e-05
0.000717191
0.000106192
0.000190165
7.02276e-05
6.9458e-05
8.62964e-05
0.00134138
0.000178382
9.80048e-05
0.00145386
0.000118225
0.00132181
0.000953415
8.56388e-05
0.000106387
0.000229931
9.22431e-05
0.000106018
0.000117589
0.000120751
0.00083876
0.00184487
0.000269509
9.1027e-05
9.9822e-05
0.000292179
8.76781e-05
0.000106111
6.57055e-05
8.49408e-05
9.29585e-05
0.00116308
0.00156019
0.0014093
0.000104297
8.89212e-05
9.73092e-05
0.00273046
0.00043914
9.59294e-05
0.000111938
0.00156404
0.000109302
0.00205727
0.000659414
0.00203927
0.00249077
0.000101096
9.24344e-05
9.71751e-05
0.000113096
0.000807587
0.00091999
0.000107056
0.000357085
0.00010187
0.00481535
0.00012446
0.000201937
9.19647e-05
0.000484113
0.00161452
0.00248172
0.00012391
0.000116618
0.000101442
0.00256464
9.49765e-05
0.000132802
0.000114243
0.000122416
0.000119148
0.00341371
0.00011193
9.06305e-05
0.001297
8.24181e-05
0.000111871
0.000107968
0.000105941
0.00220715
0.000103282
9.30656e-05
7.79815e-05
0.00188165
0.000904462
0.00018485
9.4118e-05
0.000353778
0.000107536
0.00218686
0.00333671
0.00330762
0.000533632
0.00390299
0.000143
0.0023708
0.00261675
6.48437e-05
7.75326e-05
9.30489e-05
0.000104973
0.000113243
0.000104399
0.000118295
7.84328e-05
0.000125084
9.89663e-05
0.000122068
0.000208147
0.00011324
0.000118617
0.000888223
0.000276429
0.000619613
0.00149332
9.80296e-05
0.000101335
0.00177927
0.00106741
0.00224329
0.000400092
0.000102033
0.000157797
9.81801e-05
0.000105661
9.75583e-05
7.99915e-05
0.000106647
0.000460429
0.000152571
0.000247514
0.000614289
0.000230631
0.00229498
0.000191291
0.000110041
0.000161084
0.00010113
0.000404825
0.000128311
9.59922e-05
0.000189644
9.57301e-05
0.000123356
9.32336e-05
0.000103878
0.000139789
8.78631e-05
9.78441e-05
9.53219e-05
0.00171971
0.000148066
0.00112132
0.00136109
0.000101493
0.00253763
0.000106824
0.000174283
0.000342717
8.3101e-05
0.000104687
0.00233576
0.00162147
0.000450824
5.97184e-05
0.00162977
0.00274009
9.46232e-05
0.000120501
0.00011922
0.000140269
0.000130282
0.000123789
0.000853429
0.000121498
9.66864e-05
9.02352e-05
0.00011296
0.000344361
0.000579057
0.000698395
0.00247824
0.00295239
0.000134539
0.000102956
0.00165131
9.4536e-05
9.19864e-05
0.000422776
0.000503343
9.7796e-05
0.000163134
5.52853e-05
0.000122856
0.00011246
0.00183915
9.29816e-05
9.29945e-05
0.00265481
0.000460423
8.77907e-05
0.000124423
0.00122735
0.000147506
0.000109081
0.000225664
0.000101548
8.46168e-05
8.3553e-05
0.000131346
0.00010154
0.000494189
0.00189358
0.000370659
0.00028591
0.0013979
0.000110322
9.91999e-05
0.00131381
7.71997e-05
0.000102411
0.000213472
0.000131004
0.00232845
0.000110127
0.000100265
0.000927279
8.58209e-05
0.00246745
0.000218909
0.00225766
8.58692e-05
6.54955e-05
0.0023561
0.00064686
0.000166903
0.00253137
0.000104325
0.000101645
0.0003585
6.2043e-05
0.000204197
0.000111852
0.00217476
0.000112108
8.79773e-05
0.00226755
0.000128607
0.0011777
0.0015502
0.00205639
0.000328903
0.00301236
8.38922e-05
0.00224292
0.000114367
8.44876e-05
0.000225573
0.000142799
0.00015926
0.00012351
9.86e-05
8.22063e-05
0.00229472
0.00211848
0.00264833
0.00226454
9.83714e-05
8.80218e-05
9.52481e-05
9.34396e-05
8.7582e-05
0.00011071
0.00265074
0.00077489
0.000111228
0.000178575
0.000121587
0.000142071
0.000289071
8.74204e-05
0.000101102
9.1345e-05
9.51046e-05
0.00018147
0.000990165
0.00332291
0.00036461
0.00160262
0.000578052
0.000101536
0.00017491
0.00254595
8.4669e-05
8.83848e-05
8.63776e-05
0.000907284
0.00205077
0.00309845
0.00221543
9.26973e-05
0.000107261
0.00677132
0.000134402
0.00084481
0.000109855
7.85023e-05
9.49963e-05
9.34576e-05
0.00100597
9.72697e-05
0.000855204
0.00130601
0.00132431
0.000705144
0.00141787
0.000131764
0.000102478
0.000302576
0.000108788
0.000103141
0.000111021
0.000111666
9.68199e-05
9.80369e-05
0.000123545
0.000116007
0.00010575
0.00323295
0.00227208
0.00243892
0.00011008
0.000111646
0.00272606
0.00146318
0.000105284
0.00423909
8.95214e-05
0.000112481
0.00316737
0.00123783
0.00284575
0.0015077
8.23874e-05
0.00114569
0.00261472
0.00121648
9.62352e-05
0.00131067
0.00341749
0.00243759
0.0017784
7.80237e-05
0.00275516
0.00279605
0.000467788
0.00410846
0.00230494
0.0035422
0.00269814
0.000347066
0.00162182
0.000111691
0.00165247
0.00211315
0.00247112
0.000123222
0.000105018
0.00282196
7.45102e-05
0.000105823
0.00180095
0.000146572
0.00241979
0.0025338
0.000176176
0.000100484
0.000145944
7.62206e-05
0.00227023
0.00269602
0.00163238
0.00171632
0.00233883
9.27213e-05
0.000512408
0.00138759
9.9681e-05
6.83936e-05
9.48365e-05
0.000377408
0.000188478
0.000121478
0.000115189
0.000189581
0.000241343
8.90907e-05
0.000113956
0.00317723
0.00117481
0.000180136
0.00418787
0.000100933
7.46184e-05
0.00206927
7.98867e-05
9.06097e-05
8.6188e-05
0.000191086
0.000116042
9.98149e-05
0.00215084
0.00121757
0.00095787
0.00172352
0.00163868
0.000208118
9.52738e-05
0.00194747
0.00168631
0.000101772
0.000837017
0.000132139
0.000375497
0.000203779
0.00176939
0.000104485
0.00177416
6.82472e-05
0.000133637
9.77347e-05
9.24589e-05
0.00148632
0.000106679
0.00212176
8.93037e-05
0.000630316
0.00182886
0.000102198
0.000586134
0.00224159
0.00242823
0.00136016
0.00198616
5.40828e-05
0.00182951
0.00343262
0.000103696
0.000119056
0.000757656
7.92095e-05
0.00229565
0.000211885
0.00198389
0.000670581
0.00151636
0.00173095
0.00142832
0.00277257
0.00114243
0.000191275
0.0040444
0.00374189
0.00014721
0.00260357
0.000102569
0.000952838
0.00118138
9.57915e-05
0.00342131
0.000102021
0.000110215
0.000152084
9.8085e-05
0.00245142
8.67798e-05
0.000108264
9.78338e-05
8.34373e-05
0.00014603
7.71013e-05
9.0429e-05
0.000135962
0.00481628
0.000939173
0.00018888
0.00159433
0.000800718
0.000101987
0.000230536
0.00174967
0.0025445
0.000793357
0.00081274
0.00218694
0.000580333
0.00567163
0.000548337
0.000263036
0.00162693
0.000107811
0.000100097
8.19955e-05
0.00320595
0.000145438
0.000658261
0.00120943
0.00103188
0.00177017
0.00219361
0.000105862
0.00142831
0.000306758
7.26223e-05
0.000144336
0.000385005
0.000210435
0.000372183
0.000204484
0.00293753
0.00276529
0.00346999
9.96401e-05
0.00409437
8.54764e-05
0.00255598
0.000138781
0.000733637
0.00127392
0.000185885
8.74246e-05
0.000612949
9.76164e-05
0.000162237
0.000121509
0.000128826
0.00027362
0.00118391
9.37603e-05
0.00615087
0.00161735
0.000189951
0.00213396
0.00163525
0.00482812
0.00384966
0.000117548
0.00088622
0.00144366
0.000205524
7.66361e-05
0.00133487
0.00225564
8.00278e-05
9.16943e-05
7.73685e-05
0.000114873
8.79947e-05
0.00109609
0.00128129
0.00145603
0.00146666
0.00021213
0.00287517
0.0012391
0.00011205
0.00022837
6.26292e-05
0.000135099
0.00171755
0.00137097
0.000446038
0.00143454
0.000108276
0.000139877
8.36908e-05
0.000121329
0.000197639
0.000106272
0.00187854
0.00012099
0.000101752
0.00158514
0.00107215
0.00166313
9.06751e-05
0.000120288
9.30568e-05
0.000186084
0.000288604
0.000107125
0.00326468
0.00183792
0.000105222
9.11835e-05
0.00322588
0.000192553
0.000117114
0.000162842
0.000230814
0.00137126
0.00125174
0.00419197
0.00294
0.00242105
0.0001216
0.00166114
0.000303597
0.00204701
0.00151717
0.000101008
0.00236544
9.50733e-05
0.000103321
0.00182718
0.000134581
9.13853e-05
0.00152997
0.0022214
0.002439
0.00180629
9.61324e-05
0.00205147
0.00420276
0.00283115
0.000107537
0.000147131
0.00254336
0.00271027
0.00230525
0.00105344
0.000998825
0.0001119
0.00219753
0.00437646
0.00163297
0.0020367
0.00237123
0.00155409
0.000101351
0.00011999
0.00268408
0.00171736
0.00140196
0.00257277
0.00166653
0.00185563
0.00372799
0.000117383
0.00240848
9.77164e-05
0.00165562
0.000220927
0.00209041
0.00203004
0.000108402
0.00282065
9.90539e-05
0.00116282
0.00149629
9.31279e-05
0.000102466
0.00207694
9.77246e-05
0.000100977
0.000102522
5.16622e-05
0.00233036
9.86811e-05
0.00152713
0.00292644
0.000120696
7.9875e-05
0.00292468
0.000120362
6.1367e-05
0.00336112
5.91937e-05
7.94721e-05
0.000110248
0.000106735
0.00287862
0.00209037
0.0021717
0.000121523
0.000101465
0.00322306
0.000109451
0.00212796
0.00175963
0.000128496
6.16153e-05
0.000354879
0.000468473
0.0025531
7.45922e-05
8.8072e-05
6.8496e-05
0.000982242
0.000110389
0.00299906
0.00257985
0.000330183
8.85376e-05
0.0015633
0.000104308
0.000111279
7.03518e-05
0.00210362
8.58321e-05
0.00172848
0.00351507
9.41391e-05
0.000162574
0.00031926
0.000120776
0.0014812
7.34457e-05
0.00174869
0.000169232
0.00011676
9.77154e-05
0.00041534
9.07138e-05
0.000118978
9.22894e-05
0.00202502
9.07513e-05
7.04183e-05
8.7316e-05
9.83299e-05
0.000117348
0.00137731
0.0033066
8.09755e-05
8.55108e-05
0.00128807
7.05406e-05
0.00305443
0.000142036
6.87774e-05
0.00455709
0.00407456
0.00352276
0.000108915
0.000104927
0.00206081
0.0036748
8.94771e-05
0.0030756
8.13502e-05
0.00216102
0.000982785
0.000158844
0.00105814
0.00169549
0.0044108
0.00379395
0.00142869
9.15809e-05
0.000100395
7.58662e-05
0.00190337
0.00220863
0.000112587
0.00218778
0.000208135
0.00017098
8.96793e-05
0.00129893
0.00339527
0.00295525
0.000102966
0.000175834
0.0020652
9.40869e-05
0.00139284
0.000113605
0.000137258
9.06223e-05
0.00202983
0.00126531
0.0017346
9.56025e-05
0.000110544
0.000118468
0.00403209
0.000116173
0.0023142
8.84553e-05
9.03112e-05
0.00247797
0.00258135
0.000134957
0.000100469
0.00458146
9.16455e-05
0.000104863
0.00348262
0.00380311
0.000263768
0.00156644
0.000197085
0.00378231
0.00503313
0.0022086
0.000898552
8.67742e-05
0.00166615
0.000265857
0.00190479
0.00606373
0.00112025
0.00123204
0.00152114
0.00129455
0.00204216
0.00011925
0.00133509
0.00189954
0.00241166
0.000217832
0.000590926
0.00284906
7.75798e-05
0.0016356
0.00225988
9.75415e-05
0.00108533
7.14052e-05
0.00361547
0.00235883
0.00152001
0.0011113
0.00138095
0.000181627
7.58557e-05
0.000108062
0.000282305
0.00319854
9.07309e-05
0.00157671
0.0024169
8.35504e-05
0.000104758
0.000109301
9.36011e-05
0.000125488
0.000113028
0.000820131
9.6559e-05
0.00206717
9.39337e-05
0.00290655
7.9198e-05
0.000769678
8.96411e-05
9.30716e-05
0.00218043
7.91951e-05
7.83178e-05
0.000117985
8.88366e-05
0.000211766
0.00183078
0.00173401
0.00310369
0.000559671
9.7807e-05
9.47577e-05
9.24273e-05
8.37137e-05
0.000211542
9.42101e-05
0.000111858
0.000403366
0.000135314
0.00168549
8.35466e-05
9.68675e-05
9.50945e-05
0.000103834
0.000136672
0.000159712
0.00321621
0.000103157
0.000139703
0.0015046
9.52924e-05
0.000674235
0.000168372
0.000680823
0.00080599
0.00053095
0.000121537
0.000214046
0.000109977
0.000106556
0.000103566
8.94804e-05
0.000106224
0.000407585
0.000122352
0.000110765
9.95532e-05
9.16055e-05
0.00090968
0.000113128
0.00170013
0.000105901
0.000315027
0.000101571
0.000107231
0.000478214
0.000622602
0.000308155
0.000124833
8.57042e-05
8.40621e-05
0.00106923
0.000969106
0.000102048
0.00181128
0.00130754
8.17482e-05
0.000196019
0.000258865
0.0029909
0.0013839
9.16765e-05
0.000114293
0.00367931
0.000106093
0.00138147
9.22885e-05
0.000142975
0.000103921
8.10049e-05
0.000131522
0.0001362
0.000133513
0.000105545
5.51078e-05
0.00235956
7.64011e-05
0.000137645
0.00021298
6.18499e-05
0.000112646
0.00169636
0.00011944
0.000828869
0.00365721
0.00342069
0.000105125
6.01957e-05
0.000108522
9.05694e-05
0.000736392
0.00010254
0.000110034
0.00117933
0.000131966
9.42054e-05
0.000106858
0.000106246
8.98095e-05
9.16239e-05
0.000117353
0.000149574
0.00161266
0.000369479
0.00168286
0.000105534
0.000292415
6.61111e-05
0.000102122
0.00132006
6.80104e-05
8.93512e-05
0.00344181
6.38009e-05
0.00140033
8.49871e-05
6.56765e-05
0.000245058
0.00328033
0.00132131
0.00281902
0.00138056
9.77137e-05
0.00333259
0.00260055
9.81712e-05
0.00240777
0.000106041
0.00336289
0.00253601
0.000111486
0.00173267
0.00319844
0.00145703
0.000107953
0.00153944
0.00294115
0.000209695
9.90118e-05
0.00183773
0.000105565
9.85454e-05
9.68296e-05
0.000108155
0.00293802
0.000180915
0.000166975
8.86301e-05
0.000111168
0.000118639
0.000239907
0.000105257
0.00450334
0.000104776
0.00032216
0.000133562
0.00012412
0.00114137
9.70694e-05
9.96054e-05
0.00010138
9.94549e-05
0.00010612
9.95946e-05
0.000144099
0.00010438
0.000259861
0.000135498
0.000172177
8.52442e-05
0.000104703
0.00127694
8.84458e-05
0.000159461
0.00161599
6.58024e-05
9.93032e-05
0.000126623
8.49577e-05
9.72935e-05
0.000106789
7.10315e-05
8.76766e-05
0.000196264
0.000438601
0.000150319
0.000121393
0.000127654
0.000125337
0.000129386
0.00058311
0.000117146
8.59604e-05
0.000349144
0.00015974
9.42842e-05
0.000526473
0.000108876
0.00298252
0.0014716
9.0799e-05
0.000191487
0.000223901
0.00227492
0.00123866
0.000118607
0.000100078
8.73398e-05
0.000101584
0.000132802
0.000123239
9.35835e-05
9.41369e-05
9.78541e-05
0.00172869
7.33733e-05
0.000100294
9.50701e-05
0.00274512
0.00201275
0.00017487
0.00315586
0.000355423
8.93396e-05
0.000257227
9.34978e-05
0.000243139
9.22354e-05
0.00125147
8.54387e-05
0.000102315
0.00378757
0.00345495
0.000115711
9.60577e-05
0.00396182
0.000121352
0.00253879
0.000116791
8.78869e-05
0.000116006
9.65918e-05
0.00115094
0.00010984
0.00117926
0.000102866
8.85183e-05
0.00127023
0.000101587
9.68092e-05
0.0001913
0.00141173
0.000105483
0.00012282
0.00121956
8.19651e-05
0.000705182
0.00141846
0.00282006
5.51259e-05
0.000119498
0.00216854
0.000958396
0.00191533
0.00197731
0.00013236
0.00010957
0.000152194
0.00026921
0.000305843
0.00180878
0.000110686
0.000130572
0.000106031
0.0018247
0.00010652
9.09079e-05
9.93596e-05
0.000121536
0.000612157
0.00047268
0.00209213
0.00148393
0.000119221
0.00204657
0.001828
0.00156356
8.79595e-05
0.00014605
0.00408198
0.000155567
0.00181276
0.000295976
0.000167231
9.31558e-05
0.00214618
5.2584e-05
0.000111006
9.67973e-05
0.000174898
0.00246744
0.00159425
0.00231318
0.00180127
0.000516165
9.87143e-05
9.81304e-05
0.00174264
0.000109572
9.87843e-05
8.68066e-05
0.000567938
8.87628e-05
0.00178871
0.000136299
0.00143903
0.00139551
0.00318563
0.000114688
0.00307886
0.00225143
0.000106198
0.00133361
0.00225985
0.000275265
0.00201152
9.88643e-05
0.00189485
0.000196326
0.00028334
0.00321199
0.00230113
0.000120143
0.000124348
0.00245377
0.00159167
8.69169e-05
9.54866e-05
0.00203147
8.81673e-05
9.78039e-05
0.00034927
0.00183206
0.000105763
8.99272e-05
0.0018944
0.000105836
0.00026433
0.000945521
0.00011698
0.00186282
9.11571e-05
0.000655379
0.00314081
0.00341813
9.58705e-05
8.83422e-05
8.66639e-05
0.00188033
0.000169092
0.000694777
0.000179294
0.00180168
0.00151702
0.000114701
0.000240162
0.00100542
0.00265671
0.00254619
0.00129859
0.00436845
9.62143e-05
0.000115655
9.97514e-05
0.000125585
0.000135244
8.18894e-05
0.000307315
0.000105505
9.55406e-05
0.000234344
0.000105163
0.00307741
0.000123805
8.21638e-05
9.6985e-05
0.000132671
9.4441e-05
9.23653e-05
0.00297038
0.000370571
0.000103084
0.000293245
7.53135e-05
0.000120013
0.000103548
0.000130482
7.98982e-05
0.000121124
0.000141116
0.00459111
6.17575e-05
0.00131956
0.000612164
0.00323581
6.27332e-05
0.000677348
0.00278008
6.88866e-05
0.000101821
0.00272565
8.47537e-05
0.000126973
6.38631e-05
8.82648e-05
0.000102355
0.00010316
7.19856e-05
0.00010467
0.000205999
9.14256e-05
9.7405e-05
0.0012597
5.99709e-05
9.83519e-05
6.01738e-05
0.000124195
0.000154641
0.000131746
0.000100901
0.00249756
0.000106346
9.45754e-05
7.46148e-05
0.000161406
7.95638e-05
0.000103763
8.18407e-05
0.00243576
0.00571556
0.000115793
0.00177998
0.000154979
0.000100565
8.33817e-05
0.000971242
0.000178173
0.000100013
0.000847395
9.68357e-05
8.62755e-05
0.00300626
7.00692e-05
0.00349909
0.000704321
0.000123494
0.000211038
7.40696e-05
0.00267222
9.07531e-05
0.000242523
9.288e-05
9.13863e-05
0.000106073
8.5661e-05
8.93984e-05