/*--------------------------------*- C++ -*----------------------------------*\
| =========                 |                                                 |
| \\      /  F ield         | OpenFOAM: The Open Source CFD Toolbox           |
|  \\    /   O peration     | Version:  v2012                                 |
|   \\  /    A nd           | Website:  www.openfoam.com                      |
|    \\/     M anipulation  |                                                 |
\*---------------------------------------------------------------------------*/
FoamFile
{
    version     2.0;
    format      ascii;
    class       volScalarField;
    location    "5";
    object      CH4;
}
// * * * * * * * * * * * * * * * * * * * * * * * * * * * * * * * * * * * * * //

dimensions      [0 0 0 0 0 0 0];


internalField   nonuniform List<scalar> 
108993
(
2.61914e-35
1.55373e-18
1.24374e-36
2.50338e-109
9.3609e-106
1.21025e-81
7.94643e-10
4.82262e-131
6.87132e-80
3.33768e-35
1.29068e-71
0
1.00991e-107
1.03211e-76
1.56205e-68
5.22485e-14
6.77102e-27
0
2.30271e-104
1.01282e-34
1.48749e-103
2.26359e-90
8.38593e-63
0
0
3.55437e-63
0
8.57755e-40
4.7401e-38
2.41063e-69
5.36105e-95
0
0
1.17698e-25
1.12288e-104
2.39233e-97
2.39903e-101
4.87472e-91
2.42482e-06
8.02286e-07
0
2.2554e-83
0
6.50624e-113
2.21953e-17
5.43325e-06
0
8.56718e-11
3.64858e-40
9.84076e-52
0
1.68049e-13
1.4938e-22
1.66934e-106
3.4475e-60
1.55545e-57
1.54754e-103
4.45027e-91
1.5474e-89
3.2045e-89
4.86495e-84
1.72539e-82
9.64989e-70
8.48869e-109
0
1.92515e-48
1.36794e-109
7.80047e-95
1.13697e-60
3.5562e-09
8.53923e-74
1.18212e-99
1.05879e-94
1.96953e-98
4.57172e-34
5.84416e-86
1.74435e-109
8.39212e-24
1.83906e-106
5.39639e-111
1.9327e-52
4.20725e-53
1.65341e-97
2.13426e-87
2.38626e-65
1.39831e-86
0
1.46144e-75
1.95209e-100
7.02851e-108
2.06714e-99
1.02667e-92
4.48723e-101
6.10789e-125
0
0
2.88523e-92
1.50611e-76
8.93854e-97
3.624e-102
7.78955e-95
1.45571e-86
5.4364e-76
0
1.93516e-80
0
5.89962e-66
7.91185e-92
0
9.27462e-08
3.05306e-26
0
5.37192e-25
3.22799e-16
7.72143e-87
2.53337e-09
4.46806e-100
1.88903e-59
2.79176e-13
1.01529e-90
9.94368e-61
1.01223e-78
4.76512e-08
2.45907e-46
1.73599e-95
2.38773e-22
7.46069e-41
1.9642e-47
2.36666e-79
3.26394e-82
1.47817e-57
2.29517e-81
1.66218e-77
1.19921e-11
5.86769e-93
3.02552e-47
8.01683e-78
0
4.26823e-67
1.35395e-70
3.92435e-48
7.32325e-90
2.7834e-23
5.60193e-80
4.49892e-81
2.36958e-98
0
2.06659e-06
0
3.17878e-09
5.46881e-09
0
5.33642e-38
5.5443e-09
0
1.03121e-27
2.24922e-57
1.74439e-93
2.72828e-98
2.50615e-10
4.62241e-09
6.76912e-100
5.18748e-94
0
0
3.07489e-15
0
0
1.97557e-107
7.11286e-85
0
0
3.7574e-15
1.92244e-88
7.82835e-51
2.93595e-60
6.13285e-10
2.49442e-108
8.37051e-65
6.06465e-101
7.83543e-36
2.9667e-90
5.02188e-97
4.22097e-50
1.55009e-64
0
0
2.64161e-70
7.30795e-60
4.61235e-49
0
1.24812e-97
0
2.58448e-10
1.57848e-86
2.41703e-33
2.28138e-42
2.92994e-84
1.52136e-84
3.99943e-51
7.88819e-98
5.08363e-11
4.21658e-94
6.48349e-88
4.89206e-10
2.84663e-11
4.14636e-61
3.01969e-07
0
0
2.76003e-10
9.20658e-91
9.8816e-10
1.49145e-07
0.000257789
0
1.4698e-61
1.51345e-61
1.54813e-94
1.96205e-87
7.9375e-60
8.38457e-09
1.03282e-22
1.45939e-10
0
4.09734e-108
1.98144e-95
2.98024e-54
9.12353e-09
6.22133e-69
2.08724e-08
1.03462e-67
1.35144e-106
2.76274e-43
2.14906e-93
0
3.37912e-88
6.90153e-84
4.47331e-09
8.30943e-94
1.4779e-100
1.68237e-61
0
3.94276e-95
2.31946e-85
2.41428e-12
1.57825e-07
7.97984e-08
6.00973e-91
1.30796e-90
5.27785e-89
2.86706e-98
2.00275e-74
4.94721e-88
2.98042e-91
6.59135e-92
2.14496e-89
6.63231e-57
7.37052e-86
0
2.59478e-59
2.28869e-35
2.82294e-24
5.53021e-21
0
8.47178e-55
1.45873e-59
2.25011e-42
2.9288e-83
1.77624e-69
1.1718e-115
1.70295e-41
8.47899e-08
9.20912e-06
3.02314e-06
1.2261e-70
2.69204e-98
2.2035e-07
0
2.48289e-40
1.35455e-41
2.34635e-06
6.86099e-06
7.87798e-79
3.53719e-74
1.04532e-35
5.46141e-106
2.60104e-44
3.77599e-46
8.12529e-08
4.54425e-64
7.37988e-67
2.23796e-43
6.2174e-66
1.17755e-78
4.60378e-59
1.51057e-89
2.49272e-62
2.1364e-11
7.30362e-108
7.74467e-10
1.73449e-09
6.29729e-73
5.81697e-110
5.43089e-75
6.70286e-39
5.58763e-100
8.96478e-29
1.55884e-35
1.24052e-07
0
4.8673e-84
2.62996e-33
4.48936e-86
6.49546e-32
9.09712e-09
2.6158e-112
1.51907e-34
1.49755e-06
1.47736e-72
6.92574e-27
1.26824e-111
4.80347e-43
1.91819e-45
2.57681e-78
6.39216e-08
2.87967e-09
3.59242e-08
2.55932e-86
3.00528e-31
8.97258e-64
7.00928e-08
1.32516e-06
1.68863e-68
9.80841e-08
6.21902e-75
0
0
2.04983e-73
2.0898e-77
0
3.56669e-12
1.73209e-47
1.09685e-64
1.05357e-72
8.93499e-64
1.22125e-50
3.69694e-75
1.04984e-122
2.16326e-49
1.54404e-71
0
4.58471e-07
9.26683e-08
0
0
1.74831e-62
2.38504e-07
1.88618e-83
9.0767e-106
9.0945e-32
1.13184e-48
2.95523e-51
2.56837e-50
1.7141e-35
1.16652e-43
8.90916e-53
1.60076e-77
0
0
1.36913e-19
5.40898e-40
2.31386e-49
1.9853e-08
1.74609e-41
2.75094e-10
1.37787e-45
2.69919e-69
1.31972e-10
9.93102e-82
1.9556e-11
1.42836e-10
7.94495e-46
8.9095e-10
8.22914e-58
2.44606e-61
1.73703e-39
0.000250369
3.27509e-46
1.9621e-07
8.26248e-11
6.40064e-62
7.70024e-11
0
6.6894e-08
9.10946e-43
4.01521e-06
2.61865e-107
1.26061e-19
1.36388e-80
1.45993e-41
1.16274e-07
1.17122e-08
1.60667e-91
1.21234e-66
0
2.17168e-61
6.88136e-81
4.4469e-31
0.000343567
0
3.87337e-56
1.77357e-05
1.5537e-69
0
2.46883e-79
5.73629e-08
5.21026e-09
6.61359e-08
8.45416e-97
0.00271066
2.2025e-21
8.95762e-07
0
7.40134e-100
5.03546e-09
2.93316e-88
1.218e-08
2.91833e-10
8.71665e-118
0
1.01814e-05
0
1.07631e-82
8.08599e-92
5.36521e-37
3.41494e-86
2.74742e-58
4.44836e-97
3.4456e-80
2.52924e-67
1.67944e-55
7.08645e-51
1.63533e-78
1.89287e-08
8.42563e-17
3.41815e-21
6.20602e-16
3.72637e-54
0
1.12108e-67
0
1.01359e-53
2.69347e-32
4.96552e-95
6.76671e-72
0
0
1.06448e-70
0
3.55158e-12
4.65084e-34
4.66384e-09
6.3689e-10
6.30756e-14
5.89796e-42
2.36836e-44
8.56931e-09
6.21306e-41
2.34478e-38
1.8725e-10
5.83265e-96
0
7.07581e-29
5.41119e-100
2.03527e-33
3.56395e-82
4.00955e-10
5.64548e-08
1.68699e-12
4.53473e-74
7.80847e-77
7.22025e-78
1.66926e-54
3.45855e-26
2.21396e-42
4.7661e-39
2.26173e-42
1.00837e-16
8.70789e-25
3.08588e-72
1.57147e-42
4.7789e-20
9.50996e-39
9.48233e-13
7.26243e-71
3.25471e-25
8.99278e-66
1.50103e-49
2.57946e-26
9.52193e-90
1.58862e-75
5.8684e-74
2.73841e-45
2.71653e-22
0
1.57617e-51
2.251e-78
2.67009e-06
2.40612e-49
2.90127e-16
9.33535e-21
1.41906e-79
4.48059e-45
8.98176e-52
2.01958e-88
2.18934e-67
4.22653e-52
1.15047e-26
2.91369e-29
3.13792e-64
2.4291e-65
1.33917e-23
3.74904e-29
8.95672e-40
1.29128e-09
0
4.6706e-55
2.56274e-09
1.21311e-27
2.19564e-59
1.93787e-87
3.63801e-10
1.92133e-64
3.71e-94
0
3.8531e-37
7.04065e-82
3.58093e-22
9.19283e-08
2.46054e-66
4.66552e-07
8.90097e-111
4.38817e-66
0
1.49427e-63
7.59116e-71
7.04017e-10
9.95957e-74
6.00357e-103
4.45712e-09
8.53603e-57
1.69333e-05
2.32697e-70
8.10285e-69
1.88557e-67
7.08435e-102
5.21818e-34
0
6.76876e-29
4.09748e-29
9.66016e-83
2.84598e-44
2.74808e-26
7.36455e-09
5.60024e-08
2.86028e-59
1.70552e-78
9.96977e-39
0
3.16538e-44
1.69898e-24
0.175913
1.82261e-08
9.77127e-08
6.08758e-28
1.01951e-77
5.20182e-09
6.84828e-10
6.0253e-10
2.24812e-34
5.07327e-52
3.67687e-46
8.97034e-87
6.07698e-53
9.20689e-19
3.06357e-06
1.94709e-08
0
0
1.8738e-36
1.65822e-83
4.89749e-26
1.01703e-49
6.54805e-06
6.29452e-69
5.28585e-77
3.86013e-86
9.67723e-12
1.07061e-22
6.39665e-45
0
0
4.82778e-34
3.80125e-76
5.40029e-84
0
5.07241e-85
4.44897e-27
9.86116e-51
1.24231e-05
5.97752e-43
7.89227e-10
2.91386e-47
1.90811e-32
1.71273e-51
3.31777e-20
6.95664e-87
9.2337e-08
1.57617e-105
7.03553e-12
5.10995e-102
2.74963e-43
2.60594e-07
1.62764e-19
4.55437e-80
7.90155e-74
2.68404e-09
5.70659e-05
3.41996e-21
1.61292e-07
5.83651e-34
8.52791e-11
7.98775e-11
1.1387e-21
2.53326e-72
5.88322e-82
1.0562e-07
5.17657e-11
3.1845e-20
2.02813e-62
6.85988e-19
1.19618e-64
4.52726e-19
1.03379e-79
7.77963e-21
3.24515e-44
2.34476e-19
3.51624e-22
5.54755e-21
6.34272e-22
1.6424e-10
5.92365e-08
5.8107e-08
7.65873e-09
5.45782e-25
9.94019e-07
8.25378e-08
2.30746e-08
1.11776e-07
4.82353e-08
0
9.94324e-28
1.54252e-66
0
1.85372e-43
1.92242e-24
6.60139e-29
2.50731e-08
2.88976e-07
1.06926e-27
3.80011e-20
1.17371e-18
6.99803e-08
1.26295e-07
6.18509e-90
3.02916e-13
2.86908e-09
7.51828e-80
2.63869e-06
1.58302e-12
5.84403e-09
9.90222e-15
1.11747e-23
6.9581e-07
2.78721e-24
4.34301e-07
7.35586e-10
2.60167e-09
4.71722e-08
1.25165e-89
2.87186e-43
1.26191e-21
2.7567e-45
1.63098e-40
0.00104842
1.74388e-15
3.46081e-07
7.35382e-14
5.58667e-06
9.544e-21
7.37211e-76
6.56988e-108
0
2.5506e-21
2.20676e-97
5.41913e-21
0
1.97076e-82
0
8.68835e-19
5.50431e-07
2.0511e-05
2.68164e-48
1.07194e-07
8.9868e-39
1.95313e-25
1.87105e-12
0
5.33995e-24
3.63951e-25
7.15089e-18
3.89673e-15
9.42864e-13
3.87576e-50
7.7548e-17
8.06669e-15
7.07316e-30
1.76842e-10
1.08274e-103
3.90327e-16
6.17303e-17
3.74699e-13
9.94383e-16
0
4.43684e-107
2.02205e-09
7.16254e-110
3.41433e-42
5.74956e-13
5.61359e-64
3.03943e-13
2.83666e-05
4.15244e-07
2.78855e-26
4.24942e-21
5.8635e-21
8.73503e-22
6.72467e-24
4.39951e-15
1.87635e-60
0
1.83044e-109
5.20643e-25
1.25251e-112
7.58284e-16
3.6856e-108
6.77348e-20
6.86683e-16
9.52456e-40
1.2968e-20
5.07708e-106
1.06283e-23
1.60768e-36
4.55656e-09
4.81865e-55
1.36804e-17
7.04602e-08
0
2.04748e-51
9.72232e-33
1.19654e-09
1.03657e-91
4.82774e-09
1.21174e-07
5.52393e-51
1.94965e-31
0.000396242
5.99665e-09
1.22183e-33
7.5717e-51
0
1.31045e-32
4.69177e-34
5.20004e-25
3.97059e-55
1.13502e-16
0
2.33386e-74
1.47339e-09
1.58601e-100
2.7287e-06
6.43642e-84
3.15014e-63
6.94424e-06
2.94593e-23
2.75837e-08
1.08049e-43
8.72658e-11
4.23308e-66
1.11584e-17
1.9792e-23
3.61961e-95
1.26517e-41
1.66561e-26
3.4197e-76
0
0
5.58709e-53
1.21027e-57
4.9647e-32
3.97004e-48
2.17837e-104
6.2155e-09
1.55735e-65
0.000348334
2.92998e-39
4.00361e-70
0.00770949
8.33881e-35
0
2.70213e-43
2.70225e-60
0
0
3.02347e-14
3.54101e-37
1.1624e-09
1.46706e-09
5.79464e-16
7.53226e-10
4.65675e-07
1.35169e-12
1.48287e-30
1.42765e-13
5.1737e-38
1.12433e-27
6.2273e-09
1.39607e-06
1.61197e-27
8.35206e-45
1.45301e-30
1.38843e-09
4.2156e-25
1.19575e-34
1.48262e-09
1.72873e-39
1.0583e-85
6.34524e-06
4.86907e-31
2.01173e-05
1.20648e-28
1.1482e-05
7.52683e-30
3.76437e-19
0
1.53783e-10
5.10304e-15
5.9593e-69
4.87815e-78
2.51941e-80
1.05051e-08
3.80832e-28
6.56605e-06
0
6.22765e-85
2.24782e-51
2.82357e-09
1.72331e-32
4.63735e-09
1.64261e-100
5.76151e-53
2.24542e-14
9.94427e-07
7.83043e-82
4.90653e-10
1.17591e-17
3.46194e-09
0
6.88503e-10
3.88341e-08
6.18468e-06
1.89215e-21
9.47282e-16
7.25872e-41
0
2.44017e-96
0
1.9526e-05
1.11101e-09
3.63252e-86
4.02352e-80
1.47466e-12
2.24242e-21
0
2.21948e-79
5.16678e-106
4.44732e-17
2.0204e-09
0
1.28317e-05
1.75664e-17
1.24503e-30
0
2.18373e-88
1.67132e-70
0
1.33823e-09
6.13559e-29
7.511e-11
3.67049e-125
1.44118e-83
7.07314e-20
2.30473e-12
0.002035
3.14647e-49
0.00118279
1.17515e-12
2.5036e-21
6.76028e-23
0
3.62078e-21
0
1.21066e-44
3.65361e-96
4.29647e-23
6.24462e-37
3.07495e-12
4.09815e-61
0
6.33781e-11
1.09576e-84
9.4742e-19
1.18668e-21
2.14554e-23
6.13573e-26
3.46249e-66
1.20753e-09
1.44019e-71
1.07799e-08
5.00665e-23
1.86276e-30
2.0101e-85
7.40323e-33
4.31928e-12
1.34939e-82
1.08969e-26
0.0010276
4.42119e-20
2.86082e-12
6.21655e-72
1.78327e-29
7.87711e-10
3.09757e-09
0
4.95961e-12
1.03592e-07
6.20131e-28
3.47125e-28
1.19358e-26
2.13924e-33
8.54149e-37
3.93296e-06
1.28501e-17
4.65424e-07
3.79246e-08
5.46988e-22
3.48555e-17
9.72776e-33
5.50644e-25
2.20361e-07
6.11391e-09
8.36352e-28
1.2455e-92
3.88618e-69
3.95842e-07
1.69175e-99
2.91382e-73
6.03862e-96
1.78812e-06
0
7.54561e-39
9.23068e-43
0
1.01137e-45
0
6.82624e-36
2.21427e-12
1.67411e-45
6.84313e-50
7.47878e-42
3.82545e-91
5.9286e-06
1.02494e-84
1.55438e-40
5.93458e-68
1.09112e-48
0
1.00246e-07
4.79853e-11
9.35722e-66
3.90956e-41
0
1.68692e-30
5.13525e-18
3.15777e-24
5.00517e-60
0
2.52463e-10
2.57224e-86
3.62001e-10
1.30099e-07
2.39459e-09
0
0
2.41416e-37
1.03312e-77
1.91294e-39
9.0617e-21
0
7.48105e-86
1.78375e-37
3.21332e-74
4.67116e-08
2.60261e-39
7.23985e-25
2.61518e-86
8.40212e-38
2.27624e-23
7.51035e-12
5.68729e-32
2.25434e-48
2.27104e-38
8.91599e-65
1.10059e-31
0
3.58807e-76
3.8631e-113
4.13305e-77
2.96458e-06
9.84296e-52
3.53575e-15
5.62987e-89
2.50008e-13
2.97195e-16
3.77276e-79
8.70058e-07
7.27668e-31
1.96615e-25
3.15088e-24
1.05441e-06
9.15816e-32
1.81035e-11
6.03702e-16
8.84923e-07
2.02916e-50
6.63334e-82
0
2.59571e-17
7.01007e-14
0
5.1873e-10
1.21127e-73
7.55273e-25
0
2.51977e-10
3.62151e-28
5.56582e-11
4.1435e-31
1.00765e-12
1.20011e-17
3.84634e-05
1.25315e-12
6.16378e-14
1.27202e-60
3.26682e-109
0
7.97776e-56
0
4.12132e-103
6.24012e-22
9.35443e-09
3.85209e-43
7.17612e-06
5.42105e-19
8.27392e-51
6.30772e-56
1.45817e-16
3.14702e-10
0
3.1848e-18
3.34716e-37
1.98082e-40
0
4.14538e-27
5.69109e-10
1.26336e-12
0
4.28718e-10
2.83893e-81
5.65128e-44
3.74278e-38
1.00812e-87
1.22606e-91
2.41545e-47
0.117931
8.47362e-22
1.89849e-105
3.21939e-41
6.97347e-97
2.65733e-55
1.55955e-71
1.02232e-101
1.90048e-23
2.84314e-35
1.14363e-39
1.92493e-98
9.50812e-43
1.55882e-43
0
6.28888e-38
0
4.97003e-55
7.48272e-74
2.78727e-23
1.78447e-36
9.44771e-09
2.57565e-20
3.1268e-29
4.46861e-07
4.21111e-38
2.71332e-106
7.95239e-23
6.09719e-58
5.08129e-57
3.87213e-35
2.89436e-41
1.13564e-34
1.91137e-53
2.22586e-11
6.62294e-55
2.99371e-30
7.31369e-46
6.50122e-44
8.98497e-37
6.28635e-56
1.74878e-07
3.55432e-09
0
1.51906e-66
1.75828e-65
3.3911e-37
8.10254e-31
1.72458e-76
3.07274e-08
2.43039e-86
8.3634e-72
0
2.62618e-73
0
0
1.14549e-15
2.0242e-25
3.32574e-08
1.03404e-24
7.23292e-25
8.22928e-21
4.95159e-11
1.70369e-20
3.18469e-18
7.917e-52
6.54435e-25
2.74881e-10
1.00449e-112
1.00897e-18
1.67643e-66
4.21077e-68
0
1.05527e-07
1.95998e-12
1.02461e-107
1.40257e-07
9.08758e-78
7.29752e-09
5.1135e-09
2.11561e-63
2.49768e-41
3.74341e-36
3.25289e-31
6.92608e-34
3.18402e-29
1.72335e-103
1.63528e-10
7.41066e-08
2.79165e-11
1.75411e-65
1.21019e-117
1.88067e-10
6.34796e-78
2.14813e-89
0
0
1.08977e-74
0.000180196
3.03741e-08
8.5505e-08
0
5.99426e-21
1.61577e-63
2.0373e-09
0
7.77839e-53
0
6.21584e-08
4.35695e-20
3.0367e-09
8.66485e-10
3.23456e-10
1.07269e-09
3.12702e-44
8.96355e-46
4.465e-24
2.49009e-78
3.28018e-25
0.10399
1.49019e-75
1.50222e-26
1.96202e-67
1.49926e-09
7.01643e-54
2.07738e-70
1.92888e-20
4.45326e-32
1.6594e-12
6.44448e-08
5.03329e-69
6.49917e-27
2.40768e-31
7.72963e-10
1.00586e-71
1.94379e-27
7.41758e-84
2.17496e-20
0
1.82244e-11
2.44861e-16
1.08305e-72
1.47164e-08
0
0
8.67023e-79
1.34801e-32
7.70424e-09
0
1.09047e-19
3.55534e-27
0
3.17222e-09
5.30412e-71
4.2183e-72
2.55632e-15
2.22027e-41
7.37619e-09
1.39936e-09
6.5455e-10
1.988e-11
1.00024e-09
1.88141e-89
4.65923e-09
6.74631e-09
0
7.69811e-56
0
8.7211e-28
1.26717e-39
5.99126e-74
7.36951e-75
1.82258e-49
5.9888e-88
8.8095e-36
5.35691e-38
1.03217e-10
6.41769e-80
1.79466e-42
9.75153e-66
2.99183e-25
1.8074e-62
5.6738e-66
4.48038e-57
2.15567e-25
1.17336e-09
1.94944e-64
5.07052e-09
9.02037e-20
3.2081e-55
5.0021e-23
2.71055e-43
4.21832e-15
3.22888e-84
8.6249e-34
5.77005e-19
2.59393e-63
4.54808e-27
3.65875e-26
1.28715e-83
3.01431e-26
2.86069e-08
3.88679e-27
3.96309e-24
2.32904e-25
5.05838e-14
3.56998e-18
2.9042e-24
1.44401e-66
0
1.09809e-55
1.6535e-23
5.53183e-77
3.32102e-98
8.1212e-25
3.53411e-58
2.14198e-39
7.00182e-29
2.33205e-08
3.57123e-25
3.29864e-13
5.03863e-07
5.67818e-71
6.43458e-08
6.18875e-89
4.95687e-55
1.16032e-60
5.59311e-56
1.48049e-81
5.11446e-07
4.23228e-07
3.17555e-10
8.01132e-20
9.44984e-08
1.2128e-08
2.21077e-67
1.20772e-36
4.90298e-116
1.03125e-21
6.54384e-23
3.97597e-33
1.58836e-08
2.64281e-89
1.64359e-93
8.92528e-32
1.56855e-15
7.56479e-62
0
3.18488e-24
9.2712e-05
6.71709e-06
1.57248e-14
1.82884e-88
3.2761e-12
3.96429e-52
4.6719e-33
4.89195e-13
8.7706e-27
5.14542e-28
9.44473e-75
2.59571e-33
1.0263e-24
1.85549e-16
8.97208e-08
3.9872e-24
4.53306e-24
5.29905e-09
1.15786e-10
1.12661e-33
3.25152e-16
0
4.76208e-36
4.26477e-30
1.31727e-21
8.10232e-17
0
0
1.09406e-24
5.51159e-21
2.22767e-12
4.19207e-07
2.64595e-23
1.01629e-22
3.46776e-07
1.09301e-47
9.32963e-73
5.18859e-07
1.00955e-45
9.71702e-100
3.98743e-44
2.90969e-42
2.26248e-05
4.73463e-65
7.02576e-65
2.01346e-09
4.64932e-42
6.36772e-06
6.36336e-46
2.62157e-07
5.69602e-44
1.21919e-48
9.35946e-08
2.83332e-11
5.26828e-49
5.65784e-06
1.91564e-22
1.94478e-31
4.88345e-14
8.90826e-83
5.87288e-80
0
6.02369e-07
2.56835e-18
1.04315e-38
2.26138e-08
9.61732e-62
7.11182e-09
2.9157e-07
7.8759e-08
1.05047e-10
1.95878e-07
7.36091e-54
0.00730377
1.69014e-49
3.67813e-47
1.28811e-41
4.84827e-94
5.81913e-88
0
2.12073e-80
1.39061e-84
5.5446e-08
5.94164e-13
1.14611e-09
4.51667e-09
0
7.83194e-61
1.10459e-65
0
0
0
1.84694e-09
7.59878e-09
1.47917e-63
3.72205e-57
1.02645e-49
2.39708e-14
2.14684e-19
5.32074e-43
1.32818e-30
2.79398e-54
2.88062e-47
5.66056e-50
1.08537e-10
5.29229e-05
3.35658e-12
4.42145e-07
1.36714e-08
1.09643e-45
4.71119e-18
3.91583e-13
2.7868e-52
1.86093e-56
5.4397e-51
3.03212e-08
2.96421e-07
6.2638e-09
2.74584e-06
2.04567e-65
1.33663e-93
1.81731e-05
2.49619e-60
7.36574e-11
4.2064e-49
3.77644e-57
1.98921e-21
1.55202e-63
6.75772e-11
2.04761e-70
5.2779e-12
3.27685e-07
2.31227e-06
2.8849e-12
6.7673e-11
1.29302e-11
1.49765e-92
8.31526e-11
2.32303e-50
1.76941e-60
4.45794e-63
1.16527e-61
1.0589e-78
1.35161e-57
4.21133e-36
1.04842e-83
1.0934e-17
0.000928505
3.19565e-09
1.46328e-07
5.79751e-76
1.63042e-64
1.51373e-05
2.66779e-13
4.03832e-64
1.36342e-09
4.12703e-59
4.14364e-59
2.68177e-09
1.61956e-07
2.44025e-06
4.27229e-07
2.52715e-55
7.74331e-09
8.337e-06
1.40301e-07
3.88352e-65
3.35423e-07
2.42982e-09
2.82759e-09
1.8025e-07
0
6.43886e-06
2.37871e-09
1.04104e-60
1.28071e-09
2.90077e-08
1.65869e-09
1.84765e-10
2.46296e-10
2.14225e-10
0
1.44521e-08
3.90647e-06
4.45831e-06
2.10775e-74
9.52229e-90
1.77135e-05
0
9.70476e-17
1.59504e-12
8.35301e-82
1.43725e-07
6.35403e-11
1.46486e-38
2.8006e-30
2.76679e-31
1.31618e-34
1.47629e-11
1.0005e-07
3.96037e-07
1.2829e-07
9.59621e-09
4.93055e-61
5.93466e-10
1.17895e-10
8.52206e-38
0
1.38489e-40
2.98596e-28
3.86125e-35
4.14285e-49
2.1654e-29
9.04767e-29
6.55505e-31
9.44347e-36
5.47891e-24
3.44232e-10
3.20986e-11
6.9337e-11
9.8129e-06
1.73962e-12
0
5.59001e-09
5.07568e-37
4.40388e-34
8.20172e-32
7.2784e-44
4.84724e-75
5.58589e-38
2.64222e-07
8.51534e-14
5.95783e-19
5.50439e-09
1.4355e-06
6.14653e-19
2.95039e-35
6.42448e-09
1.15259e-07
3.95823e-15
8.90024e-08
1.47087e-71
4.30429e-13
1.31517e-95
7.92027e-08
1.84835e-40
3.17705e-09
1.88412e-62
1.26136e-87
4.29385e-93
2.38747e-91
3.37288e-08
4.06561e-86
1.09719e-08
0
7.04638e-08
9.52423e-08
1.05844e-50
8.44298e-76
5.95962e-07
2.4679e-08
9.66053e-08
1.14237e-07
8.92114e-83
8.49403e-11
1.97044e-05
1.07439e-67
2.39841e-54
2.76626e-14
0
4.76914e-09
3.24343e-51
1.18534e-08
1.47007e-08
9.83281e-08
4.15929e-09
1.30387e-07
2.97327e-09
1.46274e-08
3.11147e-28
0.000591369
0.00121822
2.90919e-12
0.00109816
7.42323e-47
9.17924e-11
1.73308e-08
0
0.00160525
2.6779e-14
4.5636e-26
6.08631e-44
3.65026e-15
5.30043e-09
7.22979e-25
8.83182e-55
6.91892e-43
5.99525e-24
9.82704e-110
0
8.81683e-27
7.39141e-32
5.36789e-05
1.91337e-08
1.04453e-30
8.8447e-08
4.48726e-12
4.57139e-100
1.27392e-20
9.62794e-08
3.69725e-07
0
2.43643e-07
2.55329e-07
6.03483e-08
2.14124e-05
1.45363e-09
1.22929e-25
2.13387e-06
7.58876e-29
3.00668e-31
7.24525e-34
0
1.41535e-21
8.17564e-09
7.77777e-08
2.68935e-13
5.82091e-05
4.48668e-08
4.42786e-23
4.26727e-09
2.15215e-12
0
2.93955e-75
1.04838e-24
7.02927e-47
5.10492e-23
0
3.93006e-09
0.000153811
0.000369767
0
0.00377019
4.0558e-35
4.97685e-09
8.49513e-24
1.92663e-07
6.1779e-11
3.5715e-06
1.41839e-33
5.45542e-31
3.18205e-53
4.60769e-76
1.87808e-100
0
4.84606e-19
5.70034e-09
9.90327e-28
1.55117e-05
2.22056e-09
1.45229e-22
3.13258e-07
1.25363e-08
0.000243412
0.000182899
1.24887e-93
4.64252e-08
4.73298e-10
2.04736e-93
1.90882e-58
1.17295e-08
1.60515e-08
6.37615e-108
1.01501e-88
0
1.12071e-47
8.9592e-115
8.50031e-08
5.8935e-08
7.02163e-08
1.24533e-08
1.32056e-75
0.0123017
2.59178e-15
2.59272e-107
6.14975e-25
3.62194e-52
7.15449e-23
0
0
2.47618e-24
0.000412602
2.96758e-47
3.70186e-29
3.8023e-24
6.32413e-33
1.12537e-83
1.17432e-44
1.16083e-07
4.03212e-21
6.87032e-32
9.26557e-11
1.62673e-12
5.74389e-07
5.45159e-36
2.86236e-34
3.15749e-34
6.82556e-31
4.4792e-24
6.11499e-32
3.55369e-09
2.01127e-07
8.70093e-32
0
2.92958e-05
3.82493e-26
1.4858e-88
3.97571e-26
3.06223e-25
6.24332e-09
1.72264e-07
1.86857e-05
8.69114e-09
8.04987e-12
0
1.35601e-07
3.04558e-24
6.77587e-08
6.94038e-08
1.09089e-70
1.17007e-07
2.96235e-61
2.71448e-63
2.2824e-06
0
4.34206e-22
6.4356e-08
9.33265e-08
4.75198e-07
2.08485e-07
4.78666e-42
1.59541e-07
3.46385e-09
1.90763e-08
5.81897e-52
3.44445e-15
6.74671e-07
3.7905e-07
1.66671e-07
1.63271e-08
4.6262e-11
2.83309e-37
1.08806e-08
2.45575e-10
1.20019e-07
8.51403e-08
1.59741e-08
7.7624e-08
1.07949e-65
2.95663e-84
0.000154221
1.91902e-06
1.9443e-07
2.98265e-09
2.05461e-07
7.88542e-09
1.19051e-06
0
3.48738e-08
1.87228e-69
2.29846e-06
1.83066e-38
1.32185e-09
4.5266e-10
5.6027e-48
6.82153e-07
5.29712e-40
3.57939e-08
7.94261e-07
9.79542e-56
1.62141e-36
1.0979e-07
3.17499e-39
5.16761e-54
3.92063e-91
2.30271e-82
2.99953e-08
7.76488e-68
8.83941e-07
4.05979e-06
1.66586e-88
1.0654e-82
2.38528e-07
1.57781e-53
0
2.98442e-09
2.15339e-91
1.31042e-86
0
3.72222e-49
3.45174e-09
4.78104e-09
5.72568e-06
3.90427e-46
0
2.10853e-07
1.14673e-56
9.10835e-08
1.21156e-07
0
1.54711e-104
1.09335e-21
4.3199e-35
9.9557e-08
0
2.87992e-43
1.77796e-110
3.8647e-90
0
4.8015e-09
8.76666e-09
3.87982e-22
3.05243e-40
4.03338e-05
2.00565e-32
0
4.22017e-116
1.72309e-07
2.53795e-67
1.06463e-07
2.75984e-08
3.22914e-82
4.5125e-78
2.32312e-19
2.11733e-16
9.61239e-08
0
3.015e-07
3.72713e-12
2.99587e-89
8.35176e-18
1.39143e-11
3.70042e-64
3.03408e-25
3.3137e-58
5.58278e-07
7.38153e-59
0
4.01978e-60
2.25213e-22
2.27424e-55
1.45075e-07
1.03609e-06
0
0
1.54903e-08
1.50158e-108
9.08806e-09
4.11671e-22
0
8.47994e-05
6.99266e-06
5.29547e-09
7.57023e-24
3.82995e-43
9.56947e-09
3.54263e-06
2.77568e-43
7.6358e-07
8.7223e-48
2.81703e-06
6.03051e-08
1.15202e-39
1.72476e-07
1.31516e-06
6.2107e-06
2.40453e-05
1.6578e-08
3.37885e-20
2.13489e-51
1.25305e-71
1.08545e-07
3.76218e-09
1.13338e-13
5.18396e-07
3.01225e-34
1.50917e-10
2.06068e-50
1.77779e-06
7.16939e-07
5.47485e-07
4.60382e-50
1.34581e-13
6.4645e-09
1.27363e-105
1.70918e-08
2.29509e-38
2.70024e-76
7.44922e-76
1.65901e-06
1.92223e-07
4.24332e-07
1.04585e-54
2.66749e-64
2.11025e-44
2.16437e-06
2.02279e-14
2.91657e-05
5.43445e-108
0
8.99171e-08
2.55116e-12
4.03233e-103
6.93953e-42
1.78107e-05
2.15379e-38
3.47112e-37
1.03526e-09
6.64742e-07
5.63695e-13
7.71713e-10
1.51098e-103
4.3988e-05
1.51116e-05
2.53074e-09
5.38275e-12
4.78379e-45
0.00042503
7.46521e-50
1.1955e-09
2.96613e-05
5.35783e-08
1.35319e-05
0.00146059
7.46987e-08
0.00387402
1.39483e-107
0.0531486
3.41339e-07
2.89135e-13
1.41189e-105
5.76257e-05
0.00468604
2.3168e-95
2.96651e-07
0.00371012
0
1.02972e-07
1.31048e-104
1.59511e-05
3.47053e-08
3.06968e-12
3.69138e-07
3.53675e-07
3.21812e-55
3.60016e-103
2.12078e-27
4.60401e-19
0.000441977
0
1.27109e-07
1.98589e-08
3.08655e-88
0
9.2949e-96
2.8779e-38
4.04355e-17
5.85753e-68
1.11326e-13
9.18188e-38
1.55815e-06
1.60471e-39
0.00111854
7.96779e-91
4.4809e-12
0
3.3075e-28
1.01763e-09
1.85128e-93
2.81632e-90
1.12973e-44
2.76497e-29
1.55934e-15
1.39114e-06
7.66238e-07
5.96647e-05
1.20371e-12
1.37256e-23
1.84038e-24
5.19759e-60
1.62089e-51
0
3.2331e-22
2.69245e-50
3.81529e-18
7.8569e-16
6.57098e-07
4.75503e-26
3.26304e-24
2.98793e-41
9.75373e-25
2.79309e-20
1.6264e-69
8.84121e-10
4.71156e-60
1.82129e-13
5.77981e-07
2.57591e-18
8.58208e-08
7.01525e-47
1.0746e-16
1.45508e-05
1.2087e-09
1.13325e-70
3.32268e-33
3.62721e-47
8.01026e-50
6.24213e-43
4.28585e-57
4.94105e-21
0
2.38638e-24
8.14303e-45
4.06009e-66
3.68424e-50
0
3.54429e-44
4.78414e-09
0
4.5358e-13
2.48696e-44
0
9.89875e-12
1.27521e-07
7.0256e-10
7.30594e-29
5.36879e-68
1.57027e-69
5.12068e-08
1.84112e-05
2.3557e-55
9.79411e-10
5.02426e-05
4.27345e-67
2.19786e-18
0
4.66699e-09
1.91744e-05
4.01703e-48
4.61517e-32
1.00248e-09
0
3.59782e-05
2.77958e-30
1.34159e-78
1.60509e-58
1.08469e-37
4.23249e-38
2.31857e-77
8.1491e-64
4.62341e-43
1.93143e-72
5.3713e-09
3.04467e-42
0
2.93028e-27
6.84595e-74
1.44848e-30
3.2435e-08
9.12831e-43
8.3845e-78
3.99296e-08
9.53649e-09
2.51816e-32
1.02513e-81
8.72767e-102
2.1704e-22
9.34605e-11
2.19262e-57
9.98369e-48
8.25805e-06
5.49809e-30
2.34983e-32
2.86284e-31
1.77781e-30
2.94714e-41
5.71769e-81
5.0496e-19
5.81802e-10
6.08675e-07
2.84747e-10
4.8699e-08
1.48041e-20
1.3289e-08
0
8.68158e-43
1.24965e-07
3.40877e-82
7.76552e-44
4.75293e-11
1.68096e-77
6.20244e-07
5.04755e-86
0
1.19462e-17
1.37779e-09
2.10607e-07
1.19891e-09
2.05886e-07
3.24148e-35
5.67539e-10
6.13166e-08
5.46443e-81
3.93332e-05
4.93288e-61
3.46621e-09
1.55564e-09
1.59998e-21
1.27203e-07
2.5473e-10
2.51019e-07
2.50031e-16
1.77256e-07
3.41039e-10
2.00693e-20
2.05704e-64
3.28189e-05
2.47049e-18
1.03762e-18
2.2146e-36
1.34929e-83
1.27041e-09
5.39404e-32
8.37542e-33
1.95846e-19
7.89882e-63
1.66445e-64
8.99961e-35
5.18625e-18
8.09117e-09
2.18946e-52
6.27736e-33
3.19923e-20
1.15355e-55
1.17733e-10
2.8003e-50
3.46629e-26
3.277e-30
8.37487e-38
3.15411e-62
1.0435e-51
1.171e-41
5.39166e-49
2.25594e-48
2.32558e-45
2.60143e-40
0
1.84759e-67
2.18007e-12
0
8.1608e-10
1.58169e-07
1.96309e-78
2.48072e-21
7.57869e-15
2.48802e-50
4.40233e-47
8.87694e-27
2.695e-93
9.71082e-52
7.00394e-16
2.04088e-09
2.81033e-33
2.94005e-52
1.07699e-21
1.36366e-97
8.55254e-23
1.72182e-09
7.58533e-95
5.66384e-53
2.20465e-10
3.38228e-94
2.7311e-52
1.92921e-14
8.09699e-60
1.2663e-09
8.05029e-10
1.91159e-27
4.83705e-96
9.1923e-15
2.62485e-06
1.17557e-08
4.6014e-32
1.36586e-64
1.4111e-91
4.43225e-63
2.88928e-58
1.27543e-47
2.61718e-66
1.42722e-72
3.37322e-36
6.47874e-08
1.37765e-44
1.39721e-71
3.69873e-71
4.80418e-06
6.32895e-09
6.31413e-10
5.6664e-07
1.75905e-13
1.01826e-42
2.39194e-13
0
9.37235e-60
9.57745e-59
6.15582e-09
0
1.89075e-53
3.79412e-09
5.14268e-07
2.33698e-45
3.12816e-48
1.00771e-06
0
5.42007e-06
2.31845e-44
6.89398e-23
4.47535e-42
1.58969e-30
1.13034e-07
6.27817e-45
1.43065e-07
8.61784e-53
1.04533e-71
4.35309e-08
2.84835e-38
0
3.92716e-15
1.51633e-07
2.03948e-51
9.08982e-13
3.36195e-08
6.35383e-73
3.34294e-08
1.58084e-07
3.15343e-11
5.62532e-15
2.96398e-43
3.38214e-09
0
3.62834e-12
5.03895e-08
0
5.64685e-43
1.33294e-31
2.6986e-33
8.63207e-33
7.04774e-09
0
2.07205e-21
2.50212e-47
1.04045e-08
3.93923e-17
6.68174e-31
1.77911e-26
3.02321e-89
1.5525e-10
0
6.42185e-09
8.72163e-08
5.80194e-47
7.54516e-09
1.02427e-08
5.04537e-08
7.16033e-66
0
2.13499e-05
0
3.92684e-09
6.12777e-28
0
0
1.03072e-08
1.57017e-85
1.1644e-85
1.24336e-23
2.33531e-87
1.79017e-08
1.72002e-09
4.55112e-10
2.367e-07
1.2347e-09
0
1.53222e-31
2.27161e-09
1.57231e-43
3.49664e-71
1.43836e-49
7.02977e-10
3.38014e-41
2.15673e-09
1.20037e-28
8.81394e-14
6.23865e-08
6.2383e-10
0
1.18204e-09
2.03539e-08
3.81618e-37
1.10304e-10
2.04108e-10
1.86506e-20
1.27315e-08
2.0447e-18
2.39546e-09
3.39806e-12
3.50321e-11
1.43531e-08
1.37116e-08
9.88542e-14
2.62225e-10
5.51121e-09
4.87305e-09
5.35823e-70
3.09197e-34
1.60913e-08
2.68406e-24
5.57956e-31
1.81738e-09
1.2885e-06
2.8041e-21
8.93845e-32
1.1188e-06
6.54428e-31
2.45954e-20
1.65599e-08
1.32718e-37
0
2.9066e-49
9.72893e-09
7.98805e-10
7.9992e-06
1.36164e-61
2.6813e-56
0
4.36544e-07
1.55545e-21
5.33584e-09
1.4259e-21
8.72582e-07
0
9.37733e-14
1.93719e-51
6.41201e-08
6.37272e-09
2.33084e-08
1.46466e-07
2.64913e-06
1.04539e-38
4.93958e-14
2.7413e-52
4.533e-24
1.1576e-77
0
1.65819e-52
3.00472e-22
9.47765e-74
1.62068e-55
4.4168e-37
0.00138566
9.77666e-35
5.77593e-35
2.42017e-74
1.02465e-16
2.26369e-29
0
7.1035e-09
4.63062e-54
4.91598e-51
0
0
4.68055e-31
2.91535e-75
3.27588e-25
7.74446e-52
3.70711e-17
7.26924e-18
0.00029128
3.53872e-53
1.42145e-11
0
2.03619e-05
1.12639e-84
1.84655e-14
4.58656e-08
4.98233e-85
0
3.65897e-05
1.46289e-43
3.41746e-27
4.56729e-80
4.88237e-70
1.17732e-35
9.21073e-45
1.07971e-84
1.33896e-71
6.95417e-27
3.62487e-54
1.08607e-17
3.07692e-07
4.26486e-84
1.12156e-13
9.39592e-82
2.98848e-19
7.75322e-27
4.10997e-53
9.65206e-80
4.43447e-06
9.46532e-57
8.22032e-31
0
3.98454e-13
5.37527e-34
3.6256e-87
5.18564e-109
3.79931e-06
1.14718e-05
7.94408e-67
5.96673e-09
2.22205e-54
1.93457e-85
2.27604e-37
7.01171e-12
1.21497e-55
1.74476e-27
5.44185e-09
5.948e-24
1.68607e-54
1.72058e-09
9.48966e-36
1.53596e-08
1.65309e-08
8.50458e-34
2.69654e-48
3.99855e-30
2.16797e-07
1.43106e-57
7.13615e-22
4.69421e-45
1.7504e-45
1.3161e-45
1.20522e-50
2.57416e-48
6.7597e-09
8.42271e-35
7.89159e-18
3.98872e-11
3.87907e-08
1.45808e-07
7.80915e-50
5.41675e-09
6.26804e-09
1.45156e-61
3.67181e-09
0.00899283
4.79925e-93
7.94272e-09
9.5665e-10
5.31128e-35
1.13449e-37
1.95582e-62
3.643e-10
5.4828e-09
0
1.00347e-85
7.83557e-42
3.5926e-67
0
2.54633e-11
1.29181e-08
1.11075e-09
3.71006e-16
3.54348e-39
1.53174e-13
4.61481e-08
0
6.83746e-29
7.6445e-47
3.96253e-07
4.30289e-09
1.51796e-58
1.86926e-23
7.52789e-92
3.64917e-22
2.99804e-09
3.24094e-07
1.16872e-47
5.22728e-11
1.28945e-10
2.32584e-09
6.71879e-104
4.41555e-81
3.44886e-05
7.56854e-60
5.07784e-59
6.70465e-83
2.11956e-62
1.87156e-10
1.97591e-19
2.09642e-17
8.72494e-19
1.70729e-41
4.97648e-39
5.803e-34
8.24008e-86
4.74131e-08
1.37332e-07
2.59142e-78
8.57891e-11
1.34262e-87
0
9.77762e-63
7.00184e-06
5.14335e-08
1.59905e-06
3.86414e-29
7.96796e-84
4.40075e-96
0
4.59274e-10
6.94811e-15
6.24665e-06
3.67718e-30
3.51482e-81
1.13546e-37
1.54903e-06
3.50777e-05
2.12418e-13
0
1.83104e-05
1.75851e-05
1.7245e-09
0
9.91895e-08
8.91638e-10
1.42692e-07
1.81143e-08
0
1.683e-56
0
3.55421e-44
4.70811e-78
9.00119e-40
3.096e-08
5.4875e-06
2.05113e-07
3.11801e-07
7.42603e-08
1.93071e-21
8.50055e-10
1.12638e-09
0
0
1.05104e-07
3.47818e-10
2.6e-09
5.10937e-09
3.56212e-110
3.82618e-08
1.81218e-07
8.18849e-49
0
3.01569e-06
6.54777e-63
2.51247e-107
5.32378e-08
5.01914e-07
0
2.0732e-85
4.20794e-61
6.53321e-62
3.36955e-24
0
3.02468e-74
8.12919e-09
6.43858e-05
7.7319e-65
9.3124e-26
1.71639e-18
1.41135e-07
3.84268e-08
3.15728e-34
2.66105e-107
2.25071e-93
8.44807e-08