/*--------------------------------*- C++ -*----------------------------------*\
| =========                 |                                                 |
| \\      /  F ield         | OpenFOAM: The Open Source CFD Toolbox           |
|  \\    /   O peration     | Version:  v2012                                 |
|   \\  /    A nd           | Website:  www.openfoam.com                      |
|    \\/     M anipulation  |                                                 |
\*---------------------------------------------------------------------------*/
FoamFile
{
    version     2.0;
    format      ascii;
    class       volScalarField;
    location    "5";
    object      CO2;
}
// * * * * * * * * * * * * * * * * * * * * * * * * * * * * * * * * * * * * * //

dimensions      [0 0 0 0 0 0 0];


internalField   nonuniform List<scalar> 
108993
(
3.59056e-30
1.42144e-12
7.17231e-35
2.38244e-107
1.34029e-101
2.6143e-76
0.00241675
6.94068e-127
2.97162e-78
9.35442e-30
2.65973e-70
0
9.87412e-105
8.28137e-75
1.41435e-63
2.47465e-12
4.47489e-21
0
4.06575e-102
2.0424e-29
1.86353e-99
9.60451e-89
1.06249e-60
0
0
4.53433e-58
0
1.9146e-34
9.4616e-33
4.56309e-65
7.23142e-94
0
0
1.53445e-20
5.34139e-103
3.11933e-93
4.64009e-100
6.7671e-88
0.0023622
0.0223442
9.78289e-41
3.53836e-82
0
3.22854e-111
3.51168e-16
0.0527719
0
0.000184821
1.9797e-34
1.15684e-49
0
3.40259e-10
4.17959e-17
2.79703e-105
4.29461e-55
2.39941e-53
1.97422e-102
2.07099e-87
6.79589e-88
3.75108e-85
1.22833e-80
9.58702e-81
1.58533e-65
7.46543e-107
0
5.3842e-43
1.21811e-106
1.39454e-91
3.17739e-56
0.00212624
1.95676e-69
1.80814e-96
1.40276e-91
3.16888e-95
3.04223e-28
1.0725e-84
1.47597e-107
2.63209e-18
5.08006e-105
4.50745e-108
6.33073e-49
7.67731e-48
5.83247e-96
3.0465e-86
2.06267e-60
2.70829e-85
0
1.58e-73
1.25221e-97
1.10989e-104
2.16715e-96
1.60045e-91
3.12624e-97
0
0
0
5.93158e-91
0
5.3802e-95
1.70015e-101
0
7.31043e-85
4.55542e-71
0
3.01542e-77
3.85483e-100
1.03512e-61
3.9615e-90
0
0.0124806
1.98999e-25
7.91112e-97
2.33713e-21
6.14677e-14
1.56016e-85
0.00107685
7.53043e-96
0
5.38084e-11
2.03856e-89
1.63801e-55
5.02283e-77
0.00966146
2.23528e-44
2.37492e-92
5.24519e-21
2.14007e-38
5.45331e-44
1.17432e-77
1.61907e-80
6.71264e-56
1.13749e-79
7.65663e-76
1.95903e-08
7.21311e-92
3.66868e-46
3.97508e-76
0
8.69177e-63
1.13353e-68
3.60366e-46
4.42056e-89
3.01073e-21
2.77377e-78
2.22941e-79
3.07432e-95
0
0.0355827
0
4.79655e-06
8.60476e-06
0
6.20249e-36
9.2473e-06
0
7.52337e-26
1.53082e-54
8.51596e-92
8.61464e-97
2.15978e-06
6.08242e-06
2.37069e-98
8.39185e-93
0
0
2.19561e-12
0
0
1.75341e-105
1.51973e-83
0
0
2.13372e-11
3.12539e-87
1.04757e-45
2.8951e-55
3.00672e-06
2.17253e-106
3.94084e-63
1.87116e-99
1.93777e-30
9.44859e-89
1.69186e-95
3.50044e-48
1.29042e-62
0
0
2.76717e-65
7.93808e-55
3.947e-47
0
4.2048e-96
0
2.5032e-06
6.49764e-85
3.08648e-31
5.94509e-40
1.77971e-82
1.56124e-81
3.23707e-49
1.18738e-93
8.07827e-08
5.33593e-90
3.26312e-86
0.000688812
5.95615e-06
2.04088e-59
0.0221778
0
0
2.34365e-05
1.73028e-89
2.54565e-05
0.0150205
0.0767597
0
1.43342e-56
6.859e-60
5.52144e-93
1.24325e-85
2.13322e-56
3.53398e-05
2.04468e-20
8.59688e-07
0
1.68801e-106
7.02631e-94
1.51971e-52
5.98698e-07
1.79455e-66
0.0280421
1.78027e-63
1.21848e-104
1.26788e-37
7.7538e-93
0
1.48626e-86
3.50717e-82
0.00148775
4.00721e-92
4.41203e-100
8.34052e-60
0
1.84575e-93
1.15843e-83
8.15092e-11
0.0165339
0.00877628
2.89643e-89
5.68588e-89
2.2188e-88
3.01886e-96
8.85251e-73
1.15844e-86
1.47599e-89
3.18679e-90
1.06732e-87
8.67779e-56
1.64231e-84
0
9.01317e-58
1.87945e-29
2.20823e-22
1.76738e-19
0
4.20703e-52
1.24871e-58
7.78981e-37
9.64039e-78
8.49367e-68
7.77922e-112
2.0167e-40
0.0205206
6.98177e-05
0.0346866
5.7102e-69
5.21445e-97
0.00613029
0
3.23322e-36
5.70609e-38
0.0667113
0.062439
5.22796e-75
1.74143e-72
2.00809e-34
2.51289e-103
6.02647e-41
8.57847e-45
0.0292264
9.02941e-59
6.99645e-66
1.04448e-40
8.5296e-65
3.02345e-76
1.85128e-57
2.7148e-88
6.49824e-61
3.24674e-05
1.09418e-103
0.00236801
0.000219499
3.36529e-69
8.69046e-106
2.35939e-73
4.4835e-33
3.81619e-98
9.60484e-23
1.12319e-29
0.0166218
0
7.34564e-81
3.62261e-31
1.92888e-82
5.47292e-26
0.000744169
2.12244e-110
2.17338e-32
0.0138904
6.5545e-71
1.84927e-21
1.06424e-109
1.64074e-37
6.52096e-40
6.3556e-73
0.000119456
2.41504e-05
0.00494617
5.92999e-85
3.97528e-29
2.22565e-61
0.00406779
4.61065e-05
8.32636e-67
0.0130011
9.65685e-71
0
0
9.43622e-72
1.0312e-75
0
1.54641e-07
3.91668e-45
2.39235e-61
2.85232e-68
6.33938e-59
1.55669e-49
5.78794e-71
7.87253e-122
2.90389e-48
2.70538e-70
0
0.0700226
0.019326
0
0
4.44578e-60
0.0423097
1.52493e-82
0
3.13483e-30
2.45473e-46
3.15347e-50
2.76122e-49
1.07235e-29
3.6916e-41
1.25814e-51
7.93249e-76
0
0
9.04628e-17
1.35027e-38
2.13791e-48
0.000296375
3.9834e-39
6.33189e-05
9.48231e-44
1.09687e-67
1.96343e-05
4.2143e-80
2.87823e-05
3.51913e-05
4.78324e-41
5.58052e-08
9.04505e-53
8.73256e-56
1.09689e-35
0.0246796
2.30633e-42
0.0131874
1.99311e-05
2.30513e-56
1.95225e-05
0
0.018153
2.5841e-40
9.19715e-06
1.60686e-106
2.5031e-18
5.86324e-79
4.41177e-39
0.0119806
0.00928228
2.18283e-90
1.39486e-64
0
1.92573e-55
1.06966e-77
4.35978e-29
0.000541389
0
3.95925e-54
0.00126122
2.59054e-65
1.51453e-76
7.18864e-78
0.00263544
0.00387491
0.0215822
1.32132e-92
0.00156969
7.73731e-16
4.2947e-06
4.97681e-111
1.09472e-95
6.0007e-08
3.87746e-84
0.00619665
1.21511e-06
6.56266e-114
0
0.0119809
3.5581e-06
5.39134e-81
1.08898e-90
2.34542e-31
7.351e-84
2.03562e-53
1.28164e-95
3.44306e-79
2.65612e-62
8.52112e-54
4.22116e-49
2.87939e-73
0.000545698
4.62321e-14
1.78746e-18
1.03562e-12
2.00175e-52
0
2.36275e-66
0
5.44927e-52
2.65063e-27
1.45149e-93
5.14296e-67
0
0
3.34166e-69
0
0.000196934
1.05482e-32
0.00707503
1.19689e-05
2.9687e-08
6.79823e-41
1.1135e-38
0.00954475
7.54802e-40
3.17296e-37
0.000484879
1.03578e-91
0
8.61564e-27
1.13743e-97
2.11059e-32
3.40028e-81
0.000891125
0.0198822
1.64902e-10
7.77668e-71
2.14508e-75
1.23205e-76
1.36294e-53
8.9958e-25
2.68136e-41
7.91004e-38
2.76916e-41
1.72611e-13
8.67666e-20
2.76826e-67
5.19001e-38
1.36734e-18
1.29149e-37
3.33496e-11
1.32815e-66
8.62342e-24
3.87919e-64
4.98629e-48
1.06669e-20
4.86645e-88
3.81763e-74
8.48702e-73
3.61777e-44
2.37189e-21
0
1.48054e-50
3.51798e-77
0.00933103
2.74563e-48
3.91229e-14
8.12457e-18
2.80084e-78
1.55887e-43
1.65242e-50
1.01322e-86
7.42643e-63
2.06148e-50
1.24303e-20
2.23329e-23
4.1454e-62
3.24787e-63
2.13731e-20
1.82832e-23
2.12717e-34
1.63911e-07
0
2.80678e-53
3.98121e-07
6.16683e-22
3.84752e-54
6.81104e-84
4.88529e-08
3.67465e-60
0
0
2.55936e-34
4.7859e-80
1.137e-16
0.019342
4.77216e-62
0.0328246
3.2389e-107
4.95457e-62
4.01936e-74
7.28611e-62
7.06709e-67
1.19497e-07
4.36412e-72
3.7707e-102
0.00441522
1.51585e-51
0.0739003
4.70693e-66
8.42656e-64
3.56245e-63
2.40605e-101
1.28708e-31
0
2.369e-23
4.33073e-24
7.73038e-82
3.32951e-43
1.59459e-21
0.00269109
0.0038102
3.19407e-54
2.22043e-77
4.13018e-36
5.88353e-42
4.99775e-43
2.04314e-20
0.0747331
0.00139371
0.00567735
1.81948e-25
7.16682e-73
0.00315886
2.05296e-06
0.000421882
2.12774e-32
7.78189e-48
2.23593e-44
4.82944e-85
1.60127e-48
1.45058e-17
0.0579436
0.00143637
0
9.75203e-104
4.87241e-34
3.51386e-79
4.02106e-20
6.05093e-48
6.15863e-05
3.10922e-67
2.33158e-75
7.86005e-82
3.88304e-05
1.95797e-17
4.74124e-43
0
0
1.75616e-32
6.25624e-72
1.19109e-79
0
1.08306e-80
6.60116e-25
1.47951e-49
0.000145452
5.68158e-42
1.52765e-07
1.78724e-46
1.83876e-28
1.80258e-50
2.37875e-18
1.44554e-82
0.00952155
4.76503e-105
1.82413e-09
3.2509e-101
8.9783e-40
0.0317135
1.51738e-13
7.66549e-77
1.87412e-72
0.000299097
0.0699256
8.27289e-20
0.00781379
1.22213e-28
1.79542e-06
8.16684e-08
2.52631e-20
2.98498e-67
1.26775e-77
0.0038216
2.77554e-09
7.32129e-18
7.22157e-57
1.24007e-15
9.59544e-64
6.57643e-17
1.2633e-78
1.77787e-19
6.62152e-43
2.64536e-16
1.82343e-20
1.38398e-19
1.58132e-20
5.93413e-09
0.0258162
0.0549357
0.00243049
5.89048e-19
0.000157147
0.0546051
0.00127504
0.0535394
0.0551825
0
1.43014e-25
4.19827e-65
0
2.14248e-41
2.33179e-18
9.78047e-28
0.0164798
0.023226
4.71496e-26
2.40566e-14
5.61615e-16
0.055581
0.0542503
1.47741e-86
1.50167e-10
0.00393708
1.61073e-74
0.0465838
2.90396e-06
0.000937175
3.48269e-09
2.59646e-22
0.03764
6.41632e-23
0.00265821
0.00145577
0.00381152
0.00130596
6.25371e-88
2.24849e-41
2.59173e-18
4.29819e-40
5.80515e-35
0.0186378
1.89682e-09
0.013256
7.12933e-08
0.000984859
1.30711e-18
3.84821e-75
8.66271e-106
0
4.56864e-19
3.44069e-93
5.44115e-20
0
2.60922e-81
0
1.26774e-16
0.0232763
0.00424103
4.62855e-44
0.00124734
2.04329e-35
4.26226e-22
3.05808e-10
0
4.02807e-22
4.43739e-19
1.86725e-16
9.37261e-12
3.10498e-11
5.38269e-45
1.99728e-15
4.50606e-12
2.85966e-29
1.35402e-05
1.25497e-100
6.5177e-13
1.70249e-15
1.68222e-11
2.63857e-14
0
6.62143e-103
0.00131027
3.68891e-108
2.44159e-40
5.70815e-07
5.31218e-63
1.02865e-11
0.0209493
0.0212064
2.64421e-24
2.03305e-18
5.79512e-19
8.93625e-20
8.05184e-22
3.83987e-11
1.01707e-56
0
1.62688e-107
4.84372e-23
9.58853e-111
3.72423e-13
3.19756e-106
3.31294e-18
6.35513e-14
5.86311e-34
1.62355e-18
3.28687e-104
9.95472e-22
5.9264e-35
0.00324646
5.58955e-50
8.76038e-12
0.0182801
0
1.32591e-49
7.34648e-31
0.000105829
2.08893e-90
0.000184166
0.0109652
1.81502e-46
1.49195e-29
0.00110038
0.00743022
2.19162e-28
7.26187e-50
0
8.77666e-31
3.02369e-32
2.85388e-22
5.39821e-53
7.17151e-14
0
1.03509e-72
0.00373553
6.19712e-100
0.0398107
4.83907e-83
1.4156e-61
0.0296643
6.07602e-22
0.00227462
2.28525e-38
5.11707e-07
8.85733e-62
6.13582e-15
5.00607e-22
4.91447e-92
1.35429e-40
2.7822e-25
6.6675e-75
0
0
2.9853e-51
6.18837e-56
9.07071e-31
3.81046e-43
2.12663e-103
0.00292662
5.4893e-64
0.0062335
1.90222e-33
2.65682e-68
0.0194605
6.41295e-29
0
7.3776e-38
5.77169e-56
0
0.000178655
7.96713e-11
2.68218e-31
0.00153358
0.00420482
5.68038e-10
0.00321264
0.018734
3.19425e-07
1.58946e-28
6.75397e-12
3.96846e-32
6.91965e-26
0.00316165
0.0176452
1.95794e-25
3.20637e-40
1.19955e-28
0.00174367
4.68218e-23
9.89327e-29
0.000785956
9.71502e-38
1.39468e-84
0.00120982
4.31643e-29
0.0015116
1.58396e-26
0.00165378
6.90338e-28
1.79518e-16
0
1.39774e-08
1.32913e-08
5.0027e-67
5.2768e-76
2.67259e-78
0.000129667
1.9813e-25
0.0736535
0
4.36913e-83
2.79979e-50
2.4292e-07
3.3721e-31
5.09928e-07
3.56603e-97
3.58481e-51
9.94422e-13
0.066429
1.0373e-80
6.86391e-08
2.47983e-16
0.00352818
0
0.00454967
0.0490424
0.072967
3.20066e-19
1.78937e-14
8.04175e-39
0
3.54503e-92
8.77304e-05
0.0287454
0.000106459
5.07719e-84
2.04058e-78
3.18403e-10
4.59763e-19
0
5.00732e-77
5.83424e-103
8.38703e-16
0.000455356
0
0.000602812
1.21152e-14
9.41083e-25
0
2.12701e-86
1.21344e-66
0.000478873
0.000305257
6.75704e-23
0.000142354
4.57908e-121
1.43316e-79
5.76766e-18
2.38777e-09
0.00952718
2.74511e-47
0.00730487
4.44755e-08
1.94202e-19
8.07644e-17
0
2.88147e-19
0
2.55294e-39
1.4711e-94
4.7674e-21
2.72901e-32
2.09751e-09
1.03028e-55
0
7.77006e-06
4.22462e-82
4.8455e-17
1.40941e-20
1.64295e-21
9.73358e-24
1.71535e-64
0.000786584
6.40665e-67
0.0184144
4.73917e-17
3.15765e-25
1.01127e-83
7.29866e-31
1.99239e-09
4.9751e-80
4.98587e-21
0.00341734
1.80321e-17
1.13612e-07
8.72484e-67
9.72522e-28
7.22069e-05
0.000429675
0
1.47687e-07
0.00770099
4.99587e-26
1.83424e-22
8.74919e-25
2.66315e-31
3.87494e-35
0.0294913
3.92378e-14
7.57081e-05
6.04399e-06
2.13511e-16
3.14225e-15
1.30132e-30
9.00558e-23
3.40281e-05
6.73867e-05
3.57258e-22
2.49881e-91
5.03048e-64
5.88711e-05
1.36232e-98
4.52274e-69
2.13156e-94
0.00025419
0
1.02261e-37
1.14916e-40
0
6.58592e-44
0
3.9542e-30
3.85656e-11
1.16334e-43
8.06963e-49
2.79718e-36
5.44024e-89
0.0320498
5.07957e-84
6.26684e-35
8.19317e-63
6.49566e-43
0
0.0295086
4.72611e-05
7.19569e-64
4.91354e-39
0
1.65925e-29
7.3464e-16
6.79796e-21
5.22505e-58
0
0.00285717
3.12436e-85
2.79068e-05
8.52229e-06
0.00109949
0
0
3.02585e-35
1.18928e-73
3.58833e-38
1.62882e-18
0
1.60701e-80
2.03035e-35
7.88079e-73
0.0100134
2.91112e-37
0
1.31792e-84
9.40901e-36
3.0668e-21
4.38446e-09
3.38127e-26
3.48958e-46
2.55694e-36
3.93037e-63
2.30407e-29
0
1.8001e-74
7.51867e-112
9.34778e-76
0.000320331
1.87146e-50
1.75498e-12
7.69303e-88
1.69871e-09
9.17599e-15
1.90019e-77
0.0697529
4.83618e-30
2.00467e-23
1.40589e-19
0.0310706
6.78874e-30
1.03021e-09
3.62465e-13
0.0689559
5.68915e-45
6.14513e-78
0
4.16347e-14
7.40365e-10
0.00421126
1.10977e-07
1.91969e-71
8.65174e-23
0
7.51107e-06
8.32242e-27
2.68327e-06
5.11865e-28
7.10285e-09
2.62434e-12
0.000946297
9.67614e-11
7.69954e-11
6.18212e-59
0
0
4.18216e-54
0
5.18706e-100
6.87352e-17
1.27624e-05
7.80276e-38
0.0137752
5.24025e-14
5.63007e-49
5.67706e-55
2.2025e-13
2.37151e-09
0
4.4853e-13
4.85962e-34
2.75955e-38
0
3.10014e-25
2.05015e-05
5.18689e-11
0
5.16481e-05
6.28176e-76
1.58063e-41
3.82628e-36
5.0956e-86
6.1397e-90
0
0.0807982
6.92136e-21
1.26272e-102
7.57063e-39
1.62557e-98
9.83069e-54
3.27162e-70
4.78371e-103
2.96837e-18
6.22168e-32
4.10252e-36
2.65473e-97
7.28472e-41
1.37844e-41
0
5.31798e-36
0
4.31071e-54
1.3572e-70
5.4099e-18
2.24236e-34
0.000161136
2.23363e-18
3.63095e-27
0.0492766
4.78835e-36
2.99661e-103
2.30219e-21
1.28525e-53
8.88972e-52
4.82815e-33
1.01615e-35
1.98777e-33
7.92099e-52
2.68461e-09
1.45383e-53
1.5217e-27
2.41834e-40
2.25339e-38
1.09729e-34
3.69797e-52
7.07491e-06
3.92794e-05
0
3.25754e-63
5.66088e-64
4.21781e-33
9.41882e-29
1.68454e-75
0.0326196
1.74528e-85
9.4023e-70
0
1.2965e-71
0
0
1.78927e-10
1.30299e-19
0.0306783
4.2686e-22
8.94201e-22
4.50215e-18
4.82669e-06
3.38127e-17
2.58058e-13
6.43804e-47
3.4203e-19
4.38324e-07
1.39475e-108
2.51997e-16
7.23431e-61
2.19347e-62
0
0.00442902
1.51401e-09
1.57303e-106
0.00011984
1.2325e-75
7.06032e-05
0.000219702
1.49487e-57
1.02951e-36
1.63238e-33
1.74374e-29
3.07171e-31
3.36309e-27
7.41978e-102
0
0.0114633
5.5088e-07
3.62124e-64
2.36721e-116
2.79102e-06
9.90087e-73
3.78843e-88
0
0
2.01878e-69
0.00128577
0.000375437
0.0190666
0
2.12666e-19
6.30521e-60
0.00359898
0
4.7326e-51
0
0.000521089
3.63059e-18
0.00112532
4.06689e-05
0.00145361
8.65723e-06
2.37755e-42
3.08406e-41
1.6637e-18
5.20988e-75
4.66245e-20
0.0549549
3.25667e-74
1.9875e-21
3.58498e-64
0.00286972
3.79783e-52
1.16153e-69
1.00342e-17
8.27485e-31
7.53287e-08
0.0136016
1.58903e-67
1.28031e-24
1.54008e-26
0.00397804
1.59418e-67
2.74095e-22
8.00908e-80
3.1891e-18
0
3.59939e-06
1.2338e-10
1.70446e-68
0.0239723
0
0
3.6623e-77
5.11766e-30
1.77564e-07
0
1.35334e-16
2.48687e-26
1.15846e-06
0.000368673
3.20914e-69
8.6526e-69
9.72022e-14
7.75372e-37
0.0108524
0.0081782
0.00655939
1.52683e-06
0.00757616
9.10852e-88
0.0101628
0.0105108
0
3.14499e-50
0
5.213e-27
4.67692e-35
2.44236e-72
4.33601e-74
7.99099e-44
2.99969e-86
3.59119e-33
2.12174e-35
4.50137e-09
1.46938e-76
1.84848e-39
1.24453e-63
1.4083e-21
2.01728e-60
6.89347e-64
1.57718e-55
1.8984e-23
7.00123e-06
2.35332e-62
0.00133022
1.4776e-17
4.83337e-53
5.14561e-17
5.75111e-38
2.89992e-13
1.29347e-83
4.81287e-31
0
3.0331e-61
1.4001e-23
1.4739e-22
2.84509e-81
1.15214e-22
0.00331163
1.38098e-23
2.20864e-23
4.70006e-23
1.00896e-11
5.86105e-17
3.71216e-20
2.8451e-65
0
1.71514e-54
3.22563e-19
3.11895e-76
5.87949e-97
5.67008e-23
6.16273e-53
5.88101e-38
8.17993e-27
0.00130802
3.94214e-21
0
0.0158497
9.55405e-67
0.0136833
3.11615e-87
8.82777e-50
2.00318e-55
8.82832e-55
3.0358e-80
0.0235392
0.00831978
3.27011e-07
2.79525e-15
0.00558161
0.00347865
9.75578e-64
1.54889e-31
1.01286e-112
5.65923e-17
5.01065e-19
5.56789e-28
0.000162258
1.14456e-87
2.51196e-92
1.08311e-29
3.85819e-10
1.29914e-56
0
8.54644e-23
0.0318996
0.0190149
4.11692e-09
3.3591e-87
1.16272e-07
5.77651e-47
1.33493e-30
4.41251e-11
2.13926e-25
8.79708e-26
4.33485e-74
7.36879e-31
1.376e-22
4.30566e-11
0.0208671
2.03498e-22
1.63266e-18
0.00143369
8.85102e-06
4.33331e-31
1.02419e-14
0
1.32472e-33
4.46833e-28
5.26244e-16
2.27965e-14
0
0
3.479e-19
0
1.93247e-07
0.0160486
8.29657e-18
3.73057e-17
0.035289
2.25567e-42
1.48472e-67
0.0164122
2.36451e-40
1.85973e-98
9.3034e-39
4.28322e-41
0.0321473
8.33556e-60
1.33809e-60
6.00846e-06
1.14298e-36
0.0343255
1.40952e-40
0.0284511
1.36985e-38
1.3488e-47
0.024822
1.0006e-05
5.62905e-48
0.0641057
8.34338e-17
2.42656e-29
1.02801e-12
1.2313e-77
8.52175e-76
0
0.0510412
9.73316e-17
2.85892e-33
0.0119221
5.83996e-58
0.000383657
0.053075
0.00612025
2.94736e-05
0.0281689
1.75343e-49
0.0968009
1.05224e-47
1.223e-42
5.84615e-36
2.11565e-93
2.93097e-86
0
1.07807e-79
3.04652e-79
0.00970515
7.91756e-09
0.000221026
0.00237482
0
7.69526e-58
2.00363e-60
0
0
0
0.00458284
0.000132819
1.59075e-58
1.91448e-55
5.82324e-47
5.34997e-12
5.97451e-14
1.74008e-38
2.5729e-28
1.13991e-52
9.62595e-43
1.74757e-45
0.000774023
0.04612
4.94296e-06
0.0138353
1.42471e-05
3.90369e-41
7.64416e-13
1.41008e-08
6.92266e-48
4.02139e-52
1.80525e-45
0.01866
0.0139384
0.00214767
0.00346687
4.25646e-61
2.02273e-89
0.00214768
5.13467e-56
0.000593038
3.82939e-48
8.18509e-53
1.20762e-18
2.95164e-59
0.000612822
4.10238e-67
5.52259e-05
0.00128362
6.69184e-05
1.49001e-05
1.01212e-05
4.55497e-10
1.31692e-88
8.54371e-08
1.54476e-48
4.44358e-56
8.59727e-59
1.00989e-60
5.26888e-77
6.90869e-56
4.25708e-31
1.9165e-80
1.86061e-15
0.0381255
0.00053691
0.0105152
1.26074e-70
6.54001e-63
0.00762961
8.06084e-10
1.99208e-62
0.00627871
3.74242e-57
8.65487e-55
0.00269855
0.02786
0.00615134
0.00585018
2.33273e-53
0.000700011
0.0101962
0.00426188
1.43873e-62
0.00941369
0.00292759
0.00218761
0.00869496
0
0.00540335
0.0023347
1.54189e-58
0.00319725
0.010582
0.00325374
0.0013443
6.61198e-06
0.00116605
0
0.0120612
0.00711456
0.0048934
9.46492e-73
1.69325e-88
0.00272791
0
1.9999e-10
5.97607e-08
4.15676e-80
0.00591073
0.000420664
9.45732e-34
1.7998e-25
1.79162e-26
7.16637e-30
8.62119e-05
0.00328986
0.0333945
0.0134322
0.00139173
1.09602e-57
8.72813e-08
0.000547715
4.00161e-32
0
5.80975e-35
3.13688e-23
2.90107e-30
5.16565e-45
1.50329e-24
9.50946e-27
4.25923e-26
4.89079e-31
1.08485e-22
2.80099e-05
0.000130157
4.98129e-09
0.0492621
7.51522e-11
0
0.00191196
2.50577e-32
2.38657e-29
2.55266e-26
5.04557e-39
2.31207e-73
7.90103e-33
0.0100666
2.42645e-10
8.95305e-17
1.82152e-05
0.0228554
8.81873e-17
1.54167e-30
0.00296319
0.00909213
2.46974e-12
0.000505304
3.08809e-69
5.90289e-11
3.15414e-93
0.0068402
1.35053e-35
0.00166317
6.37317e-61
2.23027e-85
7.15341e-89
2.18757e-87
6.62754e-07
2.94675e-84
0.00218754
0
0.000238445
0.00773977
4.44249e-45
2.06725e-71
0.038638
0.00348727
0.0260549
0.0065859
9.65046e-79
7.88526e-06
0.00301791
6.42278e-64
1.45822e-49
3.22593e-09
0
0.0038094
3.25866e-50
0.00206669
5.51976e-05
0.01875
0.00406731
0.0050495
0.010194
0.00182852
2.01545e-23
0.0922742
0.0118644
2.38838e-10
0.0404927
2.35322e-41
7.14665e-05
0.00103538
0
0.0516731
9.65657e-13
1.42284e-20
1.41967e-38
4.13665e-09
0.00215608
1.51338e-19
1.64781e-49
3.28765e-37
7.14004e-22
6.59017e-108
0
2.19172e-22
6.03614e-26
0.035973
7.38577e-05
3.68308e-25
0.00139506
2.57528e-06
3.99375e-96
3.57194e-19
0.00661152
0.023436
0
2.01464e-05
0.00688519
9.81456e-05
0.000798344
1.70902e-08
1.83858e-23
0.0182075
4.70324e-23
2.81568e-29
5.50122e-32
0
1.8744e-19
2.31611e-05
5.15591e-06
5.06533e-11
0.000311071
0.0399104
5.48031e-21
0.00149704
6.78475e-06
0
5.58549e-73
1.65871e-22
3.58717e-42
7.67386e-21
0
0.00184375
0.00291797
0.0454325
0
0.107612
1.18609e-31
0.00706238
6.318e-22
1.1785e-05
4.17175e-08
8.07538e-05
5.3489e-31
2.90304e-28
7.5076e-50
2.33878e-74
0
0
0
0.00123195
6.17297e-23
0.0106312
0.000954533
1.42777e-21
0.00364952
0.0346195
0.0942645
0.0145272
2.09624e-89
0.000211958
6.86876e-05
2.87369e-92
1.13013e-56
0.000867489
0.00428424
4.9061e-106
1.87921e-87
0
1.75776e-45
5.14222e-112
0.0017915
0.00117087
0.00262579
0.00115653
6.58221e-74
0.12331
2.75175e-13
2.3152e-105
4.01282e-24
3.30755e-51
4.1505e-17
0.000807113
0
1.65417e-18
0
8.6666e-45
4.05479e-27
2.02045e-18
6.52353e-31
5.63481e-82
3.67683e-39
0.0111211
2.49453e-16
1.72652e-29
6.23667e-06
1.25005e-09
0.0248017
1.70896e-32
3.24828e-29
1.16323e-28
2.03513e-29
2.68204e-19
4.13216e-28
0.0039114
0.0468837
6.89517e-28
0
0.0434144
8.42226e-22
7.77795e-87
9.53206e-22
9.12689e-21
0.000146436
0.0312419
0.066085
0.00233941
7.67247e-07
2.54136e-94
0.012704
1.15308e-19
0.016795
0.0264358
1.8201e-67
0.00927668
1.46707e-59
1.05234e-61
0.0460327
0
8.66211e-17
0.0278186
0.0121132
0.0372419
0.0316123
2.35055e-39
0.0134518
0.0061229
0.0180299
8.66875e-50
1.7952e-13
0.0339626
0.0371979
0.0161266
0.00457121
0.000320668
4.53045e-32
0.00681759
0.000282734
0.0217012
0.00523656
0.00460577
0.0294526
5.12263e-60
4.05283e-80
0.000821293
0.0341832
0.00318354
0.0019894
0.0141002
0.00073137
0.0200617
0
0.00780091
4.68163e-64
0.0372682
7.54299e-34
0.000311674
0.000129162
2.18592e-44
0.0265177
2.28376e-35
0.0247338
0.0347962
2.19241e-50
6.68956e-32
0.0147487
1.18915e-34
1.55072e-52
7.49253e-90
3.21233e-77
0.0177652
1.8661e-62
0.0351753
0.0640423
3.26811e-87
1.55098e-79
0.0439242
2.39278e-51
0
0.0082744
4.42913e-90
2.70846e-85
0
2.98101e-47
0.00296467
0.00214586
0.0258324
2.19053e-44
0
0.0228928
6.71721e-55
0.000776513
0.00479796
0
6.15995e-106
2.50531e-19
1.12726e-32
0.0135512
0
9.60724e-38
2.65396e-106
1.88431e-88
0
0.00083989
0.000971257
6.33909e-20
1.53066e-37
0.000699932
2.46861e-30
0
2.78589e-112
0.0035429
7.1205e-65
0.00525517
0.0212211
6.74268e-81
6.90742e-74
4.98331e-13
3.94456e-15
0.0339679
0
0.00589696
8.81259e-07
4.50115e-85
1.69243e-15
1.60072e-07
2.85188e-63
1.82417e-22
2.7768e-57
0.0191805
6.44253e-58
0
1.10107e-54
5.85309e-17
4.19007e-50
0.0114982
0.00237774
0
0
0.0141274
4.67835e-107
0.00243022
7.76064e-17
0
0.0651216
0.0408607
0.00204613
3.17081e-18
3.43393e-38
0.00292997
0.0299478
1.48083e-41
0.0468622
9.4975e-47
0.0126552
0.0314036
6.9791e-34
0.00124976
0.0310536
0.0102854
0.051801
0.0164477
3.25955e-17
2.59981e-50
7.36255e-67
0.00073337
0.00379409
2.10969e-11
0.0397046
2.00185e-30
2.49767e-07
1.94614e-49
0.000204733
0.0312776
0.0220935
5.94993e-49
1.90389e-12
0.00191083
4.13392e-104
0.0392892
3.71053e-37
4.34847e-72
2.73666e-72
0.0364501
0.0258521
0.0149646
1.71905e-50
1.91323e-59
1.51567e-42
0.0307402
8.10304e-09
0.0397129
1.89399e-106
0
0.0358846
2.59787e-08
4.97704e-99
1.2944e-40
0.056382
3.16885e-37
5.93446e-36
0.00288451
0.0470562
1.72737e-11
0.000163917
2.43358e-99
0.0670238
0.0140303
0.00226931
7.13376e-08
5.0795e-43
0.00527744
9.82886e-45
0.00316424
0.0184361
0.000592799
0.000375264
0.0214669
0.0010221
0.0525743
2.15804e-103
0.0877585
0.0314954
4.98474e-09
2.23719e-101
0.000205927
0.077415
3.7257e-91
0.0175193
0.0536719
0
0.000415573
2.05809e-100
0.0459494
0.00561669
7.11894e-09
0.025547
0.0263544
8.32755e-51
5.60031e-99
3.2424e-22
5.17992e-13
0.0283665
0
0.0106307
0.00165678
6.50158e-83
0
1.69781e-90
2.74041e-36
8.82516e-11
1.29432e-63
2.94213e-11
3.6861e-32
0.0383316
1.52634e-37
0.0530713
1.52536e-85
1.7127e-09
0
2.61434e-26
0.00139698
3.7219e-88
5.8528e-85
1.00411e-42
6.1481e-28
1.34001e-09
0.000814581
0.000378698
0.00294452
3.72582e-10
1.82175e-21
2.38876e-22
1.09594e-54
6.9093e-46
0
6.38059e-20
7.84725e-49
1.24163e-16
1.34566e-14
0.000226555
5.96548e-24
4.24636e-22
3.91071e-39
0
1.77423e-18
1.0014e-64
0.00335372
8.20739e-59
7.06692e-12
0.000337928
4.12591e-12
0.000167112
1.30715e-41
1.09087e-10
8.21004e-05
1.11751e-06
2.25851e-66
3.72693e-31
4.46353e-45
1.84887e-47
7.51955e-41
8.5247e-55
1.52986e-15
0
1.38635e-18
9.88138e-43
2.28417e-61
6.38193e-49
0
2.10506e-40
0.00362548
0
4.81428e-08
2.25677e-40
0
9.17473e-07
0.000171364
1.37874e-06
5.00334e-23
9.90672e-63
6.79454e-66
0.053161
0.0013077
6.43027e-50
0.00122667
0.00191634
4.33162e-65
1.82236e-12
1.41513e-12
0.00324703
0.00174226
5.77497e-46
2.52632e-26
0.00390503
0
0.00198007
9.48492e-25
2.98663e-76
1.81149e-56
5.87154e-36
3.54024e-34
5.21234e-75
6.20286e-63
4.53971e-39
4.33764e-70
0.00298186
3.53155e-40
0
1.98577e-26
1.52753e-71
1.11722e-28
0.00124329
5.77948e-39
1.86088e-75
0.00361637
0.00525578
5.68162e-28
1.11264e-79
6.0782e-100
2.09618e-16
0.000144027
4.33655e-55
8.36007e-46
0.000172945
3.104e-24
8.02494e-28
8.11014e-27
1.73307e-26
5.23362e-40
8.54064e-80
3.04622e-17
2.24039e-08
0.0139244
2.84206e-09
0.0166738
7.81673e-19
3.31159e-06
0
1.00864e-40
0.0414017
3.64928e-80
1.62939e-38
1.86095e-05
1.85888e-75
0.0339834
7.60624e-82
0
1.94493e-15
0.00393529
0.0141294
0.00318808
0.0141215
4.38194e-33
0.00399462
0.00672363
2.31392e-79
0.00310028
1.32283e-56
0.00401338
0.0027189
2.10381e-20
0.0111199
0.00483394
0.00577535
9.24574e-15
0.00600541
0.00468294
4.55195e-15
6.16042e-61
0.000911408
8.22415e-13
3.34773e-17
1.38188e-34
3.04014e-82
0.00310199
6.22762e-30
6.1715e-31
1.79408e-17
2.19196e-59
4.6313e-62
1.03044e-32
4.46282e-16
0.00244836
1.12465e-50
1.74722e-30
4.8412e-15
1.10346e-54
0.000322799
1.47172e-48
4.24479e-24
3.50105e-28
4.95307e-36
1.20056e-60
5.36646e-50
7.71175e-36
2.86221e-47
1.23744e-46
1.32765e-43
3.46347e-39
0
4.5733e-66
5.34057e-09
0
3.34347e-07
0.0038585
1.57139e-73
1.87513e-15
1.63689e-12
8.61175e-47
2.38792e-41
3.63569e-21
1.38863e-91
3.1744e-48
1.18014e-14
1.3017e-07
6.65898e-32
2.33487e-50
1.64344e-19
9.83083e-96
1.60555e-21
1.13546e-06
3.86148e-93
2.02348e-49
1.5023e-06
1.7284e-92
1.55173e-48
5.0281e-13
2.59342e-56
0.00418449
0.00173677
1.24983e-21
2.48696e-94
1.26047e-11
0.0127747
0.0374756
4.18396e-29
5.18892e-61
7.21674e-90
8.48148e-60
3.04098e-56
1.89556e-42
9.88897e-63
4.56224e-71
6.8127e-31
0.0276783
5.24433e-40
3.78639e-70
9.00446e-70
0.0716332
0.00159093
2.11997e-07
0.0600673
8.4255e-09
1.72946e-37
6.08328e-10
0
2.21401e-57
1.74852e-56
9.65601e-05
0
1.42452e-51
0.00235326
0.0614559
1.98933e-43
1.92452e-46
0.0663825
0
0.0723906
2.07518e-42
2.16401e-17
4.80973e-40
8.0765e-25
0.0429274
4.38695e-43
0.0460826
2.01185e-51
3.39917e-69
0.0360731
7.14128e-33
8.7702e-67
9.5781e-10
0.0458764
2.92747e-50
8.36936e-11
0.0347242
3.16362e-72
2.37681e-06
0.0467581
0.000201663
9.38328e-13
4.87063e-38
0.00624672
0
6.05763e-05
0.0257685
0
7.70616e-38
7.78437e-31
3.12985e-31
4.96866e-32
0.00249806
0
3.16779e-15
4.93932e-42
0.0018629
5.45315e-11
7.90922e-29
2.21518e-24
5.22719e-85
7.05855e-05
0
0.00235534
0.0113791
1.9851e-41
0.00259306
0.00186573
0.00884626
6.62962e-61
0
0.0109286
0
0.0031035
7.05249e-27
0
0
0.00197708
5.605e-85
4.03705e-85
2.07513e-18
7.86437e-87
0.00205394
0.00283643
0.000870079
0.024903
2.54714e-05
0
4.49531e-26
0.00352981
1.12852e-41
5.47277e-67
1.62862e-47
2.8792e-05
4.73645e-39
0.000750266
1.64185e-26
1.06968e-11
0.00974508
0.00127312
0
0.000557568
0.00160402
8.77257e-32
0.000206427
1.66822e-07
2.28102e-19
0.00095553
1.44469e-16
0.00118807
1.01778e-10
2.22918e-06
0.000276872
0.00159592
9.96503e-11
9.64009e-09
0.00276507
0.000742577
3.97585e-68
1.27423e-28
0.00159568
7.70502e-19
1.18418e-26
2.35152e-08
0.0144411
7.30313e-20
9.94314e-27
0.0665223
7.55706e-29
4.20963e-14
0.000109799
4.8898e-32
0.0665896
8.02902e-45
1.69818e-05
0.000110533
0.0100731
2.65227e-56
2.90474e-51
0
0.067265
1.07261e-15
1.82383e-05
2.82266e-16
0.0627455
0.0647817
3.51324e-11
1.86161e-50
0.000625201
0.00208835
0.00138741
0.00186956
0.00643616
1.93654e-37
4.7499e-12
8.09743e-48
3.30808e-22
3.51007e-73
0
1.5622e-51
2.70742e-16
1.83126e-72
1.42646e-54
1.6828e-32
0.0472156
4.511e-33
8.23928e-33
4.49627e-70
1.92777e-14
4.46819e-28
0
0.0021504
4.26828e-53
6.40464e-49
0
0
4.78452e-29
1.20737e-71
3.52516e-23
7.19899e-51
1.54946e-11
1.59165e-12
0.0435259
3.17024e-52
1.6877e-08
0
0.0368581
2.27397e-80
4.17677e-08
0.0110621
1.12707e-80
0
0.00181586
9.5984e-42
1.32176e-25
1.3739e-75
8.28804e-66
1.17273e-33
1.45291e-43
1.18686e-80
1.49731e-70
1.6566e-25
8.18257e-50
1.62048e-16
0.000502686
1.19088e-79
3.17073e-10
2.60687e-77
2.33683e-16
6.06104e-25
1.04646e-48
4.82269e-78
0.0305117
1.69793e-51
6.24746e-25
0
9.37126e-07
5.17596e-28
5.23594e-83
7.71802e-105
0.0523651
0.0440524
2.08744e-61
0.00206631
5.46542e-50
1.88248e-80
1.65435e-31
3.59967e-05
2.9118e-51
1.03048e-22
0.000132848
2.03019e-18
4.08134e-50
0.00230227
7.4337e-30
0.00254092
0.0348821
2.10558e-28
3.81846e-43
3.73637e-24
0.0513386
3.26139e-53
1.29494e-15
1.42959e-40
1.99721e-41
3.76897e-41
3.1959e-46
6.81191e-44
1.18961e-05
5.95226e-29
1.59901e-11
0.000102079
0.00144788
0.00188079
2.38261e-45
0.00213781
0.000536261
7.75291e-57
0.00323767
0.0802749
1.1378e-90
5.54935e-05
0.000160383
6.44573e-33
2.29148e-32
2.43318e-60
9.90309e-07
0.00271603
0
5.82522e-83
2.83028e-39
2.0668e-65
0
5.82438e-06
1.20826e-05
0.00427373
1.21285e-14
1.28404e-33
9.77556e-09
0.00145672
0
1.79537e-26
2.85333e-41
0.0169665
0.000605145
6.76572e-55
1.94121e-17
1.58979e-87
1.68879e-16
0.00319073
0.0214445
4.36245e-42
0.000285067
6.57144e-05
0.000152712
1.25255e-100
1.17748e-79
0.0634512
3.21446e-56
1.1824e-54
4.23637e-79
3.93979e-58
0.000148093
6.10663e-16
4.46306e-11
3.25217e-13
5.47699e-36
2.30168e-33
4.52301e-28
4.78569e-82
0.0133975
0.0132241
3.54341e-73
0.000153734
7.10955e-84
0
2.12341e-58
0.0275245
0.0192032
0.0573087
9.03874e-26
1.14188e-79
1.76632e-94
0
2.78649e-06
1.3674e-09
0.000423937
3.63627e-24
2.43e-77
9.14823e-32
0.032072
0.0466799
3.26967e-08
0
0.000396253
0.000351665
3.91954e-05
0.000607141
0.00557914
0.00289268
0.0364359
0.00658248
0
2.12439e-51
0
5.83119e-39
6.79976e-74
1.27728e-34
0.000614635
0.0335236
0.0073827
0.00530656
0.00396716
3.26377e-16
0.00450064
0.00432472
0
0
0.00567916
4.94159e-07
0.00037496
2.03699e-05
3.16207e-108
0.00119351
0.0077184
6.32905e-46
0
0.0525119
7.20633e-61
4.95114e-105
0.00385261
0.0424697
0
1.57556e-83
4.18935e-59
8.78338e-57
4.25017e-20
0
4.38117e-70
0.00198735
0.0565435
2.13166e-61
1.06407e-23
1.42206e-12
0.00776746
0.00147845
5.53383e-33
2.03975e-105
1.18889e-90
0.00488595
6.59413e-49
2.62067e-22
1.21663e-10
0
2.84323e-10
0
6.74187e-55
0.0329855
0
1.55333e-52
0
2.98174e-54
8.31396e-50
5.69879e-16
1.99204e-07
0
2.76769e-14
5.48256e-34
1.14149e-55
9.64794e-15
0
4.799e-74
0
1.66542e-61
2.795e-57
4.40731e-52
8.85197e-27
7.04609e-56
1.47043e-51
0.0272264
5.34223e-71
0.000101584
3.44904e-26
1.78884e-96
6.66813e-56
0
9.07817e-63
1.18552e-24
0.000646131
0.000205872
0.0194571
9.00351e-05
4.97406e-15
0.00147458
2.2017e-05
0.000181692
0.000122981
2.78317e-07
0.0134248
1.8826e-40
2.1486e-23
0
4.30873e-39
6.69754e-77
1.91356e-48
3.11975e-31
0
9.16347e-67
0.041294
1.64659e-46
1.07327e-18
3.1469e-25
2.07988e-66
5.22014e-23
1.62859e-39
0.00193245
0.0523438
0.00217716
6.3103e-38
6.76355e-65
1.03135e-11