/*--------------------------------*- C++ -*----------------------------------*\
| =========                 |                                                 |
| \\      /  F ield         | OpenFOAM: The Open Source CFD Toolbox           |
|  \\    /   O peration     | Version:  v2012                                 |
|   \\  /    A nd           | Website:  www.openfoam.com                      |
|    \\/     M anipulation  |                                                 |
\*---------------------------------------------------------------------------*/
FoamFile
{
    version     2.0;
    format      ascii;
    class       volScalarField;
    location    "5";
    object      G;
}
// * * * * * * * * * * * * * * * * * * * * * * * * * * * * * * * * * * * * * //

dimensions      [1 0 -3 0 0 0 0];


internalField   nonuniform List<scalar> 
108993
(
1852.56
1939.77
1840.21
1837.34
1837.52
1837.24
2185.25
1837.54
1837.36
2039.83
1838.77
1838.9
1837.39
1859.9
1838.86
1846.48
2146.28
1842.1
1837.37
1892.76
1841.63
1837.36
1845.1
1846.26
1837.39
1837.25
1837.25
1889.06
1892.22
1837.24
1837.26
1847.21
1837.25
1874.92
1837.33
1838.65
1837.26
1841.35
83381.4
92377.4
1880.05
1842.11
1851.61
1837.36
3039.29
231242
1837.26
1975.95
1840.01
1911.66
1837.47
9459.81
1907.65
1837.36
1851.41
1846.13
1837.32
1837.24
1838.02
1837.24
1837.23
1837.24
1837.34
1837.23
1837.27
1837.33
1837.28
1837.44
1845.52
3559.29
1844.81
1837.43
1838.31
1837.43
1838.28
1837.31
1837.23
1966.26
1837.44
1837.32
1837.23
1855.14
1837.98
1840.96
1841.63
1852.81
1842.59
1838.44
1837.32
1837.3
1837.24
1837.33
1837.24
1837.55
1837.24
1879.13
1837.35
1852.14
1837.3
1837.64
1837.24
1837.32
1841.26
1839.84
1839.66
1837.24
1837.41
1837.26
1837.79
66567.7
3700.53
1837.24
4481.54
7910.32
1846.95
8207.58
1837.57
1852.13
3363.54
1837.32
1864.87
1837.23
7600.55
1845.48
1840.12
2105.81
1894.21
1842.76
1837.24
1837.23
1847.25
1837.24
1838.05
8800.44
1843.24
1849.92
1837.24
1841.07
1837.23
1853.22
1844.76
1837.86
1973.84
1837.25
1837.25
1839.43
1840.52
94094.5
1845.29
23908.9
25510.5
1837.24
1858.1
26742.5
1838.86
2621
1865.36
1837.28
1837.28
2880.37
27599
1837.27
1837.29
1846.18
1840.91
7808.85
1837.24
1837.23
1837.23
1855.59
1837.67
1845
3527.69
1843.21
1878.79
1837.39
2003.19
1837.23
1842.65
1839.76
2145.47
1837.93
1837.37
1844.9
1846.91
1847.57
1837.41
1838.61
1839.07
1845.4
1854.29
1837.43
1854.52
1984.43
1847.77
1853.96
1885.77
1864.05
1841.61
1845.24
1837.23
2017.7
1844.36
1837.23
2502.24
8099.07
1837.24
31174.9
1840.32
59912.8
5707.23
1852.42
2003.46
16025.3
617884
1842.76
1839.85
1837.26
1837.33
1837.23
1839.84
22747.8
1899.53
1957.19
1839.65
1837.23
1837.31
1839.97
18181.3
1837.81
38848.9
1846.53
1837.23
1902.89
1838.24
1837.23
1837.32
1837.23
3444.53
1837.27
1837.25
1837.65
1837.23
1837.26
1837.26
1864.11
17024.6
6835.68
1837.25
1837.53
1837.31
1837.27
1837.56
1852.93
1837.28
1837.27
1837.27
1839.02
1837.27
1837.24
1837.77
1838.19
3045.24
2377.63
1837.52
1838.16
1837.71
1844.9
1837.24
1837.98
1837.3
1838.27
23376
60300.5
75879
1844.44
1837.37
10736.3
1843.99
1855.3
1858.5
293921
295922
1837.25
1837.23
1957.64
1837.38
1869.12
1841.57
65800.5
1871.07
1837.34
1873.15
1837.6
1837.34
1837.3
1837.29
1837.75
2365.7
1837.23
6870.03
9631.91
1838.41
1837.23
1837.71
1842.65
1838.49
1837.31
1841.6
19721.6
1837.24
1837.23
2378.73
1838.45
1849.86
8922.56
1837.23
2519.04
93792.9
1837.97
1941.48
1837.23
1850.2
1850.89
1857.07
91017.5
88207.6
7261.1
1837.38
1851.78
1863.53
6876.42
17038.6
1837.23
26424.3
1841.54
1840.73
1837.24
1840.53
1837.23
1838.59
6942.92
1896.74
1837.86
1843.93
1838.66
1837.55
1837.25
1837.7
1837.59
1838.94
1837.24
306740
26203.4
1837.89
1837.74
1838.04
81599.3
1839.13
1837.23
1849.66
1891.15
1837.54
1842.01
1838.29
1914.22
1839.89
1837.28
1838.64
92129.5
1886.06
1939.65
1837.79
44053.4
1916.7
14975.1
1843.43
1838.99
10279
1847.45
9967.03
10433.9
1905.31
1930.43
1839.07
1877.77
2073.44
57655.5
1840.9
42717.2
12774.5
1893.49
12786.6
1869.46
20812
1887.8
92380.9
1838.22
3022.32
1837.42
1890.66
12520.8
11121.8
1839.86
1841.22
1906.99
1887.87
1845.72
1843.73
62538.5
1841.82
1874.23
163206
1843.61
1838.66
1837.55
27922.5
3618.49
22878.9
1837.25
66007.1
1952.64
68677.2
1837.24
1837.23
60742.7
1841.35
9518.47
69549.8
1837.31
86097.6
114270
80660.7
1837.23
1843.97
2141.75
1840.44
1837.61
1837.25
1837.75
1838.88
1838.05
1837.88
1840.05
5001.98
1969.25
1947.93
3187.85
1838.2
1839.82
1845.89
1837.24
1839.08
1898.01
1837.25
1839.95
1838.8
1838.75
1850.54
1838.73
4968.89
1851.28
6745.34
13926
2274.72
1841.84
1837.23
7011.37
1841.56
1845.36
2992.28
1837.59
1837.23
1866.4
1838.83
2436.43
1837.98
5029.97
31173.6
4069.72
1838.18
1837.24
1837.4
1837.45
1842.36
1852.17
1841.51
1845.04
2661.7
1868.13
1838.81
1837.54
3064.44
1847.66
5193.04
1837.24
1845.17
1840.81
1838.55
1883.44
1837.23
1837.24
1837.91
1840.52
2935.23
11726.3
1838.75
1837.82
29796
1838.26
2081.83
1944.34
1837.31
1978.2
1838.08
1837.24
1837.24
1838.57
1855.73
1887.67
1887.63
1887.41
1964.32
1890.67
1844.05
3193.77
1873.16
1841.75
3006.12
1885.72
1867.03
1838.48
3057.84
1863.56
1848.75
1844.88
4305.04
1839
2156.32
26876.4
1837.39
50958.9
1837.39
1837.31
1842.77
1838.1
1837.26
2996.42
1863.37
1837.82
7073.34
1866.06
391355
1838.73
1838.61
1837.37
1837.26
1922.77
67262.9
1860.04
1899.34
1837.4
1852.29
1934.74
4108.89
10003.8
1847.68
1837.66
1907.63
1880.03
1846.35
1884.86
123045
4043.91
10238.9
1891.93
1843.17
4181.56
74485.7
2132.2
1875.95
1869.36
1837.25
1837.31
1843.99
4425.33
245267
4404.27
1858.74
1837.24
1906.17
1846.14
1860.21
1838.57
54716.8
1837.23
1837.48
1846.26
1941.42
2102.83
1841.22
1839.85
47080.9
2449.84
1850.75
1846.18
57635.8
1846.47
2380.02
1841.4
14062.9
1842.11
2097.36
1843.55
1927.1
1848.37
1873.76
1846.45
12494.9
1837.76
14724.5
1837.76
1846.55
61571.7
1924.4
1837.26
1837.28
5391.15
322022
1940.05
10596.7
1848.88
7082.61
20988.8
1857.47
1837.24
1846.41
30900.5
4999.85
5785.65
1890.67
7182.73
1842.15
1890.67
1837.86
1866.59
1859.37
3326.01
2320.22
1948.98
1934.61
5276.26
31724.4
116153
3567.46
1859.76
6476.42
106718
2712.42
111548
109305
1837.24
2218.01
1837.29
1837.31
1891.84
2173.5
2017.43
19606.2
29941.3
2234.59
2006.51
10368.2
113516
115313
1837.23
1923.3
3398.71
1837.24
98377.9
2002.6
4340.58
2928.71
1930.75
83597.5
2124.42
4860.22
3121.56
3121.92
50985.3
1837.23
1844.67
3125.31
1973.16
1851.29
472886
2082.34
21551.5
2094.72
241578
2225.94
1837.36
1837.25
1837.25
2420.16
1837.24
2587.84
1850.88
1838.28
1837.25
1878.52
35112.5
186855
1837.33
93819.5
1837.25
4571.85
3509.94
1837.23
5316.04
1856.13
1852.31
3060.65
1871.52
1849.02
1992.04
2039.55
3592.23
6306.75
1837.92
4152.32
1856.21
1855.19
1878.31
1843.56
1837.23
2903.64
1837.24
1841.42
1910.22
1838.39
1909.96
139793
32478.4
1903.87
1952.45
1939.15
2109.36
1939.87
2775.82
1855.4
1837.24
1837.24
1872.27
1837.23
1951.2
1837.24
1848.01
2674.26
1837.27
1875.3
1837.23
1877.83
1844.69
2694.1
1871.36
1875.83
22884.2
1837.46
1838.01
1845.03
3147.2
1839.89
8341.32
5939.18
1870.09
1847.25
83328.5
9118.46
2011.49
1837.59
2397.81
1844.21
1847.5
1931.05
1902.61
1965.95
1837.82
1838.79
2767.18
1837.83
131300
1838.81
1851.69
112047
2134.61
10935.1
2024
32312.7
1837.25
1955.49
2319.24
1837.27
1838.7
2050
1837.28
1864.34
1845.26
1837.52
1838.36
1847.88
1876.26
1838.28
2683.06
1852.82
14001.8
1855.05
1839.59
148281
1850.86
107214
2194.71
1856.33
2088.89
130108
1957.57
1842.39
2236.65
4982.19
1905.98
2606.92
28256.1
2060.54
1857.93
3340.68
1851.04
1848.7
2804.95
112538
1845.91
1839.56
1864.22
2281.59
1870.14
1844.52
2572.3
1845.75
1838.6
20639.9
1853.98
25289.9
1861.77
18436.3
1856.21
1943.55
2063.67
3107.65
5321.55
1844.26
2069.5
2085.4
4537.59
1901.73
249234
1839.84
1842.79
1838.21
6105.47
2180.96
4097.91
1837.41
1839.46
2541.22
242240
1843.02
3146.01
4846.34
2778.65
1888.67
5230.16
90229.2
228775
1861.87
7652.04
1836.99
25642.6
1837.24
24354.4
127047
40680.1
1837.23
1837.23
2001.6
2580.36
2196.22
1844.33
1838
4439.81
5736.35
1837.23
12972.7
1954.94
1843.95
20069.2
1838.54
1844.95
45934.3
52287.5
1838.91
1975.89
1837.85
1839.38
3160.65
7410.85
35125.2
1878.95
33179.7
2220.56
3079.54
1877
1851.69
2573.15
1973.18
1863.46
1837.34
2072.49
1839.58
10029.2
1839.72
1837.35
4078.1
1837.39
3003.7
3827.21
2628.59
3119.73
1837.23
8750.19
1843.3
26791.3
1890.58
1844.04
1837.23
2578.56
8162.46
1837.38
2039.06
79414
4747.9
6627.27
1837.24
2927.35
5999.06
7657.03
1842.05
2199.91
15849.4
2934.1
2034.32
2975.61
1859.85
5514.28
76351.8
7201.35
4078.65
5120.91
2403.31
2258.05
1887.26
1892.89
5217.63
12372.2
2039.4
1837.35
1853.12
6959.53
1837.29
1844.55
1837.56
7138.18
1852.25
1842
1851.98
1854
1844.17
1856.14
1847.89
6323.64
1858.84
1838.18
2205.88
1837.39
82765.7
1842.15
1837.26
1857.95
1837.23
1855.86
68985
2102.37
1855.15
1852.41
1837.39
4776.41
1971.21
5216.16
1896.99
1854.79
5127.14
1838.49
2057.61
4816.36
2540.79
1837.24
1852.96
1855.31
1846.19
1849.77
1895.63
1845.08
1837.24
1849.59
1837.24
10568.2
1848.87
1897.24
1837.22
1847.79
1867.47
5148.74
1907.34
2025.15
1849.7
1840.73
1879.02
2477.06
1870.9
1837.44
1837.25
98457.3
1850.78
1944.94
1848.24
2200.4
1851.96
1837.23
304633
4063.19
2007.63
1972.73
88194.4
2629.97
4597.28
1933.86
306397
1839.87
1845.34
1850.56
3930.47
2236.38
40579.9
2386.32
1858.39
1900.34
1863.76
3372.74
1847.06
2337.08
6148.83
2115.77
2088.98
4698.18
4484.41
2717.08
1837.77
1837.24
1837.24
1837.4
1837.23
1837.47
1894.09
17714.2
1862.67
103460
1931.53
1849.25
1844.85
2341.94
7503.53
1837.23
1929.38
1838.26
2378.29
1837.23
2491.18
35193.3
2247.19
1842.13
4186.83
1837.32
1837.35
1837.83
1837.23
1837.23
1863.1
168660
3596.58
1837.41
1838.77
1837.23
1874.11
1887.9
1837.25
1846.9
1837.47
1838.22
1837.89
1871.94
1867.43
1848.61
1845.91
1845.07
1837.46
1855.15
1849.26
1858.02
3630.5
5743.37
7055.14
134072
1852.97
1837.92
1843.38
1837.32
1893.18
1860.01
1853.1
1847.12
1843.44
11370.6
1869.49
1896.6
1851.02
1852.88
1856.79
1860.74
91236.1
61759.4
1862.66
1837.67
1837.75
1876.06
1863.35
1839.13
38074.7
1837.92
1840.87
1837.23
1837.25
1837.25
2019.49
1939.34
1877.04
36223.7
1900.31
1881.11
1902.43
12101.6
1983.89
1938.25
1837.27
1859.89
22829.9
1837.51
2796.02
1917.94
1933.67
1893.06
42942.9
1984.49
1837.3
4623.96
1837.4
6362.65
3112.45
1887.17
1837.25
1863.57
1842.71
1860.4
1868.07
1837.99
12089.5
110828
2418.17
1840.39
1837.4
2371.28
1842.2
1837.28
1842.29
1837.24
1840.25
214156
4361.4
15594.6
1841.13
2429.04
1838.34
2762.78
4880.29
1850.03
1838.01
3879.9
1868.29
2579.56
4793.05
2660.66
7032.34
1837.46
1837.87
2422.23
1837.24
1839.09
74365.1
1843.9
1839.1
1838.24
10947.2
1846.57
1837.28
1936.22
1838.66
6302.39
19270.1
1837.54
1977.04
1891.19
3096.4
1845.3
1885.56
1837.31
1874.38
1837.28
6654.74
2672.95
1846.03
27730.8
1844.38
1839.34
1837.6
2106.1
58343.6
1839.04
2259.95
3808.14
77302.3
3594.44
1839.51
1837.87
2576.89
1837.4
13046.4
11543.3
10406.8
4969.13
10581.9
1837.28
14208
14066.5
1874.16
1884.24
1837.22
3515.81
1837.4
1837.26
1839.68
1883.37
1837.23
1851.42
1847.07
4197.73
1837.24
1837.38
1889.37
1907.05
1893.81
1888.69
1837.75
3683.34
8083.32
1887.58
8821.02
1872.08
1857.29
1896.72
1851.15
3453.84
1838.53
1875.35
5913.69
1888.4
1857.21
1870.53
1843.13
1903.64
17876.8
1868.44
2409.69
1891.54
2424.91
7510.35
1945.24
1837.38
1865.23
1844.02
1941.57
1837.26
1837.24
1852.52
1865.65
2281.2
1875.33
12038.6
1917.61
5788.33
26480.4
1837.24
8834.22
1837.23
1866.46
1866.46
1851.25
1849.42
38297
13761.5
5048.84
1925.9
24065.4
4619.56
1838.4
1850.45
1837.64
1915.67
1954.51
1900.68
22896.2
1837.48
1837.65
1864.14
2194.03
1866.47
1839.28
1845.23
171602
120130
2127.33
1837.24
8184.76
1859.02
1867.78
1852.4
1847.49
2686.43
1840.79
1873.74
1868.23
2178.57
70663.1
2058.86
2119.69
4884.31
2799.09
1869.15
4065.46
49948
1866.26
1858.33
1940.13
4181.95
2714.77
1837.9
1905.53
6064.44
4123.01
25624.2
1903.85
1925.8
43343.7
1928.71
1837.24
29765.8
1928.28
1837.27
1939
1838.98
100685
1837.23
1846.91
8633.85
1946.43
132787
1937.59
54104.2
1929.66
2063.88
38072.2
1959.81
2042.32
289953
2255.33
1879.67
8333.84
1837.24
1837.28
1842.63
118032
4674.55
1837.35
6231.18
1837.23
3688.36
90389.3
15685
2153.16
60208.3
1837.36
611813
1837.93
1837.32
1855.68
1837.37
1837.23
1837.32
1837.39
1838.67
8285.44
33188.5
3581.32
2510.22
1839.9
1837.35
1837.23
1839.17
1840.2
1841.77
9745.99
4095.02
1837.29
1837.24
1840.26
9212.86
1901.46
1837.26
6607.25
1841.22
1837.24
1837.24
2105
201035
6917.32
21752.1
95362.6
1837.24
1887.99
34288.5
1837.44
1837.24
1837.41
24390.3
50454.5
2673.23
176636
1837.24
1837.23
334791
1837.23
2041.56
1840.13
1837.23
1884.41
1837.23
1985.67
1837.9
1954.63
114549
3770.95
1978.07
5035.72
4092.22
1837.23
13886
1837.44
1839.97
1837.23
1844.02
1837.23
1837.77
1887.83
1837.3
3081.24
77116.5
6227.58
8283.49
1837.82
1839.29
132246
28296
1837.23
6929.1
1837.23
1837.64
3210.87
33861.2
92118.9
10619
1837.23
61938.2
122833
12242.7
1837.57
15148.1
3169.07
3195.11
18554
1951.48
103829
3172.51
1890.17
3212.5
10504.3
3202.74
2612.78
4930.09
2666.9
1838.03
16283
111265
103992
1837.24
1837.53
176731
1837.23
1852.67
12863.1
1837.23
32240.6
2378.6
1837.43
1845.47
1837.48
1837.35
2325.33
8165.7
63802.7
12590.8
11468.5
1837.48
8679.8
2605.4
1969.48
1845.89
1843.35
1839.65
1837.58
1852.7
1837.54
1893.22
1837.38
1837.29
1979.49
21318.2
2393.76
2254.34
274862
3977.29
1846.46
2581.01
1837.31
1839.08
1882.43
1837.36
1837.64
1846.02
16259.7
4513.17
2288.45
13016.4
84835.1
1917.56
1839.3
5145.27
7397.83
1943.18
38510.4
1839.23
1963.79
1844.69
9843.64
1893.79
2528.72
1845.77
1837.3
1838.33
1837.42
42355.9
1837.24
4987.77
1844.52
73319.8
7847.98
1837.24
1839.49
91669.3
8420.33
29245.5
7860.63
1837.24
19964.9
219712
1837.24
1938.42
4156.03
3110.56
4942.99
1838.67
4776.08
36479.4
27405.7
5116.17
39538.6
11790.4
4837.94
1837.62
522647
404469
3941.12
137452
2035.67
2071.66
2914.01
1848.33
181736
3794.03
2362.23
1874.71
1966.4
2645.18
1946.63
1845.31
1852.12
1868.44
1837.23
1845.95
1940.88
1837.31
122999
14435.5
2496.07
98068.9
1930.01
1837.25
2790.69
11087.7
55134.4
2172.18
3517.34
13415.6
96953.2
354661
7192.01
1866.53
59860
1841.88
1852.11
1844.62
60866.8
1867.96
10163.2
1980.13
5624.23
14065.7
64588.9
1869.19
3483.95
1878.28
1842.4
1837.44
1863.26
1837.26
1862.43
2371.7
13355.2
103625
356677
2383.06
537617
2144.33
21900
1854.44
20287.4
51409.2
169520
1884.64
1873.79
1837.46
1837.23
1837.23
1839.26
1947.65
2942.28
2183
19357.4
3220.67
5689.03
40061.9
55760.1
405995
46552.3
1838.7
90264.9
4257.72
1845.87
1845.4
21050.4
11346.5
1837.23
1878.69
1840.22
2083.37
1837.71
57751.5
74667.8
51361.2
24906.4
1837.23
1.03535e+06
3988.72
1837.23
4213.36
1837.59
2031.8
45440.9
2117.37
2027.9
87091.1
2042.11
1859.07
2059.9
1856.63
1837.23
1837.29
7741.6
1884.18
1918.46
11759.6
3777.09
34479.5
2204.01
1901.37
1865.36
1844.95
1860.27
1840.27
7962.73
83390
1862.68
1838.09
216101
1867.5
1837.23
1887.73
1894.65
11495.5
67013.1
261412
10198.7
10560.9
1837.25
27261
1896.89
17705.3
41600.4
1837.28
15883.6
1837.23
1837.25
93075.7
1837.37
1905.41
55113.6
18665.1
75303.1
65035.9
1842.05
9274.2
7829.66
18691.5
1876.65
2078.91
44032.3
73611.1
23372.8
13553.3
1929.84
1886.19
7104.36
18352.1
26059
9157.24
4868.04
57405.3
1837.27
1837.25
255925
61731.7
8454.5
8175.9
12356.9
30967.2
106902
1837.3
6652.29
1837.26
72793.3
1837.25
5563.33
8450.08
1837.24
55416.1
1837.25
43720.4
64907.9
1837.22
1837.26
25088.1
1837.25
1837.41
1837.25
1837.24
21758.1
1837.4
70093.3
280504
1837.25
1837.27
89354.5
1869.35
1843.13
8694.73
1843.5
1843.36
1837.24
1848.81
3526.08
3381.94
80499.3
1845
1837.4
38010.2
1837.25
3788.33
27079.6
1837.24
1837.23
1853.48
1889.02
16887.8
1837.4
1837.25
1837.23
1837.23
1841.35
19187.7
60093.9
1846.68
1874.91
200489
1882.56
6185.94
1837.34
7934.42
1837.57
11760.8
22877.4
1865.18
1841.38
1838.1
7130.45
47762.6
1837.39
12171.1
2081.88
1837.23
2174.45
2265.4
1837.49
1955.5
1837.61
48664.1
1839
1837.37
1837.26
1873.96
1837.24
32153.9
6498.41
1837.41
1837.41
20051.2
1837.24
2755.98
1886.23
1837.24
309754
107650
2416.58
1869.69
1847.66
2510.32
81216.1
1843.52
141409
1840.88
84573
40898.6
1837.24
118012
57937.2
39491.3
205438
25647.5
1884.79
1841.21
1837.26
6357.83
2748.51
1971.58
97257.6
1868.56
2697.08
1838.5
8079.46
66922.1
42273.5
1841.25
7933.6
2663.46
1837.24
66521
1851.62
1837.3
1837.24
88867.6
31825.5
23255.3
1837.33
1837.3
1838.12
94579
1938.68
132091
1837.24
1837.24
81006.3
24031.3
1840.09
1843.83
229913
1844.02
1853.29
2369.47
151552
8947.3
5671.55
1839.99
304241
83285.4
2607.98
25575.3
1869.71
149966
1879.19
3511.87
41227.4
30726
206564
166626
92457.1
450582
1839.31
329622
53048.9
29116.8
1840.02
97185.4
736377
1837.23
25580.2
426366
1837.24
167219
1839.32
133948
7259.56
4269.38
30611.8
33815.4
1837.27
1839.33
1867.32
1890.19
286596
1837.25
19025.6
4939.68
1837.77
1837.85
1837.62
1844.5
1849.62
1838.74
1921.76
1837.37
117228
1840.93
78580.1
1837.89
2010.97
1847.36
2742.84
2328.95
1837.58
1837.61
1841.14
1845.52
2070.53
92053.3
98572.9
47885.1
1962.77
1880.67
1854.6
1837.23
1876.02
2170.09
1884.24
1839.77
6866.01
7411.64
88083.6
1855.9
1889.48
1909.98
8527.37
1979.19
1838.19
2381.72
1999.53
3662.73
72535.9
2398.96
112363
1884.58
2055.2
10492.3
62477
1837.29
1845.24
2570.65
1860.44
3158.22
1879.44
1935
3393
1896.82
1908.35
1839.82
1965.27
27664.1
1837.48
2953.4
1906.56
3362.33
1837.55
1837.51
3483.78
2701.5
12932.6
1881.03
1837.21
1837.3
97972.2
16902.5
1837.43
2576.63
19838.4
1911.88
2408.73
1931.45
3434.98
17374.5
1908.87
1894.28
2984.57
1838.38
21557.2
2334.29
1846.38
1893.2
1841.64
1838.06
1846.86
1842.92
1837.59
1850.52
2711.71
1893.03
1847.71
3826.49
1850.55
2371.75
8771.43
1837.56
1848.36
9827.6
9208.54
1837.62
2067.06
1838.51
1850.12
3900.45
1845.92
1847.38
4756.26
1894.57
1838.38
1837.76
1839.69
1851.5
1838.62
2295.19
5928.35
52592.3
11271.5
33968
2386.84
2415.86
2051.21
1913.36
68817.2
2002.68
1930.73
9657.77
2004.13
54202.9
1846.34
1988.25
1889.93
3345.24
10299.3
3306.18
10475.6
1901.38
3420.78
9001.82
1838.78
10975.6
1850.21
3673.27
3405.69
3975.92
8953.89
3588.97
11792.9
3001.69
10719.1
3617.85
1893.24
1837.25
9357.14
2809.35
1858.25
1842.45
1867.73
3367.19
1862.02
2559.63
2088.37
1837.24
1837.23
1888.34
2153.13
2817.41
1837.23
2228
1877.27
1846.02
2441.96
1837.24
2340.48
1858.24
1845.58
1838.87
1837.24
1957.37
1837.24
1837.23
1837.24
1976.49
1871.98
1838.78
4196.99
1868.56
4130.99
72599.8
1837.24
1948.04
2146.45
1837.23
1837.23
1873.43
1837.23
1837.23
3901.6
4470.05
2120.36
1847.95
1905.56
1837.23
2476.92
12772.7
1837.23
1837.25
3844.39
1837.23
1837.24
4371.27
1837.25
3141.08
2778.4
1838.42
1837.23
1989.41
126526
80499.7
1895.8
1837.23
1837.23
1853.63
2500.98
1848.81
1837.23
1837.24
1969.31
39717.8
1837.25
1837.25
1837.27
214059
4192.83
4170.63
206288
3170.36
1877.39
1963.91
2374.24
1882.62
1851.35
54325.6
2669.18
1848.67
2580.37
216249
1849.11
1850.05
232086
5240.24
227026
1848.27
2803.2
1856.48
1896.41
86694.6
1850.13
89003.9
2038.37
1838.89
84756.9
2007.42
1843.16
2930.06
94250.5
1854.43
3683.39
78719.9
1924.19
2200.38
94426.2
5128.44
1940.24
1879.45
6859.8
10486.5
4454.71
32251
1837.23
1840.79
3431.46
1883.54
3210.3
2848.85
1844.83
1846.17
1848.66
2741.53
1916.56
1884.1
1871.99
1837.57
2448.34
1841.38
2898.14
107502
1839.08
2729.62
2753.99
112956
1844.81
2950.67
126257
1837.26
2953.45
3001.87
6232.2
1840.4
2766.31
1837.27
1837.28
2052.59
1837.28
16778.9
2869.63
2758.34
83147.1
9308.65
1842.8
2074.05
3051.42
1845.5
1845.38
1856.63
2755.55
1948.24
4093.22
1875.85
5157.16
81778.1
2971.79
1883.56
33245.9
5035.51
1888.97
2735.56
9227
7009.7
3002.74
2477.42
2541.11
2127.59
2451.04
27875
3402.69
2072.09
2030.28
3471.18
3644.1
1840.16
2221.59
3416.71
2842.49
2105.07
4472.24
113742
3705.12
1843.1
283426
1899.19
1860.78
12991.9
1837.93
295635
1837.26
47258.9
34258.4
28551.6
1837.22
1841.47
1838.46
277097
2338.62
38904.1
1880.89
263199
285113
6265.39
1837.67
118816
2556
4103.26
165449
9772.78
1839.71
3639.22
1850.75
2539.54
1837.67
1903.97
1837.71
1912.79
1931.09
1837.53
1880.03
419302
1851.83
2415.58
1839.14
5334.91
5072.8
1864.28
3341.67
1837.45
1879.45
2179.36
1894.36
1861.39
1841.65
1887.64
1837.66
2342.73
2012.69
360130
1837.66
1949.03
4140.69
145836
1837.24
4277.13
9613.92
1837.24
1838.46
229344
1837.35
1871.94
1837.24
1839.17
1847.99
2161.18
1837.24
1838.46
1848.1
1837.53
6901.69
80266.1
1837.24
2081.22
1837.24
9762.28
4329.45
1837.57
1837.23
76526.5
1860.89
1944.66
1837.49
3729.92
1892.36
1837.23
1837.23
214023
126936
1837.39
3737.66
1837.65
1837.37
1903.25
6476.5
1837.7
1940.54
3058.28
1904.72
1837.55
3159.68
1901.48
11001.7
52014.1
1879.17
1876.93
1938.76
113274
1837.55
1837.69
1837.27
1837.24
1837.24
1837.24
1837.24
15756.4
1932.12
1843.1
2021.15
20989
25947.1
1837.43
3561.1
4395.01
1841.26
4105.13
582374
1841.29
14541.2
8239.71
1867.45
1915.73
1899.04
11056.2
3991
1867.49
1871.34
1908.84
1839.08
1919.46
2212.4
2722.74
4838.63
1860.91
1837.44
1900.82
17954.5
1882.76
1905.26
1837.38
26063.4
28205.3
1837.23
1899.88
1837.62
1965.03
3392.9
91663.8
1839.4
6235.26
2350.47
3502.49
1837.23
1840.41
260147
1837.23
1837.25
1837.27
1837.23
2012.42
2076.98
1861.37
2649.53
2207.51
1880.01
1868.14
1837.28
45893.5
13618.9
1837.24
4541.88
1837.27
1837.27
1837.25
84980.6
17340.3
247449
1886.9
1845.44
1837.36
1858.46
2217.05
1924.94
151798
1837.38
1837.27
1850.82
92246.8
167700
2023.71
1837.26
184286
184046
3853.28
121648
16073.2
2380.48
61859.3
9291.39
1837.23
1841.67
1837.23
1865.6
1842.79
1863.62
126674
86921.6
15426.7
9671.02
13391.6
1865.68
3485.23
3740.26
4488.41
1975.39
15802
2089.81
48506.1
16174.4
1837.24
3250.94
15258.8
1953.09
1844.27
181163
1906.57
1837.25
17656.6
84284.1
1838.44
1840.47
1844.72
1853.85
1849.91
1837.25
1841.05
2913.85
257606
1838.3
1881.09
2105.46
15733.6
5772.5
1851.46
1837.24
1842.48
15449.8
1838.29
1875.72
2603.81
1837.25
1946.59
1837.43
1841.47
73273.5
2124.81
1837.54
1837.49
1837.72
1843.64
1898.84
2011.25
1837.31
2050.53
1860.8
1837.66
4108.35
1837.25
1843.7
1837.37
1881.32
1869.34
1842.51
1988.97
1837.69
1839.37
36589.2
1843.37
139595
1988.22
1837.23
1837.3
1841.58
1841.91
1991.91
5281.43
105521
34840.7
135750
2396.46
2827.32
2939.41
109658
111033
3092.59
12243.3
1839.01
1994.82
1837.35
1841.39
1837.23
1838.19
2211.25
55904.5
1837.23
104744
1871.32
1915.86
2011.11
1837.23
1873.84
1837.24
2276.53
199635
2494.09
1846.48
1837.23
1938.54
2822.55
1877.03
2628.77
75021.1
2013.24
50825.5
1838.63
1838.97
2174.4
34860.6
54581.5
50658.3
38062.4
13296.4
2565.13
173443
21085.2
48477
1839.27
1891.1
1837.24
1837.3
3334.75
75711.4
7489.38
3105.51
73670.2
76605.4
1889.34
79320.9
17248.5
1853.26
1837.61
1837.23
5113.88
8205.03
3883.94
1837.34
5460.27
54705.3
10401.2
189831
6893.68
11758.9
101627
1841.46
5803.59
100411
3925.25
1841.65
1921.37
7110.17
1837.25
1837.66
99143.2
1837.23
1848.34
74629.5
1860.27
100063
53631.4
1869.9
2208.47
7603.54
8009.47
2659.68
7747.77
2807.04
7963.03
1855.22
1838.55
7784.31
2668.97
7538.28
7365.41
2476.84
6065.95
2656.92
4900.61
277468
1837.34
1893.09
9753.79
1844.88
305506
1845.48
1837.53
1837.5
9574.17
1852.35
2921.06
1843.71
1837.93
4032.6
9744.63
9963.67
2665.05
1837.23
14536.4
294533
102286
1837.25
33154.3
142921
13525.1
275122
1878.5
33321.5
1840.42
1846.56
1844.22
1837.23
1837.31
1907.74
1837.29
282932
1837.38
2085.69
1837.23
1837.23
1837.24
1839.39
1837.5
6790.96
3311.66
1837.24
1837.23
61704.5
1882.9
297210
3460.03
1837.23
43022.3
1933.13
1837.23
1837.77
292471
1900.88
1837.23
3749.61
1945.67
1859.15
1837.23
2601.22
1852
1837.86
1837.52
1837.95
1838.11
1861.61
1964.31
12249.9
1837.23
1997.74
1837.23
4682.39
1837.23
1922.21
1895.95
14955.4
1853.53
1857.59
1860.73
1857.25
5332.37
1856.61
1837.36
1851.1
1837.67
1837.24
171675
1837.23
1837.23
1847.15
1856.4
1869.6
3210.3
1853.31
1853.57
1887.96
2651.99
1837.34
1861.03
1837.39
1906.53
1843.24
1838.16
1847.47
2470.47
1838.51
1838.98
1838.01
1839.08
1838.27
1838.78
111725
3557.85
2053
1890.54
1840.56
3194.09
1846.36
2069.75
3525.66
2567.93
4474.67
1838.59
1839.23
1837.29
1871.74
82617.9
1846.38
1838.13
85748.1
1839.14
1837.34
1837.28
1837.23
1840
1877.89
140825
1857.37
1838.43
1837.3
94830.4
76358.9
87824.9
2342.68
16462.2
12274.5
1878.59
1838.72
1914.12
96525.1
1837.25
1854.45
1837.29
1921.79
55560.5
1837.35
1837.25
1837.74
3114.71
2058.85
5189.15
6736.37
1837.46
10040
23662.7
1837.62
2613.15
1843.76
1837.25
1837.51
1894.89
1849.11
2352.41
1837.6
8984.71
12321.8
12350.4
23095.8
15344.4
2098.96
1837.63
1837.78
1847.42
2144.61
1837.62
1838.46
1838.59
1855.22
92522
2049.19
2081.78
4730.37
1837.29
14462.1
3648.07
10929.6
1991.28
1838.49
12615
1846.8
1838.51
1837.24
29837.4
16608.5
14985.4
1838.96
14629.4
1837.28
1868.45
1837.31
1923.02
1839.12
85944.6
5271.96
1837.32
1837.28
14032.3
2476.28
1837.26
35958
1838.43
1837.25
76863.2
1837.23
2067.72
1838.37
4410.71
1865.23
1838.53
1864.83
1837.23
2076.38
1857.64
302209
1837.24
2067.62
1864.27
1921.58
28511.3
1837.87
1856.42
1837.51
41209.4
1862.43
9289.26
42645.8
17193.9
1837.24
102320
5625.75
1856.85
1841.91
49657.5
4689.84
1837.23
34202.8
28596.4
1879.82
1917.93
1844.75
41140
1838.44
1838.63
1837.33
1859.74
106887
1859.95
665323
1868.21
6962.84
1858.08
1837.46
4932.02
1859.12
1898.29
1844.24
1837.27
2347.44
19980.7
20142.6
6522.93
26409.1
18843.5
24054.1
1869.14
1838.28
1837.24
32299.8
95627.7
102105
2641.64
1952.1
17066.5
27738.1
108757
78559.2
1837.24
165769
108333
20848.7
1837.24
9509.6
26240.5
27804.3
79180.2
16455.7
9607.45
22293.2
1875.95
24456.3
1898.64
21863.9
2562.93
93152.1
25696.6
1854.05
1877.18
7360.07
23234.1
2020.7
5137.01
1838.44
1837.26
28669.7
1941.67
1850.5
1919.98
1837.28
3329.87
1837.25
1.17839e+06
3501.46
1837.22
1851.66
23044.4
2079.34
268301
84866.8
28144.9
2079.18
1837.24
1837.24
44912.2
1837.23
1837.23
1879.17
1893.88
1957.03
25105.4
2484.54
1898.79
20050.3
80718.7
1842.06
1843.66
41812.5
1868.12
1907.68
90836.5
1837.22
1837.26
1955.91
17895.8
681433
31137.9
1837.69
2009.97
1837.36
28075.3
207962
10908.4
127922
1837.23
1957.68
1837.23
2111.56
1837.27
38381.3
25130.4
1837.23
87483.2
1837.23
1837.23
5399.54
1839.26
2341.69
1940.19
56182.9
69188.3
1837.23
1837.26
5293
100597
1839.14
2093.57
716543
1845.92
1902.61
1958.66
1837.23
1837.33
1837.3
1837.34
1837.28
1891.47
1840.16
1928.48
32714.6
1844.39
24784.2
165612
7758.6
32807.8
1837.27
5159.42
1865.93
1837.28
24040.5
34019.4
86583.6
29821.4
59813.2
57126.7
1846.15
3058.17
55618.5
15541
43960.2
6867.86
1889.62
53036.8
1837.29
1837.27
1837.23
2757.91
4794.02
1908.75
62281.3
1837.23
1887.3
1839.05
49374.3
93350
1837.29
40034.9
13899.9
3800.52
35588.8
82053.6
1837.23
1847.91
42701.1
1960.91
1844.15
1839.42
1840.47
1837.23
1932.84
1837.35
61457.7
26674.6
71791.2
2640.94
2422.43
7047.14
1845.25
1837.23
1837.23
47151.8
1840.43
1837.27
1840.9
83945.3
1858.06
79754.9
11785
8681.42
5522.58
18717
1963.68
12198.9
1840.14
1869.17
2284.41
51776.4
5122.51
1918.48
1858.08
1839.61
8848.26
1863.19
100856
11611.3
18063.7
18342.2
1837.53
1860.31
47008.2
5045.11
1868.82
16991.5
5153.41
2413.25
1837.24
18014.6
2065.87
65212.2
1841.94
1837.24
2663.47
2665.31
1842.69
1837.21
9339.16
51230.5
11245.2
1920.27
1841.46
5449.75
11530.1
1839.64
1837.25
1840.51
129385
60548.1
594541
9367.23
1846.85
52768
52248.8
1872.03
1846.79
1953.39
1885.88
1897.35
1888.36
25829.6
1841.49
1987.41
1844.58
53930.2
1837.24
1837.23
1839.98
1837.27
33815.5
27587.7
1838.73
53753.4
2023.21
1901.63
1837.46
1858.8
1838.01
54172
8454.03
1843.05
1842.91
7792.85
1879.32
1863.62
1876.06
1838.13
1871
17257.6
1901.68
2624.16
1837.41
1837.36
1840.15
15034.9
1838.23
1840.03
25791.1
1837.55
1922.92
1853.29
1899.92
89991.2
1863.33
2697.44
1968.68
3768.59
1840.2
1882.94
1838.2
1837.37
1841.91
1983.76
1910.15
14661.6
54953.7
1837.53
1854.25
1914.95
1851.76
1864.56
1837.28
1837.85
1861.13
1866.06
1885.58
1862.27
1837.24
3084.49
116659
21663.1
1967.27
24071.9
1848.62
1875.5
21103.4
1861.44
94811.3
1987.02
5599.61
1844.48
1837.24
1860.77
1837.34
1863.84
1841.02
3827.85
27264.5
1837.52
1837.51
1842.74
1941.98
1894.88
1887.88
1838.14
1845.81
1838.3
4334.8
3558.13
3640.53
1882.11
1837.33
3980.52
3950.02
3184.58
1881.56
1926.79
1840.75
2814.23
1837.41
3646.68
2049.09
1938.47
3802.99
3823.19
55280.5
3459.47
27889
12386
1876.82
795990
1865.42
35088.9
1839.03
33967.8
2413.92
37690
20334.3
1851.9
1841.68
1873.85
29780.9
98828.8
1837.28
19402.8
2178.48
89959.1
1837.27
1847.33
1840.45
1869.97
10068.1
1846.91
1868.68
1871.34
1842.91
1893.35
1843.25
25392.1
101976
2200.86
1854.89
1837.28
6536.69
1843.37
1837.3
3894.12
87662.9
4000.87
1837.28
1854.85
13122.7
3971.55
1837.23
1837.25
30295.2
15072.9
33600.7
1855.03
20477.7
2077.89
1841.52
1871.52
1837.62
1837.23
1867.21
1919.01
1837.23
1837.32
1837.77
1849.1
1873.98
1837.23
1838.13
1839.34
1837.23
1837.27
1876.7
1847.44
1837.34
1837.23
1837.36
1837.26
6090.03
6618.99
3878.46
1837.23
1837.36
1837.23
1837.23
6420.51
1837.7
1839.85
1868.31
1837.24
1837.41
1837.24
2212.43
1837.47
1837.41
1853.16
1837.23
1837.48
3464.73
1838.52
3972.91
4111.95
10136.1
1837.23
1837.53
5413.75
1840.44
1837.27
1837.45
1837.29
1837.24
1857.25
1837.37
1854.62
1865.54
1890.86
21269.8
19013.9
1847.02
1892.15
1843.1
1837.46
1837.23
1837.23
1838.42
1837.53
23745.7
497870
1837.24
474291
1872.92
1837.3
292020
340081
1856.47
4343.23
13603.5
1865.83
1837.28
1837.28
1935.3
1837.24
341796
1852.16
401148
1837.84
1837.23
1840.83
14914.5
15194.8
13415.9
1862.4
1838.1
1841
1847
1837.24
1837.68
1837.23
1837.27
1837.28
1837.48
9055.09
1844.02
1883.28
1892.91
1838.98
1837.37
1839.96
1837.28
4777.75
18708.3
6337.1
1858.6
1926.4
1858.11
1845.12
1883.43
1865.16
1839.93
1871.36
11975.2
1882.4
1837.82
1900.82
2922.68
1840.26
5256.76
1891.03
1924.8
2906.96
1846.89
2967.73
114398
2744.41
1952.07
1837.48
2423.36
2758.01
1878.62
1837.26
1838.89
1839.47
2375.78
1884.69
1906.91
2559.71
29611.8
30809.9
44073.2
1838.29
1852.53
31755.5
1862.91
1922.78
1847.34
1876.44
1840.4
1900.3
40097
81880.6
24016.4
3445.05
30351.1
1839.26
1896.5
1906.13
32680.6
3639.42
1838.83
96129.7
1840.63
29987.9
1877.36
2715.91
1945.61
1847.41
20696.9
1850.51
1900.39
1837.85
1867.41
1901.41
1854.06
8968.46
27329.8
1837.51
1881.46
60610.3
1841.11
1848.94
1902.49
1872
1881.89
1838.85
1886.66
1890.41
1837.7
1837.39
1906.97