/*--------------------------------*- C++ -*----------------------------------*\
| =========                 |                                                 |
| \\      /  F ield         | OpenFOAM: The Open Source CFD Toolbox           |
|  \\    /   O peration     | Version:  v2012                                 |
|   \\  /    A nd           | Website:  www.openfoam.com                      |
|    \\/     M anipulation  |                                                 |
\*---------------------------------------------------------------------------*/
FoamFile
{
    version     2.0;
    format      ascii;
    class       volScalarField;
    location    "5";
    object      H2O;
}
// * * * * * * * * * * * * * * * * * * * * * * * * * * * * * * * * * * * * * //

dimensions      [0 0 0 0 0 0 0];


internalField   nonuniform List<scalar> 
108993
(
2.93956e-30
1.16372e-12
5.87191e-35
1.95049e-107
1.09729e-101
2.1403e-76
0.00197857
5.68227e-127
2.43284e-78
7.65838e-30
2.1775e-70
0
8.08385e-105
6.77988e-75
1.15792e-63
2.02598e-12
3.66356e-21
0
3.32859e-102
1.67209e-29
1.52566e-99
7.86313e-89
8.69849e-61
0
0
3.71222e-58
0
1.56746e-34
7.74613e-33
3.73576e-65
5.9203e-94
0
0
1.25624e-20
4.37295e-103
2.55377e-93
3.7988e-100
5.54016e-88
0.00193392
0.018293
8.00917e-41
2.89682e-82
0
2.64318e-111
2.87498e-16
0.0432039
0
0.000151311
1.62076e-34
9.47096e-50
0
2.78567e-10
3.42179e-17
2.2899e-105
3.51596e-55
1.96438e-53
1.61628e-102
1.6955e-87
5.56374e-88
3.07098e-85
1.00562e-80
7.84881e-81
1.29789e-65
6.11188e-107
0
4.408e-43
9.97255e-107
1.1417e-91
2.6013e-56
0.00174073
1.60198e-69
1.48031e-96
1.14842e-91
2.59433e-95
2.49065e-28
8.78046e-85
1.20836e-107
2.15487e-18
4.159e-105
3.69021e-108
5.18292e-49
6.28534e-48
4.77499e-96
2.49415e-86
1.68869e-60
2.21725e-85
0
1.29353e-73
1.02517e-97
9.08661e-105
1.77422e-96
1.31027e-91
2.55942e-97
0
0
0
4.85613e-91
0
4.40472e-95
1.3919e-101
0
5.98498e-85
3.72948e-71
0
2.4687e-77
3.15591e-100
8.47447e-62
3.24325e-90
0
0.0102177
1.62919e-25
6.47676e-97
1.91339e-21
5.03231e-14
1.27729e-85
0.000881609
6.16509e-96
0
4.40525e-11
1.66895e-89
1.34102e-55
4.11215e-77
0.00790975
1.83e-44
1.94433e-92
4.29419e-21
1.75205e-38
4.46458e-44
9.61409e-78
1.32552e-80
5.49558e-56
9.31256e-80
6.26841e-76
1.60384e-08
5.90531e-92
3.00352e-46
3.25437e-76
0
7.11587e-63
9.28012e-69
2.95028e-46
3.61908e-89
2.46486e-21
2.27086e-78
1.8252e-79
2.51692e-95
0
0.0291313
0
3.92689e-06
7.04464e-06
0
5.07792e-36
7.57068e-06
0
6.15932e-26
1.25327e-54
6.97194e-92
7.05273e-97
1.76819e-06
4.97962e-06
1.94087e-98
6.87034e-93
0
0
1.79752e-12
0
0
1.4355e-105
1.24419e-83
0
0
1.74686e-11
2.55873e-87
8.57639e-46
2.37019e-55
2.46158e-06
1.77863e-106
3.22633e-63
1.5319e-99
1.58643e-30
7.73548e-89
1.38511e-95
2.86578e-48
1.05645e-62
0
0
2.26546e-65
6.49884e-55
3.23137e-47
0
3.44243e-96
0
2.04935e-06
5.31956e-85
2.52688e-31
4.8672e-40
1.45703e-82
1.27817e-81
2.65016e-49
9.721e-94
6.61361e-08
4.36848e-90
2.67149e-86
0.000563924
4.87625e-06
1.67085e-59
0.0181568
0
0
1.91872e-05
1.41656e-89
2.0841e-05
0.0122972
0.0628425
0
1.17353e-56
5.61541e-60
4.52035e-93
1.01783e-85
1.74645e-56
2.89324e-05
1.67396e-20
7.03819e-07
0
1.38196e-106
5.75238e-94
1.24418e-52
4.90149e-07
1.46918e-66
0.0229579
1.45749e-63
9.97561e-105
1.038e-37
6.34797e-93
0
1.21679e-86
2.87129e-82
0.00121801
3.28066e-92
3.61209e-100
6.82831e-60
0
1.5111e-93
9.484e-84
6.67308e-11
0.0135361
0.00718506
2.37129e-89
4.65498e-89
1.81651e-88
2.47152e-96
7.24747e-73
9.48407e-87
1.20838e-89
2.609e-90
8.73804e-88
7.10443e-56
1.34455e-84
0
7.379e-58
1.53869e-29
1.80786e-22
1.44694e-19
0
3.44426e-52
1.02231e-58
6.37745e-37
7.8925e-78
6.95369e-68
6.36878e-112
1.65106e-40
0.0168
5.71591e-05
0.0283976
4.67489e-69
4.26903e-97
0.00501882
0
2.64701e-36
4.67153e-38
0.054616
0.0511183
4.28008e-75
1.42569e-72
1.64401e-34
2.05728e-103
4.93382e-41
7.02312e-45
0.0239274
7.3923e-59
5.72793e-66
8.5511e-41
6.98311e-65
2.47527e-76
1.51563e-57
2.22259e-88
5.32005e-61
2.65808e-05
8.95792e-104
0.00193867
0.000179702
2.75514e-69
7.1148e-106
1.93161e-73
3.6706e-33
3.12428e-98
7.86339e-23
9.19545e-30
0.0136081
0
6.01381e-81
2.9658e-31
1.57916e-82
4.48063e-26
0.000609244
1.73763e-110
1.77933e-32
0.0113719
5.36611e-71
1.51398e-21
8.71287e-110
1.34326e-37
5.33865e-40
5.20327e-73
9.77972e-05
1.97717e-05
0.00404939
4.85483e-85
3.25453e-29
1.82212e-61
0.00333026
3.77469e-05
6.81672e-67
0.0106439
7.90598e-71
0
0
7.72535e-72
8.44235e-76
0
1.26603e-07
3.20655e-45
1.9586e-61
2.33517e-68
5.18999e-59
1.27445e-49
4.73853e-71
6.44517e-122
2.37739e-48
2.21487e-70
0
0.0573269
0.015822
0
0
3.63972e-60
0.0346386
1.24845e-82
0
2.56646e-30
2.00966e-46
2.58172e-50
2.26058e-49
8.77927e-30
3.02228e-41
1.03003e-51
6.49426e-76
0
0
7.40611e-17
1.10545e-38
1.75029e-48
0.00024264
3.26117e-39
5.18386e-05
7.76308e-44
8.97997e-68
1.60744e-05
3.45021e-80
2.35638e-05
2.88108e-05
3.91599e-41
4.56872e-08
7.4051e-53
7.14927e-56
8.98018e-36
0.0202049
1.88817e-42
0.0107964
1.63174e-05
1.88719e-56
1.59829e-05
0
0.0148617
2.11558e-40
7.52962e-06
1.31552e-106
2.04927e-18
4.80018e-79
3.61188e-39
0.00980842
0.00759932
1.78706e-90
1.14196e-64
0
1.57658e-55
8.75725e-78
3.56931e-29
0.00044323
0
3.2414e-54
0.00103255
2.12085e-65
1.23993e-76
5.88528e-78
0.00215761
0.00317235
0.0176692
1.08175e-92
0.00128509
6.33447e-16
3.51603e-06
4.07447e-111
8.96236e-96
4.91272e-08
3.17444e-84
0.00507314
9.94804e-07
5.37279e-114
0
0.00980862
2.91299e-06
4.41384e-81
8.91539e-91
1.92018e-31
6.0182e-84
1.66655e-53
1.04927e-95
2.81881e-79
2.17454e-62
6.97617e-54
3.45582e-49
2.35733e-73
0.000446758
3.78498e-14
1.46338e-18
8.47854e-13
1.63881e-52
0
1.93436e-66
0
4.46127e-52
2.17004e-27
1.18832e-93
4.21049e-67
0
0
2.73579e-69
0
0.000161228
8.63575e-33
0.00579226
9.79881e-06
2.43045e-08
5.56565e-41
9.11612e-39
0.0078142
6.1795e-40
2.59767e-37
0.000396967
8.47985e-92
0
7.05354e-27
9.31207e-98
1.72792e-32
2.78378e-81
0.000729556
0.0162774
1.35004e-10
6.3667e-71
1.75616e-75
1.00867e-76
1.11583e-53
7.36478e-25
2.19521e-41
6.47588e-38
2.26708e-41
1.41315e-13
7.1035e-20
2.26635e-67
4.24901e-38
1.11943e-18
1.05733e-37
2.7303e-11
1.08734e-66
7.05992e-24
3.17586e-64
4.08223e-48
8.73291e-21
3.98412e-88
3.12546e-74
6.94825e-73
2.96184e-44
1.94185e-21
0
1.21211e-50
2.88014e-77
0.00763923
2.24783e-48
3.20295e-14
6.65152e-18
2.29302e-78
1.27623e-43
1.35283e-50
8.29516e-87
6.07995e-63
1.68771e-50
1.01766e-20
1.82837e-23
3.3938e-62
2.659e-63
1.74979e-20
1.49683e-23
1.7415e-34
1.34193e-07
0
2.29788e-53
3.25938e-07
5.04873e-22
3.14993e-54
5.57614e-84
3.99954e-08
3.0084e-60
0
0
2.09532e-34
3.91817e-80
9.30849e-17
0.0158351
3.90693e-62
0.0268732
2.65166e-107
4.05626e-62
3.29061e-74
5.96507e-62
5.78576e-67
9.78314e-08
3.57287e-72
3.08704e-102
0.00361471
1.24101e-51
0.0605015
3.85352e-66
6.89875e-64
2.91654e-63
1.96981e-101
1.05372e-31
0
1.93948e-23
3.54553e-24
6.32879e-82
2.72584e-43
1.30548e-21
0.00220317
0.00311938
2.61496e-54
1.81784e-77
3.38134e-36
4.81679e-42
4.09161e-43
1.6727e-20
0.0611833
0.00114102
0.004648
1.48959e-25
5.86742e-73
0.00258613
1.68074e-06
0.000345391
1.74196e-32
6.37096e-48
1.83054e-44
3.95382e-85
1.31094e-48
1.18758e-17
0.0474379
0.00117594
0
7.9839e-104
3.989e-34
2.87676e-79
3.29201e-20
4.95384e-48
5.04201e-05
2.54549e-67
1.90885e-75
6.43495e-82
3.17901e-05
1.60297e-17
3.88161e-43
0
0
1.43775e-32
5.12193e-72
9.75132e-80
0
8.86691e-81
5.40432e-25
1.21126e-49
0.00011908
4.65146e-42
1.25067e-07
1.4632e-46
1.50537e-28
1.47575e-50
1.94746e-18
1.18345e-82
0.00779521
3.90109e-105
1.4934e-09
2.66148e-101
7.35046e-40
0.0259636
1.24226e-13
6.27567e-77
1.53432e-72
0.000244868
0.0572475
6.77294e-20
0.00639708
1.00055e-28
1.46989e-06
6.68612e-08
2.06827e-20
2.44378e-67
1.0379e-77
0.00312871
2.27231e-09
5.99387e-18
5.91224e-57
1.01524e-15
7.8557e-64
5.38407e-17
1.03425e-78
1.45552e-19
5.42098e-43
2.16573e-16
1.49283e-20
1.13305e-19
1.29462e-20
4.85822e-09
0.0211355
0.0449754
0.00198982
4.82248e-19
0.000128655
0.0447047
0.00104386
0.0438322
0.0451775
0
1.17085e-25
3.43709e-65
0
1.75403e-41
1.90902e-18
8.00718e-28
0.0134919
0.0190149
3.8601e-26
1.96949e-14
4.59789e-16
0.0455037
0.0444142
1.20955e-86
1.2294e-10
0.00322326
1.31869e-74
0.0381378
2.37744e-06
0.000767257
2.85125e-09
2.1257e-22
0.0308156
5.25298e-23
0.00217625
0.00119183
0.00312046
0.00106918
5.11986e-88
1.84082e-41
2.12183e-18
3.51889e-40
4.75262e-35
0.0152586
1.55291e-09
0.0108526
5.83672e-08
0.000806295
1.07012e-18
3.15049e-75
7.09209e-106
0
3.74031e-19
2.81686e-93
4.45462e-20
0
2.13615e-81
0
1.03789e-16
0.0190561
0.0034721
3.78935e-44
0.00102119
1.67282e-35
3.48948e-22
2.50362e-10
0
3.29775e-22
3.63285e-19
1.5287e-16
7.67328e-12
2.54202e-11
4.40676e-45
1.63516e-15
3.68907e-12
2.34118e-29
1.10853e-05
1.02743e-100
5.33599e-13
1.39381e-15
1.37722e-11
2.16017e-14
0
5.42091e-103
0.00107271
3.02008e-108
1.99891e-40
4.67321e-07
4.34904e-63
8.42146e-12
0.017151
0.0173615
2.16479e-24
1.66444e-18
4.74442e-19
7.31603e-20
6.59197e-22
3.14367e-11
8.32665e-57
0
1.33191e-107
3.96551e-23
7.85005e-111
3.04899e-13
2.61781e-106
2.71227e-18
5.20289e-14
4.80008e-34
1.32919e-18
2.69093e-104
8.14984e-22
4.85189e-35
0.00265785
4.57612e-50
7.17204e-12
0.0149657
0
1.08551e-49
6.0145e-31
8.6641e-05
1.71019e-90
0.000150775
0.00897715
1.48594e-46
1.22144e-29
0.000900874
0.00608306
1.79426e-28
5.94523e-50
0
7.18537e-31
2.47547e-32
2.33645e-22
4.41947e-53
5.87125e-14
0
8.47422e-73
0.00305824
5.07353e-100
0.0325927
3.96171e-83
1.15894e-61
0.0242859
4.97438e-22
0.00186221
1.87091e-38
4.1893e-07
7.25142e-62
5.02334e-15
4.09843e-22
4.02343e-92
1.10875e-40
2.27776e-25
5.45862e-75
0
0
2.44404e-51
5.06637e-56
7.42611e-31
3.11959e-43
1.74105e-103
0.002396
4.49404e-64
0.00510331
1.55733e-33
2.17511e-68
0.0159321
5.25022e-29
0
6.03998e-38
4.72523e-56
0
0.000146263
6.52262e-11
2.19588e-31
0.00125552
0.00344245
4.65048e-10
0.00263016
0.0153374
2.6151e-07
1.30128e-28
5.52941e-12
3.24894e-32
5.66506e-26
0.00258842
0.014446
1.60295e-25
2.62502e-40
9.82064e-29
0.00142753
3.83326e-23
8.09953e-29
0.000643456
7.9536e-38
1.14182e-84
0.00099047
3.53383e-29
0.00123753
1.29678e-26
0.00135393
5.65174e-28
1.46969e-16
0
1.14432e-08
1.08815e-08
4.09567e-67
4.32007e-76
2.18802e-78
0.000106157
1.62208e-25
0.0602995
0
3.57697e-83
2.29216e-50
1.98877e-07
2.76071e-31
4.17473e-07
2.91948e-97
2.93485e-51
8.14125e-13
0.0543848
8.49229e-81
5.61942e-08
2.03022e-16
0.00288849
0
0.00372477
0.0401506
0.0597375
2.62035e-19
1.46494e-14
6.58371e-39
0
2.90228e-92
7.18241e-05
0.0235336
8.71567e-05
4.15665e-84
1.67061e-78
2.60674e-10
3.76404e-19
0
4.09945e-77
4.77644e-103
6.86638e-16
0.000372796
0
0.000493517
9.9186e-15
7.70456e-25
0
1.74136e-86
9.93429e-67
0.000392049
0.000249911
5.53193e-23
0.000116544
3.74885e-121
1.17332e-79
4.72193e-18
1.95485e-09
0.00779982
2.2474e-47
0.00598044
3.64117e-08
1.58991e-19
6.61211e-17
0
2.35903e-19
0
2.09007e-39
1.20438e-94
3.90303e-21
2.23422e-32
1.71721e-09
8.43479e-56
0
6.36128e-06
3.45866e-82
3.96697e-17
1.15387e-20
1.34507e-21
7.96879e-24
1.40434e-64
0.000643969
5.24507e-67
0.0150757
3.87992e-17
2.58514e-25
8.27917e-84
5.97534e-31
1.63115e-09
4.07307e-80
4.08189e-21
0.00279775
1.47627e-17
9.30132e-08
7.14295e-67
7.96195e-28
5.91152e-05
0.000351771
0
1.2091e-07
0.00630474
4.09007e-26
1.50168e-22
7.16289e-25
2.1803e-31
3.17238e-35
0.0241442
3.21237e-14
6.19816e-05
4.94816e-06
1.748e-16
2.57254e-15
1.06538e-30
7.37279e-23
2.78585e-05
5.51689e-05
2.92484e-22
2.04575e-91
4.11841e-64
4.81973e-05
1.11532e-98
3.70272e-69
1.74509e-94
0.000208103
0
8.37202e-38
9.40809e-41
0
5.39183e-44
0
3.23727e-30
3.15734e-11
9.52418e-44
6.60653e-49
2.29003e-36
4.45387e-89
0.0262389
4.1586e-84
5.13061e-35
6.70768e-63
5.31794e-43
0
0.0241585
3.86922e-05
5.89105e-64
4.02267e-39
0
1.35841e-29
6.01443e-16
5.56543e-21
4.2777e-58
0
0.00233914
2.55789e-85
2.28471e-05
6.97712e-06
0.000900142
0
0
2.47724e-35
9.73654e-74
2.93774e-38
1.3335e-18
0
1.31565e-80
1.66223e-35
6.45193e-73
0.00819789
2.38331e-37
0
1.07897e-84
7.70308e-36
2.51076e-21
3.58952e-09
2.76822e-26
2.85688e-46
2.09334e-36
3.21776e-63
1.88632e-29
0
1.47373e-74
6.15547e-112
7.65294e-76
0.000262252
1.53215e-50
1.43678e-12
6.29822e-88
1.39072e-09
7.5123e-15
1.55567e-77
0.0571061
3.95934e-30
1.64121e-23
1.15099e-19
0.0254372
5.55788e-30
8.43423e-10
2.96747e-13
0.0564536
4.65765e-45
5.03096e-78
0
3.4086e-14
6.0613e-10
0.00344772
9.08563e-08
1.57163e-71
7.0831e-23
0
6.14925e-06
6.81349e-27
2.19677e-06
4.19059e-28
5.81504e-09
2.14852e-12
0.000774725
7.92177e-11
6.30354e-11
5.06124e-59
0
0
3.4239e-54
0
4.2466e-100
5.62729e-17
1.04485e-05
6.38805e-38
0.0112777
4.29015e-14
4.60929e-49
4.64776e-55
1.80317e-13
1.94154e-09
0
3.67208e-13
3.97853e-34
2.25922e-38
0
2.53806e-25
1.67844e-05
4.24646e-11
0
4.22838e-05
5.14282e-76
1.29405e-41
3.13254e-36
4.17172e-86
5.02652e-90
0
0.0661487
5.66646e-21
1.03377e-102
6.198e-39
1.33084e-98
8.0483e-54
2.67845e-70
3.91638e-103
2.43017e-18
5.09363e-32
3.35869e-36
2.17341e-97
5.96394e-41
1.12852e-41
0
4.35378e-36
0
3.52914e-54
1.11113e-70
4.42904e-18
1.8358e-34
0.00013192
1.82865e-18
2.97263e-27
0.0403423
3.92018e-36
2.45329e-103
1.88478e-21
1.05223e-53
7.27794e-52
3.95276e-33
8.31915e-36
1.62737e-33
6.48484e-52
2.19787e-09
1.19024e-53
1.2458e-27
1.97987e-40
1.84483e-38
8.9834e-35
3.02749e-52
5.79216e-06
3.21577e-05
0
2.66692e-63
4.63451e-64
3.45308e-33
7.7111e-29
1.37912e-75
0.0267054
1.42885e-85
7.69758e-70
0
1.06144e-71
0
0
1.46486e-10
1.06675e-19
0.0251161
3.49466e-22
7.32074e-22
3.68587e-18
3.95157e-06
2.76821e-17
2.1127e-13
5.27077e-47
2.80017e-19
3.58852e-07
1.14187e-108
2.06308e-16
5.92267e-61
1.79577e-62
0
0.003626
1.23951e-09
1.28783e-106
9.81123e-05
1.00904e-75
5.78022e-05
0.000179868
1.22384e-57
8.42848e-37
1.33641e-33
1.42758e-29
2.51478e-31
2.75333e-27
6.07451e-102
0
0.00938494
4.51001e-07
2.96468e-64
1.93801e-116
2.28498e-06
8.10576e-73
3.10156e-88
0
0
1.65276e-69
0.00105265
0.000307367
0.0156097
0
1.74108e-19
5.16202e-60
0.00294645
0
3.87453e-51
0
0.000426611
2.97233e-18
0.000921293
3.32953e-05
0.00119006
7.0876e-06
1.94648e-42
2.5249e-41
1.36205e-18
4.26528e-75
3.8171e-20
0.0449911
2.66621e-74
1.62715e-21
2.93499e-64
0.00234941
3.10925e-52
9.50932e-70
8.21489e-18
6.77454e-31
6.16709e-08
0.0111355
1.30093e-67
1.04818e-24
1.26085e-26
0.00325679
1.30514e-67
2.24399e-22
6.55696e-80
2.61089e-18
0
2.94679e-06
1.0101e-10
1.39543e-68
0.0196259
0
0
2.9983e-77
4.18979e-30
1.4537e-07
0
1.10796e-16
2.03598e-26
9.48422e-07
0.000301829
2.62729e-69
7.08381e-69
7.95786e-14
6.3479e-37
0.00888474
0.00669542
0.00537011
1.25e-06
0.00620254
7.45707e-88
0.00832018
0.00860506
0
2.57477e-50
0
4.26784e-27
3.82895e-35
1.99953e-72
3.54985e-74
6.54216e-44
2.45582e-86
2.94007e-33
1.73705e-35
3.68523e-09
1.20297e-76
1.51333e-39
1.01888e-63
1.15296e-21
1.65153e-60
5.64362e-64
1.29122e-55
1.5542e-23
5.73184e-06
1.92664e-62
0.00108904
1.2097e-17
3.95704e-53
4.21266e-17
4.70839e-38
2.37414e-13
1.05895e-83
3.94025e-31
0
2.48317e-61
1.14625e-23
1.20667e-22
2.32925e-81
9.43245e-23
0.0027112
1.1306e-23
1.8082e-23
3.8479e-23
8.26029e-12
4.79839e-17
3.03911e-20
2.32926e-65
0
1.40417e-54
2.6408e-19
2.55346e-76
4.81348e-97
4.64205e-23
5.04537e-53
4.81473e-38
6.69684e-27
0.00107087
3.2274e-21
0
0.012976
7.82182e-67
0.0112024
2.55117e-87
7.22722e-50
1.63998e-55
7.22767e-55
2.48538e-80
0.0192714
0.00681133
2.67721e-07
2.28845e-15
0.00456962
0.00284794
7.98697e-64
1.26806e-31
8.29219e-113
4.63316e-17
4.10217e-19
4.55838e-28
0.00013284
9.37044e-88
2.05652e-92
8.86729e-30
3.15866e-10
1.06359e-56
0
6.9969e-23
0.0261159
0.0155673
3.37049e-09
2.75006e-87
9.51909e-08
4.72918e-47
1.0929e-30
3.61249e-11
1.7514e-25
7.20209e-26
3.5489e-74
6.03276e-31
1.12652e-22
3.525e-11
0.0170837
1.66602e-22
1.33664e-18
0.00117375
7.24625e-06
3.54764e-31
8.38497e-15
0
1.08453e-33
3.65818e-28
4.30831e-16
1.86633e-14
0
0
2.84823e-19
0
1.58209e-07
0.0131389
6.79233e-18
3.05418e-17
0.0288908
1.8467e-42
1.21553e-67
0.0134365
1.9358e-40
1.52255e-98
7.61662e-39
3.50664e-41
0.0263187
6.82425e-60
1.09548e-60
4.91907e-06
9.3575e-37
0.028102
1.15396e-40
0.0232927
1.12149e-38
1.10425e-47
0.0203215
8.19182e-06
4.60845e-48
0.0524828
6.83065e-17
1.98661e-29
8.41626e-13
1.00805e-77
6.97668e-76
0
0.041787
7.96845e-17
2.34057e-33
0.0097605
4.78112e-58
0.000314097
0.043452
0.0050106
2.41297e-05
0.0230616
1.43552e-49
0.07925
8.61462e-48
1.00126e-42
4.78619e-36
1.73207e-93
2.39956e-86
0
8.82609e-80
2.49416e-79
0.00794552
6.48204e-09
0.000180952
0.00194424
0
6.30004e-58
1.64036e-60
0
0
0
0.00375193
0.000108738
1.30233e-58
1.56737e-55
4.76744e-47
4.37997e-12
4.89128e-14
1.42459e-38
2.10641e-28
9.33231e-53
7.88068e-43
1.43072e-45
0.000633686
0.037758
4.04676e-06
0.0113268
1.1664e-05
3.19592e-41
6.25821e-13
1.15442e-08
5.66752e-48
3.29227e-52
1.47794e-45
0.0152768
0.0114113
0.00175828
0.00283829
3.48473e-61
1.65599e-89
0.00175828
4.20371e-56
0.000485515
3.13508e-48
6.70106e-53
9.88669e-19
2.41648e-59
0.000501712
3.35858e-67
4.5213e-05
0.00105089
5.47855e-05
1.21986e-05
8.28612e-06
3.72911e-10
1.07815e-88
6.99466e-08
1.26468e-48
3.63792e-56
7.03851e-59
8.26786e-61
4.31359e-77
5.65608e-56
3.48523e-31
1.56903e-80
1.52326e-15
0.031213
0.000439564
0.00860869
1.03215e-70
5.35425e-63
0.0062463
6.59934e-10
1.6309e-62
0.00514032
3.06389e-57
7.08567e-55
0.00220928
0.0228087
0.00503605
0.00478949
1.90979e-53
0.000573093
0.00834752
0.00348916
1.17788e-62
0.00770691
0.00239679
0.00179098
0.00711849
0
0.00442368
0.0019114
1.26234e-58
0.00261756
0.0086634
0.00266381
0.00110056
5.41317e-06
0.000954635
0
0.00987439
0.00582463
0.00400618
7.74884e-73
1.38625e-88
0.00223332
0
1.6373e-10
4.89255e-08
3.4031e-80
0.00483906
0.000344394
7.74263e-34
1.47348e-25
1.46679e-26
5.86705e-30
7.05809e-05
0.00269338
0.0273398
0.0109968
0.0011394
8.97306e-58
7.14564e-08
0.00044841
3.27608e-32
0
4.75639e-35
2.56813e-23
2.37508e-30
4.22907e-45
1.23073e-24
7.78531e-27
3.487e-26
4.00405e-31
8.88156e-23
2.29315e-05
0.000106559
4.07814e-09
0.0403304
6.15264e-11
0
0.0015653
2.05145e-32
1.95387e-29
2.08984e-26
4.13076e-39
1.89287e-73
6.46851e-33
0.00824142
1.98652e-10
7.32978e-17
1.49127e-05
0.0187115
7.21981e-17
1.26216e-30
0.00242593
0.00744365
2.02196e-12
0.000413688
2.5282e-69
4.83265e-11
2.58227e-93
0.00560001
1.10567e-35
0.00136162
5.21766e-61
1.8259e-85
5.85643e-89
1.79094e-87
5.42591e-07
2.41248e-84
0.00179092
0
0.000195213
0.00633648
3.63703e-45
1.69244e-71
0.0316326
0.002855
0.0213309
0.00539182
7.90075e-79
6.45559e-06
0.00247074
5.25827e-64
1.19383e-49
2.64104e-09
0
0.00311872
2.66783e-50
0.00169198
4.51898e-05
0.0153505
0.00332987
0.00413398
0.00834575
0.00149699
1.65003e-23
0.0755441
0.00971325
1.95534e-10
0.033151
1.92656e-41
5.8509e-05
0.00084766
0
0.0423043
7.90575e-13
1.16487e-20
1.16228e-38
3.38664e-09
0.00176516
1.23899e-19
1.34905e-49
2.69157e-37
5.84549e-22
5.39531e-108
0
1.79434e-22
4.94174e-26
0.0294508
6.04667e-05
3.01531e-25
0.00114212
2.10836e-06
3.26965e-96
2.92432e-19
0.00541279
0.0191868
0
1.64937e-05
0.00563684
8.03509e-05
0.000653597
1.39916e-08
1.50523e-23
0.0149063
3.8505e-23
2.30518e-29
4.5038e-32
0
1.53456e-19
1.89618e-05
4.2211e-06
4.14694e-11
0.000254671
0.0326743
4.48669e-21
0.00122562
5.55461e-06
0
4.57279e-73
1.35798e-22
2.93678e-42
6.28252e-21
0
0.00150947
0.00238892
0.0371951
0
0.0881007
9.71041e-32
0.00578191
5.17249e-22
9.64824e-06
3.41537e-08
6.61124e-05
4.3791e-31
2.37669e-28
6.14641e-50
1.91473e-74
0
0
0
0.00100859
5.05375e-23
0.00870367
0.000781468
1.1689e-21
0.00298783
0.0283427
0.0771735
0.0118933
1.71618e-89
0.000173529
5.6234e-05
2.35267e-92
9.25225e-57
0.000710205
0.00350747
4.01658e-106
1.5385e-87
0
1.43906e-45
4.20989e-112
0.00146668
0.000958584
0.00214971
0.00094684
5.3888e-74
0.100953
2.25284e-13
1.89543e-105
3.28526e-24
2.70787e-51
3.39798e-17
0.000660776
0
1.35426e-18
0
7.09527e-45
3.31962e-27
1.65413e-18
5.34076e-31
4.61317e-82
3.01019e-39
0.00910476
2.04225e-16
1.41349e-29
5.10591e-06
1.0234e-09
0.020305
1.39911e-32
2.65933e-29
9.52326e-29
1.66614e-29
2.19576e-19
3.38296e-28
0.00320223
0.0383833
5.64502e-28
0
0.035543
6.89523e-22
6.36774e-87
7.80381e-22
7.4721e-21
0.000119886
0.0255775
0.0541032
0.00191525
6.28138e-07
2.08059e-94
0.0104007
9.44016e-20
0.0137499
0.0216428
1.4901e-67
0.00759474
1.20107e-59
8.61545e-62
0.0376866
0
7.09159e-17
0.0227749
0.00991696
0.0304896
0.0258807
1.92438e-39
0.0110128
0.00501277
0.014761
7.09703e-50
1.46972e-13
0.0278049
0.0304536
0.0132027
0.00374241
0.000262528
3.70904e-32
0.0055815
0.000231472
0.0177666
0.00428712
0.0037707
0.0241126
4.19386e-60
3.31802e-80
0.000672385
0.0279855
0.00260634
0.0016287
0.0115437
0.000598766
0.0164244
0
0.00638653
3.83281e-64
0.0305112
6.17538e-34
0.000255165
0.000105744
1.78959e-44
0.0217098
1.8697e-35
0.0202494
0.0284873
1.7949e-50
5.47668e-32
0.0120747
9.73543e-35
1.26956e-52
6.13407e-90
2.62991e-77
0.0145442
1.52776e-62
0.0287977
0.0524309
2.67557e-87
1.26978e-79
0.0359603
1.95895e-51
0
0.00677418
3.62609e-90
2.21739e-85
0
2.44053e-47
0.00242715
0.00175679
0.0211487
1.79337e-44
0
0.0187421
5.49932e-55
0.000635725
0.00392805
0
5.0431e-106
2.05107e-19
9.22875e-33
0.0110942
0
7.86536e-38
2.17278e-106
1.54266e-88
0
0.000687611
0.00079516
5.18976e-20
1.25313e-37
0.000573028
2.02103e-30
0
2.28078e-112
0.00290054
5.82949e-65
0.00430236
0.0173735
5.52017e-81
5.65505e-74
4.07979e-13
3.22938e-15
0.0278092
0
0.00482779
7.21479e-07
3.68505e-85
1.38558e-15
1.3105e-07
2.33481e-63
1.49343e-22
2.27334e-57
0.0157029
5.27445e-58
0
9.01434e-55
4.79187e-17
3.43038e-50
0.00941347
0.00194664
0
0
0.011566
3.83012e-107
0.0019896
6.35357e-17
0
0.0533145
0.0334523
0.00167515
2.59592e-18
2.81133e-38
0.00239874
0.024518
1.21234e-41
0.0383657
7.77552e-47
0.0103607
0.0257098
5.71373e-34
0.00102317
0.0254233
0.00842055
0.042409
0.0134656
2.66856e-17
2.12844e-50
6.02766e-67
0.000600403
0.00310619
1.72718e-11
0.0325058
1.6389e-30
2.04482e-07
1.59329e-49
0.000167613
0.0256067
0.0180878
4.87116e-49
1.55869e-12
0.00156438
3.3844e-104
0.0321657
3.03778e-37
3.56006e-72
2.24048e-72
0.0298414
0.0211649
0.0122514
1.40737e-50
1.56635e-59
1.24087e-42
0.0251667
6.63389e-09
0.0325126
1.55059e-106
0
0.0293784
2.12686e-08
4.07466e-99
1.05972e-40
0.0461595
2.59431e-37
4.85849e-36
0.00236152
0.0385245
1.41418e-11
0.000134198
1.99235e-99
0.0548718
0.0114865
0.00185786
5.84035e-08
4.15854e-43
0.0043206
8.0468e-45
0.00259053
0.0150935
0.00048532
0.000307226
0.0175748
0.000836785
0.0430421
1.76677e-103
0.0718471
0.025785
4.08096e-09
1.83157e-101
0.00016859
0.063379
3.0502e-91
0.0143429
0.0439407
0
0.000340226
1.68494e-100
0.0376184
0.00459834
5.82821e-09
0.0209151
0.0215761
6.81769e-51
4.58493e-99
2.65452e-22
4.24076e-13
0.0232234
0
0.00870325
0.00135639
5.32279e-83
0
1.38998e-90
2.24355e-36
7.22508e-11
1.05965e-63
2.40869e-11
3.01777e-32
0.0313817
1.2496e-37
0.043449
1.2488e-85
1.40217e-09
0
2.14034e-26
0.0011437
3.04709e-88
4.79163e-85
8.22058e-43
5.0334e-28
1.09705e-09
0.00066689
0.000310037
0.00241065
3.05029e-10
1.49145e-21
1.95566e-22
8.97235e-55
5.65658e-46
0
5.22373e-20
6.42448e-49
1.01652e-16
1.10168e-14
0.000185478
4.88389e-24
3.47646e-22
3.20167e-39
0
1.45254e-18
8.19834e-65
0.00274566
6.71932e-59
5.78562e-12
0.000276659
3.37785e-12
0.000136813
1.07015e-41
8.93086e-11
6.72149e-05
9.14894e-07
1.84903e-66
3.05121e-31
3.65425e-45
1.51365e-47
6.15619e-41
6.97909e-55
1.25248e-15
0
1.13499e-18
8.0898e-43
1.87003e-61
5.22483e-49
0
1.7234e-40
0.00296815
0
3.94141e-08
1.8476e-40
0
7.51127e-07
0.000140294
1.12876e-06
4.09619e-23
8.11054e-63
5.56263e-66
0.0435224
0.0010706
5.26441e-50
0.00100426
0.00156889
3.54626e-65
1.49195e-12
1.15856e-12
0.00265831
0.00142637
4.72791e-46
2.06828e-26
0.00319701
0
0.00162107
7.76522e-25
2.44513e-76
1.48305e-56
4.80698e-36
2.89836e-34
4.2673e-75
5.07823e-63
3.71662e-39
3.55119e-70
0.00244123
2.89125e-40
0
1.62573e-26
1.25057e-71
9.1466e-29
0.00101787
4.73161e-39
1.52348e-75
0.00296069
0.00430286
4.65149e-28
9.10912e-80
4.97617e-100
1.71612e-16
0.000117914
3.5503e-55
6.84431e-46
0.000141589
2.54122e-24
6.56995e-28
6.6397e-27
1.41885e-26
4.28472e-40
6.99215e-80
2.49392e-17
1.83419e-08
0.0113998
2.32677e-09
0.0136507
6.39949e-19
2.71117e-06
0
8.25761e-41
0.0338952
2.98763e-80
1.33397e-38
1.52354e-05
1.52185e-75
0.0278219
6.22716e-82
0
1.5923e-15
0.00322179
0.0115676
0.00261005
0.0115611
3.58746e-33
0.00327036
0.00550458
1.89438e-79
0.00253817
1.08299e-56
0.00328571
0.00222594
1.72237e-20
0.00910373
0.00395751
0.00472823
7.56941e-15
0.00491658
0.00383388
3.72664e-15
5.04348e-61
0.000746162
6.73304e-13
2.74075e-17
1.13133e-34
2.48894e-82
0.00253957
5.0985e-30
5.05256e-31
1.4688e-17
1.79454e-59
3.79161e-62
8.43611e-33
3.65367e-16
0.00200445
9.20741e-51
1.43044e-30
3.96345e-15
9.03395e-55
0.000264273
1.20488e-48
3.47517e-24
2.86628e-28
4.05503e-36
9.82889e-61
4.39347e-50
6.31354e-36
2.34326e-47
1.01308e-46
1.08693e-43
2.83552e-39
0
3.74412e-66
4.37228e-09
0
2.73727e-07
0.00315892
1.28649e-73
1.53515e-15
1.3401e-12
7.05037e-47
1.95497e-41
2.9765e-21
1.13686e-91
2.59885e-48
9.6617e-15
1.06569e-07
5.45165e-32
1.91154e-50
1.34547e-19
8.04842e-96
1.31445e-21
9.29591e-07
3.16136e-93
1.6566e-49
1.22992e-06
1.41502e-92
1.27039e-48
4.11646e-13
2.12321e-56
0.0034258
0.00142188
1.02322e-21
2.03605e-94
1.03194e-11
0.0104585
0.0306809
3.42537e-29
4.24813e-61
5.90828e-90
6.94371e-60
2.48962e-56
1.55188e-42
8.09602e-63
3.73507e-71
5.57749e-31
0.02266
4.29349e-40
3.09988e-70
7.37187e-70
0.0586455
0.00130248
1.7356e-07
0.0491766
6.89788e-09
1.41589e-37
4.98033e-10
0
1.81259e-57
1.43149e-56
7.90529e-05
0
1.16624e-51
0.00192659
0.0503134
1.62864e-43
1.57559e-46
0.0543467
0
0.0592656
1.69893e-42
1.77165e-17
3.93769e-40
6.61216e-25
0.0351442
3.59155e-43
0.0377274
1.64709e-51
2.78287e-69
0.0295328
5.8465e-33
7.18008e-67
7.84151e-10
0.0375586
2.39669e-50
6.85192e-11
0.0284284
2.59003e-72
1.94587e-06
0.0382804
0.000165099
7.68201e-13
3.98754e-38
0.00511414
0
4.95933e-05
0.0210964
0
6.30897e-38
6.373e-31
2.56238e-31
4.0678e-32
0.00204514
0
2.59344e-15
4.04377e-42
0.00152514
4.46445e-11
6.47521e-29
1.81355e-24
4.27945e-85
5.77878e-05
0
0.0019283
0.00931595
1.62518e-41
0.00212291
0.00152745
0.00724235
5.42761e-61
0
0.00894716
0
0.00254081
5.77381e-27
0
0
0.00161862
4.58877e-85
3.3051e-85
1.69889e-18
6.43849e-87
0.00168154
0.00232216
0.000712326
0.0203879
2.08532e-05
0
3.68027e-26
0.00288982
9.23911e-42
4.48051e-67
1.33333e-47
2.35718e-05
3.87769e-39
0.000614236
1.34417e-26
8.75738e-12
0.00797821
0.00104229
0
0.000456476
0.0013132
7.18203e-32
0.000169
1.36575e-07
1.86745e-19
0.000782284
1.18275e-16
0.000972664
8.33249e-11
1.82501e-06
0.000226673
0.00130656
8.15828e-11
7.89226e-09
0.00226374
0.000607941
3.25499e-68
1.0432e-28
0.00130637
6.30803e-19
9.69482e-27
1.92517e-08
0.0118228
5.97901e-20
8.14036e-27
0.0544612
6.1869e-29
3.44639e-14
8.98913e-05
4.00324e-32
0.0545163
6.57329e-45
1.39028e-05
9.04922e-05
0.00824675
2.17139e-56
2.37808e-51
0
0.0550692
8.7814e-16
1.49315e-05
2.31089e-16
0.0513692
0.0530362
2.87625e-11
1.52409e-50
0.000511846
0.00170971
0.00113586
0.00153059
0.00526922
1.58543e-37
3.8887e-12
6.6293e-48
2.70829e-22
2.87367e-73
0
1.27896e-51
2.21654e-16
1.49924e-72
1.16783e-54
1.37769e-32
0.038655
3.69311e-33
6.74543e-33
3.68105e-70
1.57825e-14
3.65807e-28
0
0.00176051
3.4944e-53
5.24342e-49
0
0
3.91704e-29
9.88462e-72
2.88602e-23
5.89375e-51
1.26853e-11
1.30307e-12
0.0356343
2.59545e-52
1.3817e-08
0
0.0301754
1.86168e-80
3.41949e-08
0.00905643
9.22723e-81
0
0.00148663
7.85813e-42
1.08211e-25
1.1248e-75
6.78535e-66
9.60102e-34
1.18949e-43
9.71673e-81
1.22584e-70
1.35624e-25
6.699e-50
1.32668e-16
0.000411544
9.74965e-80
2.59585e-10
2.13422e-77
1.91314e-16
4.96212e-25
8.56725e-49
3.9483e-78
0.0249796
1.39008e-51
5.11474e-25
0
7.67217e-07
4.23751e-28
4.28661e-83
6.31868e-105
0.0428708
0.0360653
1.70897e-61
0.00169167
4.47449e-50
1.54117e-80
1.3544e-31
2.94702e-05
2.38386e-51
8.43642e-23
0.000108762
1.6621e-18
3.34136e-50
0.00188484
6.0859e-30
0.00208023
0.0285576
1.72382e-28
3.12614e-43
3.05893e-24
0.0420304
2.67007e-53
1.06016e-15
1.17039e-40
1.6351e-41
3.08562e-41
2.61646e-46
5.57685e-44
9.73919e-06
4.87306e-29
1.30909e-11
8.35709e-05
0.00118537
0.00153978
1.95062e-45
0.00175021
0.000439032
6.34724e-57
0.00265065
0.0657204
9.31503e-91
4.54321e-05
0.000131304
5.27706e-33
1.87601e-32
1.99202e-60
8.10757e-07
0.00222359
0
4.76906e-83
2.31713e-39
1.69207e-65
0
4.76837e-06
9.89192e-06
0.00349886
9.92951e-15
1.05123e-33
8.00317e-09
0.00119261
0
1.46985e-26
2.336e-41
0.0138903
0.000495427
5.53903e-55
1.58925e-17
1.30155e-87
1.3826e-16
0.00261223
0.0175564
3.5715e-42
0.000233382
5.37998e-05
0.000125024
1.02545e-100
9.63994e-80
0.0519469
2.63165e-56
9.68023e-55
3.46828e-79
3.22547e-58
0.000121242
4.99945e-16
3.65387e-11
2.66253e-13
4.48396e-36
1.88437e-33
3.70295e-28
3.91801e-82
0.0109684
0.0108264
2.90096e-73
0.000125861
5.82053e-84
0
1.73841e-58
0.0225341
0.0157215
0.0469181
7.39994e-26
9.34845e-80
1.44607e-94
0
2.28128e-06
1.11948e-09
0.000347074
2.97698e-24
1.98942e-77
7.48957e-32
0.0262571
0.0382165
2.67685e-08
0
0.000324409
0.000287905
3.20889e-05
0.000497061
0.00456759
0.00236821
0.0298297
0.00538902
0
1.73922e-51
0
4.77395e-39
5.56691e-74
1.0457e-34
0.000503196
0.0274455
0.00604415
0.00434444
0.00324788
2.67202e-16
0.00368463
0.00354061
0
0
0.00464948
4.04564e-07
0.000306976
1.66766e-05
2.58876e-108
0.000977113
0.00631899
5.18154e-46
0
0.042991
5.89976e-61
4.05345e-105
0.0031541
0.0347695
0
1.2899e-83
3.42979e-59
7.19087e-57
3.47957e-20
0
3.58683e-70
0.00162703
0.0462917
1.74517e-61
8.71142e-24
1.16423e-12
0.00635915
0.00121039
4.5305e-33
1.66992e-105
9.73332e-91
0.00400008
5.39856e-49
2.14552e-22
9.96042e-11
0
2.32773e-10
0
5.51951e-55
0.027005
0
1.2717e-52
0
2.44113e-54
6.80656e-50
4.66555e-16
1.63086e-07
0
2.26588e-14
4.48853e-34
9.34528e-56
7.89869e-15
0
3.9289e-74
0
1.36347e-61
2.28824e-57
3.60823e-52
7.24703e-27
5.76857e-56
1.20383e-51
0.02229
4.37364e-71
8.31656e-05
2.8237e-26
1.46451e-96
5.45914e-56
0
7.43222e-63
9.70578e-25
0.000528982
0.000168545
0.0159294
7.37109e-05
4.07222e-15
0.00120723
1.80251e-05
0.00014875
0.000100683
2.27855e-07
0.0109907
1.54127e-40
1.75904e-23
0
3.52752e-39
5.48322e-77
1.56662e-48
2.55411e-31
0
7.50205e-67
0.033807
1.34805e-46
8.78679e-19
2.57634e-25
1.70278e-66
4.27369e-23
1.33332e-39
0.00158208
0.0428534