/*--------------------------------*- C++ -*----------------------------------*\
| =========                 |                                                 |
| \\      /  F ield         | OpenFOAM: The Open Source CFD Toolbox           |
|  \\    /   O peration     | Version:  v2012                                 |
|   \\  /    A nd           | Website:  www.openfoam.com                      |
|    \\/     M anipulation  |                                                 |
\*---------------------------------------------------------------------------*/
FoamFile
{
    version     2.0;
    format      ascii;
    class       volScalarField;
    location    "5";
    object      ILambda_3_0;
}
// * * * * * * * * * * * * * * * * * * * * * * * * * * * * * * * * * * * * * //

dimensions      [1 0 -3 0 0 0 0];


internalField   nonuniform List<scalar> 
108993
(
146.204
146.234
146.202
146.202
146.202
146.202
221.117
146.202
146.202
146.205
146.203
146.203
146.202
146.202
146.202
146.22
146.217
146.202
146.202
146.205
146.202
146.202
146.484
146.203
146.202
146.202
146.201
146.21
146.206
146.202
146.201
146.202
146.201
146.205
146.202
146.202
146.202
146.202
7610.33
6460.8
146.255
146.202
146.203
146.202
501.98
18835.4
146.202
151.563
146.203
146.205
146.201
320.948
146.21
146.202
146.203
146.203
146.201
146.202
146.202
146.202
146.202
146.202
146.202
146.202
146.202
146.202
146.202
146.202
146.202
201.993
146.202
146.202
146.202
146.202
146.202
146.201
146.202
146.205
146.201
146.202
146.202
146.202
146.202
146.203
146.202
146.202
146.205
146.203
146.202
146.202
146.202
146.201
146.202
146.202
146.202
146.202
146.201
146.202
146.201
146.201
146.202
146.202
146.202
146.202
146.202
146.202
146.202
146.201
146.202
5874.37
2451.53
146.202
201.206
1292.26
146.203
793.426
146.202
146.203
146.236
146.201
146.202
146.202
475.273
146.203
146.202
146.356
146.301
146.202
146.202
146.202
146.203
146.202
146.202
3355.01
146.202
146.202
146.202
146.202
146.202
146.202
146.203
146.201
147.787
146.202
146.202
146.202
146.202
8192.74
146.203
974.941
978.279
146.202
146.205
1038.56
146.202
150.395
146.203
146.201
146.201
251.895
1037.94
146.201
146.201
146.202
146.202
171.621
146.202
146.202
146.202
146.205
146.202
146.202
324.385
146.203
146.204
146.202
147.156
146.202
146.202
146.202
146.204
146.202
146.201
146.203
146.202
146.202
146.201
146.202
146.202
146.203
146.205
146.201
146.205
146.441
146.203
146.202
146.279
146.203
146.202
146.203
146.202
146.762
146.202
146.201
207.868
176.474
146.202
2174.77
146.202
352.012
208.919
146.203
147.153
1268.6
43498
146.202
146.202
146.202
146.201
146.201
146.202
877.846
146.203
146.276
146.202
146.202
146.201
146.202
6187.15
146.202
5540.2
146.202
146.202
146.208
146.202
146.202
146.201
146.202
209.446
146.201
146.202
146.202
146.202
146.201
146.201
146.247
1270.76
466.25
146.201
146.202
146.201
146.202
146.202
146.205
146.201
146.201
146.201
146.203
146.201
146.202
146.202
146.202
146.231
146.544
146.202
146.202
146.202
146.202
146.202
146.202
146.202
146.202
2008.32
162.737
7151.69
146.202
146.201
1095.96
146.203
146.202
146.202
24659.2
23938.5
146.202
146.202
146.219
146.202
146.202
146.203
4089.2
146.203
146.202
146.202
146.202
146.202
146.202
146.201
146.202
148.479
146.202
321.256
483.49
146.202
146.202
146.202
146.204
146.201
146.202
146.204
1716.2
146.202
146.202
146.208
146.202
146.205
718.717
146.202
146.206
10930.7
146.202
146.257
146.202
146.205
146.205
146.202
2724.21
181.909
425.36
146.201
146.202
146.202
558.735
4219.24
146.202
2325.64
146.202
146.202
146.202
146.202
146.202
146.202
667.781
146.203
146.202
146.202
146.202
146.202
146.202
146.202
146.202
146.202
146.202
25528.1
1572.11
146.202
146.202
146.202
6825.34
146.203
146.202
146.207
146.203
146.202
146.202
146.202
146.205
146.202
146.202
146.202
175.065
146.209
146.204
146.202
1069.68
146.204
235.861
146.203
146.202
197.065
146.205
253.895
216.091
146.204
146.249
146.202
146.771
146.204
8389.82
146.202
3274.92
190.268
146.752
221.621
146.202
1315.12
146.202
261.869
146.202
147.053
146.202
146.203
1217.03
598.487
146.202
146.202
146.765
146.885
146.202
146.202
169.046
146.203
146.212
377.36
146.202
146.203
146.202
1136.08
228.647
2107.99
146.202
201.461
146.272
208.677
146.202
146.202
159.657
146.202
1012.35
163.129
146.202
275.335
9316.55
211.029
146.202
146.203
146.205
146.201
146.202
146.202
146.202
146.202
146.202
146.202
146.202
184.991
146.371
146.279
341.194
146.202
146.202
146.203
146.202
146.202
146.204
146.202
146.202
146.202
146.202
146.204
146.202
209.755
146.202
270.84
952.619
149.834
146.202
146.202
280.308
146.202
146.202
174.837
146.202
146.202
146.206
146.201
146.443
146.201
207.051
1804.32
146.381
146.202
146.202
146.202
146.202
146.202
146.202
146.202
146.202
325.565
146.204
146.202
146.202
146.893
146.202
158.449
146.202
146.203
146.202
146.202
146.203
146.202
146.202
146.202
146.202
231.219
871.473
146.202
146.201
6396.65
146.202
146.217
147
146.201
146.203
146.202
146.201
146.202
146.202
146.205
146.206
146.203
146.203
146.504
147.52
146.202
161.099
146.256
146.202
166.066
147.004
146.212
146.202
176.866
146.202
146.203
146.203
189.445
146.202
146.206
2004.83
146.202
4470.63
146.202
146.202
146.205
146.202
146.202
237.588
146.203
146.202
340.667
146.211
26946.5
146.202
146.202
146.202
146.202
146.216
887.757
146.203
146.204
146.201
146.202
149.353
221.263
534.585
146.202
146.201
146.233
146.252
146.202
146.207
6736.98
203.778
979.489
146.309
146.202
242.766
164.58
183.649
146.203
146.203
146.202
146.202
146.202
158.87
20193.2
198.806
146.202
146.202
146.3
146.202
146.209
146.202
159.292
146.202
146.202
146.202
146.719
146.521
146.202
146.203
170.341
146.218
146.202
146.202
165.647
146.202
146.207
146.203
3505.75
146.203
186.856
146.203
146.681
146.202
146.211
146.202
2010.65
146.202
2367.22
146.202
146.202
5540.78
146.213
146.202
146.202
302.827
26913.8
146.219
768.107
146.202
771.441
1736.29
146.213
146.202
146.202
5254.08
180.293
322.367
146.203
323.692
146.202
146.216
146.202
146.216
146.203
217.828
178.306
146.219
146.214
163.186
2577.02
10655
225.941
146.209
146.525
10628.1
185.855
10664.2
10570.3
146.202
146.206
146.202
146.202
146.208
146.245
146.246
1579.55
1662.3
146.271
163.631
239.424
10690.7
10683.8
146.202
146.307
189.562
146.202
8459.45
148.893
203.751
148.111
146.217
4819.75
146.238
238.827
177.229
189.772
3033.22
146.201
146.202
521.038
146.207
146.205
5778.02
146.23
1478.36
146.226
6154.98
178.893
146.201
146.202
146.202
146.3
146.202
383.194
146.27
146.202
146.202
146.894
2842.95
10069.1
146.202
5111.07
146.202
244.151
146.424
146.202
414.91
146.205
146.216
163.614
146.33
146.202
146.31
148.817
2004.54
636.076
146.202
325.173
146.216
146.249
146.256
146.203
146.202
206.369
146.202
146.202
146.358
146.204
146.381
11553.9
3861.73
146.204
150.478
146.205
146.208
146.204
146.233
146.203
146.202
146.202
146.203
146.202
147.249
146.202
146.203
148.04
146.202
146.207
146.202
146.203
146.203
228.249
146.212
146.213
1369.03
146.202
146.202
146.203
196.177
146.202
912.275
601.688
146.203
146.203
171.068
590.888
146.204
146.202
143.527
146.203
146.203
148.161
146.204
146.857
146.202
146.202
235.192
146.202
11326.1
146.202
146.203
10538.3
146.285
501.691
157.926
157.949
146.202
146.685
146.375
146.202
146.203
146.28
146.201
146.203
146.202
146.202
146.202
146.202
146.227
146.202
228.315
146.203
8998.15
146.204
146.203
2927.03
146.205
1777.95
146.204
146.202
146.205
202.114
146.231
146.204
168.13
215.038
146.222
240.63
1954.5
146.551
146.202
1603.69
146.204
146.202
247.366
11113.8
146.202
146.202
146.203
214.389
146.203
146.204
209.567
146.203
146.202
3536.77
146.203
3566.36
146.203
1772.27
146.203
146.746
147.081
146.833
216.848
146.202
147.023
147.044
222.455
146.596
24224.1
146.202
146.202
146.203
150.084
146.213
146.318
146.202
146.202
147.908
22484.2
146.203
146.245
3802.93
242.687
146.21
226.435
9114.06
23839.1
151.051
7068.47
146.712
4653.37
146.202
11300.6
8035.64
636.6
146.202
146.202
146.234
146.262
168.969
146.201
146.202
150.721
254.796
146.202
11485.7
146.351
146.203
4973.17
146.202
146.202
11525
813.464
146.202
155.266
146.202
146.202
146.259
213.057
4580.11
146.203
4647.2
146.264
146.347
146.211
146.203
146.22
147.334
146.211
146.201
146.206
146.202
217.485
146.202
146.202
159.129
146.202
1358.48
161.059
146.214
146.225
146.202
293.831
146.202
4696.17
146.209
146.202
146.201
162.602
191.533
146.202
146.219
2654.11
208.199
525.907
146.202
146.215
644.019
351.467
146.202
147.057
973.443
146.231
146.224
146.221
146.206
427.062
6787.55
205.666
146.368
146.275
146.209
146.995
146.217
146.263
146.323
863.39
146.217
146.201
146.206
146.438
146.202
146.202
146.201
147.477
146.203
146.202
146.203
146.205
146.203
146.203
146.204
3172.54
146.203
146.203
146.205
146.202
7323.05
146.203
146.202
146.208
146.202
146.205
5719.48
196.729
146.208
146.203
146.202
1225.05
208.93
180.25
146.204
146.203
369.578
146.202
148.338
366.979
217.592
146.202
146.203
146.203
146.202
146.204
146.43
146.202
146.202
146.202
146.202
1161.71
146.202
146.577
146.201
146.202
147.354
355.225
148.083
150.245
146.202
146.202
146.354
167.049
146.204
146.202
146.201
582.432
146.203
148.446
146.204
146.25
146.209
146.202
25555.7
1980.47
146.752
171.872
6013.19
146.228
151.143
146.725
25608.1
146.202
146.202
146.202
243.442
146.243
11597.6
147.241
146.585
146.204
146.284
146.281
146.203
146.262
207.745
146.252
146.208
1137.03
1522.61
551.831
146.202
146.202
146.202
146.202
146.202
146.202
146.205
3476.44
146.202
10465.9
146.208
146.203
146.202
532.703
3513.58
146.202
146.209
146.202
146.206
146.202
146.209
1249.19
147.473
146.203
263.708
146.202
146.202
146.202
146.201
146.202
146.269
11013.5
2286.25
146.202
146.202
146.202
146.203
146.202
146.202
146.206
146.202
146.202
146.202
146.203
146.203
146.202
146.202
146.202
146.202
146.202
146.208
146.203
183.112
1420.92
376.24
11394.1
146.203
146.202
146.207
146.202
146.204
146.203
146.205
146.202
146.203
3122.04
146.203
147.713
146.204
146.205
146.203
146.202
171.66
206.129
146.203
146.202
146.202
148.14
146.205
146.202
3626.65
146.201
146.202
146.202
146.202
146.202
146.215
146.217
146.214
3181.22
146.212
146.207
146.209
172.663
163.724
146.218
146.202
146.202
924.219
146.202
244.744
146.916
146.842
146.766
2660.54
147.197
146.202
146.49
146.202
147.807
146.435
146.92
146.202
146.204
146.203
146.204
146.204
146.202
873.075
4997.84
146.271
146.202
146.202
146.259
146.203
146.201
146.203
146.202
146.202
3954.07
148.226
1738.2
146.204
733.446
146.202
229.742
291.405
146.356
146.202
147.004
146.211
215.82
147.013
197.481
1188.45
146.202
146.202
146.207
146.202
146.204
2438.39
146.203
146.203
146.202
269.777
146.202
146.202
146.421
146.202
420.397
1904.81
146.202
147.91
146.204
262.433
146.202
146.204
146.202
146.863
146.202
754.739
146.384
146.202
3126.02
146.202
146.201
146.202
151.965
176.967
146.203
559.182
2131.26
166.63
208.988
146.244
146.202
147.113
146.202
1310.56
689.101
586.118
243.596
610.313
146.201
1308.27
1495.8
146.868
146.749
146.202
1909.47
146.202
146.202
146.202
147.028
146.202
146.202
146.202
1496.74
146.202
146.202
146.203
146.203
146.203
146.203
146.202
153.397
3765.44
146.203
197.206
146.236
146.224
146.209
146.204
168.102
146.202
146.203
204.489
146.203
146.203
146.203
146.201
146.203
643.691
146.203
550.618
146.204
146.375
7287.07
146.204
146.202
146.211
146.202
146.205
146.201
146.202
146.204
146.21
146.21
146.269
787.51
146.204
359.221
1927.9
146.202
955.923
146.202
146.21
146.212
146.203
146.202
3116.78
937.292
845.756
146.221
2168.52
590.065
146.202
146.203
146.202
146.205
146.205
148.86
834.705
146.202
146.201
146.206
146.212
146.212
146.202
146.203
18603.4
11418.8
146.213
146.201
809.087
146.202
146.203
146.295
146.203
181.166
146.204
146.204
146.203
146.21
4645
146.714
146.205
382.992
149.55
146.203
182.803
1447.53
146.203
146.202
146.208
159.262
146.899
146.202
146.205
2105.49
149
1891.27
146.206
146.208
3974.7
146.207
146.202
2339.71
146.206
146.201
146.21
146.203
7667.16
146.202
146.202
3800.56
146.206
10638.7
146.209
4578.45
146.207
146.21
2473.98
146.23
146.211
23595.1
146.208
146.25
6340.14
146.202
146.202
146.202
9828.4
1975.25
146.202
425.755
146.202
173.253
9946.2
671.196
147.146
6250.53
146.202
9972.34
146.202
146.202
146.205
146.201
146.202
146.201
146.201
146.202
705.27
1184.61
167.176
219.282
146.202
146.202
146.202
146.202
146.202
146.202
2270.41
217.212
146.202
146.202
146.202
2795.33
146.205
146.202
194.445
146.202
146.202
146.202
164.583
23475.2
215.12
1737.53
1803.5
146.202
146.21
1189.74
146.202
146.202
146.202
1319.4
4413.7
210.918
6682.82
146.202
146.202
3182.09
146.202
159.031
146.203
146.202
146.207
146.202
150.753
146.202
149.016
5451.27
155.093
155.03
180.241
407.339
146.202
1219.3
146.202
146.202
146.202
146.202
146.202
146.202
147.759
146.202
146.262
27879.5
426.609
857.845
146.202
146.202
12883.2
1101.19
146.202
338.914
146.202
146.202
215.612
2645.59
5255.02
798.008
146.202
4526.45
8782.27
974.074
146.202
1171.24
229.917
214.768
1822.16
146.942
8367.28
217.632
146.202
243.938
783.743
244.193
210.983
211.436
208.465
146.356
2229.23
9167.31
10019.6
146.202
146.201
9160.04
146.202
146.203
806.733
146.201
2973.13
155.587
146.202
146.203
146.202
146.202
148.803
512.397
5318.85
961.508
505.508
146.202
3324.94
198.185
161.578
146.203
146.494
146.203
146.202
146.202
146.202
151.726
146.202
146.202
146.233
205.792
152.832
226.947
21023.3
399.671
146.204
213.897
146.202
146.202
146.215
146.202
146.202
146.203
1418.92
2644.69
200.753
3339.3
5566.12
167.68
146.202
253.826
683.305
146.87
3882.95
146.202
146.228
146.202
605.77
150.951
221.251
146.203
146.202
146.202
146.202
1998.53
146.202
219.48
146.202
3578.33
589.709
146.202
146.202
7359.27
447.712
2575.02
584.602
146.202
1007.6
9322.97
146.202
148.748
172.807
147.067
267.011
146.202
217.896
1276.97
1681.12
276.472
3114.13
613.428
205.965
146.202
25369.9
6109.76
150.145
8209.41
146.203
152.269
180.618
146.203
8647.27
247.337
146.278
146.212
146.902
215.701
146.269
146.203
147.193
146.208
146.202
146.203
147.277
146.202
17741.6
3981.84
146.219
6194.31
146.241
146.202
146.735
609.278
3899.79
146.527
151.251
851.073
1925.37
7558.13
3082.41
146.208
5980.4
146.202
146.202
146.203
370.579
146.211
617.454
146.171
2956.77
2768.31
7036.25
146.211
212.713
146.21
146.203
146.202
146.207
146.202
146.21
146.444
411.093
5591.48
16274.9
146.442
16084.8
171.166
3422.57
146.203
7515.4
1570.16
4243.44
146.204
146.206
146.202
146.202
146.202
146.201
195.836
227.241
185.902
1057.82
209.216
5024.73
6225.89
6154.22
26676.8
4335.9
146.202
2359.61
269.642
146.203
146.203
1295.66
1969.1
146.202
146.203
146.202
153.139
146.202
3406.8
3550.75
3072.19
1452.92
146.202
45490.6
1309.85
146.202
3148.89
146.202
146.219
4728.39
146.27
146.224
1541.69
153.382
146.202
146.218
146.202
146.201
146.202
994.832
146.211
146.21
735.888
1937.16
2187.26
172.174
147.773
146.204
146.202
146.203
146.202
946.125
7400.69
146.203
146.202
15161.9
146.203
146.202
146.203
146.203
190.794
4655.59
27031
1001.14
770.444
146.202
2261.64
146.203
1447.46
3365.67
146.202
954.411
146.202
146.202
7296.96
146.202
146.208
3632.94
1325.31
4565.58
4647.24
146.202
951.32
408.567
1867.7
147.471
322.708
3156.69
5054.95
1621.71
3646.18
147.488
146.203
775.198
217.378
1855.7
552.052
635.685
4149.39
146.202
146.202
757.343
4879.16
800.765
795.551
1061.89
280.317
8946.23
146.202
712.631
146.202
5737.97
146.202
488.669
788.018
146.202
4534.6
146.202
2985.63
3862.21
146.202
146.202
2152.34
146.202
146.202
146.201
146.202
1317.46
146.202
4075.33
22181.6
146.201
146.202
6962.14
147.106
146.202
415.215
146.202
146.202
146.202
146.203
261.774
213.852
7525.63
146.202
146.202
2903.42
146.202
174.977
3238.79
146.201
146.202
146.381
146.218
1602.06
146.202
146.202
146.202
146.201
146.202
1175.49
2790.83
147.988
146.202
744.941
146.236
2115.25
146.202
536.647
146.202
1071.86
1825.49
146.202
146.202
146.203
5746.41
3937.9
146.202
937.44
146.229
146.202
146.399
146.259
146.202
154.867
146.202
3914.33
146.202
146.202
146.202
146.202
146.202
2504.71
225.379
146.202
146.202
2788.91
146.202
229.248
146.206
146.202
27129.5
9785.66
204.63
146.211
146.203
204.796
6897.68
146.202
10670.4
146.202
7292.73
3471.01
146.202
3217.14
5217.22
10979.1
25159.4
3453.49
146.208
146.202
146.202
155.22
243.889
185.626
7739.26
146.203
169.927
146.202
145.511
5698.07
3136.5
146.202
7251.73
207.305
146.202
6988.23
146.202
146.202
146.202
6726.71
2445.36
1759.43
146.202
146.202
146.202
6604.13
146.982
9871.31
146.202
146.202
8511.65
1845.03
146.202
146.202
20217.8
146.202
146.202
226.119
12594.7
6622.11
207.171
146.202
26450.9
7805.9
220.552
1052.03
147.092
5085.65
146.204
208.205
9737.65
3889.33
4411.65
4929.79
3756.46
12618.2
146.202
14850.9
4674.68
1095.93
146.202
2323.82
9188.92
146.202
2073.14
8329.5
146.202
5307.71
146.202
9043.41
1004.57
2573.92
2146.48
3417.11
146.202
146.202
146.202
146.203
3841.32
146.202
1806.72
196.249
146.202
146.202
146.202
146.202
146.202
146.202
146.325
146.202
7953.98
146.202
6261.55
146.202
150.584
146.202
146.215
201.826
146.202
146.202
146.202
146.203
146.223
7244.26
6122.44
8020.93
148.692
146.259
146.573
146.202
146.871
146.347
146.525
146.203
4509.69
7148.02
3839.98
146.698
146.256
146.211
187.531
161.028
146.202
225.289
146.203
894.218
2518.51
147.324
2304.92
146.206
146.226
7801.46
1382.04
146.202
149.7
160.152
146.255
162.41
147.2
146.252
153.825
146.212
146.211
146.202
146.204
2276.97
146.202
244.246
146.207
149.221
146.202
146.202
156.811
184.521
625.245
146.237
146.202
146.202
9121.79
240.602
146.202
193.994
241.722
146.202
146.221
202.504
242.295
713.607
146.204
150.394
255.473
146.202
952.434
146.207
146.201
146.203
146.203
146.202
146.202
146.202
146.202
146.202
232.965
146.214
146.202
2658.09
146.202
146.237
918.673
146.202
146.201
481.097
462.675
146.202
147.178
146.201
146.202
206.292
146.245
146.203
852.749
146.433
146.202
146.202
146.202
146.203
146.202
216.892
190.018
8346.63
8333
4604.06
180.797
437.699
147.262
146.211
10047.1
147.056
146.203
199.726
147.267
7527.27
146.202
147.065
146.214
224.137
1084.99
226.654
1032.35
146.221
255.686
956.161
146.202
151.61
146.203
232.884
225.622
148.407
973.55
304.292
1011.83
147.3
972.955
300.129
146.208
146.202
6492.21
146.213
146.212
146.203
146.202
246.217
146.26
146.235
151.687
146.202
146.202
146.216
146.217
227.19
146.202
146.222
146.207
146.202
197.521
146.202
155.274
146.203
146.203
146.203
146.202
146.573
146.202
146.202
146.202
146.226
146.203
146.202
2544.38
146.203
146.259
3847.94
146.202
146.272
146.225
146.202
146.202
146.203
146.202
146.202
216.42
148.796
146.268
146.203
146.204
146.202
146.474
1689.41
146.202
146.202
274.503
146.202
146.202
164.423
146.202
228.062
189.14
146.202
146.202
204.14
7652.01
7086.5
146.203
146.202
146.202
146.202
149.315
146.666
146.202
146.202
146.203
2969.71
146.202
146.202
146.202
21348.7
189.792
146.845
18747.6
205.866
146.203
146.24
146.207
146.202
146.59
561.66
151.379
146.203
213.362
19833
146.203
146.202
21302.7
164.81
21980.5
146.203
146.218
146.203
146.376
6611.44
146.203
6509.14
146.204
146.202
6441.34
146.205
146.202
200.341
7349.72
146.203
148.54
6203.22
146.203
148.52
7433.9
200.204
146.218
146.204
254.067
3176.94
146.941
4625.83
146.201
146.203
1429.15
146.217
1412.17
226.85
146.202
146.202
146.202
229.443
146.207
146.218
146.372
146.202
147.069
146.202
235.097
5322.34
146.202
232.008
228.377
5251.34
146.202
191.154
10474.9
146.201
240.469
151.344
202.63
146.202
232.602
146.201
146.201
146.206
146.201
283.864
171.284
163.395
4941.73
215.991
146.202
146.206
186.628
146.203
146.202
146.232
202.567
146.203
211.554
146.203
2018.3
5691.65
177.874
147.061
3007.85
195.16
146.212
163.344
3672.18
6684.23
186.566
798.868
207.905
147.463
209.064
660.954
196.52
179.452
148.032
219.653
215.867
146.202
169.431
192.889
146.222
174.081
1709.98
8808.59
154.99
146.202
24022
146.214
146.207
279.979
146.202
23639.8
146.202
1342.75
609.863
6677.28
146.202
146.202
146.202
23462
146.216
1242.26
146.208
22761
23174.1
168.619
146.202
3144.97
209.906
188.001
5680.03
257.566
146.203
146.411
146.202
146.228
146.202
146.203
146.202
146.208
146.203
146.202
146.203
8814.72
146.202
146.207
146.202
396.546
1659.34
146.539
212.53
146.202
146.203
146.228
146.203
146.203
146.202
146.204
146.202
146.665
146.208
11205.4
146.202
146.931
204.934
10249
146.202
197.279
803.474
146.202
146.203
5379.47
146.202
146.205
146.202
146.202
146.203
146.21
146.202
146.203
146.203
146.202
6377.1
4324.03
146.202
235.371
146.202
225.384
494.389
146.202
146.202
7077.64
146.202
146.219
146.202
211.716
146.208
146.202
146.202
17776
11357.8
146.202
191.05
146.202
146.202
146.21
222.295
146.202
147.105
146.882
146.255
146.202
209.941
146.211
266.89
4315.04
146.214
146.203
146.217
8907.74
146.202
146.202
146.202
146.202
146.202
146.202
146.202
505.586
146.215
146.202
147.827
3244.6
4338.6
146.202
217.136
227.525
146.202
250.058
15426.2
146.201
272.439
751.6
146.214
146.207
146.203
212.997
227.013
146.551
146.561
146.209
146.202
146.786
204.933
215.074
213.473
146.213
146.202
146.28
2516.94
146.63
146.256
146.202
3988.84
4402.3
146.202
146.209
146.202
149.315
213.101
5803.13
146.27
221.955
147.719
191.357
146.202
146.202
25416.4
146.202
146.202
146.202
146.202
148.364
146.212
146.203
146.212
146.205
146.217
146.205
146.202
3708.86
801.819
146.202
211.051
146.202
146.202
146.202
7051.31
1450.46
19962.7
146.203
146.203
146.201
146.206
194.922
146.223
4157.61
146.202
146.202
146.205
6565.6
17115.6
192.722
146.202
4176.22
3988.52
194.412
4452.34
1470.54
232.308
5479.78
987.478
146.202
146.202
146.202
146.203
146.202
146.203
3278.43
7504.38
1199.67
659.232
1094.68
146.208
277.159
277.548
2622.57
197.136
1666.98
199.919
2964.28
4765.53
146.202
222.659
1282.39
146.203
146.203
15318.2
146.202
146.202
2049.4
7492.02
146.202
146.202
146.202
146.205
146.203
146.202
146.202
221.571
25103.2
146.202
146.204
146.223
1370.92
200.11
146.202
146.202
146.202
1157.01
146.202
146.213
160.423
146.202
146.399
146.202
146.202
6003.13
200.051
146.202
146.202
146.202
146.203
146.209
199.621
146.202
189.789
146.347
146.202
204.183
146.202
146.202
146.202
146.202
146.203
146.202
146.219
146.202
146.202
2538.72
146.204
3319.44
146.214
146.202
146.202
146.202
146.202
146.213
190.953
2902.85
2140.35
3437.49
146.293
223.044
187.13
2642.34
3223.89
232.623
906.027
146.202
146.218
146.202
146.202
146.202
146.202
173.318
585.611
146.202
8111.36
146.202
146.218
146.223
146.202
149.18
146.202
191.378
16720.5
208.277
146.203
146.202
146.391
259.863
146.203
146.211
4475.59
146.224
3947.43
146.202
146.202
200.552
3899.87
4786.96
4285.46
3538.58
3779.59
224.182
17147.6
1481.81
3279.19
146.202
146.207
146.202
146.202
202.942
7626.2
243.001
213.665
7622.9
7329.77
146.203
7368.45
5022.98
146.203
146.202
146.202
3505.03
473.311
147.158
146.202
3470.84
3936.4
204.201
15166.3
473.551
10157.6
10277.2
146.202
2708.39
10419.4
209.464
146.202
146.415
179.355
146.202
146.202
9985.57
146.202
146.202
1803.9
146.208
10078.6
2474.25
146.21
167.8
430.466
490.099
207.015
454.402
836.827
515.537
146.723
146.202
501.908
147.365
523.756
461.557
146.241
189.281
1041.73
194.699
20608.4
146.202
146.792
610.751
146.202
25643.5
146.202
146.202
146.202
598.253
146.214
221.301
146.202
146.202
200.339
628.797
701.416
216.386
146.202
3686.94
23923
8376.06
146.202
2432.47
8224.48
961.703
22753.2
146.203
1916.66
146.205
146.202
146.202
146.202
146.202
146.203
146.202
23459.3
146.202
175.612
146.202
146.202
146.202
146.202
146.202
242.507
213.536
146.202
146.202
4686.41
146.212
24281.8
146.224
146.202
3271.11
146.203
146.202
146.202
24217.9
146.213
146.202
242.962
146.395
146.205
146.202
233.559
146.204
146.202
146.202
146.202
146.202
146.205
146.204
1040.36
146.202
150.282
146.202
301.114
146.202
146.219
146.215
7532.43
146.205
146.205
146.205
146.202
166.951
146.375
146.202
146.204
146.202
146.202
13919.1
146.202
146.202
146.202
146.205
146.203
214.405
146.205
146.205
146.204
146.211
146.202
146.203
146.202
146.204
146.203
146.202
146.202
202.749
146.202
146.202
146.202
146.203
146.202
146.203
10220
146.229
146.204
146.204
146.202
200.38
146.203
147.289
215.528
149.079
160.384
146.202
146.202
146.202
146.214
5227.81
146.203
146.202
5703
146.203
146.201
146.202
146.202
146.202
146.207
220.86
146.202
146.202
146.202
5977.53
5566.15
5646.38
180.604
1858.93
3757.06
146.282
146.202
146.205
5989.8
146.202
146.206
146.202
146.21
217.569
146.202
146.202
146.202
185.042
171.24
197.825
795.242
146.202
768.68
9139.7
146.202
214.054
146.202
146.202
146.202
146.205
146.243
226.054
146.202
3825.93
228.275
3167.43
3382.63
1522.21
202.257
146.202
146.202
146.202
148.1
146.202
146.201
146.201
146.207
2272.06
148.317
189.024
188.004
146.202
1464.13
150.244
1154.41
153.406
146.201
1015.78
146.202
146.201
146.202
2396.76
1683.89
1483.41
146.202
1509.47
146.202
146.217
146.202
146.93
146.202
7432.4
290.375
146.202
146.202
3152.51
158.323
146.202
1220.67
146.201
146.202
6941.31
146.202
159.674
146.201
211.974
146.202
146.202
146.202
146.202
185.394
146.202
26744.8
146.202
146.819
146.202
146.221
1908.77
146.202
146.202
146.202
5100.92
146.852
992.403
1824.51
2007.46
146.202
8473.58
550.187
146.202
146.202
3643.01
276.77
146.202
3320.14
548.626
146.212
146.215
146.202
3461.6
146.202
146.202
146.202
146.208
4149.38
146.209
6590.86
146.202
830.023
146.207
146.202
274.057
146.208
146.798
146.202
146.202
207.901
2028.34
1387.13
210.302
1801.48
1253.62
1670.19
146.204
146.202
146.202
2422.46
4316.78
7688.78
223.582
146.237
318.425
1825.96
10017.7
5934.92
146.202
15125.4
9066.4
1305.26
146.202
481.627
4975.7
5044.87
6432.92
1613.81
761.445
3197.12
146.212
4162.66
146.213
4896.62
163.885
7694.33
2362.82
146.203
146.22
760.419
4480.41
178.991
625.75
146.202
146.202
3959.89
146.207
146.202
146.218
146.202
237.517
146.202
34865.1
274.018
146.202
146.203
2436.21
179.911
26507.3
6211.93
2487.87
180.241
146.202
146.202
3758.55
146.202
146.202
146.213
146.218
147.805
2426.86
246.233
146.206
3011.52
7882.34
146.202
146.224
6962.27
146.204
146.272
8829.37
146.202
146.202
146.223
1312.71
43736.8
2171.21
146.202
146.479
146.202
2087.79
5738.49
981.374
5747.49
146.202
146.216
146.202
153.217
146.202
1856.38
1498
146.202
6701.41
146.202
146.202
227.736
146.202
208.304
146.218
5118.48
173.107
146.202
146.202
4103.53
3748.63
146.202
148.586
44543.9
146.202
146.244
146.23
146.202
146.202
146.202
146.202
146.202
146.202
146.202
146.437
11904.9
146.202
1914.16
6512.58
703.335
11975.1
146.202
219.745
146.202
146.202
8141.1
2627.88
6849.39
10899.2
543.781
2006.6
146.202
175.687
361.509
865.826
2827.51
2826.73
146.206
5101.08
146.202
146.202
146.202
205.403
2749.69
146.22
4362.34
146.202
146.21
146.202
9080.24
7838.94
146.202
3396.41
2664.25
205.726
3410.48
3422.99
146.202
146.202
782.054
146.333
146.202
146.202
146.202
146.202
146.213
146.202
1151.58
1459.74
1139.89
602.168
206.585
202.591
146.202
146.202
146.202
1293.5
146.202
146.202
146.202
1527.48
146.633
5957.55
4268.54
8682.51
219.583
1517.32
150.954
4521.64
146.202
146.203
162.5
4758.11
3344.88
146.216
146.202
146.392
3707.5
146.202
2990.97
3789.63
12326.3
4208.14
146.202
146.202
873.225
205.815
146.21
4847.34
195.345
187.699
146.202
4778.16
161.001
1171.79
146.203
146.202
226.409
150.146
146.202
146.202
565.522
4282.14
5491.2
146.223
146.205
956.362
8279.96
146.208
146.202
146.202
11311.6
936.121
11768.5
3368.67
146.203
4368.76
4290.19
146.235
146.203
148.584
146.202
146.203
146.21
4180.26
146.202
151.401
146.351
4350.58
146.202
146.202
146.202
146.202
2410.12
2251.59
146.202
4356.2
180.698
146.622
146.202
146.207
146.202
4371.45
5245.61
146.202
146.202
1438.17
146.202
146.202
146.213
146.202
146.205
7521.52
146.219
205.558
146.202
146.202
146.202
5941.76
146.202
146.202
3536.3
146.202
146.226
146.202
146.205
7824.21
146.202
214.636
149.387
160.633
146.202
146.202
146.202
146.202
146.202
146.32
146.255
5939.11
5431.23
146.202
146.202
146.205
146.202
146.212
146.202
146.202
146.203
146.212
146.203
146.21
146.202
1112.43
12344.7
2866.92
146.556
1560.97
146.607
146.203
4369.66
146.211
3075
147.008
400.396
146.202
146.202
146.202
146.202
146.21
146.202
243.54
1148.62
146.202
146.202
146.202
147.747
146.206
146.245
146.202
146.202
146.202
1194.83
209.28
403.193
146.203
146.202
260.316
246.021
779.895
146.204
146.417
146.202
148.926
146.202
239.766
149.122
146.632
236.513
149.424
1630.19
197.126
3620.56
3812.21
146.206
20862.4
146.202
5285.86
146.201
3060.15
203.663
2376.89
1902.67
146.202
146.202
146.202
2546.92
8020.49
146.202
2540.08
181.277
7133.96
146.202
146.204
146.202
146.203
3128.97
146.202
146.213
146.202
146.202
146.202
146.202
9062.32
2351.32
284.857
146.202
146.202
2129.91
146.202
146.202
224.71
6604.81
200.536
146.202
146.202
1322.13
231.145
146.202
146.201
1981.59
5328.27
2187.74
146.202
6255.94
148.695
146.202
146.202
146.202
146.202
146.203
146.218
146.202
146.202
146.202
146.202
146.204
146.202
146.202
146.202
146.202
146.202
146.205
146.202
146.202
146.202
146.202
146.202
345.821
2422.83
2413.64
146.202
146.201
146.202
146.202
528.846
146.202
146.202
146.21
146.202
146.202
146.202
202.311
146.202
146.202
146.202
146.202
146.202
377.417
146.201
364.5
492.071
947.303
146.202
146.202
3309.59
146.201
146.202
146.202
146.202
146.202
146.202
146.202
146.223
146.204
146.203
2796.86
2233.75
146.202
146.203
146.202
146.202
146.202
146.202
146.202
146.202
1230.45
12881.9
146.202
11141.2
146.204
146.202
4746.72
6201.37
146.203
204.533
1335.45
146.203
146.202
146.202
146.235
146.202
6697.91
146.202
9491.93
146.202
146.202
146.201
4078.75
4334.05
3256.14
146.202
146.201
146.202
146.202
146.202
146.202
146.202
146.202
146.202
146.201
3262.47
146.202
146.203
146.203
146.202
146.202
146.202
146.202
194.22
825.668
215.602
146.206
146.212
146.202
146.202
146.213
146.207
146.202
146.204
3239.47
146.203
146.202
146.205
1067.68
146.202
285.218
146.203
146.206
147.327
146.202
148.882
9340.67
209.221
146.862
146.202
146.486
215.546
146.203
146.201
146.202
146.202
146.428
146.204
146.285
222.145
2078.71
6737.71
155.217
146.202
146.259
2078.2
146.208
146.439
146.232
146.203
146.202