/*--------------------------------*- C++ -*----------------------------------*\
| =========                 |                                                 |
| \\      /  F ield         | OpenFOAM: The Open Source CFD Toolbox           |
|  \\    /   O peration     | Version:  v2012                                 |
|   \\  /    A nd           | Website:  www.openfoam.com                      |
|    \\/     M anipulation  |                                                 |
\*---------------------------------------------------------------------------*/
FoamFile
{
    version     2.0;
    format      ascii;
    class       volScalarField;
    location    "5";
    object      ILambda_13_0;
}
// * * * * * * * * * * * * * * * * * * * * * * * * * * * * * * * * * * * * * //

dimensions      [1 0 -3 0 0 0 0];


internalField   nonuniform List<scalar> 
108993
(
148.204
146.294
146.203
146.277
146.231
146.202
153.885
146.205
146.337
146.252
147.764
148.054
146.266
146.205
146.252
146.624
146.255
146.21
146.274
146.211
146.208
146.36
146.208
146.253
146.273
146.208
146.207
146.214
146.207
146.202
146.206
146.242
146.21
180.254
146.297
146.238
146.209
148.841
3334.31
7115.32
146.204
152.292
146.206
146.297
146.293
19762.8
146.211
148.107
146.208
146.204
146.463
146.847
146.269
146.321
146.21
148.855
146.298
146.202
147.072
146.203
146.202
146.203
146.203
146.202
146.215
146.208
146.212
146.267
146.279
223.9
146.285
146.253
146.628
146.246
146.206
146.229
146.202
154.552
146.451
146.225
146.202
146.458
147.113
150.884
146.213
146.216
152.889
147.269
146.208
146.213
146.203
146.275
146.203
146.252
146.202
146.309
146.293
164.505
146.237
146.508
146.203
146.293
147.986
146.896
148.166
146.203
146.208
146.238
146.886
5379.9
146.507
146.203
146.762
146.958
158.529
160.859
146.234
164.828
154.548
146.268
146.215
146.209
540.845
152.195
146.915
146.325
146.204
150.711
146.211
146.209
146.565
146.209
147.144
147.055
153.782
146.459
146.21
150.886
146.202
146.207
151.219
146.556
146.237
146.22
146.226
147.729
149.372
7796.11
150.804
153.906
154.067
146.206
146.21
154.591
148.209
146.379
180.199
146.276
146.261
147.032
154.108
146.251
146.207
146.279
146.395
146.873
146.202
146.202
146.202
169.512
146.624
149.46
146.465
153.703
146.211
146.209
146.534
146.202
152.993
149.394
146.908
147.048
146.374
152.734
146.284
155.719
146.418
146.442
146.886
152.924
167.817
146.448
168.022
146.614
159.532
153.317
146.204
178.973
151.009
153.03
146.202
146.534
146.218
146.209
172.918
171.921
146.202
4364.53
150.045
2515.75
216.35
163.794
146.653
1838.43
70301.8
151.803
147.338
146.204
146.328
146.202
146.21
154.055
191.299
146.526
146.203
146.202
146.304
146.397
147.09
146.215
3304.77
147.207
146.202
146.209
147.431
146.202
146.314
146.202
255.908
146.252
146.202
146.642
146.202
146.247
146.239
147.312
2175.72
427.21
146.238
146.556
146.202
146.226
146.582
166.128
146.268
146.253
146.262
148.02
146.223
146.202
146.216
146.205
146.271
146.332
146.564
146.215
146.203
146.209
146.202
147.086
146.203
146.202
2772.63
18235.9
7010.53
155.306
146.297
746.238
154.277
146.212
146.214
25652.4
26042.2
146.209
146.202
146.269
146.288
146.216
150.826
6995.26
146.21
146.202
146.216
146.207
146.211
146.202
146.238
146.212
159.865
146.202
334.949
154.894
146.379
146.202
146.774
146.204
146.201
146.226
146.204
2738.68
146.202
146.202
146.249
146.223
146.204
154.899
146.202
146.277
6410.7
147.089
146.21
146.202
146.204
146.204
169.972
150.877
39589.4
254.093
146.369
151.814
146.208
315.076
148.293
146.202
3116.56
146.208
150.479
146.203
150.338
146.202
147.883
156.144
146.212
146.395
154.195
146.209
146.202
146.202
146.7
146.202
147.118
146.202
25549.2
2892.26
146.201
146.426
146.983
4453.9
148.429
146.202
146.424
146.212
146.203
146.251
146.207
146.209
146.22
146.26
147.509
37794.3
146.24
146.317
146.202
141.191
146.208
1236.69
151.548
148.354
203.515
159.149
313.276
208.188
146.213
151.907
146.22
146.215
146.35
2468.03
146.212
4184.24
773.953
146.215
710.68
146.205
2856.22
146.214
18361
147.425
146.323
146.416
146.213
1229.98
1602.23
149.439
146.205
146.216
146.213
155.208
146.766
8916.48
146.203
146.203
64218.3
146.226
146.836
146.563
153.065
235.02
1355.49
146.202
8980.03
146.217
7189.47
146.202
146.202
7797.73
146.414
191.816
14397.2
146.202
10377
8591.39
10301.4
146.202
154.67
146.278
146.201
146.209
146.202
146.542
146.978
146.442
146.507
146.203
234.057
146.252
146.217
146.433
146.405
146.203
146.325
146.203
146.653
205.1
146.202
146.412
146.871
146.203
162.995
148.02
741.828
146.541
734.276
154.474
153.632
146.206
146.203
695.727
146.204
146.2
163.009
146.231
146.202
146.216
146.201
146.317
146.463
265.381
3414.18
146.39
146.81
146.202
146.355
146.202
146.241
146.789
146.21
146.203
146.306
170.822
146.518
146.213
146.339
146.197
146.288
146.202
146.307
148.571
146.204
146.211
146.202
146.202
146.371
146.206
146.318
151.994
146.205
146.373
1859.22
146.204
148.301
146.227
146.212
146.439
146.204
146.218
146.206
146.226
146.213
146.204
146.205
146.205
146.223
146.217
146.207
146.84
146.217
149.997
146.848
146.217
146.211
146.226
146.394
146.205
159.555
155.847
146.729
146.46
191.206
3091.95
146.202
4208.62
146.203
146.204
153.147
147.243
146.204
146.393
179.319
146.85
364.356
146.211
42790.4
146.246
146.483
146.202
146.202
146.205
320.101
146.207
207.962
146.21
146.994
146.22
251.341
1205.46
157.805
146.283
146.204
146.204
149.174
146.294
16074.4
258.675
216.135
146.209
153.17
249.626
23403.6
167.048
147.065
180.063
146.203
146.272
146.269
146.322
21752.7
274.529
146.272
146.202
146.204
146.273
146.213
146.235
17907.2
146.205
146.477
146.255
163.709
146.314
146.296
148.681
16484.7
146.302
146.204
146.241
16235.4
146.23
146.299
148.225
147.633
147.435
146.704
148.127
146.208
146.518
146.986
146.223
423.389
146.764
147.087
146.767
152.688
5545.1
146.209
146.206
146.22
180.307
29040.5
146.3
184.846
146.209
177.471
151.922
146.314
146.204
146.287
1774.1
146.284
146.73
146.208
146.806
147.093
146.257
146.674
146.316
146.408
146.491
146.262
146.319
146.326
146.354
2675.31
10022.8
249.873
146.212
539.935
9403.65
194.761
9500.3
9589.55
146.206
146.637
146.202
146.211
146.203
146.255
146.327
1819.59
3499.1
146.257
146.239
147.038
9124.17
9970.8
146.202
146.425
192.453
146.205
8143.26
146.615
247.084
191.886
146.293
8128.84
146.277
245.294
183.928
190.281
179.731
146.202
148.169
146.36
146.224
146.204
45855.7
146.441
2620.92
149.7
3233.9
146.621
146.202
146.204
146.205
146.243
146.202
146.282
146.203
147.228
146.204
146.28
3486.55
10643.5
146.205
2656.35
146.207
146.517
154.964
146.202
146.645
146.213
146.55
146.561
146.638
146.28
146.348
146.348
146.571
163.425
146.285
146.586
146.755
146.6
146.471
146.503
146.202
248.83
146.203
146.258
146.254
147.307
146.852
10167.9
3249.99
146.852
146.271
150.557
146.726
147.558
206.826
167.594
146.202
146.203
150.549
146.202
146.286
146.203
146.468
146.256
146.203
150.546
146.202
152.114
149.362
198.47
146.208
146.209
2935.18
146.394
146.262
150.323
161.654
149.543
183.469
318.29
146.277
150.337
27485.9
879.037
151.523
146.202
153.446
148.014
148.746
146.237
146.204
146.274
146.207
148.129
248.188
146.853
9331.93
147.164
164.405
8649.96
146.292
842.245
146.266
2385.05
146.202
146.26
146.343
146.207
146.507
146.324
146.204
178.124
146.203
146.479
147.203
146.655
146.205
147.425
197.903
165.873
198.221
146.203
146.902
1879.84
146.203
1384.82
146.235
146.209
146.375
69540.8
146.308
146.203
201.406
233.546
146.211
165.075
3930.17
211.899
148.262
146.276
146.203
146.698
209.76
7943.25
146.464
146.224
148.01
202.595
156.111
146.204
212.467
146.936
146.543
80.0288
154.594
1230.13
166.596
114.293
154.654
146.235
146.239
147.891
146.644
146.486
146.239
146.242
231.207
146.217
20078.3
146.202
146.202
146.602
146.717
146.27
151.083
146.304
147.232
146.379
19692.7
153.205
160.183
146.382
212.711
146.208
282.061
7135.36
18706
146.351
146.764
146.22
150.135
146.202
149.855
11874.8
10772.9
146.202
146.202
189.879
146.253
146.526
146.202
146.318
146.306
246.082
146.202
147.326
146.23
146.211
150.173
146.202
147.669
268.348
14846.7
146.207
146.36
146.209
146.227
146.255
146.754
202.735
198.486
184.905
236.022
146.246
146.214
146.204
146.316
146.229
146.206
146.337
146.673
146.216
146.886
146.206
146.211
233.142
146.211
146.313
146.348
146.33
146.274
146.202
226.573
146.76
2062.74
146.207
146.43
146.208
146.554
146.865
146.211
146.233
146.857
146.833
147.617
146.205
146.297
160.391
165.009
146.266
228.817
2404.46
146.28
146.226
146.282
146.211
146.84
7495.98
146.895
343.853
158.568
155.45
146.238
146.205
146.213
160.861
154.259
146.237
146.29
146.208
159.994
146.205
147.606
146.604
160.666
164.32
146.206
164.318
146.208
153.781
169.628
146.211
146.97
173.254
146.613
146.244
146.331
6539.39
152.233
146.22
146.208
146.203
146.21
3632.58
176.172
146.203
164.417
146.207
146.826
146.24
146.84
146.204
166.955
237.318
146.677
153.982
146.455
214.543
146.202
164.731
167.375
150.816
146.307
146.236
146.22
146.202
152.564
146.202
312.868
155.958
146.236
146.204
154.709
146.275
146.558
146.257
146.239
157.588
149.205
146.21
146.452
188.717
146.448
146.204
26197.3
146.386
146.331
160.155
232.448
146.81
146.202
25687
146.653
146.243
146.27
7102.05
146.293
146.313
146.266
25684.9
146.21
152.27
157.384
146.545
212.83
865.516
146.446
146.209
148.882
146.204
220.594
147.084
281.383
146.905
322.812
229.612
149.091
146.627
146.336
146.683
146.202
146.202
146.202
146.202
146.277
204.514
147.346
146.208
5113.37
214.579
160.652
146.331
146.279
147.099
146.202
211.382
146.616
146.34
146.202
146.471
151.183
146.442
152.345
148.209
146.202
146.287
146.657
146.202
146.202
146.204
14971.2
146.414
146.322
147.816
146.202
146.482
146.251
146.202
147.44
146.351
146.734
146.982
189.753
183.938
154.693
148.943
146.202
146.202
165.887
147.115
169.036
231.361
146.901
146.888
9983.02
162.94
146.395
146.317
146.203
146.206
166.87
146.204
146.207
153.592
146.979
146.429
146.228
146.204
146.204
166.359
146.247
30740.9
17672.1
176.841
146.327
146.358
146.217
146.214
147.408
3045.26
146.495
146.21
146.202
146.22
146.202
146.226
209.011
146.214
2997.56
146.211
146.215
146.224
158.715
146.285
210.972
146.211
146.261
153.232
146.206
146.352
146.217
146.217
146.214
413.539
146.421
146.223
285.412
146.345
453.659
274.562
146.212
146.202
146.219
146.86
146.218
152.668
146.87
154.274
4619.1
243.874
146.425
146.352
247.637
146.204
146.22
146.204
146.202
146.203
250.812
244.03
972.063
151.059
146.265
146.461
239.494
147.396
146.204
146.201
331.734
147.092
221.223
469.891
147.548
146.935
146.214
146.214
159.869
146.204
146.803
16290.6
154.325
146.738
146.932
624.892
157.812
146.202
146.223
146.202
161.773
1708.2
146.416
146.285
206.89
205.31
147.624
192.995
146.206
146.282
146.203
152.872
168.349
146.872
1968.99
147.538
146.201
146.643
146.282
6365.2
146.575
146.243
146.587
19254
217.083
146.203
146.507
146.351
146.211
710.211
555.178
424.775
147.706
468.021
146.27
737.733
836.485
146.218
146.217
146.202
146.515
146.211
146.215
147.152
146.222
146.202
146.214
146.214
146.396
146.205
146.255
146.205
212.582
146.205
146.205
146.206
146.473
151.068
146.205
159.21
146.287
146.203
146.205
146.21
146.255
147.539
146.211
146.726
146.205
162.777
174.645
146.201
212.927
182.869
173.99
146.285
200.893
146.288
146.576
217.053
146.204
146.211
147.942
219.246
146.202
146.202
146.686
146.211
146.303
146.208
156.406
217.174
147.065
3296.69
146.202
742.645
146.202
146.21
146.211
146.333
146.242
3616.05
2032
146.548
209.932
2150.05
177.717
146.417
148.217
146.249
220.549
215.028
146.213
153.741
146.499
146.673
146.21
232.978
146.211
146.202
146.308
15952.2
7715.59
229.729
146.202
155.736
146.209
146.21
146.539
146.454
146.449
150.272
146.21
161.722
230.694
2952.22
146.237
161.158
202.922
150.242
146.211
146.271
153.589
146.211
147.532
152.302
146.665
146.358
146.864
150.654
146.747
241.179
3507.78
150.326
151.048
4265.11
146.212
146.205
3428.89
146.214
146.209
146.213
146.646
9202.79
146.203
148.107
148.842
146.222
9838.39
146.211
5509.47
146.218
146.245
4209.74
191.701
146.238
26987.1
149.414
146.206
146.926
146.203
146.203
146.762
8827.21
146.596
146.236
608.556
146.202
265.635
7037.13
174.961
207.237
4222.84
146.203
69891.1
146.473
146.202
146.204
146.211
146.202
146.285
146.207
146.202
438.488
150.414
175.836
208.524
146.202
146.212
146.203
146.202
146.203
151.734
369.285
230.823
146.208
146.202
146.216
146.878
152.548
146.202
147.089
146.686
146.202
146.202
219.072
19771.2
151.127
3155.89
152.413
146.202
190.242
149.784
146.203
146.202
146.203
2763.88
5482.87
214.627
2020.77
146.202
146.202
79119.8
146.202
206.819
147.616
146.202
146.231
146.202
214.766
146.511
201.946
2303.25
147.208
193.263
316.263
146.363
146.202
146.981
146.208
146.272
146.202
146.653
146.202
146.83
146.214
146.207
147.343
779.088
167.16
326.508
146.203
147.773
9778.77
150.376
146.202
596.697
146.202
146.21
267.742
3239
10202.4
1302.11
146.202
184.108
8481.86
173.761
146.215
1857.66
257.217
270.602
2616.2
146.22
12613.2
266.303
146.206
256.861
1152.01
253.997
152.268
200.383
150.106
146.213
816.583
6881.23
10141.9
146.204
146.531
10789.6
146.202
146.869
148.129
146.202
550.816
152.009
146.202
148.87
146.202
146.202
147.275
470.328
6598.28
790.401
971.102
146.254
147.334
146.652
146.259
156.972
146.206
146.335
146.203
146.217
146.203
146.41
146.202
146.202
146.295
2536.93
146.677
148.165
33174.1
146.317
146.206
207.585
146.202
146.427
146.209
146.202
146.646
152.717
2101.23
148.842
146.642
147.351
6600.51
146.244
146.425
276.473
198.264
146.291
190.229
146.202
175.08
146.202
176.778
146.238
213.038
156.834
146.204
146.211
146.217
149.211
146.207
275.493
146.203
153.413
205.191
146.203
146.201
7440.26
205.952
2945.06
285.154
146.206
148.67
5837.88
146.203
146.216
147.247
146.35
263.294
146.203
263.742
154.787
3542.53
275.897
4877.38
1857.31
265.145
146.203
55586.5
71887.3
146.277
3617.16
146.23
202.413
209.201
146.777
4088.42
146.271
146.312
146.208
146.56
200.671
146.21
146.21
146.213
146.247
146.202
157.026
146.213
146.232
7676.03
150.159
146.274
4730.89
177.095
146.202
146.339
221.635
6147.6
163.074
149.934
2213.52
153.108
21438
147.381
146.246
4206.61
146.211
147.052
150.517
3082.74
146.298
146.972
159.621
146.942
147.957
6585.42
146.25
256.777
173.005
146.204
146.214
146.267
146.202
146.293
146.317
1160.07
230.255
41729.8
146.314
36599.2
146.301
638.511
147.037
147.101
150.649
1854.2
146.21
146.22
146.358
146.202
146.202
146.201
146.243
207.156
146.357
734.349
240.851
146.563
3344.69
4675.11
47209.7
383.521
146.213
126.282
148.153
157.119
156.223
156.378
336.061
146.202
146.205
146.303
146.239
146.285
176.073
126.854
604.718
156.273
146.202
99446.1
146.823
146.202
146.478
146.202
146.246
177.53
146.306
146.23
304.698
146.238
148.281
146.248
147.82
146.204
146.209
416.104
146.387
146.205
152.846
148.95
4428.08
146.321
146.212
146.208
146.344
166.076
148.324
203.597
8201.42
170.121
147.261
22582.9
174.894
146.205
191.244
199.302
147.754
6874.8
23044.3
172.086
147.698
146.204
2911.95
199.669
2343.64
4514
146.213
2305.83
146.202
146.202
8597.98
146.361
146.306
6014.28
2608.66
7534.86
6130.63
146.218
351.026
702.78
1439.66
146.212
146.244
4362.59
7463.71
3322.86
271.92
201.554
146.282
331.739
3399.07
2942.35
246.087
191.806
5389.08
146.208
146.202
84199.4
5484.81
410.047
158.846
724.406
932.01
7392.9
146.216
392.825
146.203
7372.19
146.202
157.45
148.487
146.202
5807.9
146.202
5033.49
7020.53
146.202
146.202
3123.32
146.202
146.202
146.202
146.203
3181.51
146.204
7308.82
26853.7
146.202
146.21
7985.62
146.21
146.225
950.78
146.226
146.279
146.204
158.615
254.663
257.958
6179.66
150.904
146.204
3603.29
146.22
241.089
1076.63
146.202
146.202
146.26
146.206
1223.61
146.203
146.208
146.202
146.203
146.207
2168.79
14656.7
146.305
146.214
79612.6
146.205
146.793
146.203
516.352
146.21
507.301
1846.89
146.207
146.211
146.471
146.721
4260.37
146.203
951.334
211.802
146.202
146.245
244.496
146.203
146.275
146.202
4090.78
146.268
146.202
146.208
146.487
146.206
3015.77
237.165
146.204
146.204
1120.51
146.202
224.549
172.458
146.202
28208.9
9531.73
209.367
146.205
153.474
196.265
7368.53
146.323
10101.6
146.22
5470.06
3690.32
146.203
210.341
5404.14
1086.91
11177.5
1576.32
146.243
146.279
146.206
279.914
208.917
146.254
8511.37
146.279
182.484
146.203
431.665
6652.82
3898.64
146.304
146.795
224.349
146.202
5864.6
146.388
146.202
146.205
8239.28
3490.24
3319.82
146.21
146.206
146.596
7020.07
150.438
12826.1
146.202
146.202
6736.12
153.45
146.21
146.223
22660.1
146.204
146.92
219.831
10639.6
146.905
191.282
146.205
27170.9
2498.08
212.795
149.888
146.245
12389.2
146.213
246.206
1501.71
383.38
350.994
12834.6
213.126
22621.4
146.209
63577.9
5471.82
149.592
146.205
147.095
115418
146.202
2890.53
21892.3
146.202
1837.4
146.213
14006.4
280.871
150.477
3430.48
3647.39
146.202
146.215
146.229
158.892
46977.4
146.208
2596.7
234.857
146.202
146.202
146.202
151.304
159.697
146.211
146.387
146.208
8665.07
147.621
1698.38
146.202
146.562
146.205
146.276
176.667
146.202
146.202
150.173
146.839
146.491
3655.02
4557.18
161.463
146.505
146.215
146.227
146.203
146.217
146.278
146.228
147.694
146.858
146.533
4535.72
146.231
146.212
146.203
146.873
146.237
146.202
183.267
146.233
146.284
4157.19
146.275
151.98
146.218
146.386
147.341
153.856
146.211
146.287
146.307
146.203
146.417
146.221
146.207
212.762
146.208
146.203
147.789
146.253
149.072
146.259
223.301
146.203
204.224
146.236
146.233
217.398
168.071
146.883
146.212
146.202
146.211
8607.51
154.046
146.209
187.672
722.679
146.22
148.855
146.256
238.188
136.025
146.204
146.261
183.437
146.676
726.335
146.495
146.202
146.319
147.008
146.703
146.202
148.178
146.26
146.203
213.053
146.203
146.202
146.502
146.202
146.279
175.856
146.28
146.202
1214.56
720.665
146.461
146.233
146.201
146.302
156.987
146.203
157.247
147.239
146.224
146.99
146.555
148.281
146.333
147.285
146.247
146.355
3528.11
147.053
2971.9
146.258
146.611
146.233
146.203
4903.99
146.232
146.288
323.917
146.234
4725.02
146.203
146.234
146.318
278.561
645.106
288.729
627.392
146.204
296.804
284.034
146.392
187.173
161.85
246.44
251
146.32
337.949
278.409
732.423
146.285
630.415
294.663
162.778
146.209
149.879
197.464
147.01
147.927
146.212
250.56
146.207
146.3
146.237
146.204
146.202
146.204
146.734
220.382
146.202
146.235
178.02
146.446
146.483
146.204
146.459
163.009
146.726
146.973
146.202
146.254
146.203
146.202
146.202
146.241
146.204
146.986
149.103
146.204
166.824
1051.65
146.204
146.209
177.06
146.202
146.203
146.207
146.202
146.202
146.361
146.878
146.254
158.843
163.475
146.202
146.308
146.826
146.202
146.203
146.735
146.202
146.202
146.395
146.209
268.07
233.127
146.389
146.202
146.26
4607.79
6017.06
212.383
146.202
146.202
163.266
146.329
146.206
146.202
146.202
148.269
4654.1
146.202
146.204
146.205
17250.6
229.9
161.425
16627.1
146.692
146.651
146.311
146.34
146.208
146.208
353.937
146.33
160.121
218.934
18464.1
156.799
159.783
19660.7
146.856
18459.4
156.601
149.364
169.266
146.207
5039.99
159.441
5142.67
146.291
146.64
5914.8
146.249
146.228
154.397
6270.03
146.531
146.287
5329.41
146.222
150.447
6477.98
699.715
159.223
146.208
663.936
147.575
739.478
2647.71
146.202
147.032
146.61
146.205
146.576
218.044
146.249
155.162
146.209
213.676
146.237
146.205
146.217
146.203
236.217
146.201
237.343
5023.76
146.21
212.112
216.292
4841.23
146.205
146.631
2793.98
146.209
224.401
146.411
146.732
148.188
218.594
146.202
146.202
220.284
146.202
169.761
173.507
173.952
6399.28
171.091
146.207
146.365
185.781
154.07
147.851
146.203
224.977
146.269
214.022
182.824
146.9
5452.66
180.963
146.211
3272.58
228.195
146.208
156.362
146.95
146.581
219.032
146.25
220.76
146.466
180.938
3170.82
254.712
150.879
147.076
249.873
252.385
146.44
146.319
256.677
148.888
146.319
146.506
5570.1
146.522
146.234
23742.2
146.205
146.216
150.021
146.208
28567.4
146.202
154.991
6624.29
1423.15
146.203
149.299
146.26
23156.1
147.109
153.636
159.327
24807.3
31581.6
146.767
146.202
170.194
216.202
248.573
3031.07
283.821
146.981
146.306
146.527
146.266
146.201
146.209
146.202
146.208
146.212
146.202
196.699
63652.1
148.658
146.273
146.438
146.768
146.76
146.209
235.924
146.202
146.227
146.278
146.206
154.924
146.278
153.128
146.202
151.933
216.202
58084.9
146.202
146.639
146.535
14269
146.208
146.515
634.712
146.209
146.651
19397.4
146.223
146.351
146.209
146.471
151.484
146.269
146.209
146.725
146.879
146.208
146.633
205.01
146.21
146.291
146.21
147.033
146.602
146.203
146.207
7595.15
146.268
146.219
146.213
146.428
146.212
146.202
146.202
16923.9
11478
146.203
230.125
146.204
146.202
146.215
150.849
146.204
146.21
331.834
146.205
146.203
226.665
146.216
209.657
4281.63
146.205
146.218
146.222
10657.9
146.205
146.4
146.202
146.202
146.202
146.202
146.202
147.092
146.217
151.196
146.998
2289.28
2771.27
146.217
263.801
213.517
146.206
275.089
119128
146.202
147.783
149.996
146.206
146.213
146.205
147.549
275.367
146.216
146.21
146.206
147.271
146.221
161.497
165.543
229.701
146.839
146.209
149.142
2377.61
146.213
146.207
146.208
2935.28
2538.24
146.202
146.206
146.202
146.214
268.567
6499.53
146.204
153.442
212.875
233.742
146.202
146.399
24593.3
146.202
146.202
146.21
146.202
191.986
204.636
172.457
201.047
146.247
146.205
146.204
146.21
4701.4
1296.95
146.202
151.01
146.209
146.209
146.202
8371.02
2382.05
21029.7
196.544
152.488
146.359
146.206
187.288
201.595
25151.9
146.207
146.21
146.205
7787.35
16640
151.969
146.209
34214.6
30890
229.636
8349.98
568.361
187.299
6114.46
225.43
146.202
146.215
146.202
146.504
147.141
161.096
20733.8
7771.55
212.316
1203.51
546.17
154.251
285.465
271.341
148.8
146.368
795.266
155.715
169.193
148.266
146.204
229.059
242.644
146.224
154.219
16859.4
146.232
146.205
1320.03
8626.13
146.208
146.28
146.208
146.21
156.127
146.205
146.403
225.815
24989.6
146.494
150.963
146.343
279.425
233.507
146.513
146.204
152.376
403.775
146.321
146.205
146.575
146.204
146.222
146.213
151.14
5790.64
168.497
146.294
146.209
146.376
152.366
146.206
151.045
146.202
146.34
146.204
146.553
146.627
146.202
146.624
146.211
146.306
146.212
147.648
146.225
146.393
146.937
4318.63
153.739
139.016
146.228
146.202
146.27
147.994
146.246
146.236
241.627
145.323
4339.1
132.971
146.268
222.967
225.767
141.942
125.95
160.606
999.761
146.407
146.234
146.203
146.824
146.203
146.262
146.316
356.75
146.202
9411.08
146.208
146.239
146.225
146.202
146.25
146.203
150.449
17925.5
212.949
146.21
146.202
146.851
218.859
168.25
225.279
3926.05
146.225
3881.5
146.225
146.229
146.478
3463.53
3450.93
3497.5
4197.9
296.958
209.682
13589.6
3066.56
3744.92
146.376
146.211
146.204
146.204
203.267
5953.79
149.544
260.183
6541.52
6739.54
146.593
7041.79
147.117
164.957
146.241
146.202
149.868
365.442
214.036
146.202
149.875
6291.77
151.041
17103.1
293.703
147.032
8457.49
146.247
146.558
9072.77
146.585
146.921
146.216
146.929
146.211
146.21
8428.02
146.203
146.207
156.045
146.207
9229.51
157.908
146.209
200.816
356.359
366.228
228.907
357.416
146.76
370.159
146.211
146.209
367.987
249.842
345.413
345.438
237.858
147.072
146.254
248.421
25782
146.203
146.206
1261.4
146.401
25863.4
146.241
146.481
146.203
1150.71
146.204
258.299
146.202
146.341
146.938
1248.55
1265
147.117
146.202
146.995
26147.6
9447.55
146.213
3023.36
5197.73
166.191
24953.5
146.908
4021.26
150.071
155.211
146.458
146.202
146.206
146.206
146.207
25123.8
146.202
146.278
146.202
146.202
146.205
146.207
146.202
147.713
244.113
146.202
146.202
4517.42
146.211
25870.7
146.291
146.202
4998.84
146.637
146.202
146.21
24841.4
146.234
146.202
252.022
146.216
146.204
146.202
163.196
164.959
146.915
146.209
146.994
146.521
146.204
146.379
885.97
146.202
146.387
146.202
220.142
146.202
209.31
146.204
147.106
146.204
146.204
146.204
146.205
146.711
146.204
146.202
163.814
146.747
146.202
12741.2
146.202
146.202
148.142
146.204
186.368
239.451
166.629
166.955
146.207
146.35
146.296
146.246
146.276
205.409
153.719
147.347
146.28
180.59
146.207
146.436
147.171
147.337
147.269
147.228
10163.2
147.894
146.237
205.619
149.922
166.605
146.4
165.222
253.596
185.003
146.592
146.207
146.72
146.202
146.206
8279.76
149.403
147.304
8272.87
147.02
146.331
146.209
146.202
146.212
146.205
79969.2
146.229
147.703
146.233
8305.11
6978.69
8408.58
146.928
156.805
291.974
146.214
146.829
146.207
8683.88
146.206
146.211
146.209
146.204
25230.3
146.213
146.204
146.21
146.519
146.902
164.411
222.253
146.202
148.081
158.447
146.202
201.077
146.202
146.207
146.202
146.204
146.203
221.093
146.202
150.597
163.183
148.692
148.398
934.167
146.872
146.202
146.204
146.207
146.244
146.202
146.201
146.201
146.211
157.79
151.745
154.481
218.145
146.209
845.789
146.794
496.549
146.292
146.201
1571.73
146.205
146.201
146.202
3127.96
1880.73
810.338
146.445
843.192
146.217
146.32
146.211
147.366
146.339
7244.42
147.206
146.211
146.214
272.497
152.508
146.203
152.962
146.201
146.203
5064.3
146.202
179.896
146.201
147.31
146.204
146.611
146.204
146.202
146.775
146.204
27228.8
146.212
206.676
146.203
146.205
3177.56
146.202
146.203
146.213
3083.08
146.213
179.689
198.439
1162.25
146.204
8663.13
250.004
146.203
146.209
5190.23
179.704
146.202
2237
878.687
146.214
146.207
146.911
3520
146.287
146.52
146.204
146.21
388.956
146.21
105167
146.212
146.888
146.21
146.203
146.552
146.209
146.213
146.431
146.208
166.92
2232.91
1169.18
241.652
1784.54
2536.64
1579.71
146.219
146.208
146.203
3368.24
2579.74
9314.21
210.458
146.345
226.742
1914.13
10266.6
7688.38
146.203
8354.86
7216.05
1096.05
146.202
521.409
1935.97
2002.78
8601.13
1197.17
527.907
1830.63
146.212
3021.44
146.254
1379.61
146.305
7212.47
2149.44
146.218
146.209
184.353
1808.84
146.365
157.078
147.042
146.206
2772.42
212.182
147.069
146.211
146.205
150.623
146.217
150366
180.208
146.202
146.221
2425.37
146.86
26988.6
5647.8
823.527
147.103
146.202
146.203
4123.79
146.203
146.202
146.429
146.337
146.211
2472.78
232.844
149.436
549.2
7160.58
146.804
146.203
2618.15
146.21
146.205
7696.4
146.202
146.204
218.978
2462.19
74570.6
4337.45
146.26
146.349
146.202
2256.12
2605.35
606.324
12534
146.202
212.597
146.202
211.615
146.203
180.482
2949.41
146.202
6178.18
146.202
146.202
220.355
147.49
154.672
220.168
4830.87
16117.5
146.202
146.212
146.561
352.47
146.249
146.28
73515.7
146.206
147.356
192.536
146.202
146.202
146.212
146.202
146.202
146.206
146.826
146.207
174.356
146.391
3021.48
27099.1
155.987
181.211
146.235
280.762
146.213
146.202
158.726
4083.74
6511.75
179.935
1195.68
154.352
146.209
146.585
20120.5
150.324
148.405
146.875
146.213
331.778
146.202
146.202
146.202
226.722
146.837
146.205
4018.99
146.202
146.596
146.302
3309.69
9031.14
146.21
147.727
147.876
255.274
171.597
149.22
146.204
146.204
152.546
146.299
146.209
146.215
146.207
146.202
146.211
146.33
14312.4
3381.28
150.296
146.782
208.575
146.848
146.207
146.202
146.202
153.945
146.588
146.21
146.578
151.672
146.279
6002.66
148.201
146.636
211.114
2489.63
146.234
148.032
146.208
146.21
146.624
934.949
148.739
146.208
146.211
146.206
151.075
146.212
149.51
238.436
165.329
148.532
146.208
146.367
152.429
231.858
146.207
148.835
146.715
146.61
146.203
148.557
146.269
152.52
146.318
146.202
209.869
146.312
147.622
146.203
146.888
4256.56
147.149
146.214
146.327
146.882
147.31
146.297
146.202
146.216
10661.4
151.441
65309.2
147.36
146.362
4167.99
4270.07
146.205
146.368
146.228
146.489
149.838
146.635
183.191
146.216
146.262
146.205
4323.27
146.206
146.203
146.216
146.203
3701.75
3956.63
146.209
4141.13
146.468
146.571
146.212
146.908
146.221
4152.57
153.891
146.203
146.203
146.82
146.211
146.209
146.212
146.214
146.213
147.23
146.205
195.468
146.208
146.208
146.203
147.23
146.219
146.204
1575.56
146.203
146.205
146.214
149.904
8949.81
146.214
213.539
146.217
148.759
146.204
146.209
146.205
146.307
146.205
146.277
146.206
147.2
1597.07
146.208
146.216
146.211
146.236
146.209
146.208
146.203
146.211
146.209
146.211
146.208
146.206
146.282
9721.15
1258.4
146.622
152.503
146.21
146.217
578.958
146.208
175.327
146.304
149.118
146.202
146.203
146.212
146.289
146.209
146.203
216.831
148.974
146.207
146.205
146.201
146.21
146.209
146.243
146.201
146.206
146.208
146.421
208.032
146.324
146.215
146.204
254.424
258.441
146.284
146.215
146.206
146.214
146.353
146.202
201.442
146.278
147.009
252.624
146.859
153.104
211.961
147.734
150.487
146.222
74700.6
146.211
172.937
146.201
150.331
146.641
148.671
2705.49
146.23
146.202
146.21
1845.71
6269.62
146.209
148.237
147.484
6776.99
146.21
146.21
146.6
146.215
147.432
146.214
146.203
146.213
146.212
146.206
146.217
275.84
145.58
146.651
146.21
146.202
150.996
146.211
146.203
270.27
6455.08
258.222
146.205
146.211
165.96
270.348
146.202
146.228
2841.61
147.362
4102.05
146.204
149.417
146.241
147.259
146.212
146.29
146.202
146.209
146.205
146.202
146.212
146.215
146.203
146.209
146.205
146.212
146.201
146.202
146.203
146.259
146.213
146.203
146.202
146.207
146.212
147.239
149.439
150.144
146.202
146.353
146.202
146.202
401.411
146.393
146.204
146.207
146.202
146.207
146.202
150.255
146.211
146.23
146.212
146.202
146.203
146.285
146.201
146.302
146.333
479.123
146.203
146.202
146.409
146.201
146.209
146.202
146.21
146.206
146.211
146.204
146.203
146.208
146.213
1243.17
1161.11
146.202
146.213
146.201
146.213
146.202
146.202
146.202
146.274
3053.91
17999.5
146.205
19232.8
152.242
146.212
10751.5
16075.3
165.907
146.657
846.142
175.625
146.226
146.212
146.224
146.206
11022.7
146.203
16654.7
146.202
146.202
146.201
147.109
147.114
147.039
146.21
146.201
146.305
146.219
146.203
146.245
146.202
146.207
146.213
146.464
146.926
146.202
146.212
146.212
146.203
146.202
146.319
146.205
147.015
175.98
153.404
161.753
146.209
146.216
146.203
146.212
167.436
146.204
180.114
165.687
146.21
146.281
146.222
146.463
146.203
178.261
146.213
146.234
149.949
146.215
150.376
8829.93
203.592
146.29
146.204
185.326
245.662
146.208
146.248
146.202
146.205
177.886
146.204
150.346
236.064
3419.32
149.22
5971.23
147.465
146.204
3624.13
146.206
146.206
146.203
146.296
146.205
146.212
254.212
7568.11
147.76
229.491
1712.02
146.201
146.215
146.204
3492.7
146.81
146.205
9458.42