/*--------------------------------*- C++ -*----------------------------------*\
| =========                 |                                                 |
| \\      /  F ield         | OpenFOAM: The Open Source CFD Toolbox           |
|  \\    /   O peration     | Version:  v2012                                 |
|   \\  /    A nd           | Website:  www.openfoam.com                      |
|    \\/     M anipulation  |                                                 |
\*---------------------------------------------------------------------------*/
FoamFile
{
    version     2.0;
    format      ascii;
    class       volScalarField;
    location    "5";
    object      ILambda_9_0;
}
// * * * * * * * * * * * * * * * * * * * * * * * * * * * * * * * * * * * * * //

dimensions      [1 0 -3 0 0 0 0];


internalField   nonuniform List<scalar> 
108993
(
146.203
169.401
146.202
146.202
146.202
146.202
188.399
146.202
146.203
146.225
146.202
146.202
146.202
146.203
146.202
146.207
146.246
146.203
146.202
164.194
146.202
146.202
146.367
146.202
146.202
146.203
146.202
152.213
181.428
146.203
146.202
146.203
146.202
146.204
146.202
146.202
146.202
146.203
236.996
11674.4
146.827
146.203
146.203
146.202
146.417
20805.3
146.202
208.173
148.976
146.301
146.202
146.283
150.739
146.202
146.203
146.202
146.202
146.204
146.204
146.204
146.205
146.204
146.203
146.202
146.202
146.207
146.202
146.203
146.203
181.376
146.202
146.202
146.202
146.202
146.941
146.202
146.202
146.221
146.202
146.202
146.203
146.203
146.203
146.202
146.202
146.203
146.202
146.202
146.202
146.202
146.203
146.202
146.203
146.202
146.203
146.204
146.202
146.206
146.202
146.202
146.203
146.203
146.202
146.202
146.205
146.203
146.203
146.202
146.202
2781.69
146.51
146.203
146.651
146.634
146.204
245.963
146.202
146.202
146.284
146.202
146.203
146.204
348.736
146.202
146.202
146.234
146.845
146.203
146.204
146.204
146.203
146.204
146.206
148.626
146.203
146.203
146.204
146.206
146.203
146.203
146.202
146.202
146.241
146.204
146.204
146.202
146.206
10701.8
146.202
715.704
746.095
146.203
146.204
1658.16
146.204
146.742
146.202
146.202
146.202
146.244
1866.13
146.202
146.202
146.202
146.202
146.396
146.203
146.202
146.202
146.205
146.202
146.202
146.245
146.202
164.001
146.196
145.936
146.202
146.203
146.202
146.211
146.204
146.202
146.202
146.203
146.203
146.202
146.202
146.202
146.202
146.203
146.202
146.203
146.927
146.206
146.203
146.855
146.206
146.205
146.202
146.203
146.475
146.202
146.202
182.484
147.4
146.202
1292.82
146.206
365.954
146.326
146.205
145.896
753.374
56834.5
146.205
146.202
146.202
146.202
146.202
146.098
448.249
146.206
146.247
146.202
146.202
146.202
146.202
147.074
146.202
2445.77
146.202
146.202
148.899
146.202
146.202
146.203
146.204
223.809
146.202
146.202
146.203
146.203
146.202
146.203
146.212
902.604
258.899
146.202
146.203
146.202
146.202
146.204
146.205
146.202
146.202
146.202
146.202
146.202
146.202
146.202
146.952
146.324
146.252
146.202
146.202
146.202
152.102
146.202
146.205
146.202
146.203
1259.67
155.488
9853.96
146.204
146.202
393.532
146.202
146.203
146.143
24376.3
24314.5
146.202
146.203
146.224
146.202
145.953
146.203
4323.2
146.203
146.202
145.898
146.202
146.202
146.202
146.202
146.202
146.584
146.203
170.247
148.203
146.204
146.203
146.204
150.51
146.2
146.216
149.57
949.422
146.203
146.205
146.259
146.202
154.728
156.17
146.202
146.274
2927.83
146.203
165.403
146.202
161.007
162.598
146.205
33194.1
155.229
155.87
146.203
146.203
146.205
176.382
162.773
146.202
1138.33
146.202
146.202
146.204
146.205
146.203
146.203
147.975
146.302
146.204
146.202
146.202
146.202
146.204
146.202
146.202
146.202
146.202
25367.9
3069.98
146.149
146.205
146.205
8447.07
146.202
146.202
146.209
146.171
146.203
146.203
147.007
146.655
146.202
146.204
146.202
327.28
146.211
146.216
146.203
1635.03
146.501
148.728
146.203
146.203
147.966
146.203
148.153
147.921
146.751
146.232
146.202
146.262
146.208
7488.8
146.198
7521.41
148.201
146.242
148.241
146.203
997.916
146.057
155.67
146.202
146.282
146.203
146.056
571.738
603.512
146.202
146.171
146.235
146.289
146.205
146.203
166.796
146.203
146.214
1066.12
146.202
146.202
146.203
543.937
179.974
2153.01
146.203
160.81
183.712
157.384
146.202
146.203
156.798
146.202
250.953
155.319
146.202
154.27
1833.73
148.469
146.203
146.203
146.227
146.203
146.119
146.202
146.202
146.202
146.202
146.202
149.765
200.846
149.356
149.688
146.245
146.202
149.49
146.203
146.202
146.202
146.203
146.202
146.202
146.202
148.097
146.202
146.202
155.928
146.202
307.406
499.099
146.279
146.203
146.215
337.269
146.203
146.203
155.054
146.202
146.202
146.205
146.202
146.288
146.202
161.401
2942.03
146.31
146.205
146.202
146.203
146.203
146.202
146.203
146.202
146.203
146.241
146.203
146.202
146.203
146.347
146.203
146.286
146.203
146.202
146.202
146.202
150.819
146.204
146.202
146.202
146.202
146.446
149.282
146.203
146.202
3207.96
146.202
146.238
151.759
146.202
146.219
146.202
146.202
146.202
146.202
162.29
153.745
146.21
146.209
156.428
147.17
149.208
146.31
146.476
146.202
146.308
147.143
183.571
146.202
146.308
146.203
146.204
146.203
147.037
146.202
146.229
2441.25
146.203
5631.1
146.202
146.203
146.202
146.204
146.204
146.302
146.205
146.202
244.814
182.189
35608.6
146.203
146.202
146.203
146.202
146.812
2500.63
154.304
146.203
146.202
146.203
148.25
271.197
319.139
146.202
146.202
146.741
146.86
146.202
146.264
5914.61
216.618
269.56
146.901
146.202
266.986
153.264
197.076
146.208
146.203
146.202
146.203
146.202
146.596
21405.3
210.721
146.203
146.202
146.804
146.202
169.675
146.202
154.674
146.204
146.203
146.202
148.502
146.245
146.202
146.202
99.989
146.289
146.203
146.202
127.897
146.202
146.251
146.202
203.174
146.202
146.258
146.202
148.152
146.203
146.22
146.202
554.933
146.202
146.515
146.202
146.203
3145.29
201.154
146.205
146.202
155.113
29390.6
146.224
217.55
146.806
155.516
742.191
146.213
146.202
146.202
544.952
146.297
146.282
146.204
146.285
146.202
146.434
146.202
146.215
146.207
146.298
146.291
146.223
146.223
146.309
2333.96
7876.78
231.006
168.912
146.658
6315.19
168.674
7634.02
5958.73
146.205
146.229
146.202
146.202
146.22
146.344
146.228
1368.16
2113.36
146.265
147.76
146.358
7466.5
7957.91
146.204
146.636
168.512
146.213
12269.2
196.757
219.091
146.269
146.223
8225.6
146.238
167.872
150.728
154.875
1620.02
146.202
146.202
146.291
146.213
158.836
90147.5
146.234
846.527
146.245
63732.4
147.274
146.202
146.202
146.202
146.299
146.203
146.367
146.947
146.202
146.202
147.004
3342.71
30466.8
146.203
17342.9
146.203
146.427
146.278
146.203
146.334
162.249
146.211
146.423
146.213
146.203
146.222
146.641
146.571
151.474
146.202
146.257
146.212
146.215
146.215
146.203
146.203
219.823
146.202
146.202
174.83
146.202
146.225
13163.1
1317.05
146.218
146.599
146.221
146.239
146.226
146.223
146.202
146.202
146.202
146.212
146.202
147.216
146.202
146.203
146.274
146.231
146.211
146.202
146.212
146.203
158.947
146.799
176.229
1286.07
146.202
146.202
146.203
175.524
146.203
224.799
186.473
146.203
146.204
156.986
411.409
146.207
146.202
146.371
146.204
146.204
146.752
146.216
151.304
146.202
146.205
160.26
146.202
11217.2
146.202
146.202
8646.28
146.235
228.715
146.936
149.294
146.203
148.046
146.251
146.202
146.202
146.229
146.202
146.202
146.203
146.203
146.202
146.202
146.863
146.202
158.04
146.203
168.007
166.103
146.202
8607.45
159.929
11351.6
146.217
146.203
146.237
392.366
146.298
151.307
146.922
206.84
188.163
276.46
1217.59
146.225
146.203
146.3
162.825
146.203
161.101
16776.4
146.203
146.202
146.207
192.146
146.207
151.477
146.885
146.204
146.202
130.813
146.203
128.524
146.203
131.151
146.204
148.487
146.296
146.282
146.85
146.203
146.267
146.262
146.586
146.651
24793.9
146.202
146.202
146.202
146.323
146.247
146.296
146.202
146.202
146.318
22510.6
146.202
146.28
146.331
201.766
150.742
264.446
5819.81
24285.2
147.381
147.057
146.343
185.311
146.203
180.823
13006.1
158.693
146.205
146.203
146.244
146.306
146.88
146.204
146.202
146.42
147.335
146.204
147.932
148.725
151.444
176.793
146.202
146.202
365.609
172.661
147.509
177.85
146.202
146.202
146.321
146.505
721.76
146.203
454.445
146.229
146.326
186.985
146.203
146.27
146.313
176.384
146.202
146.238
146.213
146.5
148.524
146.202
146.86
146.202
146.26
146.488
146.266
146.338
146.203
148.128
146.202
2198.77
202.943
146.203
146.203
146.845
146.341
146.202
146.24
5303.11
146.349
147.914
146.211
146.316
155.463
148.243
146.202
146.231
578.598
146.344
146.228
146.317
146.207
146.612
8641.17
146.297
146.335
146.306
146.277
146.285
146.404
147.286
146.314
176.219
146.241
146.202
166.258
146.337
146.202
146.203
146.202
146.415
146.203
146.203
146.202
167.314
146.202
146.202
157.342
147.739
146.202
146.202
146.227
146.203
4458.96
146.202
146.202
172.374
146.202
169.612
37946.9
146.727
146.314
146.202
146.202
146.956
146.238
146.451
146.227
146.202
331.871
146.202
213.259
146.32
180.527
146.202
146.203
146.203
146.203
146.206
146.779
146.202
146.202
146.202
146.202
374.938
146.202
146.685
146.203
146.203
146.981
146.248
146.584
146.838
146.203
146.202
146.822
146.492
146.204
146.202
146.202
338.923
146.205
147.317
146.203
146.221
146.206
146.203
25540.1
146.768
146.254
147.381
16744.3
146.339
146.274
146.923
25285.9
148.039
146.203
146.203
146.259
146.221
233.319
146.306
146.463
146.214
146.787
146.253
146.203
146.246
146.759
146.235
146.222
147.134
146.295
146.243
146.202
146.202
146.202
146.202
146.202
146.202
146.205
149.57
157.228
18525.2
146.21
146.202
146.203
146.244
147.867
146.202
146.21
146.203
146.26
146.202
146.256
3273.55
146.388
146.202
173.255
146.322
146.203
146.203
146.202
146.203
146.836
11315.2
146.316
146.202
146.203
146.202
146.205
146.204
146.202
146.205
146.203
146.203
146.202
146.203
146.203
146.203
146.202
146.203
146.202
146.204
146.205
146.203
158.163
147.039
146.604
13419.4
146.202
146.202
146.207
146.203
146.205
146.203
164.775
146.202
146.202
146.417
146.206
146.6
163.074
165.173
146.203
146.203
156.981
155.243
146.204
146.204
146.202
146.845
146.205
146.202
3774.44
146.202
146.202
146.202
146.204
146.202
146.238
146.213
190.509
3437.03
146.446
146.178
146.224
147.797
149.526
146.211
146.202
146.312
505.436
146.202
146.257
146.279
146.248
146.243
1199.35
147.108
146.202
146.332
146.205
146.819
146.35
146.28
146.203
146.205
146.204
146.205
146.206
146.202
166.375
29316.9
146.238
146.202
146.202
146.238
152.512
146.202
152.607
146.203
149.948
58738.1
146.419
769.189
146.202
146.281
146.204
217.046
147.456
146.71
146.197
146.737
146.221
168.343
146.321
249.443
148.479
146.202
146.203
146.229
146.205
146.203
2174.64
146.202
146.203
146.205
242.173
146.203
146.202
147.677
146.202
148.674
495.616
146.202
146.58
146.203
261.717
146.203
146.203
146.203
146.838
146.202
147.533
146.284
146.202
1049.53
146.203
146.2
146.204
146.588
155.626
146.202
146.244
146.561
155.937
151.446
146.21
146.205
146.34
146.203
969.747
1070.79
951.369
148.028
962.271
146.202
1079.95
1073.04
146.259
146.242
146.206
146.516
146.203
146.203
146.202
146.319
146.203
146.204
146.203
146.429
146.205
146.203
146.208
146.204
146.21
146.207
146.202
146.618
157.024
146.208
161.16
146.459
146.683
204.386
160.994
146.274
146.202
146.02
146.667
146.21
146.204
146.204
146.203
146.203
165.775
146.204
146.302
146.204
146.308
146.765
146.205
146.202
181.399
146.202
146.205
146.202
146.202
146.212
181.789
146.259
146.849
179.132
146.204
148.822
1359.16
146.204
339.874
146.202
181.533
182.851
146.204
146.203
5786.9
502.244
146.267
146.207
446.63
164.62
146.204
146.203
146.202
146.207
146.205
146.917
455.364
146.203
146.202
146.205
146.244
183.024
146.202
146.202
28285.1
15287.5
146.252
146.202
147.894
158.746
146.164
146.238
146.202
146.675
146.202
146.116
146.206
146.244
41477.2
146.262
146.23
148.209
165.199
146.147
146.329
1136.74
146.179
146.203
146.23
146.413
146.298
146.203
146.219
146.372
146.866
1321.37
146.218
146.221
2752.83
146.209
146.214
1982.78
146.21
146.202
146.211
146.203
7995.71
146.203
146.203
160.521
146.213
13166.2
146.211
2612.16
146.21
146.237
4877.6
146.235
146.237
23401.4
146.257
146.777
146.836
146.202
146.18
146.202
12771.5
146.328
146.203
285.469
146.203
151.008
7565.85
186.378
146.262
14315.2
146.203
100946
146.202
146.203
167.156
146.202
146.202
146.202
146.202
148.033
347.025
1297.52
149.361
204.575
149.599
146.202
146.217
148.689
149.907
146.202
439.017
146.607
146.202
146.202
146.202
146.372
146.211
146.203
146.74
146.202
146.203
146.203
151.292
23709.8
149.984
862.695
15103.5
146.203
146.209
1289.38
146.203
146.203
146.367
3158.98
4806.87
203.3
52110.8
146.203
146.204
16062.2
146.203
153.73
146.202
146.203
146.214
146.203
147.127
146.205
146.981
17070.5
146.355
146.427
147.014
146.47
146.204
146.384
146.202
146.203
146.203
146.202
146.204
146.203
146.882
146.203
146.255
967.433
147.627
249.623
146.962
146.202
2063.57
409.383
146.203
346.116
146.203
146.203
267.257
2345.97
771.8
384.384
146.203
52784.6
1966.01
233.259
146.202
406.724
272.735
265.419
287.075
146.288
1060.12
266.272
146.211
268.709
470.386
269.281
229.274
149.084
245.465
146.354
589.627
1675.82
846.998
146.202
146.202
13078
146.203
146.895
168.655
146.203
459.262
185.522
146.203
146.203
146.203
146.203
185.074
348.02
4551.16
532.039
210.336
146.204
156.145
219.967
146.984
146.202
146.971
146.203
146.203
145.882
146.203
146.815
146.203
146.203
146.226
148.763
203.611
146.247
15946.5
146.327
157.866
239.936
146.203
146.203
197.379
146.203
146.206
146.203
484.97
148.945
147.581
149.733
16627.6
146.246
146.203
298.662
196.029
146.832
15996.8
146.162
146.241
146.202
188.397
146.907
198.799
146.202
146.202
146.202
146.202
1885.09
146.204
231.876
146.202
40093.8
183.396
146.202
146.02
14943.2
155.848
1479.5
175.918
146.202
631.042
42551.6
146.204
146.77
147.146
146.304
290.283
146.202
238.264
5633.24
2290.08
291.616
1394.15
612.106
229.518
146.203
66635
32467.1
146.279
25286.7
146.21
146.264
196.246
146.204
51382.5
146.324
146.25
158.684
170.314
274.732
172.124
155.401
146.901
146.205
146.202
146.202
151.56
146.202
13963.5
683.435
146.248
8693.86
146.267
146.202
146.3
170.198
2702.82
146.259
146.284
372.169
25925.9
56764.7
150.283
146.204
1001.72
147.092
146.203
146.203
547.252
146.226
146.301
146.309
147.819
177.838
3718.89
146.214
223.016
147.118
152.756
146.202
146.204
146.203
146.21
146.262
152.16
30518.2
46882
146.253
86992.1
146.886
3699.48
146.21
149.847
889.759
20968.8
145.902
146.206
146.203
146.203
146.204
146.203
146.241
149.783
146.697
4505.43
220.433
146.528
326.394
4278.63
34920.9
490.165
146.202
6360.42
179.582
146.203
146.202
3039.53
554.753
146.202
146.204
146.202
146.857
146.202
5406.56
6579.97
1558.56
3872.9
146.203
142868
147.754
146.202
146.437
146.202
146.244
5807.17
146.321
146.23
7783.93
146.886
146.203
146.246
146.203
146.203
146.21
365.011
146.215
146.894
148.063
152.37
2078.31
146.927
146.998
167.367
146.203
146.204
146.203
399.329
8260.03
146.203
146.202
20787.7
146.204
146.204
146.203
146.204
146.591
4498.96
27989.7
240.556
207.691
146.203
1347.57
146.204
783.332
3374.69
146.205
735.058
146.203
146.202
11374.3
146.202
146.791
3537.25
940.709
7871.38
4526.44
146.203
329.071
376.204
991.86
146.801
146.24
4511.76
6967.59
1189.38
1026.26
146.657
146.206
214.206
154.901
1803.57
169.769
164.88
3756.6
146.201
146.203
7307.63
8243.78
269.052
184.643
412.985
152.036
10559
146.202
330.604
146.253
8914.39
146.203
177.568
236.069
146.203
5207.08
146.203
2914.36
5321.59
146.216
146.203
1364.45
146.203
146.202
146.202
146.202
1571.42
146.388
6978.07
23065.3
146.202
146.204
21546
146.796
146.202
480.489
146.203
146.203
146.205
146.202
282.457
251.189
3284.52
146.202
146.199
6120.89
146.204
149.529
373.41
146.202
146.202
146.799
146.339
444.706
146.202
146.206
146.203
146.202
146.202
162.539
621.867
146.833
146.06
1412.84
146.734
146.338
146.202
346.487
146.2
205.813
1278.21
146.203
146.202
146.312
146.587
3960.77
146.202
422.754
146.242
146.204
146.274
146.225
146.202
146.672
146.202
7870.84
146.202
146.202
146.2
146.237
146.202
3126.48
148.543
146.202
146.202
1034.6
146.202
176.551
146.208
146.202
32758.5
10715.8
197.413
165.272
146.202
152.972
10063.4
146.202
14286.6
146.203
2246.48
3753.15
146.202
80264.6
6795.89
2378.88
27014.9
1540.38
146.222
146.202
146.196
146.993
157.353
146.244
10319.4
146.204
146.257
146.203
148.264
8418.85
7145.3
146.202
146.681
213.545
146.202
5121.89
146.202
146.203
146.203
8034.08
1775.33
934.129
146.202
146.172
146.203
11608.1
153.646
10773.7
146.202
146.202
4761.55
862.532
146.202
146.202
20997.9
146.203
146.202
184.695
13647.9
146.516
147.269
146.202
26400.3
21105.5
197.285
597.062
146.677
16385.6
156.524
217.111
4189.15
16968.5
78943.2
27133.6
14752.1
79047.1
146.202
17513.8
2915.92
499.872
146.202
8880.04
102073
146.203
1844.74
104409
146.203
80629.9
146.202
13611.2
307.828
160.898
2006.96
1488.85
146.203
146.202
146.275
146.207
22847.2
146.203
396.767
215.954
146.849
146.971
146.656
146.203
146.207
146.203
147.23
146.255
11120.8
146.203
2931.95
146.999
147.059
146.203
146.301
199.504
146.606
146.637
146.203
146.203
146.241
256.904
259.963
171.801
147.099
146.768
146.871
146.209
146.287
146.251
147.187
146.203
147.157
146.409
260.726
147.116
147.087
146.772
146.494
146.236
145.613
219.973
146.218
146.371
186.097
147.296
39578.3
149.697
146.234
147.307
5039.18
146.202
146.595
146.832
146.694
146.884
146.775
182.079
146.836
197.743
146.602
146.202
146.22
774.632
146.203
162.857
146.433
146.778
146.203
146.202
146.799
146.308
146.338
147.057
146.217
146.202
5314.36
91.9963
146.245
339.037
104.228
146.205
146.314
146.255
256.376
145.249
146.276
146.78
277.318
146.202
127.016
146.253
146.203
146.205
146.204
146.203
146.204
146.202
146.203
146.205
196.172
146.34
146.204
146.438
146.204
146.301
254.608
146.203
146.203
320.49
390.717
146.203
146.267
146.201
146.359
161.602
146.66
146.202
146.522
146.705
146.203
146.203
146.203
146.206
146.202
146.267
146.301
559.501
146.748
1605.03
146.282
146.258
146.304
146.772
2777.3
146.269
146.206
147.215
146.313
3236.67
146.203
146.308
146.228
264.493
487.538
278.836
478.524
146.877
280.741
308.901
146.202
149.281
146.202
155.828
276.833
146.337
318.723
300.697
355.439
146.256
309.1
300.468
146.213
146.205
147.833
146.248
146.215
146.204
146.203
280.837
146.305
146.339
146.245
146.204
146.204
146.314
146.244
200.88
146.203
146.233
146.207
146.202
260.153
146.203
147.054
146.204
146.205
146.202
146.203
146.264
146.203
146.203
146.203
146.233
146.203
146.202
155.7
146.203
146.296
16124.2
146.202
156.804
146.232
146.203
146.202
159.087
146.204
146.203
146.622
146.297
146.256
146.202
146.211
146.204
146.25
146.379
146.204
146.203
146.245
146.204
146.203
146.639
146.204
174.241
158.423
146.215
146.203
146.243
27940.4
4784.57
146.203
146.204
146.204
146.204
146.549
146.839
146.204
146.202
146.207
3625.42
146.203
146.202
146.202
22304.9
219.012
146.289
18694.5
146.28
146.204
146.29
146.277
146.226
146.742
486.732
146.841
146.202
222.458
19491.9
146.202
146.202
22366.3
146.887
23959.5
146.202
146.258
146.203
147.365
9519.24
146.202
9869.02
146.224
146.202
9779.9
146.217
146.202
150.532
10031
146.204
146.298
9592.02
146.208
146.246
9949.4
156.805
146.233
173.878
344.024
179.89
151.637
4485.81
146.202
146.203
146.59
146.265
146.589
162.745
146.203
146.203
154.795
161.282
172.848
146.428
147.192
146.202
146.467
146.172
164.226
22384.6
147.882
161.689
162.73
26145.7
146.203
146.771
29339.7
146.202
163.803
146.413
146.491
146.202
163.646
146.202
146.202
146.21
146.202
157.951
151.484
148.045
14270.8
146.878
146.202
146.231
152.361
146.203
146.203
146.264
150.428
146.211
152.833
146.203
147.448
7474.23
148.559
146.449
170.281
216.806
163.855
148.398
148.817
146.715
229.971
146.265
192.28
146.272
152.653
161.64
225.544
146.251
146.23
262.619
188.801
146.202
146.964
222.182
146.247
146.685
146.632
22857.2
146.557
146.226
22907
146.665
163.688
146.421
146.329
22349
146.203
7159.37
154.535
3282.6
146.211
146.202
146.202
22818.7
146.295
5863.99
146.206
19624.6
19031.5
146.379
146.202
33383.4
201.753
230.306
53324.9
179.084
146.202
146.319
146.203
146.271
146.083
146.204
146.202
192.442
146.208
146.202
146.203
43039.7
146.202
146.267
146.202
146.762
146.759
146.477
225.411
146.202
146.204
146.272
146.204
146.203
146.202
146.211
146.202
146.279
146.226
33690.6
146.202
146.822
146.331
15516.8
146.202
147.392
376.645
146.202
146.202
16373.7
146.203
146.218
146.202
146.202
146.203
146.247
146.202
146.202
146.202
146.203
146.51
37475
146.202
146.241
146.202
146.349
146.456
146.203
146.204
7451.97
146.203
146.267
146.202
150.898
146.927
146.204
146.203
19196.3
12760.7
146.402
217.407
146.203
145.907
146.332
152.936
146.202
151.162
146.561
155.548
146.203
217.465
146.375
154.804
4316
173.606
151.006
146.375
6446.88
146.203
146.222
146.203
146.203
146.203
146.203
146.203
146.393
146.298
146.221
243.621
166.41
200.412
146.202
242.258
146.579
145.875
265.159
40137.3
146.202
146.37
172.367
146.219
149.914
146.211
146.282
247.641
146.318
146.279
146.77
146.202
146.282
167.236
146.25
182.463
146.215
146.231
146.613
174.571
146.263
147.096
146.285
780.995
163.273
146.203
215.642
146.095
150.184
240.33
12742
146.761
150.252
146.416
146.78
146.203
146.202
27942.9
146.203
146.203
146.202
146.203
147.171
146.212
146.211
146.251
146.226
147.271
182.908
146.202
1609.95
621.715
146.202
157.057
146.202
146.202
146.203
8869.43
831.249
20573.2
146.203
146.203
146.202
172.574
146.291
146.214
8103.17
146.255
146.202
148.124
12394.8
13548.2
146.262
146.202
17632.1
11704.9
147.256
9167.33
185.688
193.875
4482.31
263.071
146.234
146.203
146.234
146.203
146.203
146.203
2788.13
5639.82
281.435
381.987
165.534
146.205
282.777
246.816
149.094
146.246
206.357
146.248
24136.6
206.09
146.202
185.186
293.397
146.205
146.203
18118.9
146.205
146.202
169.93
3906.73
146.202
146.202
146.067
167.032
146.204
146.202
146.203
160.185
27368
146.204
146.21
146.247
265.575
153.097
146.202
146.202
146.204
169.401
146.203
168.804
146.794
146.202
200.558
146.202
146.203
5430.35
146.29
146.202
146.202
146.202
146.202
208.257
146.306
146.202
149.516
147.082
146.203
146.844
146.202
146.202
146.202
146.204
146.203
146.202
146.224
146.202
146.202
3306.42
146.202
25279.5
146.231
146.203
146.204
146.202
146.202
146.235
189.527
15243.1
3573.91
17856.5
146.927
181.588
146.338
11486
17700.5
146.247
670.242
146.202
146.234
146.203
146.202
146.204
146.203
146.835
627.148
146.204
8028.77
146.211
149.42
146.226
146.204
146.8
146.242
267.928
18147.3
204.665
153.618
146.204
157.568
167.682
146.208
146.247
14829.8
146.226
5207.49
146.202
146.202
149.334
1389.25
4798.29
5999.07
1268.42
1826.79
194.274
19712.1
1133.24
7280.27
146.202
162.842
146.202
146.228
150.913
7176.71
146.248
238.97
6764.44
8182.31
146.204
8183.77
148.667
146.205
146.202
146.204
162.54
198.843
146.801
146.203
174.867
2166.19
146.33
19630.3
164.786
146.702
7499.33
146.202
146.374
6177.93
146.287
146.203
180.275
146.902
146.202
146.202
7434.31
146.205
146.203
23921.4
174.995
6123.63
18029.2
176.755
201.523
225.787
244.138
224.166
230.654
147.887
208.702
146.75
146.202
197.827
146.267
231.354
216.326
146.299
146.96
146.272
216.074
23793.7
146.202
147.004
349.001
146.202
25327
146.202
146.203
146.202
351.583
146.663
250.594
146.203
146.203
146.996
368.888
338.357
146.254
146.203
147.814
24595.5
8617.25
146.202
4319.25
3585.25
228.497
23941.5
146.204
2313.77
146.202
146.204
146.202
146.203
146.275
146.327
146.202
24380.2
146.406
148.079
146.204
146.204
146.202
146.202
146.203
146.251
156.078
146.202
146.204
5266.83
156.37
24795.3
146.319
146.204
2968.23
146.207
146.203
146.202
24607.2
146.455
146.204
235.134
148.53
170.987
146.204
246.115
146.204
146.202
146.203
146.202
146.202
174.736
146.214
406.637
146.205
169.049
146.204
254.981
146.204
146.209
146.624
146.607
163.959
169.72
174.527
146.201
146.379
146.727
146.203
146.204
146.202
146.203
14521
146.204
146.205
146.203
166.666
146.203
158.864
146.204
146.204
176.365
146.306
146.203
146.204
146.202
146.204
146.203
146.202
146.202
185.588
146.202
146.202
146.202
146.202
146.203
146.202
11536.9
146.294
146.218
146.203
146.202
154.112
146.202
231.155
234.424
146.279
146.616
146.202
146.203
146.203
183.157
6537.9
146.203
146.202
7074.59
146.202
146.202
146.202
146.205
147.146
186.672
169.248
146.203
146.202
146.203
8956.23
5191.05
6140.23
149.097
1828.46
1357.94
146.674
146.203
183.392
8287.62
146.203
167.578
146.203
146.982
154.029
146.202
146.203
146.324
146.711
177.566
153.736
216.954
145.864
159.192
160.138
145.932
153.066
146.199
146.203
145.958
146.231
146.274
167.569
145.929
470.215
146.542
167.896
2746.93
256.83
154.253
145.875
146.856
146.731
146.288
145.917
146.189
146.183
168.217
35661.5
203.162
146.283
218.833
146.206
273.431
150.416
489.367
159.599
146.183
428.159
146.202
146.185
146.202
2230.47
232.475
286.666
146.202
306.338
146.202
146.263
146.202
146.218
146.202
5936.62
147.335
146.202
146.202
148.194
186.365
146.202
304.605
146.161
146.202
2445.29
146.204
187.633
146.16
147.432
146.207
146.202
146.206
146.203
158.025
146.206
29653.1
146.204
146.234
146.205
158.47
2346.32
146.203
146.206
146.202
2148.48
146.522
440.423
5566.2
723.203
146.202
9530.6
258.61
146.205
148.399
1503.43
147.203
146.203
3542.38
156.216
146.303
186.662
146.203
3784.42
146.202
146.202
146.203
174.506
15669.2
174.817
105568
150.024
146.701
172.38
146.509
146.248
173.749
146.479
146.203
146.21
164.159
162.825
2593.89
252.386
2683.22
769.505
2855.72
146.21
146.202
146.202
4347.88
58668.9
8926.17
181.62
146.811
155.922
2957.94
10289.9
15836.4
146.202
37192.9
11083.3
2591.92
146.203
228.123
1798.25
2278.58
3374.06
615.447
511.158
186.426
146.249
184.34
146.269
1538.13
157
7400.49
491.663
146.2
146.325
220.781
2080.81
159.477
146.329
146.203
146.202
523.874
146.206
146.427
154.643
146.202
235.552
146.203
147343
146.378
146.202
150.41
345.916
155.801
28085.3
31310.7
1882.81
163.954
146.203
146.213
6700.1
146.203
146.203
146.221
146.291
150.789
439.864
194.556
146.212
3424.76
6387.85
146.202
146.28
436.081
146.203
153.572
7245.89
146.202
146.202
146.207
678.061
66208.3
1365.09
146.296
151.042
146.203
1885.69
40512.6
541.336
6823.13
146.204
146.206
146.204
149.093
146.202
2519.14
1910.93
146.205
10137.8
146.204
146.204
477.435
146.203
154.45
146.207
5616.02
127.507
146.204
146.202
146.351
11540.8
146.202
146.754
70774.3
146.203
146.621
146.225
146.204
146.203
146.202
146.203
146.203
146.215
146.202
151.442
228.551
146.203
1572.6
6540.55
149.74
251.893
146.203
239.935
146.174
146.203
494.555
863.165
9904.3
570.591
851.144
10738.8
146.36
147.11
150.934
160.228
1424.66
146.633
147.049
4432
146.203
146.203
146.202
150.449
148.052
150.16
6177.73
146.202
146.226
146.26
984.879
3985.99
146.202
4435.31
163.195
223.046
504.46
8988.85
146.204
146.204
289.417
159.218
146.202
146.202
146.196
146.202
229.923
146.202
203.329
3277.7
3554.06
147.645
199.965
146.345
148.421
146.202
146.202
5948.83
146.202
146.202
146.202
8455.79
147.404
5922.37
155.213
146.909
147.286
507.83
155.115
156.712
148.314
148.436
146.949
29460.8
164.294
146.732
152.518
146.781
266.084
146.165
16670.9
705.018
171.176
165.977
146.297
146.245
720.259
147.46
184.609
155.186
146.603
147.414
146.202
176.009
146.776
2902.98
146.203
146.202
190.892
146.379
146.203
146.227
146.58
4250.95
147.018
147.074
146.204
147.179
147.394
146.204
146.203
146.203
13890.1
723.23
91994.8
166.827
146.203
4192.79
4204.5
147.062
146.203
153.416
146.3
146.491
146.254
14640.1
146.205
161.696
146.609
4486.21
146.203
146.224
146.202
146.196
3908.84
673.119
147.127
4466.77
166.922
146.217
146.202
146.208
146.202
4379.3
152.478
146.203
146.203
146.334
146.241
146.155
189.978
146.201
146.209
146.905
146.685
182.167
146.193
146.202
146.202
147.317
146.203
146.202
1739.75
146.589
158.575
146.199
146.212
6648.81
146.155
199.569
152.549
147.545
146.202
146.255
147.323
146.202
146.202
159.751
157.831
147.119
29095.3
146.102
146.195
147.451
146.204
180.065
146.204
147.004
157.923
182.092
146.493
177.171
146.203
146.342
17498.5
822.744
146.438
337.941
146.714
146.881
6714.34
175.731
62104.4
148.919
153.128
145.947
146.202
146.204
146.202
179.444
149.88
211.531
1169.35
146.405
146.2
146.195
155.053
146.102
146.943
146.168
146.161
146.13
146.433
161.638
146.35
146.62
146.2
230.192
223.223
146.321
146.742
147.391
145.924
146.495
146.363
291.262
146.757
156.183
169.322
147.382
7033.99
167.69
2791.79
1239.53
146.207
109624
146.204
494.778
146.202
504.642
147.602
502.075
308.298
146.206
146.202
146.201
2060.27
7983.35
146.202
200.423
238.595
10028
146.202
156.104
146.203
146.189
150.371
146.202
146.243
146.109
146.196
146.229
146.202
400.267
10110.3
147.643
146.28
146.202
431.949
146.202
146.202
272.094
9983.21
209.519
146.202
146.199
646.466
262.101
146.204
146.203
2281.98
152.108
4518.85
146.205
232.945
146.266
146.202
146.209
146.202
146.204
161.627
149.004
146.204
146.202
146.205
146.653
168.534
146.214
146.201
146.184
146.204
146.198
146.208
146.188
146.203
146.204
146.202
146.203
147.486
502.427
150.73
146.204
146.202
146.202
146.202
354.414
146.202
149.404
156.738
146.202
146.335
146.202
166.238
146.202
146.202
146.255
146.202
146.133
146.379
146.198
146.325
146.308
676.858
146.204
146.198
146.341
146.202
146.202
146.399
146.202
146.212
146.203
146.202
146.703
167.485
146.646
658.777
634.915
146.204
147.198
146.181
146.202
146.202
146.205
146.494
146.202
2987.33
131186
146.207
129117
146.988
146.202
92727
96280.2
146.213
146.753
577.996
146.257
146.202
146.203
173.218
146.202
114304
146.205
116555
146.74
146.204
146.194
146.827
147.377
146.941
146.849
146.197
146.202
146.203
146.217
146.202
146.202
146.202
146.202
146.202
148.069
146.202
146.765
147.565
146.465
146.091
146.202
146.25
147.076
156.268
150.171
146.218
171.521
145.977
146.204
147.071
146.295
145.702
146.298
157.223
146.295
146.202
157.344
146.482
146.202
152.796
146.466
170.689
146.284
146.198
146.292
12954.9
160.706
147.111
146.202
146.285
161.798
146.216
146.202
146.201
148.468
146.272
146.214
149.221
157.468
2392.28
2193.19
151.233
146.202
146.261
2639.23
146.561
152.694
146.712
146.205
146.202
153.725
1157
9349.83