/*--------------------------------*- C++ -*----------------------------------*\
| =========                 |                                                 |
| \\      /  F ield         | OpenFOAM: The Open Source CFD Toolbox           |
|  \\    /   O peration     | Version:  v2012                                 |
|   \\  /    A nd           | Website:  www.openfoam.com                      |
|    \\/     M anipulation  |                                                 |
\*---------------------------------------------------------------------------*/
FoamFile
{
    version     2.0;
    format      ascii;
    class       volScalarField;
    location    "5";
    object      ILambda_12_0;
}
// * * * * * * * * * * * * * * * * * * * * * * * * * * * * * * * * * * * * * //

dimensions      [1 0 -3 0 0 0 0];


internalField   nonuniform List<scalar> 
108993
(
146.204
157.821
149.954
146.202
146.202
146.202
167.351
146.202
146.225
146.231
146.241
146.243
146.202
146.203
146.202
154.764
146.241
146.203
146.202
146.208
146.202
146.204
146.231
146.203
146.202
146.203
146.225
146.208
146.21
146.202
146.241
146.203
146.227
146.229
146.202
146.202
146.233
146.202
13253
6411.57
146.218
146.33
146.203
146.202
146.256
18970.5
146.228
150.598
146.204
146.217
146.246
158.869
161.48
146.246
146.203
146.203
146.228
146.202
146.204
146.202
146.202
146.202
146.202
146.205
146.202
146.206
146.202
146.202
146.213
201.461
146.202
146.202
146.202
146.202
146.203
146.276
146.203
146.24
146.227
146.202
146.202
146.22
146.206
146.26
146.203
146.205
146.338
146.24
146.202
146.202
146.202
146.263
146.202
146.202
146.202
146.206
146.27
146.207
146.261
146.415
146.202
146.203
146.202
146.225
146.203
146.202
146.202
146.203
146.207
6715
146.461
146.202
146.823
147.315
146.246
187.337
146.202
146.505
215.074
146.255
146.208
146.203
2498.87
150.665
146.202
146.358
146.226
146.211
146.203
146.202
146.231
146.202
146.207
182.493
146.273
162.088
146.203
146.208
146.202
146.203
150.726
146.653
146.271
146.203
146.203
146.202
146.204
8252.23
151.812
1708.31
1708.27
146.202
170.594
1839.91
146.209
146.886
146.209
146.205
146.218
175.26
1715.33
146.214
146.267
146.202
146.204
157.242
146.202
146.202
146.203
146.233
146.203
146.203
146.78
146.308
146.208
146.212
227.795
146.205
146.298
146.232
146.281
146.208
146.207
149.387
146.208
146.203
146.204
146.203
146.203
149.838
146.222
146.213
146.208
218.097
146.217
160.399
146.222
146.204
146.204
149.535
146.202
228.716
146.202
146.203
232.6
7009.51
146.205
4071.5
146.214
54462.4
243.848
146.203
225.268
3119.33
68402.5
146.203
146.203
146.235
146.208
146.205
146.211
1854.13
180.117
224.027
146.215
146.208
146.207
149.487
183.062
146.924
3289.48
146.203
146.204
146.207
146.264
146.202
146.21
146.202
247.339
146.207
146.206
146.286
146.202
146.205
146.204
168.522
3351.14
2756.66
146.206
146.206
146.293
146.202
146.226
146.223
146.204
146.207
146.204
146.606
146.23
146.202
146.861
146.202
146.527
146.327
146.216
147.325
146.782
146.211
146.202
146.215
146.202
147.473
2586.68
49765.7
7386.21
146.242
146.282
2162.15
146.602
146.263
146.273
25601.2
25637.9
146.214
146.202
146.358
146.202
146.234
146.602
5099.25
146.206
146.316
146.239
146.634
146.294
146.273
146.249
146.833
150.599
146.202
4173.81
3702.72
146.202
146.202
146.226
146.204
146.202
146.203
146.204
2378.51
146.202
146.202
146.252
146.202
146.204
2199.71
146.204
146.256
11251.7
146.256
146.828
146.205
146.204
146.204
146.205
491.489
52843.4
4272.61
146.234
159.123
146.226
3155.66
284.418
146.203
7640.75
146.202
146.382
146.202
146.236
146.203
146.248
1378.14
146.219
146.203
146.204
146.202
146.568
146.202
146.306
146.626
147.465
146.202
25457.5
1936.05
146.202
146.203
146.208
5642.22
146.307
146.202
147.153
146.219
146.554
152.202
146.203
146.219
149.547
146.207
146.203
50008.3
202.664
146.364
146.854
11659.9
146.229
13403.7
146.296
146.293
9467.3
146.229
8607.4
9527.16
146.217
193.797
146.202
146.222
146.284
2873.71
146.455
5170.52
11680.2
146.219
11638.3
146.204
3321.36
146.228
74803.4
146.24
146.303
146.232
146.231
2297.52
2925.49
146.312
146.211
146.22
146.221
146.203
153.889
63447
146.203
146.212
41362.5
146.202
146.215
146.246
4199.51
252.288
2475.07
146.202
65128
149.077
69600.1
146.212
146.202
63983.3
146.202
2301.69
64262.1
146.202
74528.5
12980.7
74346.6
146.202
146.31
146.25
146.202
146.21
146.224
146.521
146.203
147.006
146.724
146.203
226.426
191.477
161.1
146.576
147.23
146.203
146.23
146.202
148.106
146.415
146.225
146.202
146.205
146.203
146.289
146.291
2120.75
163.717
2063.91
766.83
183.14
152.023
146.202
2039.67
151.661
156.514
162.266
146.202
146.204
170.842
146.202
146.307
146.901
261.934
3441.53
168.606
146.203
146.209
146.26
146.441
152.644
164.62
151.606
156.094
146.269
146.223
146.204
146.203
146.336
159.443
146.486
146.202
156.125
148.39
147.86
146.398
146.202
146.213
146.901
150.359
146.316
1459.13
148.087
146.784
1842.38
147.48
189.465
164.446
146.292
146.265
147.255
146.203
146.203
147.875
146.214
146.205
146.206
146.206
165.212
146.268
146.214
179.863
146.222
148.181
179.429
146.268
146.211
146.202
164.43
146.204
146.203
146.298
146.885
146.206
146.931
2323.47
146.202
4690.87
146.202
146.202
146.254
146.235
146.202
162.003
146.226
146.311
3986.43
146.211
20965.6
146.202
146.203
146.202
146.228
146.36
13849.8
146.247
146.37
146.401
164.566
149.309
237.532
4683.31
146.203
146.67
146.242
146.222
154.817
192.477
38069
243.431
2539.76
146.655
146.203
242.766
58405.7
204.435
146.859
146.206
146.222
146.202
146.203
146.299
21303.8
254.005
146.207
146.217
146.251
146.202
146.214
147.85
44196.2
146.203
146.24
146.202
184.604
147.106
151.173
146.269
31541.7
146.338
146.203
146.202
47840.2
146.202
147.141
149.459
215.89
151.132
164.218
152.3
146.567
160.059
164.253
146.202
1158.35
146.318
153.541
146.319
146.211
5941.78
146.224
146.202
146.242
1916.66
28316.7
146.922
2357.03
146.271
1428.33
161.507
147.25
146.202
146.202
7978.68
147.407
146.585
146.205
146.637
151.575
178.31
146.533
147.253
146.344
146.72
146.257
147.292
147.349
146.867
3072.41
9472.6
257.812
146.211
292.957
7950.08
182.979
8688.12
8334.11
146.202
147.72
146.268
146.292
146.253
146.255
146.28
2287.47
3819.96
146.266
146.932
148.043
9446.64
9608.46
146.202
215.143
178.269
146.202
8095.65
176.218
239.56
232.315
146.521
7587.44
146.326
204.705
175.208
179.695
8659.89
146.203
153.713
146.322
146.219
146.204
40836.9
146.231
7016.51
146.252
4694.72
147.259
146.327
146.213
146.214
146.383
146.202
146.27
146.212
146.514
146.213
151.995
4546.3
20827.3
146.203
8176.93
146.207
146.5
212.528
146.202
146.457
146.211
155.746
198.701
155.559
146.206
148.59
180.662
146.501
2033.93
146.202
146.382
160.512
154.531
150.663
146.275
146.202
222.719
146.208
151.458
146.553
146.376
159.374
17917.3
7442.44
155.488
151.078
181.73
159.215
162.512
226.82
146.205
146.208
146.207
167.01
146.207
182.681
146.207
159.427
147.011
146.202
186.91
146.206
172.307
150.498
228.154
146.21
146.211
3402.5
146.202
147.121
150.595
212.029
146.245
2346.76
2323.93
146.231
151.601
57990.7
3501.93
146.311
146.579
189.788
150.357
150.279
148.756
146.216
189.216
146.202
146.228
259.107
146.312
10587.2
147.246
146.344
11804.3
146.307
7056.93
146.401
34297.3
146.202
182.117
146.278
146.202
147.336
146.286
146.251
146.204
146.203
146.223
146.634
159.26
146.21
146.317
216.013
146.349
252.493
146.204
146.219
56398.7
146.204
22400.5
146.23
146.206
146.315
50926.1
212.366
146.204
210.837
281.532
146.23
185.306
3607.63
209.863
170.397
146.441
146.204
160.226
218.75
11866
156.922
146.203
152.191
206.194
175.215
146.204
187.049
146.557
146.206
616.586
158.824
1476.18
156.805
216.739
161.377
169.215
146.243
189.942
146.707
146.208
146.242
146.246
184.256
146.757
21986.6
146.208
146.209
146.411
183.41
146.33
200.242
146.202
148.009
146.93
21723.6
146.575
209.855
146.282
216.119
146.205
294.27
5970.73
21041.2
147.389
146.489
146.374
374.74
146.202
418.793
10002.8
19109.4
146.202
146.202
213.247
146.453
147.005
146.204
146.202
146.321
3857.67
146.202
164.573
174.793
146.207
257.781
146.211
146.203
3128.66
21145.9
146.203
152.33
146.202
146.204
147.908
181.85
633.61
146.281
630.425
203.264
146.6
146.213
146.204
152.53
146.235
146.207
146.204
157.362
147.421
171.515
146.207
146.349
2443.7
146.395
146.256
146.31
148.673
146.32
146.202
7101.02
146.203
2848.54
146.209
154.512
146.204
146.936
172.341
146.384
146.225
1375.57
147.024
277.896
146.202
146.315
2123.39
5322.18
146.206
192.582
5499.55
146.318
146.225
146.382
166.844
146.799
6999.42
154.363
231.086
209.971
146.287
146.682
147.316
148.807
213.526
2294.24
146.225
146.268
146.208
214.011
146.271
146.203
146.217
215.203
147.094
152.226
146.789
146.208
147.27
146.733
146.208
149.048
146.441
146.638
146.235
146.202
8961.91
146.428
146.209
146.208
146.202
146.21
4912.93
190.532
146.203
147.111
146.202
146.723
146.312
148.056
146.208
147.726
368.216
146.208
203.364
152.471
207.086
146.202
147.615
147.99
146.203
146.438
150.711
146.204
146.202
155.592
146.212
2574.66
151.274
150.736
146.203
151.156
147.537
150.515
146.298
146.335
150.697
147.656
146.518
156.204
146.211
146.229
146.219
27618.5
146.312
181.442
146.271
202.387
163.117
146.202
25688.7
146.576
146.258
155.18
6917.62
146.313
148.846
170.154
25634.4
146.208
146.203
146.203
146.569
220.858
2783.99
165.332
146.216
164.461
146.214
207.386
157.677
194.543
146.889
195.133
155.219
174.194
147.492
146.359
146.409
146.22
146.22
146.405
146.209
146.202
146.908
225.134
146.212
12536.7
153.73
146.914
155.768
146.269
152.784
146.202
154.409
146.25
146.276
146.202
147.629
186.533
147.242
146.295
269.916
146.202
146.237
146.427
146.206
146.202
146.214
36728.8
146.332
146.202
146.362
146.203
146.23
146.21
146.226
146.208
146.255
146.249
146.271
146.644
146.713
146.203
154.522
146.208
146.438
146.204
146.208
149.886
221.705
146.936
146.89
10848.3
149.488
146.202
147.574
146.202
146.204
154.572
146.204
158.75
146.552
151.242
146.258
146.586
146.204
146.204
150.981
146.212
66561.9
46102
146.204
146.203
146.708
146.331
169.424
147.41
3581.35
146.785
146.225
146.204
146.206
146.226
146.224
179.335
146.215
3414.01
154.487
164.871
187.752
11964.4
192.146
174.496
146.216
153.594
1501.55
146.202
146.349
146.223
146.221
146.217
5478.2
224.207
146.276
201.678
146.203
267.887
193.811
146.217
146.202
179.566
151.784
175.43
149.636
146.203
1236.65
5515.86
191.089
149.996
146.269
189.537
146.204
146.255
146.204
146.202
146.203
4863.99
186.043
2732.62
146.284
146.25
146.203
242.477
240.517
146.227
146.205
189.733
167.151
207.513
240.314
149.997
228.247
146.471
146.202
146.517
146.202
146.206
32946
146.572
146.207
146.203
8734.84
146.429
146.224
166.566
147.966
1376.48
3730.99
146.378
147.003
146.355
242.785
146.203
146.317
146.202
150.531
146.255
2143.1
174.913
146.203
3118.32
146.203
146.203
146.218
146.657
62702.9
146.264
146.251
146.494
65799.4
186.971
146.204
146.203
146.449
146.204
1565.68
1121.1
1123.67
171.193
867.654
146.206
1571.18
1595.6
146.228
146.225
146.202
146.418
146.204
146.224
148.376
146.242
146.202
159.493
154.432
146.624
146.202
146.209
146.206
148.254
146.207
146.205
146.839
147.094
186.069
146.206
216.928
164.177
146.206
146.208
146.212
146.35
146.23
148.626
166.64
146.206
147.935
147.648
146.202
147.938
7777.57
147.647
146.275
158.308
150.627
146.358
151.821
146.375
146.212
153.113
153.088
146.216
146.218
155.307
146.212
146.326
146.845
2337.94
150.715
154.892
3613.03
146.202
1833.74
146.203
146.211
146.211
146.295
146.204
3446.55
3264.84
155.486
168.326
4268.5
1841.91
146.203
146.204
146.202
149.702
159.145
146.296
2214.89
146.206
146.267
160.449
162.46
146.212
148.755
156.193
22480.9
12322.1
162.586
146.205
1347.43
146.211
148.514
149.679
158.944
147.013
146.653
148.187
168.113
157.181
4789.72
146.278
146.321
2567.08
212.11
148.755
146.264
159.572
147.566
171.652
146.213
158.805
146.321
146.203
146.228
146.493
2729.09
3066.88
146.208
146.21
8672.72
146.209
146.202
3721.11
146.209
146.243
146.21
146.755
12073.6
146.202
146.203
210.776
146.215
8673.7
146.209
5744.86
146.21
146.263
3499.69
153.347
146.245
25398.1
146.243
146.552
147.068
146.202
146.203
146.202
10168.4
146.356
146.281
2043.29
146.202
189.045
10280.5
3481.13
221.348
4966.04
146.202
68798
146.815
146.202
146.204
146.372
146.202
146.236
146.382
146.202
1592.22
161.709
1788.82
207.908
146.203
146.322
146.202
146.202
146.203
146.445
403.501
189.104
146.208
146.209
149.934
146.945
218.621
146.202
147.076
150.802
146.202
146.202
198.2
20708
188.167
3107.29
428.495
146.202
146.727
154.719
146.202
146.202
146.202
2247.13
6428.42
207.304
4810.38
146.202
146.202
63581.7
146.202
175.234
148.432
146.202
195.01
146.202
180.909
146.203
164.05
7061.75
158.534
163.923
3111.75
146.333
146.202
163.121
146.449
146.202
146.202
154.389
146.202
146.249
146.317
146.202
174.363
1810.27
3374.32
2303.73
146.202
147.254
14432.4
164.967
146.203
2397.18
146.202
146.202
246.478
3949.76
15795
2959.8
146.203
1111.43
14082.4
2544.94
146.598
2905.66
243.773
249.13
4385.88
146.222
17913.5
246.361
146.209
244.095
2507.85
245.59
162.033
232.885
160.629
146.225
2417.66
12628.5
15689
146.217
146.259
22037.8
146.202
148.046
152.976
146.204
4071.43
155.587
146.202
146.209
146.202
146.202
148.767
4051.2
6302.69
2092.83
7470.36
146.203
187.097
149.537
146.422
146.269
146.23
146.203
146.202
146.213
146.203
146.905
146.202
146.202
146.331
19656.1
148.054
185.195
25175.9
146.615
146.205
214.216
146.202
146.204
146.214
146.202
146.205
146.204
2672.86
148.578
147.364
224.825
6598.62
146.57
146.203
269.239
2177.54
179.016
1112.13
146.208
211.753
146.21
2830.51
146.323
208.584
146.297
146.214
146.202
146.202
227.248
146.202
269.525
146.216
449.664
2717.91
146.202
146.202
8073.46
4760.84
4316.44
3349.1
146.203
157.774
18980.9
146.202
146.264
287.497
146.308
266.901
147.944
260.493
1021.71
3036.58
276.472
4899.68
2914.33
263.009
146.206
58880.2
119691
148.047
4124.76
146.224
213.73
186.69
146.491
4985.96
146.334
146.556
146.206
185.336
210.821
146.95
146.208
146.27
179.464
146.202
146.274
150.558
146.202
9534.37
266.271
146.281
8723.15
154.249
146.202
146.318
4923.83
6270.98
221.418
181.782
4739.42
869.014
26941
181.246
179.229
8486.52
146.224
164.255
149.539
53065.2
171.703
194.856
205.028
153.478
209.529
6727.46
178.785
250.911
161.988
146.203
146.436
177.469
146.202
171.487
146.273
8884.49
1427.11
46422.4
146.269
41491
146.571
2575.39
158.843
192.576
223.672
43843.1
147.374
192.189
146.211
146.202
146.202
146.202
146.28
179.6
147.089
843.745
224.642
146.418
8581.89
5269.23
36455.1
450.273
146.202
21330.2
270.734
146.288
146.317
857.657
659.02
146.204
146.204
146.205
146.335
146.202
4033.12
10291.6
8003.49
391.576
146.202
141586
147.772
146.204
146.429
146.599
146.226
490.753
146.249
146.225
13390.9
146.352
171.818
146.226
169.217
146.203
146.205
1910.17
201.077
146.633
2201.17
160.158
4580.02
146.593
146.302
146.215
155.842
146.553
146.329
346.435
10786.7
146.333
146.236
20384.4
147.057
146.202
146.488
147.107
239.393
5048.88
27901.8
2003.68
152.686
146.202
4512.8
147.113
2332.3
6034.27
146.202
5072.76
146.203
146.214
9159.9
146.203
179.668
4205.32
5363.77
6971.81
4932.71
151.41
2190.7
2896
1958.07
146.259
146.363
5123.59
6961.9
2889.58
374.327
164.692
146.206
1695.66
14632.4
3139.57
3555.14
1879.45
4413.72
146.204
146.202
94612.2
6534.37
2810.57
352.485
2334.88
28785.8
10068
146.202
607.087
146.202
7419.31
146.202
215.526
182.205
146.202
4829.94
146.202
3370.37
6215.75
146.202
146.203
5634.31
146.202
146.399
146.218
146.202
3921.25
146.202
7103.34
25173.9
146.218
146.202
8101.58
146.25
146.205
2505.42
146.205
146.206
146.202
148.508
246.208
245.743
9299.46
151.39
146.209
3040.54
146.205
193.456
5392.73
146.21
146.202
148.756
146.721
3351.59
146.202
146.204
146.202
146.21
146.226
10718.8
15707.3
148.031
146.408
58434.3
146.477
146.516
146.202
3434.61
146.219
4607.89
2213.69
146.204
146.202
146.313
146.456
4462.62
146.202
2181.2
187.159
146.202
147.796
195.642
146.499
147.557
146.647
6783.4
148.352
146.202
146.202
182.473
146.202
5154.19
218.653
146.202
146.202
1888.89
146.214
239.588
146.228
146.214
29496.6
9633.49
207.83
146.208
146.204
219.163
7094.04
154.065
10223.1
150.793
10951.1
4041.22
146.202
2368.07
5531.18
1346.14
21788.3
2622.88
199.037
151.167
146.203
186.249
206.335
148.268
7422.37
185.764
216.472
147.771
329.074
5987.51
3480.22
151.205
146.561
210.501
146.215
6298.62
164.302
146.202
146.202
8513.35
4446.36
3168.57
146.269
146.206
146.945
6357.03
210.157
16105.1
146.215
146.213
5357.15
154.742
146.202
154.548
20859.9
154.796
165.895
228.999
11941.9
147.396
4007.83
146.202
27105.1
2770.3
224.214
183.485
146.367
32622.5
146.21
246.661
1502.6
1943.61
5675.48
32043.2
6699.21
86823.9
146.202
85755.7
5657.99
154.057
146.202
500.318
107503
146.202
3643
58766.1
146.202
2343.18
146.202
13066
373.063
150.031
4089.63
8245.61
146.202
146.202
152.363
198.905
49003.7
146.204
4246.12
215.561
146.202
146.202
146.202
150.337
146.498
146.202
205.689
146.205
9842.07
149.495
1782.38
146.202
186.018
146.203
146.331
206.456
146.202
146.202
147.209
155.805
146.23
14869.6
14986.3
275.932
181.322
150.163
147.007
146.202
146.231
146.263
148.789
146.457
146.639
146.328
14839.7
146.901
149.127
146.254
147.107
146.24
146.204
233.371
146.23
146.256
14771.4
146.283
676.601
146.212
146.23
160.266
210.329
146.25
146.626
146.403
146.218
146.566
146.253
146.506
1738.79
146.217
146.236
146.209
146.27
221.438
146.205
209.519
146.229
1732.88
146.204
146.202
1913.41
217.264
171.574
146.22
146.202
146.276
6546.5
593.596
146.205
209.958
1151.28
146.206
146.339
150.247
249.481
353.026
146.224
146.31
248.193
146.205
1166.38
146.271
146.203
146.211
147.33
146.216
146.203
151.473
146.205
146.205
215.977
146.262
146.204
146.473
146.203
146.308
2391.48
146.206
146.202
4689.84
4714.19
146.24
146.242
146.202
148.287
247.228
146.209
148.027
155.612
146.239
146.225
146.245
146.33
146.386
146.214
146.235
147.348
8711.16
148.892
7425.62
146.246
162.636
146.245
146.25
8634.35
146.239
146.223
8388.54
146.243
7703.55
146.203
146.241
193.712
273.017
1924.8
290.577
1954.62
146.39
288.223
2246.36
146.205
247.895
146.209
263.865
289.038
146.296
2141.66
304.33
2206
146.648
2297.6
300.232
146.211
146.203
172.988
156.983
166.095
149.01
146.205
291.862
146.454
146.324
146.275
146.203
146.202
146.525
161.736
221.147
146.203
146.245
146.382
157.14
148.197
146.208
146.922
149.069
146.933
146.241
146.207
146.256
146.206
146.203
146.206
146.253
146.204
147.396
149.31
146.203
211.658
3418.06
146.202
146.231
220.584
146.202
146.202
146.243
146.202
146.202
146.287
164.498
146.266
147.162
183.287
146.202
146.258
166.78
146.202
146.203
167.374
146.202
146.202
146.35
146.203
274.647
233.454
146.955
146.202
146.89
10509.4
5387.24
146.578
146.202
146.202
146.204
146.426
146.236
146.202
146.213
146.249
5143.96
146.202
146.225
146.244
18411
236.121
216.961
18039.5
150.577
146.216
213.325
146.326
146.21
146.231
40474
146.427
146.796
214.552
19002.2
150.687
148.917
20840.6
146.902
20150.5
149.783
147.089
147.646
146.225
5797.19
149.344
5735.03
146.262
146.211
6443.66
146.225
146.206
231.007
6814.13
146.263
151.09
5714.28
146.213
192.96
6971.41
2356.7
205.823
146.209
2295.46
191.011
2140.95
4286.17
146.208
146.203
146.545
146.899
146.561
215.762
146.207
148.085
146.212
202.092
146.648
146.78
146.878
146.202
195.147
146.202
229.914
5692.84
146.204
223.728
207.088
5635.67
146.203
146.684
10375.8
146.234
231.689
146.401
149.823
146.203
214.043
146.224
146.224
148.595
146.223
249.011
164.761
163.881
5708.29
236.334
146.203
146.232
178.749
146.372
146.203
146.241
226.983
146.255
193.443
158.703
149.225
5922.33
177.739
146.232
13532.6
203.789
146.206
157.301
205.775
146.418
187.041
146.251
210.751
148.888
211.374
13283.1
245.597
185.08
165.085
245.323
226.898
146.211
146.51
244.931
147.177
146.802
146.707
10811.6
147.792
150.351
23713.8
146.844
146.211
216.579
146.216
24667.4
146.202
925.468
17069.1
1313.79
146.202
146.203
146.202
23206.1
146.261
713.314
146.212
23448.4
24956
167.82
146.674
2097.64
207.597
215.686
5425.88
252.671
148.377
156.305
146.231
146.617
146.205
146.207
146.723
146.222
146.21
146.507
146.244
58491.9
162.221
146.256
146.208
148.627
146.635
146.214
216.12
146.396
146.211
146.283
146.205
168.147
146.206
166.108
146.684
157.959
147.133
54310.9
146.669
227.591
153.497
12432.7
146.205
146.491
1824.61
146.205
146.278
32537.8
146.332
147.973
146.206
146.21
154.385
146.294
146.206
146.232
159.216
146.202
146.387
1253.88
146.208
148.316
146.208
148.044
146.521
146.202
146.203
8247.03
146.211
146.219
146.202
146.874
146.213
146.202
146.202
16974.9
11594.2
146.202
228.686
146.202
146.202
146.217
159.354
146.202
147.942
184.525
146.239
146.202
242.896
146.215
236.555
4332.15
146.206
146.214
146.22
10464.5
146.202
146.227
146.202
146.202
146.202
146.202
146.202
216.027
146.215
147.797
147.811
7507.29
8622.14
146.413
264.948
235.854
146.209
261.668
84562.5
146.202
226.566
314.042
150.005
146.239
146.208
224.19
261.261
146.226
146.224
146.218
146.221
146.23
206.39
220.92
276.07
160.647
146.212
202.375
6808.03
146.223
146.912
146.202
5840.28
11092.6
146.202
146.208
146.202
147.573
268.51
5679.5
146.21
203.14
164.273
235.369
146.202
146.205
26635.8
146.202
146.202
146.249
146.202
170.062
200.939
148.94
155.2
146.235
146.206
146.205
146.255
6369.35
2627.79
146.202
223.879
146.242
146.238
146.202
9009.89
2744.39
21339.5
146.978
146.203
146.204
146.206
213.096
170.563
40062.1
146.202
146.245
146.205
6931.77
18008.3
173.938
146.236
45315.3
49824.4
230.197
33825.1
5089.29
232.514
6152.4
2283.36
146.202
146.203
146.202
146.208
146.202
146.223
24808.1
9026.83
2769.27
2949.45
6107.53
146.21
287.197
276.787
148.639
156.044
5020.81
185.947
539.156
237.374
146.207
214.316
2859
146.218
146.203
14794
146.207
146.214
7538.7
9107.73
146.202
146.204
146.211
146.209
148.723
146.215
146.202
211.351
26101.7
146.203
158.308
146.233
3139.9
220.498
163.963
146.207
146.203
5863.93
146.203
146.207
167.584
146.211
146.301
146.45
146.653
6154.33
199.683
146.499
146.202
146.651
146.224
146.21
173.155
146.302
204.748
146.22
146.398
146.757
146.233
146.202
146.375
146.207
146.206
151.483
146.222
146.594
148.198
4518.57
146.489
5312.55
146.223
146.202
146.208
146.202
146.202
146.224
232.47
4511.33
3789.4
8000
146.283
221.797
231.546
5548.46
5443.31
216.738
2464.66
148.258
146.224
146.202
150.866
146.203
146.202
146.625
23674.6
146.202
8802.14
146.231
180.52
146.223
146.202
146.298
146.202
153.583
16984.4
208.583
146.21
146.202
200.14
215.105
173.066
160.268
5863.01
146.224
6086.53
146.202
146.202
203.36
6116.94
7622.5
6131.85
5428.49
805.034
205.537
15845.5
2552.14
4883.09
146.205
146.206
146.202
146.202
229.176
9850
196.764
232.592
9964.62
9903.75
146.29
9904.85
210.221
146.203
146.202
146.202
149.475
4976.26
2617.03
146.202
149.651
5844.95
256.093
14119.4
3966.75
158.037
7816.21
146.202
164.348
7647.97
158.39
146.202
146.599
146.944
146.212
146.234
8060.37
146.202
146.25
1595.89
146.207
7792.17
275.043
146.209
207.611
4576.64
4778.92
228.464
4664.09
156.88
4540.1
146.347
146.202
4449.75
183.214
4173.5
4210
170.707
147.126
146.265
227.76
24966
146.202
146.252
3552.91
146.202
25804.5
146.202
146.276
146.202
3690.19
146.205
250.062
146.209
146.203
146.964
3334.06
3390.18
160.678
146.202
207.984
25687.3
8223.47
146.202
2958.71
19296.8
2468.12
23974.5
146.218
4222.15
146.371
148.508
146.203
146.202
146.202
146.214
146.207
24111.4
146.202
153.63
146.202
146.202
146.202
146.202
146.202
190.098
218.967
146.208
146.202
4822.56
146.206
25552.6
149.208
146.203
4866.11
146.219
146.203
146.865
24343.3
175.567
146.202
241.38
146.225
146.204
146.202
232.365
146.247
146.203
146.202
146.324
147.005
146.204
146.225
2126.58
146.202
151.696
146.202
326.606
146.202
163.934
146.42
156.315
146.204
146.204
146.204
146.208
173.129
146.264
146.202
146.251
146.218
146.202
13497.2
146.202
146.202
146.203
146.204
146.298
214.121
146.241
146.241
146.209
146.321
146.232
146.229
146.333
146.518
146.335
146.21
159.123
206.78
146.202
146.205
146.211
146.296
146.361
146.324
10411.8
189.746
146.226
146.344
146.203
221.072
146.203
204.238
253.418
215.789
147.217
146.202
148.238
146.202
146.207
7351.71
154.36
146.208
7693.4
146.283
146.203
146.223
146.202
146.206
146.207
48522.3
146.209
146.212
146.238
8838.71
5569.96
8089.88
227.134
779.807
461.444
148.455
146.253
146.259
8785.78
146.204
146.211
146.208
146.327
27981.1
146.333
146.204
146.206
219.341
217.739
227.847
854.319
146.202
211.373
241.013
146.202
180.445
146.204
146.205
146.202
146.258
146.24
229.284
146.202
216.302
237.06
220.316
242.359
3605.46
225.799
146.202
146.202
146.208
146.249
146.202
146.202
146.202
146.212
1653.34
204.239
168.73
196.81
146.212
3244.06
190.647
2305.48
193.202
146.201
2737.2
146.218
146.202
146.202
4094.34
4274.53
3346.96
146.202
3199.23
146.251
170.715
146.261
168.788
146.202
7629.06
200.825
146.3
146.252
267.505
209.495
146.238
159.283
146.202
146.215
10506.2
146.202
212.358
146.202
209.71
146.207
146.202
146.206
146.202
222.874
146.208
27274.3
146.205
209.011
146.205
146.209
4091.26
146.958
146.207
146.55
7903.21
146.234
401
3041.58
3075.83
146.206
9080.42
373.094
146.205
146.211
5007.95
2627.84
146.203
2882.39
19013.5
157.367
146.211
155.047
3469.03
146.203
146.202
146.203
146.21
16823.2
146.21
92400.4
146.234
146.918
146.21
146.202
149.447
146.21
146.216
154.718
146.204
230.995
9775.37
1592.19
241.182
2567.72
3976.38
1949.49
164.014
147.502
146.21
2888.46
4832.88
7605.33
217.634
215.857
282.577
2664.45
10013.6
7773.4
146.209
20783.2
8411.3
1974.55
146.211
6402.88
2517.08
2583.5
8456.65
3168.97
2003.2
6426.66
152.405
6336.45
194.565
1406.47
146.313
7734.52
5039.31
161.976
148.904
2136.56
2492.69
206.787
221.54
146.203
146.221
6542.36
177.956
155.041
147.599
146.219
173.681
146.212
147512
218.715
146.202
146.237
4738.92
222.572
27376.9
6570.43
3975.37
222.579
146.208
146.202
3786.32
146.206
146.205
153.478
193.514
146.948
4748.99
243.628
216.709
1740.5
7560.97
146.202
146.204
10719.3
152.849
146.23
7795.45
146.202
146.213
176.369
4427.47
70617.5
4179.46
146.274
214.723
146.202
3362.34
7253.88
2003.41
19753.4
146.202
192.968
146.202
225.72
146.243
2540.62
3730.81
146.202
6364.62
146.202
146.202
494.026
146.202
218.553
192.966
5139.93
53903.6
146.202
146.212
146.37
19041.7
148.559
146.377
71320
146.265
203.271
218.477
146.202
146.202
146.276
146.202
146.202
146.21
146.202
146.321
309.125
155.012
3244.69
40211.6
650.357
346.512
146.214
285.9
146.215
146.202
345.077
4910.1
6753.27
328.686
30979.3
196.711
146.279
147.126
25508.8
723.877
303.073
146.765
146.214
747.821
146.202
146.202
146.203
227.371
169.219
146.208
4850.11
146.202
204.081
146.884
8312.14
8989.25
146.234
456.693
213.705
252.074
750.919
594.476
146.202
146.212
1177.09
195.791
146.261
148.759
146.212
146.202
146.213
146.203
27878.9
2462.63
1309.02
150.978
209.657
155.601
146.222
146.202
146.202
1195.66
146.202
146.24
146.202
909.758
149.837
5688.69
203.724
146.345
3738.74
4303.93
169.419
202.217
146.208
146.386
179.805
1512.43
148.711
150.764
146.209
146.218
198.057
146.218
454.651
425.4
209.257
249.65
146.207
162.025
1218.47
229.365
146.209
252.092
234.301
149.029
146.202
269.525
146.542
465.27
151.996
146.202
215.977
146.318
146.203
146.202
165.361
4306.73
157.664
152.109
151.198
171.217
160.865
149.456
146.202
149.982
11165.6
755.818
52633.3
193.085
158.153
4334.76
4312.67
146.211
157.973
164.599
181.252
187.771
205.221
718.589
147.9
186.857
146.217
4342.05
146.203
146.202
149.69
146.204
3041.94
3946.46
146.205
4282.09
202.517
155.61
146.342
171.358
147.008
4323.47
188.727
146.203
146.202
146.572
146.212
146.212
146.216
146.302
176.388
168.917
146.219
224.794
146.205
146.227
146.202
170.977
147.232
146.202
3708.82
146.202
146.209
146.248
219.815
10164.7
146.242
207.213
149.07
225.254
146.202
146.216
146.202
146.214
146.203
200.844
146.232
161.909
5631.17
146.211
150.735
146.615
164.505
146.209
146.204
146.202
146.22
146.209
146.214
146.208
146.202
146.258
14400.9
2701.62
228.284
154.117
146.267
146.215
1579.29
146.208
2838.37
210.663
193.975
146.204
146.206
146.902
146.261
146.209
146.205
198.394
156.314
146.202
146.211
146.202
146.899
147.334
160.671
146.202
146.21
146.231
146.818
199.748
146.619
146.216
146.207
242.004
247.514
146.543
146.215
146.246
146.21
146.385
146.202
248.282
146.438
204.829
236.94
176.97
171.288
197.126
458.737
245.722
195.403
67740.5
146.257
616.023
146.205
440.672
148.73
300.264
3490.25
163.79
146.21
146.23
3046.59
7663.45
146.236
265.349
168.47
7006.8
146.238
146.205
146.202
160.065
176.866
146.441
146.211
147.236
146.493
146.215
153.841
387.803
4971.04
152.092
146.477
146.265
161.581
146.235
146.295
256.408
6908.89
243.405
146.213
146.219
2259.5
263.349
146.202
146.203
3698.11
182.744
3175.52
146.214
248.893
146.244
146.202
146.214
146.202
146.202
146.21
146.208
146.202
146.286
146.472
146.204
146.209
146.202
146.242
146.202
146.202
146.204
195.429
146.221
146.202
146.202
146.202
146.213
160.296
185.042
149.55
146.202
146.221
146.202
146.202
1017.15
146.557
146.204
146.205
146.202
146.202
146.202
210.502
146.237
146.202
146.263
146.202
146.208
146.256
146.202
146.399
149.209
1012.22
146.202
146.207
148.15
146.203
146.253
146.202
146.243
146.202
146.229
146.202
146.207
146.215
146.729
3098.21
3896.03
146.209
146.786
146.202
146.202
146.202
146.202
146.205
146.202
1837.38
28622.6
146.202
28880
164.423
146.265
22070.9
26253.5
146.77
146.684
2859.12
148.349
146.22
146.202
149.71
146.202
22631.8
146.206
29048.8
146.203
146.202
146.202
178.817
180.131
183.629
146.353
146.203
150.885
158.563
146.202
146.717
146.202
146.21
146.202
146.261
205.817
146.211
146.783
146.862
146.205
146.204
146.202
146.202
146.995
248.986
213.932
147.058
146.407
146.226
146.21
146.212
148.459
146.207
149.131
240.287
146.212
146.84
147.591
146.448
146.215
1156.37
146.534
149.12
193.033
146.47
212.161
9676.26
238.997
182.118
146.202
238.165
259.323
146.226
146.203
146.207
146.203
236.033
146.205
202.991
222.145
2815.76
310.096
46404.5
146.284
146.244
3573.32
146.207
146.302
146.204
195.641
146.215
147.082
564.72
7390.45
220.208
219.5
2828.43
146.207
146.231
146.225
3065.94
148.209
146.215
10281.9
150.468