/*--------------------------------*- C++ -*----------------------------------*\
| =========                 |                                                 |
| \\      /  F ield         | OpenFOAM: The Open Source CFD Toolbox           |
|  \\    /   O peration     | Version:  v2012                                 |
|   \\  /    A nd           | Website:  www.openfoam.com                      |
|    \\/     M anipulation  |                                                 |
\*---------------------------------------------------------------------------*/
FoamFile
{
    version     2.0;
    format      ascii;
    class       volScalarField;
    location    "5";
    object      ILambda_8_0;
}
// * * * * * * * * * * * * * * * * * * * * * * * * * * * * * * * * * * * * * //

dimensions      [1 0 -3 0 0 0 0];


internalField   nonuniform List<scalar> 
108993
(
146.205
146.919
146.203
146.202
146.203
146.199
153.348
146.202
146.202
146.237
146.202
146.202
146.203
146.203
146.202
146.216
146.26
146.203
146.203
146.349
146.202
146.202
146.208
146.203
146.202
146.2
146.202
146.367
146.459
146.211
146.202
146.203
146.202
146.217
146.202
146.204
146.202
146.204
3462.1
24152.4
146.411
146.202
146.203
146.202
146.39
21448.7
146.202
154.291
146.61
146.21
146.202
146.405
147.109
146.202
146.203
146.203
146.202
146.203
146.204
146.202
146.203
146.202
146.203
146.202
146.202
146.205
146.202
146.203
146.203
159.267
146.203
146.203
146.204
146.203
146.694
146.202
146.202
146.236
146.202
146.202
146.204
146.203
146.203
146.202
146.203
146.203
146.202
146.202
146.203
146.203
146.202
146.202
146.202
146.202
146.202
146.207
146.202
146.204
146.202
146.202
146.202
146.202
146.202
146.204
146.204
146.202
146.203
146.202
146.202
18137.2
146.556
146.202
146.74
147.271
146.203
148.877
146.204
146.202
146.275
146.202
146.203
146.202
271.385
146.202
146.203
146.267
146.43
146.203
146.202
146.202
146.204
146.202
146.203
148.246
146.203
146.203
146.202
146.203
146.206
146.203
146.202
146.202
146.238
146.202
146.202
146.203
146.204
8138.9
146.202
153.074
154.516
146.201
146.205
192.043
146.203
146.933
146.203
146.202
146.202
146.243
164.194
146.202
146.202
146.203
146.203
146.669
146.203
146.202
146.202
146.203
146.202
146.203
146.285
146.202
146.221
146.202
147.147
146.202
146.202
146.202
146.215
146.203
146.202
146.202
146.204
146.204
146.202
146.202
146.203
146.202
146.202
146.202
146.203
147.112
146.203
146.203
146.401
146.206
146.205
146.202
146.203
147.169
146.202
146.202
150.086
147.369
146.203
1367.02
146.203
218.257
146.299
146.205
147.137
754.971
56645.1
146.205
146.202
146.202
146.202
146.202
146.209
153.121
146.225
147.284
146.202
146.202
146.202
146.203
146.88
146.202
1817.57
146.203
146.202
146.477
146.202
146.202
146.202
146.202
210.375
146.202
146.202
146.202
146.205
146.202
146.202
146.235
835.983
195.923
146.202
146.202
146.202
146.202
146.202
146.204
146.202
146.202
146.202
146.202
146.202
146.2
146.202
146.602
146.278
146.326
146.202
146.202
146.202
146.447
146.2
146.202
146.203
146.202
873.867
103.601
7200.98
146.202
146.202
295.155
146.202
146.277
146.236
24010.5
23695.1
146.202
146.202
146.222
146.203
146.221
146.203
7182.59
146.203
146.202
146.222
146.202
146.202
146.202
146.202
146.202
146.603
146.205
157.801
147.508
146.203
146.205
146.202
146.337
146.202
146.198
146.338
683.232
146.203
146.202
146.319
146.204
146.387
147.964
146.202
146.306
840.936
146.202
146.858
146.202
146.559
146.556
146.204
349.151
150.921
158.488
146.202
146.203
146.206
184.859
150.004
146.202
831.033
146.203
146.202
146.202
146.202
146.202
146.202
146.993
146.213
146.203
146.202
146.202
146.202
146.204
146.202
146.202
146.202
146.2
25297.5
1377.88
146.205
146.203
146.203
9171.42
146.202
146.202
146.209
146.213
146.202
146.203
146.652
146.211
146.203
146.202
146.202
248.679
146.281
146.219
146.202
916.256
146.211
150.068
146.207
146.202
148.176
146.202
148.286
148.296
146.213
146.323
146.203
146.247
146.219
13412.8
146.212
1705.09
148.318
146.23
148.537
146.203
1056.8
146.216
633.714
146.202
146.394
146.202
146.216
394.916
483.97
146.202
146.207
146.23
146.258
146.204
146.203
169.433
146.203
146.204
1582.03
146.203
146.202
146.202
906.582
165.342
1523.81
146.203
181.502
147.055
178.636
146.202
146.203
158.671
146.204
164.333
159.59
146.203
1606.34
5060.01
485.517
146.202
146.202
146.232
146.203
146.206
146.202
146.202
146.202
146.203
146.202
146.181
165.23
147.376
147.152
146.292
146.203
146.181
146.203
146.202
146.203
146.225
146.202
146.202
146.203
146.184
146.202
146.202
190.833
146.203
266.757
149.388
146.263
146.203
146.173
260.379
146.203
146.203
165.971
146.204
146.202
146.205
146.202
146.308
146.202
147.778
2463.03
146.313
146.203
146.202
146.202
146.202
146.203
146.203
146.203
146.203
146.251
146.224
146.202
146.207
146.42
146.203
146.601
146.208
146.202
146.202
146.203
147.032
146.202
146.202
146.202
146.203
146.416
147.646
146.202
146.202
2491.59
146.203
146.234
147.041
146.202
146.228
146.203
146.202
146.201
146.203
146.813
146.678
146.207
146.206
147.088
146.808
146.436
146.358
146.281
146.202
146.344
146.783
146.311
146.204
146.352
146.203
146.205
146.202
147.009
146.202
146.236
1412.53
146.204
5596.36
146.204
146.203
146.202
146.202
146.203
146.334
146.203
146.202
183.031
146.307
42438.7
146.203
146.202
146.205
146.202
146.23
731.95
146.837
146.222
146.202
146.203
146.8
229.338
302.373
146.203
146.202
146.286
146.322
146.202
146.597
4964.88
205.693
220.097
146.341
146.202
245.833
152.733
148.272
146.231
146.203
146.203
146.202
146.203
146.687
21748.9
208.054
146.204
146.202
146.395
146.203
146.74
146.203
115.54
146.202
146.202
146.202
147.847
146.249
146.203
146.202
63.271
146.268
146.203
146.202
79.4547
146.202
146.322
146.202
155.311
146.202
146.254
146.202
146.787
146.203
146.215
146.202
272.598
146.202
147.004
146.202
146.204
4825.11
146.679
146.202
146.202
149.752
33330.9
146.222
180.929
146.579
147.066
151.471
146.209
146.201
146.203
3040.54
146.552
146.381
146.204
146.383
146.202
146.521
146.202
146.209
146.207
146.32
146.317
146.221
146.218
146.641
1597.51
7703.84
237.697
146.895
148.677
7552.93
150.598
7422.39
7346.71
146.191
146.308
146.202
146.202
146.212
146.285
146.23
874.526
1979.8
146.249
146.893
146.594
6749.96
7668.9
146.202
147.045
201.072
146.189
7303.19
146.98
180.329
146.26
146.219
10228
146.229
226.56
185.921
173.408
6437.05
146.202
146.202
146.336
146.216
146.573
103796
146.238
570.409
146.27
96675.1
146.873
146.202
146.202
146.202
146.264
146.208
146.335
146.464
146.202
146.202
147.077
2253.26
45018
146.204
30710.8
146.206
146.439
146.282
146.205
146.41
146.864
146.208
146.645
146.235
146.203
146.239
146.952
146.657
147.074
146.202
146.318
146.208
146.225
146.226
146.203
146.205
168.088
146.202
146.203
146.938
146.202
146.237
31598
829.73
146.227
146.937
146.235
146.232
146.239
146.302
146.203
146.202
146.202
146.22
146.202
147.123
146.202
146.202
146.33
146.206
146.214
146.202
146.22
146.203
156.523
146.237
146.742
1203.09
146.202
146.203
146.205
147.638
146.202
149.799
180.816
146.207
146.207
136.419
376.659
146.219
146.202
147.603
146.206
146.207
146.887
146.211
147.095
146.202
146.202
159.111
146.202
4825.64
146.202
146.202
26424
146.235
191.692
146.745
149.834
146.209
147.172
146.289
146.202
146.202
146.236
146.202
146.203
146.203
146.202
146.202
146.203
146.311
146.202
155.599
146.202
172.242
146.381
146.203
10688.5
146.382
9955.42
146.218
146.203
146.248
493.141
147.581
146.348
147.242
175.08
146.601
195.791
1050.17
146.304
146.202
146.324
146.355
146.203
163.02
23320.8
146.203
146.205
146.215
155.377
146.213
146.345
149.647
146.207
146.202
101.941
146.204
102.667
146.211
115.973
146.206
147.102
146.267
146.368
146.828
146.203
146.256
146.256
147.89
146.75
22104.1
146.203
146.203
146.202
146.403
146.233
146.348
146.203
146.202
146.421
21236.1
146.202
146.302
146.369
233.755
146.585
220.106
7478.03
18784
146.792
147.443
146.208
151.527
146.202
150.506
5685.11
194.51
146.202
146.202
146.26
146.296
146.616
146.202
146.202
146.642
147.402
146.202
147.396
147.336
146.844
152.416
146.202
146.203
165.067
469.625
146.8
147.177
146.202
146.202
146.263
146.938
180.897
146.203
196.671
146.284
146.264
146.896
146.203
146.241
146.262
146.468
146.202
146.239
146.241
146.929
146.196
146.202
146.829
146.202
146.305
146.551
146.246
146.308
146.202
148.766
146.203
616.952
146.76
146.204
146.202
146.721
146.543
146.202
146.252
294.735
146.457
147.252
146.19
146.294
148.534
147.836
146.203
146.495
370.287
146.315
146.243
146.292
146.207
146.686
5465.42
146.418
146.504
146.336
146.274
146.259
146.217
146.325
146.358
148.154
146.254
146.202
146.217
146.454
146.202
146.203
146.202
146.716
146.205
146.203
146.203
146.217
146.202
146.203
146.733
147.834
146.203
146.202
146.229
146.203
16004.7
146.202
146.188
146.222
146.18
146.223
2655.02
146.279
146.203
146.203
146.203
147.1
146.24
146.755
146.206
146.203
168.77
146.202
147.51
146.59
151.486
146.2
146.205
146.204
146.203
146.205
146.943
146.202
146.201
146.202
146.202
223.941
146.202
146.952
146.202
146.202
146.895
146.268
146.398
146.682
146.202
146.202
146.393
146.735
146.203
146.202
146.202
693.943
146.205
146.973
146.203
146.29
146.207
146.202
25173.4
146.832
146.248
146.731
14786.4
146.305
146.464
147.175
25183.5
146.253
146.203
146.203
146.293
146.284
178.252
146.28
146.219
146.229
146.433
146.296
146.202
146.297
146.796
146.27
146.251
149.003
146.356
146.252
146.202
146.202
146.202
146.203
146.202
146.203
146.244
147.366
146.297
17607.4
146.277
146.202
146.203
146.255
148.309
146.202
146.277
146.206
146.292
146.202
146.255
151.108
146.458
146.202
148.615
146.178
146.203
146.203
146.202
146.202
146.462
10106.9
146.358
146.203
146.203
146.202
146.209
146.206
146.202
146.236
146.207
146.204
146.202
146.203
146.203
146.203
146.202
146.203
146.202
146.204
146.239
146.203
146.375
147.532
146.758
11280.5
146.203
146.202
146.206
146.204
146.206
146.203
146.565
146.203
146.202
146.69
146.207
146.794
146.561
146.558
146.203
146.205
137.407
151.118
146.203
146.203
146.202
146.777
146.205
146.202
3166.33
146.202
146.202
146.202
146.202
146.202
146.233
146.293
146.707
3056.19
146.585
146.529
146.741
147.978
146.756
146.288
146.2
146.61
150.565
146.203
146.268
146.256
146.235
146.235
5903.18
147.005
146.202
146.481
146.202
148.824
146.526
146.256
146.214
146.205
146.203
146.205
146.24
146.203
148.127
53126.7
146.317
146.202
146.202
146.33
146.187
146.202
146.187
146.208
146.184
18738.1
146.687
518.585
146.202
146.278
146.203
184.119
147.065
146.244
146.204
147.079
146.217
148.42
146.985
173.146
147.221
146.202
146.205
146.237
146.202
146.237
2254.76
146.202
146.231
146.203
192.732
146.202
146.202
147.156
146.202
146.917
968.564
146.202
146.956
146.22
258.185
146.203
146.216
146.203
147.123
146.202
146.942
146.262
146.203
835.008
146.203
146.204
146.202
146.857
153.568
146.202
146.245
146.67
151.91
147.102
146.203
146.203
146.417
146.207
489.254
522.643
461.124
147.111
462.54
146.202
569.708
568.777
146.235
146.226
146.177
146.605
146.207
146.202
146.202
146.249
146.202
146.205
146.204
146.503
146.202
146.204
146.206
146.23
146.206
146.206
146.202
147.008
147.938
146.206
148.302
146.346
146.216
146.728
146.48
146.437
146.202
146.248
146.859
146.206
146.223
146.229
146.202
146.226
353.418
146.224
146.289
146.226
146.264
146.998
146.26
146.202
146.287
146.202
146.261
146.202
146.202
146.211
146.288
146.252
146.209
150.273
146.243
147.247
759.704
146.205
306.081
146.202
146.307
146.297
146.204
146.203
2158.02
363.559
146.325
146.281
3500.22
196.737
146.203
146.205
146.202
146.266
146.265
146.791
156.761
146.202
146.202
146.208
146.257
146.289
146.202
146.202
21891.6
29852.4
146.26
146.202
147.132
146.215
146.229
146.259
146.202
146.895
146.202
146.229
146.223
146.255
5977.14
146.244
146.237
149.223
146.95
146.234
146.517
152.351
146.216
146.202
146.258
146.71
146.361
146.203
146.236
146.615
146.818
865.501
146.243
146.249
1585.28
146.212
146.185
831.287
146.212
146.202
146.216
146.202
5752.16
146.191
146.203
148.133
146.218
10049
146.212
3890.41
146.215
146.233
2052.25
146.291
146.234
21920.7
146.283
146.207
147.459
146.201
146.202
146.202
6579.45
146.586
146.198
221.304
146.204
199.769
3855.22
182.1
146.302
1798
146.206
112176
146.202
146.214
146.551
146.202
146.202
146.202
146.202
146.178
238.567
150.816
152.666
181.677
146.181
146.202
146.171
146.172
146.183
146.202
157.601
146.672
146.202
146.203
146.203
146.669
146.244
146.207
146.811
146.203
146.211
146.21
160.294
19840.7
146.811
618.382
190.31
146.21
146.265
150.814
146.207
146.205
146.252
1617.61
2931.47
159.408
86073.4
146.206
146.203
20864.3
146.206
158.896
146.202
146.206
146.383
146.205
150.768
146.203
150.08
37215.8
146.786
152.393
146.928
146.636
146.204
146.641
146.203
146.203
146.204
146.202
146.202
146.202
146.773
146.203
146.299
1363.95
147.603
293.121
146.177
146.202
11364.6
150.108
146.202
260.822
146.203
146.203
258.838
1966.93
2044.44
292.503
146.203
311.967
13249.2
221.576
146.202
306.168
264.461
258.169
288.647
146.26
6271.61
261.71
146.208
268.787
382.191
267.765
183.441
146.467
189.739
146.259
410.526
5170.35
4511.67
146.202
146.202
32485.3
146.204
146.961
148.174
146.202
4646.54
162.76
146.219
146.216
146.231
146.227
154.001
209.555
6001.25
505.13
194.753
146.203
148.834
165.603
146.809
146.202
146.522
146.229
146.223
146.216
146.229
146.414
146.231
146.226
146.224
150.479
157.196
146.243
26777.2
146.515
146.204
232.242
146.224
146.214
146.649
146.216
146.203
146.204
373.873
148.711
147.423
147.605
15217.8
146.243
146.21
251.869
177.377
147.168
271.955
146.207
146.242
146.202
171.7
146.791
168.087
146.202
146.202
146.204
146.204
155.823
146.202
228.371
146.202
421.789
175.384
146.195
146.207
6209.42
157.069
1341.65
188.965
146.202
149.141
54631.8
146.203
146.522
146.886
146.42
250.485
146.202
225.524
196.566
1744.71
270.388
6297.06
552.207
227.303
146.232
72015.5
21662.9
146.41
24610.3
146.209
146.339
157.3
146.207
34671.6
146.508
146.248
146.409
147.054
235.412
146.911
146.267
146.562
146.205
146.202
146.202
146.9
146.187
10506.8
162.077
146.245
16610.8
146.351
146.203
146.356
193.955
5638.36
146.53
146.567
252.494
453.479
59182.6
148.882
146.205
8025.13
146.828
146.202
146.205
201.826
146.214
146.349
147.149
147.852
156.868
4481.41
146.21
216.718
148.525
146.186
146.202
146.205
146.221
146.212
146.289
169.702
4007.53
53778.7
146.287
110686
146.902
666.721
146.211
147.186
154.345
16474.7
146.25
146.207
146.203
146.202
146.203
146.202
146.24
147.06
146.928
860.919
190.704
146.749
3891.86
3565.27
56309.9
441.617
146.203
4983.63
148.145
146.203
146.202
165.354
217.291
146.202
146.204
146.202
146.694
146.202
7481.9
6778.42
6458.6
161.726
146.202
154964
148.023
146.202
146.511
146.202
146.253
653.178
146.393
146.244
3795.1
146.702
146.202
146.255
146.202
146.202
146.207
294.879
146.324
146.213
147.346
149.316
1959.22
146.905
146.769
146.666
146.202
146.243
146.213
157.461
5186.02
146.212
146.202
28746.1
146.229
146.202
146.227
146.231
146.684
7487.7
27622.7
151.559
147.996
146.202
544.628
146.237
557.706
2726.3
146.202
570.855
146.202
146.202
8005.44
146.202
146.893
6171.58
773.469
8310.81
7726.69
146.205
319.974
333.734
633.014
146.472
146.25
3879.14
7083.93
864.611
153.194
147.774
146.213
160.319
151.829
1181.17
177.338
197.072
5622.59
146.201
146.203
10415.1
7056.14
212.895
149.31
461.548
156.981
31204.5
146.202
228.036
146.175
8055.61
146.215
149.116
148.029
146.205
4612.09
146.216
3760.54
7975.62
146.159
146.213
931.024
146.213
146.202
146.202
146.201
1517.77
146.182
8416.73
22198.1
146.202
146.202
5422.4
146.377
146.202
410.895
146.203
146.202
146.192
146.202
268.593
245.981
17003.6
146.202
146.202
2006.3
146.202
256.892
3770.99
146.202
146.202
146.262
146.218
779.038
146.203
146.198
146.204
146.202
146.202
172.279
1811.94
146.335
146.217
3721.01
146.207
146.607
146.203
204.512
146.202
241.05
904.206
146.204
146.203
146.551
147.189
3856.59
146.203
293.984
146.282
146.203
146.272
146.334
146.202
146.825
146.202
1498.58
146.202
146.203
146.195
146.365
146.199
934.38
148.637
146.203
146.203
484.992
146.202
217.314
146.223
146.202
34850.7
11068.6
159.131
146.733
146.204
152.1
5536.65
146.203
11507.1
146.203
3003.92
3523.81
146.172
3517.37
6346.06
2904.82
16337.5
729.742
146.398
146.203
146.2
149.237
157.206
146.238
8929.51
146.207
146.253
146.202
151.157
7750.39
2162.85
146.203
147.386
164.142
146.202
4217.58
146.203
146.204
146.198
10534.5
1737.3
671.894
146.203
146.202
146.202
19449.2
147.062
9028.37
146.202
146.202
6309.97
151.24
146.202
146.203
28494.4
146.203
146.203
169.517
13322.6
147.028
147.374
146.202
30674.5
31933.2
250.624
149.718
146.287
13858.2
146.215
171.307
4665.94
258.836
59976.2
16865.4
11589.1
70660.1
146.202
17203.4
3625.6
149.948
146.202
251.271
95349.8
146.205
1026.06
105141
146.207
72984.9
146.202
7851.73
178.17
148.767
1737.67
1074.04
146.216
146.202
146.632
146.232
26015.5
146.201
312.479
207.608
146.19
146.188
146.194
146.203
146.274
146.203
147.381
146.265
11914.7
146.202
3403.78
146.187
147.823
146.203
146.263
151.871
146.194
146.195
146.202
146.203
146.252
4448.43
3844.41
166.279
147.841
146.218
146.224
146.183
146.239
146.261
146.563
146.203
147.605
146.816
2241.52
146.249
146.247
146.206
146.712
146.238
146.211
165.53
146.219
146.453
1381.53
146.423
503.805
146.229
146.243
148.478
155.448
146.202
146.303
146.712
146.231
146.838
146.322
146.79
146.89
146.702
146.206
146.203
146.22
158.926
146.203
265.791
146.208
146.704
146.204
146.203
146.792
146.298
146.465
146.419
146.159
146.202
6589.91
77.2782
146.214
231.855
78.6016
146.207
146.31
146.25
238.774
143.273
146.214
146.507
230.622
146.202
119.927
146.259
146.202
146.21
146.204
146.205
146.203
146.202
146.204
146.203
235.719
146.206
146.203
146.478
146.203
146.281
161.653
146.204
146.202
310.07
318.751
146.215
146.25
146.202
146.595
147.051
146.209
146.202
147.026
146.38
146.216
146.217
146.217
146.206
146.202
146.306
146.663
793.878
147.604
859.31
146.342
146.307
146.256
146.206
1647.1
146.25
146.209
147.503
146.263
1840.31
146.203
146.26
146.419
262.499
348.241
276.114
398.318
146.207
283.903
232.816
146.202
150.67
146.203
161.428
276.861
146.526
292.026
291.137
284.641
146.364
292.878
300.928
146.23
146.202
148.145
146.255
146.21
146.204
146.204
281.267
146.206
146.306
146.249
146.203
146.203
146.213
146.23
180.282
146.203
146.243
146.247
146.203
156.422
146.202
146.796
146.22
146.206
146.202
146.202
146.253
146.202
146.203
146.203
146.228
146.203
146.202
148.759
146.203
146.298
17210.5
146.201
146.79
146.261
146.204
146.183
146.953
146.202
146.203
146.674
146.417
146.244
146.202
146.249
146.202
146.318
146.466
146.202
146.203
146.248
146.202
146.204
146.715
146.203
171.028
153.336
146.24
146.202
146.242
53221
5100.8
146.213
146.204
146.202
146.203
146.387
146.541
146.204
146.202
146.208
2864.97
146.216
146.202
146.202
17872.8
210.524
146.282
17654.2
146.279
146.205
147.588
146.276
146.207
146.24
1142.32
146.645
146.202
181.892
18254.8
146.202
146.202
20595.6
146.9
19007.4
146.202
146.248
146.203
146.685
8783.51
146.202
8814.58
146.223
146.203
8309.72
146.222
146.203
146.45
8550.91
146.205
146.362
8126.18
146.208
146.431
8926.6
195.491
146.231
146.321
266.751
154.433
172.64
890.318
146.202
146.203
146.66
146.216
146.628
206.821
146.203
146.207
146.302
197.815
146.987
146.209
146.309
146.204
146.808
146.207
222.455
54598.8
146.355
217.046
210.437
56648.1
146.203
146.737
36135.7
146.202
215.634
146.419
146.57
146.203
220.275
146.202
146.202
146.258
146.202
149.186
153.822
151.741
26668.5
146.411
146.203
146.249
160.774
146.209
146.203
146.204
146.906
146.239
148.076
146.207
147.847
33662.2
161.107
146.332
615.299
200.201
146.505
151.534
148.12
147.013
179.583
146.271
151.301
146.359
146.461
166.728
210.697
146.245
146.31
234.056
152.281
146.203
146.815
214.344
146.247
146.863
146.737
34301.6
147.037
146.264
22804.9
146.209
147.084
146.413
146.375
20015.9
146.207
179.527
175.68
2541.14
146.168
146.203
146.204
22740.7
146.304
159.803
146.23
18479.6
18588.4
146.624
146.202
13374.2
153.992
202.666
86295.5
187.195
146.202
146.3
146.204
146.239
146.208
146.203
146.202
146.794
146.208
146.202
146.209
51558.8
146.202
146.297
146.203
147.502
146.845
146.245
211.857
146.202
146.216
146.266
146.205
146.203
146.203
146.229
146.202
146.26
146.247
36068.1
146.202
147.505
146.344
10940.8
146.202
146.582
230.838
146.202
146.202
23634.8
146.202
146.214
146.202
146.203
146.202
146.246
146.202
146.202
146.202
146.204
146.966
3423.62
146.202
146.24
146.202
146.567
146.514
146.205
146.202
4883.5
146.203
146.257
146.204
146.823
146.282
146.204
146.204
18778.8
12170.8
146.197
213.289
146.205
146.207
146.252
147.053
146.204
146.821
147.193
146.731
146.205
166.059
146.256
150.911
4382.81
146.588
146.21
146.276
6619
146.204
146.311
146.206
146.207
146.208
146.205
146.207
146.512
146.249
146.353
153.701
258.794
184.267
146.203
231.648
146.477
146.213
255.887
52014.7
146.202
146.455
147.81
146.216
146.295
146.207
146.339
236.034
146.224
146.213
146.214
146.203
146.23
146.659
146.247
160.575
146.211
146.286
146.646
211.126
146.215
146.306
146.259
344.285
272.212
146.203
146.733
146.205
146.774
239.699
33477.6
146.341
147.17
146.731
146.326
146.202
146.203
27112.9
146.204
146.211
146.202
146.204
147.176
146.3
146.287
146.254
146.226
146.412
146.538
146.202
4348.76
656.781
146.2
146.994
146.202
146.202
146.206
4337.16
778.601
20985.3
146.215
146.203
146.202
146.526
146.253
146.288
14007.8
146.284
146.202
146.293
10630
22814.2
146.257
146.202
14159.9
12801.3
146.316
8842.02
577.109
158.224
3597.85
168.837
146.172
146.203
146.172
146.204
146.204
146.207
5946.31
14245.7
718.387
306.746
275.438
146.247
270.589
253.85
148.724
146.243
481.09
146.242
275.546
160.356
146.202
280.191
732.29
146.207
146.203
14560.8
146.208
146.202
342.956
4182.86
146.203
146.202
146.212
146.24
146.239
146.202
146.203
192.652
29779.1
146.203
146.239
146.252
1122.78
148.458
146.203
146.202
146.205
507.162
146.203
146.679
147.567
146.202
146.643
146.202
146.202
9259.28
146.252
146.203
146.202
146.203
146.204
146.756
146.272
146.202
146.636
146.621
146.202
146.88
146.202
146.203
146.202
146.208
146.203
146.202
146.236
146.202
146.202
3119.19
146.202
10989.8
146.241
146.202
146.202
146.202
146.202
146.247
157.853
6861.34
1638.84
9287.45
146.379
243.125
146.256
6509.99
9226.36
146.243
486.479
146.202
146.251
146.203
146.202
146.202
146.203
146.91
148.857
146.202
5453.25
146.215
147.239
146.232
146.202
146.563
146.162
171.873
14635
159.786
146.438
146.202
146.996
239.054
146.238
146.255
27276.9
146.241
13592.6
146.202
146.203
146.64
5601.99
15515.7
11753
6342.31
154.329
161.713
13431.2
782.447
10413.4
146.202
146.364
146.191
146.241
146.415
3880.54
146.258
231.334
3165.09
4203.23
146.212
4484.72
147.367
146.206
146.203
146.204
148.719
165.725
146.775
146.203
148.708
5616.52
146.368
19833
169.351
147.178
7846.34
146.203
146.612
7786
146.297
146.204
146.639
146.924
146.202
146.202
7701.67
146.185
146.203
610.187
146.475
7670.78
185.75
146.293
171.947
167.026
174.064
184.886
170.877
147.542
167.952
146.327
146.203
171.873
147.202
171.037
167.08
146.289
147.024
146.274
223.128
26111.4
146.203
146.699
370.513
146.203
25274.6
146.203
146.202
146.203
369.205
146.22
242.221
146.204
146.204
147.007
326.993
275.711
146.25
146.202
147.338
23802.6
6647.62
146.202
2434.05
20182.3
220.315
23275.1
146.206
2113.92
146.202
146.204
146.203
146.202
146.199
146.211
146.202
23763.1
146.183
146.853
146.203
146.202
146.199
146.203
146.217
146.257
146.694
146.202
146.202
6821.7
146.385
24296.8
146.3
146.202
2402.86
146.208
146.202
146.203
24368.3
146.577
146.202
231.537
146.716
146.478
146.203
174.268
146.203
146.202
146.203
146.202
146.202
146.476
146.225
331.92
146.203
146.786
146.203
162.215
146.203
146.284
146.208
147.127
146.422
146.423
146.431
146.208
146.606
146.255
146.203
146.203
146.202
146.217
14086.9
146.203
146.202
146.203
146.482
146.206
147.215
146.203
146.203
146.347
146.326
146.203
146.204
146.202
146.227
146.202
146.202
146.202
151.194
146.202
146.202
146.202
146.202
146.203
146.202
9227.9
146.273
146.222
146.219
146.202
146.523
146.202
149.433
224.096
146.259
147
146.202
146.203
146.203
146.487
10174.6
146.202
146.202
10788.8
146.202
146.202
146.202
146.203
146.813
146.691
255.951
146.203
146.202
146.203
11037.6
7753.75
9100.77
146.552
179.031
150.64
146.209
146.205
146.893
11244.5
146.203
146.282
146.204
146.209
154.298
146.202
146.203
146.39
146.616
146.673
146.566
179.069
146.208
147.935
159.133
146.208
148.41
146.204
146.203
146.208
146.218
146.203
174.452
146.207
151.79
146.387
147.388
172.53
608.491
146.56
146.208
146.227
146.212
146.267
146.207
146.203
146.203
146.36
3167.15
147.405
146.277
173.348
146.203
479.528
146.974
334.055
146.767
146.203
301.125
146.203
146.204
146.199
663.997
472.117
657.267
146.202
568.724
146.203
146.321
146.202
146.306
146.204
14343.9
147.073
146.203
146.203
151.599
146.937
146.203
151.847
146.204
146.203
13651.3
146.202
152.502
146.204
147.002
146.205
146.202
146.205
146.202
146.58
146.205
29675.8
146.181
146.34
146.204
146.79
1575.91
146.202
146.204
146.202
7099.7
146.322
153.531
5072.38
535.272
146.202
10961.5
163.649
146.204
146.252
9257.26
147.132
146.202
2932.04
682.952
146.211
146.79
146.204
3501.97
146.202
146.202
146.204
146.232
12776.1
146.227
89931
146.4
147.137
146.224
146.176
146.282
146.223
146.296
146.203
146.198
146.672
191.645
1904.72
249.248
2120.44
476.732
2152.92
146.462
146.202
146.202
1672.34
12391.8
7068.17
222.579
147.294
150.875
2242.18
11140.3
6354.32
146.202
24949.7
26932.8
1935.46
146.202
168.643
1299.39
1112.23
3486.08
593.762
332.129
1270.05
146.212
486.156
146.548
1115.91
146.71
16115.3
3911.29
146.209
146.213
170.582
755.31
146.599
146.376
146.204
146.202
2853.5
146.273
146.591
146.904
146.202
159.711
146.202
146199
146.394
146.202
146.997
2668.95
146.585
27099.4
7215.79
4689.61
146.573
146.203
146.171
3319.51
146.202
146.202
146.216
146.557
146.768
3786.99
169.833
146.26
420.705
6064.75
146.204
146.203
3000.86
146.232
146.749
7307.39
146.202
146.202
146.267
427.781
67258.3
1435.17
146.37
147.197
146.203
1591.93
77513.3
363.826
14071.2
146.203
146.255
146.203
163.899
146.202
4972.93
1304.56
146.202
7816.06
146.203
146.203
251.239
146.211
146.496
146.246
6352.06
313.296
146.203
146.199
146.565
10545.1
146.203
146.393
71331.8
146.204
146.807
146.253
146.203
146.224
146.202
146.224
146.221
146.209
146.203
146.754
244.117
146.205
683.722
9037.74
147.425
278.288
146.202
218.7
146.211
146.225
317.462
1291.33
7586.28
329.157
146.458
154.736
146.376
147.137
180.952
148.233
162.762
147.197
146.212
280.318
146.218
146.227
146.202
146.905
148.287
146.753
7768.24
146.202
146.307
146.324
688.052
5263.13
146.203
265.593
156.436
171.692
142.526
623.51
146.202
146.206
150.121
147.277
146.202
146.202
146.204
146.202
147.32
146.202
2424.04
1273.32
189.121
147.565
152.56
146.476
146.744
146.202
146.202
432.761
146.203
146.202
146.203
1209.52
146.777
28236.4
155.842
147.211
147.456
301.722
146.833
155.692
146.2
146.813
147.865
7122.3
148.769
146.336
146.252
146.402
149.17
146.215
627.766
152.51
164.317
150.94
146.273
146.415
158.671
147.268
146.593
155.777
146.964
147.852
146.199
152.467
146.865
154.671
146.202
146.2
236.116
146.352
146.204
146.138
147.216
4261.84
148.072
146.58
146.203
147.927
148.146
146.203
146.209
146.205
22858
153.309
104235
148.934
146.202
4328.77
4324.66
146.463
146.202
146.888
146.523
146.928
146.303
152.446
146.227
146.895
146.337
4882.51
146.188
146.168
146.202
146.202
2276.16
1244.72
146.503
4922.66
146.635
146.25
146.205
146.205
146.206
4906.67
153.534
146.203
146.203
146.613
146.209
146.21
146.66
146.202
146.224
147.588
146.225
147.262
146.279
146.202
146.203
148.045
146.206
146.203
698.122
146.202
146.737
146.204
146.24
5928.41
146.209
155.588
146.787
147.006
146.203
146.212
146.267
146.198
146.203
147.301
146.766
147.931
1202.25
146.223
146.236
146.327
146.206
146.4
146.203
146.17
146.909
146.391
146.206
146.426
146.2
146.34
7581.84
615.749
147.375
151.45
146.268
146.209
197.602
146.415
1175.61
147.196
147.37
146.21
146.202
146.208
146.202
146.413
146.199
239.192
149.892
146.321
146.202
146.204
146.743
146.27
146.509
146.205
146.211
146.234
146.616
213.273
146.491
146.208
146.202
251.88
254.372
146.4
146.206
146.691
146.214
146.423
146.195
252.578
146.467
147.002
228.573
146.899
153.496
197.486
246.807
185.817
146.213
121711
146.206
179.79
146.203
156.924
147.867
157.357
1070.08
146.218
146.202
146.216
1794.03
34239
146.202
157.041
156.199
8890.22
146.202
146.898
146.204
146.337
153.572
146.203
146.204
146.249
146.214
146.211
146.202
256.18
2329.72
147.542
146.311
146.202
150.425
146.202
146.202
233.554
8705.84
208.247
146.202
146.206
179.977
241.994
146.203
146.202
2055.73
149.186
1453.88
146.204
159.575
146.255
146.204
146.209
146.203
146.203
146.211
146.732
146.202
146.202
146.215
146.211
146.23
146.174
146.203
146.205
146.202
146.202
146.225
146.204
146.203
146.202
146.203
146.198
147.132
150.294
148.662
146.202
146.202
146.195
146.195
232.658
146.202
146.19
146.482
146.198
146.245
146.198
147.488
146.202
146.202
146.288
146.196
146.205
146.481
146.203
146.513
146.5
382.522
146.202
146.203
146.44
146.203
146.202
146.194
146.202
146.187
146.204
146.204
146.265
146.706
146.444
618.172
600.132
146.203
146.559
146.205
146.202
146.196
146.202
146.208
146.203
1353.74
132420
146.189
129847
146.947
146.202
76271.1
80713.1
146.37
146.74
532.682
146.476
146.199
146.202
147.137
146.201
77043.7
146.204
82034.5
146.195
146.203
146.204
147.354
147.534
147.524
146.582
146.204
146.202
146.203
146.189
146.202
146.192
146.202
146.199
146.202
147.941
146.202
146.497
146.593
146.208
146.206
146.204
146.181
147.054
170.417
146.844
146.341
146.918
146.216
146.204
146.276
146.468
146.213
146.637
157.8
146.208
146.202
147.048
146.51
146.202
146.888
146.395
146.92
146.441
146.205
146.462
23538.3
160.46
147.177
146.203
146.446
162.942
146.216
146.202
146.204
146.578
146.443
146.205
146.62
158.999
2682.97
610.322
151.489
146.202
146.203
2923.05
146.205
146.749
146.24
146.212
146.202
147.057
519.868
5306.58
205.108
182.334
2298.18
146.203
146.235