/*--------------------------------*- C++ -*----------------------------------*\
| =========                 |                                                 |
| \\      /  F ield         | OpenFOAM: The Open Source CFD Toolbox           |
|  \\    /   O peration     | Version:  v2012                                 |
|   \\  /    A nd           | Website:  www.openfoam.com                      |
|    \\/     M anipulation  |                                                 |
\*---------------------------------------------------------------------------*/
FoamFile
{
    version     2.0;
    format      ascii;
    class       volScalarField;
    location    "5";
    object      ILambda_0_0;
}
// * * * * * * * * * * * * * * * * * * * * * * * * * * * * * * * * * * * * * //

dimensions      [1 0 -3 0 0 0 0];


internalField   nonuniform List<scalar> 
108993
(
146.203
146.204
146.202
146.202
146.202
146.202
149.966
146.202
146.202
146.203
146.202
146.202
146.202
146.202
146.203
146.203
146.208
146.202
146.201
146.205
146.202
146.201
146.203
146.203
146.202
146.202
146.202
146.207
146.203
146.201
146.202
146.202
146.202
146.204
146.202
146.202
146.202
146.203
187.286
2365.44
146.214
146.202
146.202
146.202
146.679
15937.3
146.202
146.55
146.202
146.214
146.202
152.533
146.204
146.202
146.203
146.204
146.202
146.202
146.202
146.201
146.201
146.201
146.201
146.202
146.202
146.202
146.202
146.202
146.202
208.793
146.203
146.202
146.202
146.202
146.202
146.202
146.202
146.205
146.202
146.202
146.202
146.202
146.202
146.202
146.202
146.202
146.202
146.202
146.202
146.202
146.202
146.202
146.202
146.202
146.202
146.202
146.202
146.203
146.202
146.202
146.202
146.201
146.203
146.202
146.202
146.202
146.201
146.201
146.202
1182.31
146.884
146.202
147.312
147.668
146.202
149.067
146.202
146.202
146.215
146.202
146.202
146.201
231.254
146.202
146.202
146.228
146.214
146.202
146.201
146.201
146.202
146.201
146.202
152.436
146.202
146.203
146.201
146.202
146.201
146.202
146.202
146.202
146.31
146.201
146.201
146.202
146.202
6527.5
146.202
147.91
148.066
146.202
146.204
148.133
146.202
146.264
146.203
146.201
146.202
401.557
148.074
146.201
146.202
146.202
146.202
147.521
146.202
146.202
146.202
146.203
146.202
146.205
152.975
146.202
146.203
146.202
146.663
146.202
146.202
146.202
146.203
146.202
146.201
146.202
146.202
146.204
146.201
146.203
146.203
146.202
146.203
146.202
146.204
146.246
146.203
146.202
146.214
146.206
146.202
146.202
146.202
146.353
146.202
146.201
145.006
147.277
146.202
1390.52
146.202
149.148
272.845
146.204
146.634
929.755
37919.1
146.203
146.204
146.202
146.201
146.202
146.202
147.628
146.203
146.3
146.202
146.202
146.201
146.202
270.496
146.202
1054.35
146.204
146.202
146.21
146.202
146.202
146.202
146.202
914.207
146.201
146.202
146.202
146.202
146.201
146.201
146.204
750.045
195.044
146.201
146.202
146.202
146.201
146.202
146.203
146.201
146.201
146.201
146.202
146.202
146.202
146.202
146.202
146.213
146.264
146.202
146.202
146.202
146.202
146.202
146.202
146.202
146.202
1659.46
166.53
2957.55
146.202
146.202
621.884
146.202
146.202
146.203
21350
19711.7
146.202
146.202
146.207
146.202
146.203
146.202
4842.49
146.202
146.202
146.203
146.202
146.202
146.202
146.202
146.202
146.34
146.202
155.706
147.608
146.202
146.202
146.202
146.198
146.201
146.202
146.197
1286.27
146.202
146.201
146.21
146.202
146.202
148.761
146.202
146.207
1461.53
146.202
146.211
146.202
146.204
146.204
146.203
153.535
151.45
166.428
146.202
146.202
146.205
218.384
147.85
146.202
871.33
146.202
146.202
146.201
146.202
146.202
146.202
146.987
146.206
146.202
146.203
146.203
146.202
146.201
146.202
146.202
146.202
146.202
24092.2
2102.95
146.201
146.202
146.202
5431.85
146.202
146.202
146.202
146.206
146.202
146.202
146.202
146.21
146.202
146.202
146.202
152.792
146.207
146.203
146.202
148.378
146.208
147.836
146.202
146.202
147.455
146.203
147.559
147.476
146.207
146.214
146.203
146.206
146.203
5049.29
146.202
1194.8
147.702
146.206
147.724
146.202
1282.11
146.204
156.626
146.202
146.345
146.202
146.205
1040.84
448.106
146.202
146.202
146.207
146.206
146.203
146.202
161.221
146.202
146.206
181.603
146.202
146.202
146.202
180.536
162.063
1848.76
146.202
159.438
146.206
150.543
146.202
146.202
153.044
146.202
189.027
152.959
146.202
155.484
711.313
155.571
146.202
146.202
146.204
146.202
146.202
146.202
146.202
146.203
146.202
146.202
146.202
3392.35
146.211
146.213
149.976
146.202
146.202
146.202
146.202
146.202
146.203
146.202
146.203
146.203
146.202
146.202
146.202
152.883
146.203
163.124
147.602
146.464
146.202
146.202
183.115
146.202
146.203
151.631
146.202
146.202
146.205
146.201
146.316
146.202
185.644
1887.44
146.222
146.202
146.202
146.202
146.202
146.203
146.203
146.202
146.203
149.471
146.203
146.203
146.202
146.404
146.203
146.366
146.201
146.203
146.202
146.202
146.203
146.202
146.202
146.202
146.202
146.525
147.274
146.202
146.202
918.447
146.202
146.208
146.214
146.202
146.203
146.202
146.201
146.202
146.202
146.202
146.209
146.207
146.206
146.214
146.216
146.202
146.488
146.2
146.202
146.292
146.215
146.202
146.202
146.523
146.202
146.204
146.202
146.46
146.202
146.206
1930.66
146.201
3067.01
146.202
146.201
146.202
146.202
146.201
146.43
146.203
146.202
189.389
146.202
30207.2
146.202
146.203
146.201
146.202
146.217
161.483
146.202
146.203
146.202
146.203
146.218
1876.93
376.803
146.204
146.202
146.216
146.214
146.203
146.205
4784.69
1991.23
215.321
146.214
146.203
1856.33
152.55
146.402
146.202
146.203
146.202
146.201
146.202
146.708
17142.3
2421.44
146.202
146.202
146.217
146.202
146.202
146.202
163.023
146.202
146.202
146.202
146.21
146.243
146.202
146.202
80.5733
146.215
146.202
146.202
171.732
146.202
146.206
146.202
211.574
146.202
147.184
146.202
146.219
146.203
146.204
146.202
475.502
146.202
148.687
146.202
146.202
3885.27
146.204
146.201
146.202
147.889
16960
146.204
207.75
146.202
147.004
152.058
146.203
146.202
146.202
249.115
146.526
148.084
146.202
148.17
146.202
146.205
146.202
146.203
146.202
150.35
146.605
146.203
146.203
146.427
1542.77
6242.73
169.175
146.202
146.604
6033.84
545.569
5944.22
6482.78
146.202
146.204
146.202
146.202
146.213
146.103
146.218
816.843
1821.76
146.223
146.195
147.378
6121.61
5895.51
146.201
146.236
155.69
146.202
6670.1
146.205
2334.56
146.512
146.204
6635.32
146.206
2875.95
153.982
153.629
174.941
146.202
146.202
147.77
146.203
146.205
3551.18
146.275
632.781
146.237
230.574
146.813
146.202
146.202
146.202
146.22
146.202
146.529
146.21
146.202
146.202
146.223
1684.2
220.86
146.202
264.898
146.202
147.813
146.26
146.202
147.762
146.202
146.203
146.557
146.203
146.203
146.203
146.257
146.941
147.761
146.202
148.715
146.203
146.204
146.203
146.202
146.202
265.291
146.202
146.202
146.196
146.202
146.204
1273.28
926.003
146.203
146.223
146.203
146.204
146.203
146.221
146.204
146.202
146.202
146.203
146.202
146.219
146.202
146.203
146.243
146.202
146.206
146.202
146.203
146.202
237.865
146.211
146.204
1347.36
146.202
146.202
146.202
152.356
146.202
149.929
196.1
146.202
146.202
161.224
387.857
146.203
146.202
144.261
146.202
146.202
146.216
146.211
146.214
146.202
146.202
226.137
146.202
8500.13
146.202
146.202
2499.15
146.21
230.992
146.216
148.475
146.201
146.214
146.257
146.202
146.202
146.219
146.202
146.204
146.202
146.202
146.202
146.203
146.213
146.202
237.833
146.202
1025.42
146.202
146.202
4845
146.203
2422.58
146.203
146.202
146.204
147.396
146.216
146.2
157.875
153.369
146.205
157.342
1241.63
146.25
146.203
149.566
146.198
146.203
244.868
1116.77
146.203
146.202
146.203
153.325
146.203
146.197
147.548
146.202
146.202
53.4035
146.203
169.531
146.203
51.4664
146.203
146.213
146.214
146.221
146.23
146.202
146.216
146.221
502.175
146.214
10171.1
146.202
146.202
146.202
146.297
146.208
146.235
146.202
146.202
146.298
10801.2
146.202
146.233
147.078
235.738
146.209
155.716
3845.95
7155.88
146.243
148.083
146.206
154.612
146.202
145.734
9177.4
154.3
146.202
146.202
146.224
146.22
146.636
146.202
146.202
146.562
147.374
146.202
240.937
146.21
146.202
155.949
146.202
146.204
749.535
153.229
146.202
146.248
146.202
146.202
146.213
147.916
320.934
146.203
301.69
146.239
146.214
146.202
146.203
146.206
146.211
146.203
146.201
146.204
146.202
147.981
146.202
146.202
146.771
146.202
148.013
146.661
146.206
146.216
146.202
148.322
146.204
374.346
146.2
146.202
146.201
146.706
148.52
146.202
146.206
842.403
148.159
147.164
146.202
146.211
150.268
147.298
146.202
146.266
467.888
146.214
146.208
146.211
146.206
146.948
3856.52
148.265
146.392
146.248
146.213
146.229
146.22
146.215
146.378
147.863
146.206
146.202
146.202
146.37
146.202
146.203
146.202
146.489
146.202
146.202
146.202
146.202
146.202
146.202
146.202
148.068
146.203
146.202
146.203
146.202
2019.04
146.202
146.202
146.202
146.202
146.202
891.414
186.338
146.204
146.202
146.202
147.16
149.563
146.652
146.209
146.202
164.016
146.202
146.225
147.893
211.253
146.202
146.202
146.202
146.204
146.205
146.214
146.202
146.202
146.202
146.202
382.603
146.202
146.214
146.201
146.202
146.22
170.506
146.21
146.211
146.202
146.202
146.211
146.322
146.205
146.202
146.202
157.929
146.203
146.229
146.203
146.249
146.204
146.202
21791.9
146.903
146.239
146.219
3405.75
146.215
146.255
146.218
24183
146.202
146.204
146.204
150.595
146.223
1806.75
146.285
146.204
146.203
146.212
146.243
146.203
146.256
147.394
146.247
146.207
153.374
151.748
157.142
146.202
146.202
146.202
146.202
146.202
146.202
146.204
239.678
146.202
665.13
146.209
146.202
146.202
150.944
149.719
146.202
146.208
146.202
146.206
146.202
146.205
148.45
146.454
146.202
147.854
146.202
146.202
146.202
146.201
146.202
146.212
10837.1
146.497
146.202
146.202
146.202
146.202
146.202
146.202
146.202
146.202
146.202
146.202
146.203
146.203
146.204
146.202
146.202
146.202
146.204
146.203
146.202
1747.66
147.864
147.314
10808.8
146.202
146.202
146.203
146.202
146.203
146.202
146.204
146.203
146.202
149.588
146.202
146.211
146.204
146.204
146.202
146.202
155.645
150.444
146.206
146.202
146.202
146.214
146.205
146.202
2214.32
146.202
146.202
146.202
146.202
146.202
146.134
146.226
146.203
3026.97
146.213
146.208
146.206
147.495
146.218
146.223
146.202
146.202
147.944
146.202
152.089
146.208
146.208
146.207
212.841
146.298
146.202
146.312
146.202
146.554
146.389
146.206
146.202
146.204
146.202
146.204
146.203
146.202
147.29
429.479
146.262
146.202
146.202
146.279
146.202
146.202
146.202
146.202
146.202
441.248
147.539
781.977
146.202
146.696
146.202
162.876
146.939
146.204
146.202
146.548
146.204
267.908
146.326
152.945
155.259
146.202
146.202
146.207
146.201
146.202
2130.72
146.202
146.202
146.202
210.636
146.202
146.202
146.212
146.202
146.891
747.885
146.202
146.217
146.203
171.001
146.203
146.204
146.201
146.231
146.202
147.002
146.234
146.203
1274.48
146.203
146.202
146.202
146.224
151.067
146.202
148.735
147.091
155.371
177.991
146.203
146.202
146.373
146.202
585.111
459.089
406.22
146.92
447.444
146.201
605.036
660.162
146.205
146.205
146.202
147.07
146.202
146.202
146.202
146.206
146.202
146.204
146.203
148.043
146.201
146.202
146.206
146.203
146.207
146.206
146.202
146.37
161.097
146.206
171.692
146.215
146.209
146.194
146.202
146.431
146.202
146.21
146.43
146.207
146.203
146.203
146.202
146.203
169.596
146.203
146.379
146.203
146.227
147.09
146.204
146.202
146.202
146.202
146.204
146.202
146.202
146.203
146.202
146.214
146.214
155.428
146.203
147.031
1091.45
146.201
418.672
146.202
146.202
146.202
146.203
146.202
2116.31
569.669
214.679
146.223
444.895
154.971
146.202
146.203
146.202
146.204
146.204
146.215
147.947
146.202
146.202
146.207
146.21
146.202
146.203
146.203
2342.24
1151.77
146.213
146.202
147.065
146.202
146.213
146.234
146.203
146.297
146.202
146.214
146.203
146.208
368.994
146.243
146.208
153.4
147.104
146.211
146.609
151.072
146.21
146.203
146.207
146.59
146.376
146.202
146.205
147.949
146.769
1266.71
146.206
146.207
1395.12
146.203
146.202
1134.83
146.203
146.202
146.203
146.202
4204.1
146.202
146.203
170.416
146.203
11643.1
146.203
2871.17
146.203
146.224
2010.78
146.235
146.226
18859.6
146.21
146.211
147.944
146.202
146.202
146.204
7597.32
147.906
146.202
179.444
146.202
668.793
4247.56
187.577
146.278
1755.52
146.202
19093.7
146.202
146.202
146.206
146.202
146.202
146.202
146.202
146.202
591.976
149.268
151.347
227.011
146.202
146.202
146.202
146.202
146.202
146.202
170.47
664.708
146.202
146.202
146.202
148.256
146.207
146.202
147.241
146.202
146.202
146.202
147.537
4978.84
145.773
1040.78
151.36
146.202
146.215
148.745
146.202
146.202
146.202
1531.61
1509.11
448.424
245.178
146.201
146.202
821.649
146.201
147.81
146.202
146.202
146.206
146.201
147.015
146.202
147.33
231.969
146.881
147.029
146.842
146.877
146.202
154.427
146.202
146.202
146.201
146.202
146.201
146.202
146.215
146.201
146.22
11038.7
147.94
271.077
146.202
146.202
437.998
149.265
146.202
219.385
146.202
146.202
308.19
2139.3
571.996
358.718
146.202
156.449
477.1
219.293
146.202
637.893
311.098
217.72
428.001
146.208
449.871
207.258
146.208
206.042
513.332
294.433
157.67
175.086
155.702
146.205
632.409
625.868
528.738
146.202
146.202
234.553
146.202
146.203
147.885
146.201
256.994
156.401
146.202
146.202
146.202
146.202
150.522
239.803
3480.81
889.813
256.953
146.202
154.431
152.589
146.218
146.202
146.209
146.202
146.202
146.202
146.202
146.355
146.202
146.202
146.208
148.129
150.917
351.438
10903
146.98
146.202
210.614
146.202
146.202
146.203
146.202
146.202
146.203
965.957
151.443
147.232
178.457
2417.1
145.703
146.202
2882.12
194.922
146.227
156.088
146.202
146.226
146.202
176.053
146.209
269.163
146.202
146.202
146.202
146.202
159.623
146.201
2977.61
146.202
157.902
174.112
146.202
146.201
4119.62
161.038
1513.07
226.433
146.202
147.784
213.626
146.201
146.206
146.874
146.408
2592.08
146.202
2690.5
148.237
1740.37
2696.59
528.816
493.809
2809.47
146.202
18079.6
3175.37
146.278
18700.7
146.203
146.386
602.313
146.202
19537.2
146.726
146.216
146.205
146.205
226.932
146.21
146.202
146.207
146.204
146.202
146.202
146.217
146.202
2649.93
195.427
146.208
193.11
146.836
146.202
146.312
182.245
2331.44
146.401
146.3
396.807
150.283
823.343
153.317
146.204
840.55
146.202
146.203
146.202
63.8241
146.205
489.329
146.731
148.239
159.064
2482.08
146.204
919.993
146.204
146.202
146.202
146.204
146.202
146.205
146.289
156.216
785.291
7597.5
146.273
23338.9
146.231
472.046
146.203
431.276
153.41
259.566
146.215
146.205
146.202
146.202
146.202
146.202
147.081
209.831
146.235
2119.78
712.163
146.97
345.871
2077.49
20277.6
19246.7
146.202
150.029
147.768
146.203
146.202
151.205
414.719
146.202
146.203
146.202
146.214
146.202
182.551
166.544
185.117
153.325
146.202
34321.3
147.618
146.202
146.54
146.202
146.222
1002.78
146.316
146.227
1801.38
146.212
146.203
146.216
146.203
146.201
146.202
216.67
146.209
146.22
147.363
151.253
1905.19
146.227
146.216
146.202
146.203
146.203
146.202
166.354
4536.78
146.203
146.202
6366.31
146.203
146.201
146.203
146.203
152.93
5123.87
10172.7
151.638
147.494
146.201
748.845
146.203
1289.8
2094.72
146.201
685.966
146.202
146.202
5097.58
146.201
146.204
4243.32
798.556
5118.26
4663.35
146.202
303.955
321.447
754.298
146.204
153.635
2371.98
5231.21
1385
156.011
146.315
146.203
165.434
152.638
1930.28
197.309
158.441
3993.98
146.202
146.201
690.432
2891.86
307.86
149.298
786.653
148.418
1504.11
146.202
246.67
146.202
3877.76
146.202
147.918
147.339
146.202
1907.15
146.202
3112.83
5164.29
146.202
146.202
1135.4
146.202
146.202
146.202
146.202
972.964
146.202
5269.78
16375.4
146.202
146.201
2685.14
146.204
146.202
336.032
146.202
146.202
146.202
146.202
711.844
722.482
1855.76
146.202
146.202
2184.7
146.202
1310.79
282.457
146.202
146.202
146.225
146.22
642.454
146.202
146.202
146.202
146.201
146.202
219.182
157.523
146.281
146.206
157.709
146.212
148.041
146.202
239.197
146.202
231.041
875.56
146.202
146.202
146.202
148.064
3158.59
146.202
879.668
146.243
146.202
146.232
146.265
146.202
146.221
146.202
949.419
146.202
146.202
146.202
146.203
146.202
853.161
4934.16
146.202
146.202
666.729
146.202
275.925
146.205
146.202
13561.1
5025.49
191.945
146.206
146.204
153.974
5185.99
146.202
12074.7
146.202
2811.45
2391.89
146.202
164.123
3342.8
1607.32
6472.47
818.554
146.206
146.202
146.202
151.021
223.638
151.017
5268.98
146.204
146.341
146.202
146.718
3141.19
1782.6
146.202
148.173
315.447
146.202
2694.33
146.203
146.201
146.202
6614.72
1689.36
1106.02
146.202
146.202
146.202
2837.59
146.209
3994.08
146.202
146.202
3304.75
151.639
146.202
146.202
7047.09
146.203
146.203
151.901
12575.1
148.279
147.236
146.202
13064
490.554
217.011
148.544
146.211
179.988
146.203
446.477
1633.46
159.297
206.516
468.774
166.146
5376.71
146.202
13752.9
2899.11
148.763
146.202
400.078
9245.48
146.202
1312.82
5787.79
146.201
201.476
146.202
7601.56
204.079
152.048
1907.97
1073.65
146.202
146.202
146.203
146.205
3573.44
146.202
466.365
3234.83
146.202
146.202
146.202
146.202
146.203
146.202
146.237
146.202
10349
146.202
30382.2
146.202
146.496
146.202
146.209
151.285
146.202
146.202
146.202
146.203
146.249
181.262
180.021
3756.99
146.312
146.213
146.207
146.202
146.205
146.258
146.213
146.202
148.12
147.507
178.22
146.207
146.215
146.217
146.994
146.572
146.202
153.437
146.209
147.036
178.243
146.041
151.394
146.206
146.272
160.849
150.434
146.202
146.249
146.245
146.208
146.344
146.208
146.209
146.663
146.204
146.215
146.203
146.213
157.652
146.202
411.845
146.215
146.658
146.202
146.202
146.669
579.747
158.589
146.209
146.202
146.202
6251.54
46.383
146.202
206.944
106.609
146.203
146.219
136.333
165.25
47.4809
146.215
146.212
166.406
146.202
101.12
146.206
146.202
146.202
146.202
146.202
146.202
146.202
146.202
146.202
236.068
146.213
146.202
146.599
146.202
146.216
160.956
146.202
146.202
378.485
334.313
146.202
146.226
146.201
146.202
145.229
146.204
146.202
148.204
146.202
146.202
146.202
146.202
146.202
146.202
146.676
146.719
1213.17
150.315
992.4
146.57
201.873
146.223
146.217
2718.02
146.221
146.203
147.575
146.217
1748.86
146.202
146.214
146.206
290.264
395.888
162.135
425.282
146.218
165.057
208.963
146.202
149.471
146.203
155.115
161.16
146.569
285.369
165.23
638.995
146.229
488.22
169.321
146.205
146.202
264.746
146.213
146.204
146.202
146.202
161.776
146.208
146.215
146.377
146.202
146.202
146.217
146.205
476.68
146.202
146.213
146.204
146.202
147.524
146.202
146.426
146.203
146.202
146.202
146.202
146.207
146.202
146.202
146.202
146.227
146.203
146.202
152.018
146.203
146.234
290.972
146.202
146.201
146.212
146.202
146.202
146.203
146.202
146.202
146.706
146.245
146.223
146.202
146.203
146.202
146.279
199.024
146.202
146.202
311.155
146.202
146.202
146.718
146.202
155.343
761.142
146.202
146.202
166.364
426.775
5712.44
146.203
146.201
146.202
146.203
146.34
146.207
146.201
146.202
146.203
2097.15
146.202
146.202
146.202
8660.97
2266.4
146.274
9082.8
227.669
146.203
146.216
146.208
146.205
146.203
148.346
146.283
146.202
179.108
9664.81
146.202
146.202
9462.56
146.887
7920.02
146.202
146.21
146.202
146.215
5967.71
146.202
6100.59
146.207
146.202
6083.75
146.203
146.202
145.715
6109.57
146.202
146.225
5937.37
146.203
146.246
5926.85
152.183
146.212
146.202
165.486
157.683
152.923
804.343
146.202
146.204
146.867
146.218
146.784
244.51
146.202
146.202
146.202
242.797
146.203
146.217
146.211
146.202
146.3
146.202
266.537
454.157
146.202
228.801
269.736
416.817
146.203
146.389
398.041
146.202
270.381
146.538
148.282
146.204
248.273
146.202
146.202
146.204
146.202
582.479
149.911
149.664
1345.59
176.185
146.202
146.204
153
146.202
146.204
146.205
238.804
146.203
163.007
146.203
147.421
679.982
152.273
146.206
199.298
3417.36
146.205
147.913
155.3
147.051
667.262
147.416
229.862
146.243
146.208
171.596
1123.57
141.935
146.208
992.595
1138.54
146.202
146.248
1134.48
146.208
146.235
147.862
669.671
146.459
146.202
19364.1
146.219
146.202
520.044
146.202
17460.8
146.202
148.953
174.015
1205.08
146.202
146.204
146.202
19447.9
146.22
148.431
146.204
18578.3
16726.3
147.394
146.202
157.144
302.29
2129.97
285.985
8297.91
146.202
146.219
146.202
146.206
146.202
146.202
146.202
146.204
146.203
146.202
146.203
3750.78
146.203
146.208
146.202
147.098
147.158
146.204
924.518
146.202
146.202
146.221
146.203
146.203
146.202
146.203
146.202
146.282
146.206
9631.48
146.202
146.918
167.933
7756.83
146.202
145.931
622.905
146.202
146.202
252.857
146.202
146.203
146.202
146.202
146.203
146.219
146.202
146.202
146.203
146.202
147.737
222.789
146.202
183.271
146.202
147.467
147.224
146.202
146.201
3999.07
146.202
146.133
146.202
145.954
146.184
146.202
146.202
15541.9
6217.48
146.202
1699.41
146.202
146.202
146.157
145.411
146.202
146.218
146.682
146.212
146.202
153.439
146.16
1015.3
3428.47
146.204
146.204
146.135
5665.91
146.202
146.202
146.202
146.202
146.202
146.202
146.202
211.444
146.135
146.202
146.863
259.6
311.711
146.202
996.41
1546.81
146.202
1539.43
14116.1
146.202
216.549
147.411
146.214
146.207
146.208
151.792
1578.16
146.209
146.208
146.213
146.202
146.213
145.849
772.266
148.788
146.204
146.202
146.234
286.176
146.21
146.217
146.202
668.321
217.185
146.202
146.184
146.202
146.208
463.542
1354.03
146.206
145.588
146.356
1674.53
146.202
146.202
8438.39
146.202
146.201
146.202
146.201
154.8
146.209
146.203
146.211
146.203
146.212
146.205
146.202
1230.15
974.567
146.202
145.318
146.202
146.202
146.201
5669.81
1216.73
19437.5
146.203
146.204
146.201
146.203
230.544
146.23
161.21
146.202
146.202
146.177
3358.21
4155.49
197.38
146.202
167.974
166.89
1914.02
168.693
227.635
155.396
3059.79
187.273
146.202
146.203
146.202
146.203
146.203
146.203
154.642
2996.02
267.502
317.148
189.953
146.203
176.429
173.57
151.427
158.685
263.833
179.014
166.998
280.021
146.202
1046.42
295.447
146.203
146.204
8473.66
146.202
146.202
221.417
3566.86
146.202
146.202
146.202
146.202
146.203
146.202
146.202
560.235
6781.3
146.202
146.203
146.227
322.323
4347.14
146.203
146.202
146.203
188.066
146.202
146.206
146.458
146.202
146.206
146.202
146.202
4184.92
175.618
146.202
146.202
146.202
146.203
146.199
159.116
146.202
146.21
146.212
146.202
146.317
146.202
146.203
146.202
146.202
146.202
146.202
146.205
146.202
146.202
1677.69
146.202
179.6
146.205
146.202
146.202
146.203
146.203
146.205
3747.72
150.91
1685.06
213.353
146.068
530.147
1022.02
150.634
179.713
977.528
662.947
146.202
146.206
146.201
146.202
146.201
146.202
146.234
149.533
146.201
5345.78
146.206
146.206
146.206
146.201
146.211
146.202
149.529
13290.2
220.904
146.202
146.201
146.206
255.766
146.203
146.21
360.047
146.207
355.383
146.202
146.202
146.193
343.259
300.177
346.192
414.142
150.902
224.361
6911.28
1346.47
412.71
146.202
146.205
146.202
146.202
735.981
3723.81
277.327
317.45
2901.37
2944.97
146.202
3898.83
178.058
146.205
146.202
146.201
153.384
183.307
146.757
146.201
153.507
2518.68
148.431
10597.2
182.362
179.611
5331.85
146.202
179.868
5355.84
181.573
146.202
146.206
146.948
146.202
146.202
5489.29
146.202
146.203
150.076
146.203
5602.13
152.437
146.203
159.721
180.482
184.808
255.822
183.924
147.644
192.867
146.205
146.202
191.911
146.337
178.039
176.518
146.231
146.887
147.698
3110.2
13876.5
146.202
146.215
435.923
146.202
23064.1
146.202
146.202
146.201
424.301
146.209
231.553
146.202
146.202
146.839
327.545
316.665
317.99
146.202
157.19
21487
5915.76
146.201
2216.66
177.541
182.649
18353.4
146.203
1973.23
146.202
146.202
146.202
146.202
146.202
146.211
146.202
18805.3
146.202
146.168
146.202
146.202
146.202
146.202
146.202
245.078
333.548
146.202
146.202
4839.24
146.206
22509.9
146.215
146.202
2183.42
146.203
146.202
146.202
22781.8
146.206
146.201
160.802
146.203
146.207
146.202
153.511
146.203
146.202
146.202
146.202
146.202
146.206
146.203
913.073
146.202
146.197
146.202
162.728
146.202
146.224
146.217
153.697
146.207
146.206
146.205
146.203
147.046
146.205
146.201
146.203
146.202
146.202
14251.4
146.202
146.201
146.203
146.207
146.203
436.503
146.203
146.203
146.203
146.21
146.202
146.204
146.202
146.203
146.202
146.202
146.203
158.004
146.202
146.202
146.202
146.202
146.202
146.202
6591.7
146.211
146.203
146.203
146.203
146.014
146.204
146.197
1009.09
146.461
146.572
146.202
146.202
146.201
146.203
6904.11
146.203
146.202
7002.6
146.202
146.201
146.202
146.202
146.202
146.206
161.754
146.202
146.202
146.202
7601.89
5583.66
7188.27
146.2
178.304
149.917
146.213
146.202
146.204
8153.47
146.202
146.202
146.202
146.219
149.453
146.202
146.202
146.202
146.374
146.213
149.107
179.902
146.202
147.55
5348.85
146.202
206.711
146.202
146.202
146.202
146.218
146.204
151.772
146.202
156.17
279.488
146.287
292.209
341.759
146.152
146.202
146.202
146.202
146.228
146.202
146.201
146.201
146.202
152.341
146.211
260.622
3046.95
146.202
379.077
146.868
599.864
146.212
146.201
745.798
146.202
146.201
146.202
984.063
322.144
394.457
146.203
405.749
146.202
146.206
146.202
146.209
146.202
3616.63
146.989
146.202
146.202
721.657
146.728
146.202
151.246
146.201
146.202
1113.34
146.202
146.26
146.201
146.897
146.204
146.203
146.204
146.202
146.204
146.203
12085.7
146.202
146.482
146.203
146.201
1559.69
146.202
146.203
146.202
282.409
146.205
156.908
200.552
870.643
146.202
7715.04
166.767
146.203
146.202
1201.48
147.074
146.202
2157.57
153.075
146.209
146.185
146.202
2743.98
146.202
146.203
146.202
146.202
163.555
146.202
11354.8
146.203
147.553
146.202
146.202
161.59
146.202
146.204
146.202
146.202
144.891
225.636
975.486
1206.56
1806.85
738.147
1358.18
146.204
146.202
146.202
2122.73
247.947
6166.98
224.351
146.218
6202.15
1986.99
4503.2
2437.9
146.202
828.083
2556.12
932.628
146.202
202.181
503.457
431.593
2679.7
943.886
583.548
262.069
146.214
308.511
146.206
312.309
146.081
4503.74
369.755
146.204
146.216
193.502
312.242
146.206
1831.99
146.202
146.202
302.083
146.206
146.202
146.209
146.202
149.084
146.202
41188.2
1112.72
146.202
146.202
370.53
146.203
8987.26
1500.1
373.332
146.198
146.202
146.202
2267.77
146.202
146.202
146.203
146.207
146.216
378.902
154.613
146.208
537.893
3685.01
146.202
146.203
224.753
146.213
146.213
4062.15
146.202
146.202
146.22
632.032
36869.9
1471.57
146.202
146.215
146.201
1913.12
209.769
574.91
279.827
146.202
146.214
146.202
146.65
146.202
172.079
1484.94
146.201
6238.67
146.202
146.202
224.084
146.202
145.558
146.217
3327.87
165.736
146.202
146.202
148.02
155.847
146.202
146.252
42541.6
146.203
146.218
146.218
146.202
146.202
146.202
146.202
146.202
146.208
146.202
146.216
2107.4
146.202
1238.14
9368.52
147.186
2351.83
146.202
154.33
146.203
146.202
1699.28
1213.32
6164.18
2504.32
147.31
148.876
146.202
146.591
151.111
147.749
215.299
148.039
146.209
1809.21
146.202
146.202
146.202
191.834
149.854
146.212
4832.46
146.202
146.209
146.202
1564.72
4037.1
146.202
760.023
159.24
1474.34
208.872
1179.91
146.201
146.203
149.877
146.208
146.202
146.202
146.202
146.202
146.168
146.202
153.287
1524.58
150.956
147.255
144.539
147.863
146.202
146.202
146.202
149.015
146.202
146.202
146.202
150.605
146.231
1113.05
150.35
147.61
146.89
469.865
146.214
149.614
146.202
146.203
146.589
816.076
153.562
146.215
146.202
146.207
153.051
146.204
683.642
145.646
1124.19
157.472
146.202
146.202
149.699
3374.06
146.203
154.132
148.937
147.195
146.202
147.846
146.217
151.804
146.202
146.202
225.544
146.327
146.203
146.202
147.609
3285.03
151.672
146.213
146.202
147.651
167.317
146.202
146.201
146.202
4707.98
152.214
14243.9
159.319
146.203
3453.11
3325.34
146.212
146.203
146.214
146.203
146.203
146.208
153.043
146.202
146.213
146.204
3488.49
146.202
146.202
146.202
146.202
1927.22
1262.43
146.202
3552.5
146.201
146.203
146.202
146.204
146.202
3488.84
243.688
146.202
146.202
148.071
146.205
146.203
146.203
146.202
146.206
158.218
146.214
143.569
146.202
146.202
146.202
157.621
146.202
146.202
717.138
146.202
146.186
146.202
146.207
4156.26
146.202
465.791
146.204
147.682
146.202
146.207
146.202
146.202
146.202
146.209
146.209
154.89
436.166
146.202
146.203
146.213
146.203
146.203
146.202
146.202
146.202
146.203
146.208
146.203
146.202
146.987
1285.97
775.904
146.599
152.002
146.204
146.204
178.736
146.203
164.369
146.216
147.018
146.202
146.202
146.207
146.202
146.203
146.202
163.653
148.209
146.202
146.202
146.202
146.21
146.22
146.209
146.201
146.202
146.202
148.375
163.73
147.388
146.206
146.202
164.795
165.6
148.021
146.206
146.216
146.202
146.179
146.202
164.65
146.238
146.21
167.321
146.833
148.684
164.435
755.713
159.891
146.205
37867.3
146.202
422.264
146.202
159.594
147.191
162.915
671.587
146.203
146.202
146.204
2561.54
1380.15
146.202
158.836
147.653
6081.26
146.202
146.202
146.202
146.205
158.1
146.203
146.205
146.207
146.202
146.209
146.202
1654.51
1249
146.981
146.202
146.202
152.512
146.202
146.202
1492.01
6079.38
1946.01
146.202
146.202
162.391
1550.38
146.202
146.201
1919.78
188.287
1900.82
146.204
344.05
146.225
146.202
146.204
146.202
146.202
146.202
146.21
146.202
146.202
146.202
146.202
146.202
146.202
146.202
146.202
146.202
146.202
146.206
146.202
146.201
146.202
146.202
146.202
147.12
153.346
151.477
146.202
146.202
146.202
146.202
265.894
146.202
146.202
146.206
146.202
146.202
146.202
146.019
146.202
146.202
146.202
146.202
146.202
146.925
146.201
146.775
147.667
344.346
146.201
146.202
154.912
146.202
146.202
146.202
146.202
146.202
146.202
146.202
146.211
146.202
146.206
796.409
855.301
146.202
146.206
146.202
146.202
146.202
146.202
146.202
146.202
1659.53
13931.6
146.202
11743.5
146.203
146.202
3093.67
6734.6
146.203
146.351
821.07
146.203
146.202
146.201
146.205
146.202
5831.91
146.203
7630.81
146.202
146.202
146.202
155.196
156.961
152.817
146.202
146.201
146.202
146.202
146.202
146.202
146.202
146.202
146.202
146.202
153.992
146.202
146.204
146.205
146.202
146.202
146.202
146.202
146.694
386.741
145.611
146.204
146.206
146.202
146.202
146.211
146.205
146.202
146.204
422.289
146.206
146.202
146.203
146.98
146.202
146.814
146.206
146.203
146.249
146.202
146.288
3969.82
242.827
146.222
146.202
146.293
222.523
146.208
146.201
146.202
146.202
146.285
146.206
146.219
185.305
1646.35
718.107
149.975
146.202
146.204
1559.69
146.209
146.215