/*--------------------------------*- C++ -*----------------------------------*\
| =========                 |                                                 |
| \\      /  F ield         | OpenFOAM: The Open Source CFD Toolbox           |
|  \\    /   O peration     | Version:  v2012                                 |
|   \\  /    A nd           | Website:  www.openfoam.com                      |
|    \\/     M anipulation  |                                                 |
\*---------------------------------------------------------------------------*/
FoamFile
{
    version     2.0;
    format      ascii;
    class       volScalarField;
    location    "5";
    object      ILambda_10_0;
}
// * * * * * * * * * * * * * * * * * * * * * * * * * * * * * * * * * * * * * //

dimensions      [1 0 -3 0 0 0 0];


internalField   nonuniform List<scalar> 
108993
(
146.203
171.609
146.203
146.202
146.202
146.202
213.617
146.202
146.205
146.222
146.202
146.202
146.202
146.203
146.202
146.238
146.244
146.203
146.202
197.318
146.202
146.202
147.85
146.202
146.202
146.202
146.203
204.29
180.63
146.202
146.204
146.202
146.203
146.204
146.202
146.202
146.203
146.203
447.546
10363.5
163.057
146.204
146.203
146.202
146.318
20246.5
146.203
184.038
146.538
184.595
146.202
146.291
150.885
146.202
146.203
146.202
146.202
146.202
146.203
146.202
146.202
146.202
146.202
146.202
146.202
146.227
146.202
146.202
146.203
210.39
146.202
146.202
146.202
146.202
146.282
146.205
146.202
146.215
146.202
146.202
146.203
146.203
146.203
146.202
146.202
146.203
146.202
146.202
146.202
146.202
146.202
146.203
146.202
146.202
146.202
146.203
146.203
146.205
146.204
146.202
146.202
146.202
146.202
146.202
146.203
146.202
146.202
146.202
146.202
8889.99
146.466
146.202
146.635
146.476
146.205
1581.67
146.202
146.203
146.23
146.204
146.203
146.203
392.184
146.202
146.202
146.27
159.898
146.203
146.203
146.202
146.203
146.202
146.205
151.376
146.203
146.202
146.203
146.206
146.202
146.203
146.202
146.203
146.246
146.202
146.202
146.202
146.203
9048.32
146.202
1872.13
1952.18
146.202
146.198
2672.63
146.204
147.565
146.202
146.202
146.202
146.545
3097.67
146.202
146.204
146.202
146.202
146.494
146.202
146.202
146.202
146.206
146.202
146.202
146.245
146.202
181.208
146.261
186.387
146.202
146.205
146.202
146.216
146.204
146.202
146.202
146.203
146.203
146.202
146.202
146.202
146.202
146.203
146.202
146.203
202.716
146.207
146.203
162.739
146.205
146.204
146.202
146.202
164.18
146.202
146.202
230.755
147.416
146.203
5408.36
146.205
635.904
210.75
146.204
188.666
1697.26
56912.9
146.203
146.202
146.203
146.202
146.205
147.393
631.3
146.204
166.765
146.201
146.202
146.202
146.203
148.847
146.202
3055.47
146.202
146.202
226.728
146.203
146.205
146.203
146.202
243.577
146.202
146.204
146.204
146.202
146.202
146.203
146.234
2512.58
361.073
146.202
146.202
146.204
146.202
146.206
146.206
146.202
146.202
146.202
146.202
146.205
146.202
146.203
146.247
146.293
146.275
146.202
146.202
146.203
149.776
146.202
146.205
146.202
146.203
2012.36
153.913
7927.77
146.206
146.203
502.565
146.202
146.951
147.322
24950.3
24679
146.202
146.203
146.243
146.202
150.33
146.202
4351.42
146.203
146.203
154.007
146.203
146.202
146.203
146.204
146.203
146.568
146.202
227.526
156.922
146.202
146.202
146.206
146.822
147.409
146.203
146.959
1608.82
146.202
146.202
146.229
146.202
151.877
197.412
146.202
146.234
5904.73
146.206
208.373
146.202
147.513
146.818
146.204
66726.3
157.581
168.691
146.204
146.203
145.967
235.443
192.28
146.204
1221.38
146.202
146.202
146.202
146.207
146.203
146.204
219.304
195.287
146.202
146.202
146.202
146.202
146.202
146.202
146.202
146.203
146.202
25386.1
3073.52
147.034
146.203
146.203
7892.4
146.202
146.202
146.21
188.06
146.202
146.202
146.279
202.779
146.202
146.204
146.202
586.596
146.212
146.22
146.202
1827.24
199.544
148.72
146.203
146.206
147.917
146.203
148.898
148.122
204.2
146.246
146.202
146.265
146.212
4579.35
146.282
7104.12
148.188
146.246
148.967
146.203
1217.69
169.946
195.086
146.202
146.28
146.205
170.186
660.742
636.629
146.203
147.282
146.242
146.304
146.203
146.203
157.433
146.203
155.113
790.798
146.202
146.202
146.205
377.116
230.404
3552.49
146.202
156.223
189.059
155.837
146.202
146.202
155.482
146.202
290.732
154.085
146.202
186.361
12031.2
155.877
146.203
146.203
146.225
148.576
146.418
146.202
146.204
146.202
146.203
146.203
146.252
231.015
203.849
210.558
146.242
146.203
146.224
146.203
146.202
146.203
146.204
146.202
146.202
146.202
146.261
146.203
146.202
160.581
146.203
337.112
1459.26
146.298
146.202
146.203
370.513
146.203
146.202
156.634
146.202
146.205
146.148
146.357
146.28
146.203
223.867
2885.38
146.259
146.203
146.205
146.206
146.202
146.205
146.202
146.203
146.202
146.241
146.203
146.202
146.203
146.27
146.202
146.322
146.202
146.205
146.203
146.203
154.446
146.202
146.204
146.203
146.202
146.399
190.355
146.202
146.204
1969.6
146.202
146.216
199.544
146.205
146.217
146.203
146.202
146.202
146.203
152.97
201.636
183.437
183.314
222.746
177.473
151.407
146.267
147.373
146.203
146.268
183.511
146.57
146.202
146.261
146.203
146.204
146.204
147.127
146.202
146.23
2905.31
146.202
4982.58
146.202
146.202
146.202
146.205
146.202
146.259
146.206
146.202
271.149
146.728
35189.4
146.202
146.202
146.202
146.203
192.615
7575.93
158.418
146.204
146.204
146.202
194.702
247.421
337.467
146.202
146.204
167.079
163.357
146.202
146.32
7696.26
256.802
272.478
156.371
146.202
248.492
153.595
216.264
146.203
146.203
146.203
146.202
146.203
146.306
21329.1
254.686
146.203
146.202
156.462
146.202
151.341
146.203
153.904
146.203
146.205
146.202
166.335
146.264
146.203
146.202
161.345
146.319
146.203
146.202
153.496
146.202
146.214
146.202
386.563
146.202
146.27
146.202
187.306
146.202
146.221
146.202
1845.91
146.202
146.535
146.202
146.203
5936
200.614
146.202
146.205
245.531
27939.7
146.263
216.914
146.979
275.988
20191.8
146.236
146.202
146.202
829.013
146.305
146.263
146.204
146.268
146.202
146.443
146.204
146.249
146.208
146.306
146.264
146.257
146.257
146.326
4037.15
8310.68
224.908
151.383
146.645
6299.01
186.535
7994.46
7007.17
146.203
146.212
146.203
146.202
159.741
146.308
146.264
3255.82
3350.08
146.298
225.027
146.36
8028.91
8982.3
146.202
150.786
158.132
146.207
11023.8
196.576
223.96
146.35
146.261
5440.93
146.294
182.93
161.221
156.463
5133.64
146.203
146.203
146.267
146.213
151.057
67999.9
146.231
1141.53
146.232
43078.4
146.641
146.203
146.202
146.202
146.281
146.202
146.344
155.119
146.204
146.202
152.252
4398.18
20785.1
146.203
19476.7
146.203
146.425
146.292
146.202
146.302
153.467
146.23
150.582
146.247
146.203
146.263
157.757
146.505
230.787
146.202
146.252
146.23
146.249
146.254
146.204
146.202
239.236
146.202
146.203
185.764
146.202
146.251
15092
2532.41
146.207
151.777
146.207
146.22
146.207
146.249
146.202
146.202
146.202
146.204
146.202
175.943
146.202
146.215
146.296
146.203
146.207
146.202
146.205
146.203
203.159
181.776
163.78
2096.6
146.202
146.203
146.203
231.523
146.203
278.984
213.128
146.204
146.203
161.4
360.603
146.215
146.202
146.367
146.203
146.203
151.764
172.21
194.662
146.202
146.206
208.276
146.202
14256.4
146.203
146.203
13579.7
146.293
209.128
147.108
149.152
146.202
187.718
146.265
146.202
146.203
146.272
146.204
146.202
146.203
146.203
146.204
146.203
163.402
146.202
201.385
146.203
172.143
148.474
146.202
20078.3
149.357
12633.6
146.222
146.203
146.234
570.296
173.45
147.062
147.854
265.131
189.305
264.03
5561.35
146.291
146.203
146.253
146.767
146.203
209.479
16574.2
146.203
146.203
146.203
208.934
146.203
148.243
156.001
146.203
146.202
136.098
146.203
205.289
146.203
136.605
146.203
191.048
146.278
146.257
151.421
146.203
146.264
146.261
164.393
154.732
23356.6
146.517
146.324
146.203
146.269
146.287
146.256
146.202
146.203
146.289
22832.1
146.203
146.239
146.286
204.856
206.611
288.144
4645.33
23112.6
147.765
146.385
147.822
1906.13
146.202
201.558
12830.4
171.45
146.202
146.204
146.218
146.25
146.73
147.58
146.202
146.29
147.927
146.202
148.07
203.963
148.823
1338.03
146.294
146.202
2954.75
201.084
146.39
207.461
146.202
146.202
146.296
146.871
4887.04
146.203
2810.39
146.251
146.296
155.236
146.203
146.247
146.323
149.083
146.202
146.214
146.225
146.871
147.03
146.202
147.246
146.202
146.249
146.335
146.242
146.299
146.203
148.634
146.202
2464.91
155.196
146.202
146.202
146.671
146.477
146.202
146.225
22973.2
146.343
199.184
146.206
146.297
222.158
148.667
146.203
146.393
719.119
146.311
146.224
146.289
146.186
146.587
7917.64
146.3
146.303
146.26
146.26
146.268
154.896
159.042
146.269
207.748
146.225
146.204
146.314
146.297
146.204
146.202
146.202
146.367
146.203
146.203
146.203
146.38
146.202
146.203
148.059
146.597
146.203
146.203
146.227
146.202
10899.6
146.202
146.202
146.327
146.202
146.44
7020.07
166.733
153.437
146.203
146.202
146.516
146.238
146.515
174.758
146.203
551.406
146.202
215.199
146.316
212.222
146.202
146.203
146.203
146.202
146.212
156.703
146.203
146.202
146.203
146.204
449.803
146.203
153.416
146.202
146.203
149.025
146.266
147.553
147.407
146.203
146.203
153.07
147.715
146.204
146.202
146.205
291.542
146.207
164.477
146.204
146.239
146.222
146.203
25576.2
146.565
146.255
183.161
8683.9
146.342
146.316
163.033
25437.9
147.647
146.203
146.202
146.264
146.241
336.22
146.256
146.711
146.205
156.019
146.28
146.203
146.262
146.799
146.236
146.221
147.156
146.277
146.24
146.204
146.202
146.202
146.203
146.202
146.202
146.205
155.587
167.371
18614.5
146.212
146.202
146.202
146.238
146.772
146.202
146.211
146.203
146.243
146.202
146.234
31700.8
146.292
146.202
351.123
146.214
146.203
146.203
146.203
146.202
157.339
14910.5
146.293
146.202
146.203
146.202
146.204
146.204
146.202
146.206
146.203
146.203
146.202
146.203
146.203
146.202
146.203
146.6
146.202
146.203
146.208
146.203
238.669
146.412
146.465
13269.9
146.203
146.202
146.233
146.202
146.204
146.203
147.437
146.203
146.202
146.394
146.207
150.942
146.499
146.767
146.203
146.203
157.876
156.604
146.203
146.202
146.204
150.695
146.125
146.203
3594.45
146.203
146.203
146.202
146.204
146.202
146.23
146.213
151.947
3653.99
168.835
150.231
151.504
147.803
197.034
146.214
146.202
146.251
1155.46
146.202
146.261
146.277
146.249
146.246
4611.57
176.333
146.202
146.443
146.203
147.02
146.445
146.306
146.203
146.205
146.203
146.208
146.205
146.202
226.984
11127.3
146.277
146.203
146.202
146.277
146.228
146.204
146.238
146.202
146.31
97750
146.54
2041.23
146.202
146.265
146.202
265.874
226.58
149.171
146.772
147.047
146.219
211.4
146.432
231.107
165.35
146.203
146.203
146.251
146.202
146.206
2181.96
146.203
146.205
146.203
250.442
146.203
146.203
183.11
146.203
237.433
1393.21
146.204
148.79
146.203
264.348
146.202
146.204
146.202
149.642
146.203
168.845
146.304
146.202
3632.79
146.202
147.582
146.205
148.11
155.429
146.203
146.239
146.492
155.956
197.379
148.185
146.203
146.285
146.203
2606.98
2669
2564.8
220.178
2609.37
146.203
2703.02
2646.18
146.275
146.252
146.202
146.465
146.203
146.205
146.203
146.36
146.203
146.287
146.295
146.293
146.202
146.203
179.621
146.204
184.199
179.996
146.203
147.036
221.247
183.455
247.612
146.596
153.521
160.919
148.8
146.284
146.202
150.519
162.253
184.311
146.204
146.204
148.006
146.204
163.064
146.204
146.3
146.204
146.247
146.337
146.209
146.203
146.472
146.202
146.209
146.204
146.204
146.211
146.631
146.273
153.35
211.999
146.206
236.97
5754.67
146.202
502.509
146.204
147.892
146.58
146.206
146.203
4715.23
653.689
146.261
146.21
1451.51
175.538
146.202
146.203
146.202
146.21
146.21
157.829
406.944
146.203
146.203
146.08
146.23
146.428
146.205
146.205
23318.3
15927.3
146.226
146.205
207.18
161.332
149.404
146.264
146.204
146.797
146.202
151.688
146.204
146.231
8028.75
146.273
146.228
152.439
263.101
149.381
146.285
52269
148.71
146.203
146.213
146.848
146.28
146.202
146.209
146.289
146.872
4274.55
146.209
146.21
6579.05
146.207
146.205
6674.89
146.207
146.203
146.21
146.203
11786.1
146.202
146.202
276.071
146.21
13678.6
146.209
5476.33
146.208
146.246
3702.72
146.228
146.237
24272.1
146.236
155.156
146.398
146.202
146.278
146.202
13884.3
146.276
146.202
353.086
146.202
149.91
11687.9
185.545
146.499
5068.45
146.202
83876.6
146.203
146.202
148.345
146.203
146.204
146.202
146.204
146.227
576.257
30011.1
156.285
213.757
146.227
146.202
146.203
146.218
146.294
146.203
570.779
168.912
146.218
146.203
146.202
146.313
146.211
146.203
146.778
146.203
146.203
146.203
151.983
24550.2
198.525
3160.26
79779.6
146.203
146.207
33100
146.202
146.202
146.209
2051.38
6799.09
211.668
29185.2
146.202
146.202
21817.9
146.202
151.998
146.202
146.202
146.39
146.202
147.217
146.202
146.867
23112.7
146.384
146.427
148.129
146.301
146.202
146.382
146.203
146.202
146.202
146.202
146.202
146.204
153.653
146.202
146.259
900.537
149.589
279.762
146.216
146.203
13184
24298.1
146.203
374.69
146.203
146.202
265.409
4137.12
785.046
424.594
146.203
10409.2
13548
238.222
146.202
693.215
259.242
266.258
928.298
146.286
1743.78
252.907
181.397
250.066
561.325
253.464
229.977
216.704
228.138
146.469
2183.65
11621.4
1307.98
146.205
146.203
18088
146.202
149.777
4421.16
146.203
2656.3
163.869
146.203
146.203
146.204
146.203
157.569
396.554
6356.57
573.06
204.862
146.202
173.364
220.195
147.018
146.202
149.189
146.204
146.203
154.645
146.204
146.942
146.204
146.203
146.282
148.711
173.934
146.523
19739.9
146.292
146.265
204.26
146.203
146.203
152.02
146.202
146.204
146.203
1023.09
150.108
146.599
193.627
9916.11
146.247
146.203
285.196
233.42
163.144
18994.9
147.602
146.217
146.146
193.467
147.259
216.408
146.202
146.203
146.202
146.202
19179.9
146.202
290.332
146.169
41486.2
196.538
146.202
149.147
8862.5
156.991
3875.35
213.877
146.202
14892.5
31557.6
146.202
147.049
245.842
146.267
275.01
146.202
277.698
23024.3
2945.8
281.388
5741.43
627.378
283.641
146.204
55022
66326.9
146.302
14027.2
146.211
146.769
206.083
146.203
29861
146.287
146.27
181.142
167.473
211.979
205.3
147.188
147.159
146.202
146.202
146.202
209.281
146.202
18004.9
3035.59
146.263
15463.9
146.486
146.202
146.268
165.037
6449.31
146.284
146.32
555.559
77665.6
56067.6
159.541
146.204
8984.64
148.399
146.203
146.203
1235.54
146.225
146.408
146.364
146.98
2226.18
3406.81
146.205
244.608
146.96
146.23
146.202
146.204
146.202
146.209
146.26
152.398
54004.3
38842.4
146.255
64882.6
146.867
4861.09
146.208
149.658
33945.3
48376.6
157.504
146.207
146.203
146.203
146.202
146.586
146.243
185.842
149.362
1420.29
242.782
146.333
1464.31
5114.45
26382.8
466.09
146.202
17936.2
356.319
146.203
146.202
10419.2
2290.27
146.202
146.204
146.202
147.293
146.202
15852.6
19428.4
5265.91
16462.4
146.203
156370
146.61
146.202
146.372
146.202
146.228
10313.8
146.239
146.226
11613.4
147.182
146.203
146.229
146.203
146.202
146.211
491.685
146.217
192.316
170.056
298.629
4347.62
146.945
160.005
160.313
146.203
146.204
146.203
727.36
9148.76
146.203
146.203
18958.8
146.204
146.202
146.203
146.204
157.591
4635.54
28037
369.425
3816.91
146.202
5066.47
146.204
1186.91
4394.58
146.202
754.631
146.203
146.203
11343.8
146.202
146.954
3778.26
951.345
6945.31
4792.4
146.205
325.848
381.764
2864.72
147.666
146.24
4497.01
6954.74
3187.02
863.225
149.018
146.205
374.441
154.292
2386.93
174.11
200.224
3934.62
146.217
146.202
14432.6
7348.06
314.686
761.236
506.755
152.206
12995.1
146.202
527.163
146.215
6896.63
146.203
300.609
1872.22
146.203
6857.59
146.203
2914.36
3935.93
146.203
146.203
1953.23
146.203
146.203
146.205
146.202
1520.46
146.24
4816.89
23886.9
146.205
146.202
8390.66
147.799
146.202
493.826
146.203
146.203
146.212
146.203
279.931
276.415
10029.8
146.203
146.261
3453.68
146.203
161.369
1574.7
146.205
146.202
147.275
161.252
761.59
146.202
146.204
146.202
146.203
146.201
163.491
1123.72
146.981
148.084
4203.84
156.747
146.286
146.202
390.562
146.239
210.725
3271.8
146.203
146.202
146.209
146.34
5110.72
146.202
493.064
146.241
146.202
146.245
146.254
146.203
148.053
146.202
10695.1
146.203
146.202
146.234
146.218
146.202
6437.38
176.008
146.202
146.202
3313.74
146.202
201.227
146.206
146.202
31056.2
11724.4
211.308
167.61
146.202
190.504
7474.44
146.202
13911.4
146.202
11627.7
4141.8
146.202
50126.6
5187.93
2141.18
27319.2
4116.69
146.303
146.202
146.232
146.884
191.421
146.258
8436.76
146.204
147.081
146.202
147.35
6564.34
5707.48
146.202
146.368
213.679
146.202
5562.56
146.202
146.202
146.202
6214.08
4064.48
4147.88
146.203
146.269
146.203
10179.5
150.846
14186.6
146.202
146.202
5887.98
24259.7
146.202
146.202
19672.6
146.202
146.202
200.841
13662
146.362
147.334
146.202
26564.9
11570
201.097
16285.2
147.554
38469.2
189.18
240.474
3550.83
4624.41
69607.1
46283.6
36474.2
103238
146.202
27473.7
5199.44
26850.6
146.202
34499.6
104210
146.202
3298.29
83712.3
146.202
26931
146.202
11661.5
573.052
380.752
3708
2804.93
146.202
146.202
146.398
146.209
23298
146.203
1113.9
222.284
146.259
146.241
146.248
146.203
146.205
146.202
149.603
146.223
9205.75
146.203
2164.49
146.26
151.03
146.203
146.317
224.19
146.26
146.262
146.203
146.204
146.23
377.803
379.289
167.833
150.942
152.301
148.784
146.203
146.34
146.255
155.544
146.202
146.379
146.31
294.491
149.404
156.094
170.587
146.658
146.238
147.97
225.693
146.218
146.274
259.898
148.378
79832.5
201.914
146.228
147.531
55886.1
146.202
147.146
146.949
151.268
147.09
147.19
203.254
149.744
169.857
169.959
146.202
146.228
18382.9
146.203
201.037
170.388
149.531
146.203
146.202
148.541
146.705
146.385
181.572
146.202
146.202
5081.4
106.581
146.381
216.73
183.487
146.204
146.304
146.335
256.117
152.45
184.42
147.473
270.204
146.202
209.406
146.259
149.819
146.203
146.204
146.203
150.368
146.202
146.203
153.43
203.857
159.238
150.615
146.463
154.74
146.327
273.972
146.203
151.709
320.743
335.461
146.203
146.272
147.389
147.019
248.171
149.575
146.202
146.486
153.211
146.203
146.203
146.203
146.209
146.202
146.246
146.329
5255.82
146.481
2062.13
146.257
146.27
146.3
174.569
6020.86
146.268
146.206
147.253
146.313
7212.32
146.203
146.292
146.303
277.021
536.179
268.609
492.653
163.951
261.379
320.58
146.202
149.833
146.202
200.5
275.093
146.279
322.767
299.973
417.222
146.317
345.432
296.78
146.207
146.202
148.142
146.273
146.222
146.203
146.204
288.73
150.284
146.343
146.25
146.202
146.202
157.587
146.244
211.994
146.203
146.233
146.205
146.202
242.283
146.203
146.885
146.203
146.204
146.202
146.203
146.266
146.203
146.203
146.203
146.243
146.203
146.203
272.789
146.203
146.26
26239.3
146.202
241.787
146.223
146.203
146.202
167.726
146.202
146.203
146.316
146.281
146.273
146.202
146.206
146.202
146.286
146.357
146.202
146.202
146.347
146.202
146.203
146.302
146.202
224.678
212.975
146.209
146.202
146.25
14680.7
5026.48
146.203
146.202
146.202
146.203
146.917
147.765
146.202
146.204
146.21
3795.06
146.202
146.204
146.204
20627.4
214.649
146.302
19680.1
146.485
146.205
176.189
146.276
189.683
147.625
237.03
147.003
146.203
218.371
20008.3
146.202
146.203
21966.2
146.89
22565.3
146.202
146.304
146.203
204.606
8071.57
146.203
8401.36
146.226
146.202
7849.61
146.217
146.202
213.83
8639.25
146.204
146.291
7345.33
146.208
146.262
8501.6
160.654
146.213
172.092
382.732
633.408
151.206
2764.62
146.204
146.203
146.541
153.543
146.577
220.133
146.203
146.204
152.009
197.029
191.385
156.355
152.73
146.202
147.743
151.21
208.243
10141.9
146.701
209.516
193.817
11242.6
146.203
146.744
21826.3
146.205
228.486
146.389
146.528
146.202
195.853
146.203
146.203
146.22
146.203
195.525
150.132
149.478
8067.51
198.983
146.202
146.225
157.315
146.203
146.202
150.593
213.168
146.206
197.738
146.203
146.557
8982.41
164.003
146.462
191.205
211.807
193.92
147.846
153.21
146.317
212.667
146.247
216.252
146.283
214.172
161.968
254.298
146.641
146.266
243.036
220.57
146.202
146.896
244.896
146.287
147.402
146.334
15323.7
147.719
146.22
23675
166.497
157.699
150.802
146.312
23793.4
146.203
33750.8
157.862
1906.03
146.203
146.202
146.202
22818.7
146.27
26776.1
146.206
22445.1
22702.9
146.572
146.202
59579.7
211.262
226.163
25177
221.644
146.203
146.263
146.203
146.298
146.84
146.204
146.202
193.873
146.208
146.202
146.203
45666
146.202
146.241
146.202
146.822
146.503
146.781
241.135
146.202
146.203
146.282
146.204
146.203
146.202
146.204
146.202
146.304
146.217
29787.8
146.202
159.857
146.868
14670.8
146.202
149.516
580.005
146.202
146.203
18832.5
146.203
146.224
146.202
146.202
146.202
146.261
146.202
146.202
146.203
146.202
146.32
44116.6
146.202
146.25
146.202
146.365
146.418
146.202
146.203
8546.97
146.203
146.236
146.202
197.015
146.329
146.202
146.202
19144.1
12560.6
146.205
210.844
146.202
146.668
146.236
156.109
146.202
208.781
146.505
208.736
146.202
247.597
146.227
186.277
4691.9
171.725
191.707
146.249
11092.1
146.202
146.204
146.203
146.203
146.203
146.203
146.203
146.78
146.221
146.215
197.74
186.025
341.343
146.202
262.706
198.441
151.318
261.46
49150.1
146.553
148.223
444.219
145.857
204.388
182.937
149.037
263.173
146.501
146.501
181.493
146.202
146.376
211.975
150.238
254.213
146.226
146.229
147.826
189.871
146.395
165.387
146.236
1814.92
172.39
146.202
153.185
146.801
218.3
261.682
9094.54
147.618
169.479
147.638
209.416
146.202
146.202
26971
146.202
146.202
146.202
146.202
149.281
146.227
146.215
146.266
146.23
198.708
148.348
146.202
7596.02
1026.81
146.202
259.458
146.202
146.202
146.202
9100.74
896.717
20664.2
146.203
146.203
146.202
146.48
164.817
146.211
19231.1
146.204
146.202
146.257
9290.6
17155.1
146.94
146.202
28304.6
27309
226.756
26902.4
193.732
219.589
6135.79
307.132
146.203
146.203
146.203
146.203
146.202
146.203
5336.63
10506
306.214
402.71
179.303
146.207
290.084
259.264
137.873
146.668
203.818
148.33
25250.3
540.292
146.202
192.001
329.326
146.206
146.203
17975.2
146.204
146.202
171.224
8582.35
146.202
146.202
151.574
146.435
146.206
146.202
146.202
194.181
26039
146.202
146.204
146.238
306.697
232.243
146.203
146.202
146.204
171.969
146.203
172.018
150.101
146.202
209.352
146.202
146.203
6738.4
157.228
146.203
146.202
146.203
146.203
159.317
148.061
146.202
208.233
163.963
146.204
148.208
146.202
146.202
146.202
146.203
146.203
146.203
146.219
146.203
146.203
3357.42
146.202
70397.7
146.221
146.202
146.203
146.202
146.202
146.222
221.726
48581.8
4676.67
51873
147.014
197.415
198.178
44542.3
48871.4
152.95
1486.44
146.203
146.223
146.202
146.203
146.202
146.203
146.902
2255.79
146.202
10518.4
147.616
159.161
146.223
146.202
151.813
146.204
250.941
17797.6
209.821
150.284
146.202
152.106
197.602
146.223
146.259
11180.8
146.224
6382.22
146.202
146.202
208.896
2683.91
6892.1
7791.44
4414.63
1431.11
228.943
17910
2438.28
8698.77
146.202
197.715
146.202
146.203
226.014
11583.4
150.421
253.547
10998.5
10593.2
146.205
11096.1
159.171
146.204
146.202
146.202
281.379
234.605
146.841
146.202
546.232
6238.8
171.087
18480.3
208.596
147.167
6353.32
146.202
146.355
5159.29
146.499
146.202
204.361
146.903
146.202
146.222
6598.77
146.21
146.197
55717
146.41
5909.36
40312.1
157.086
190.054
296.919
288.223
246.765
293.421
146.917
233.642
149.415
146.202
245.99
146.408
291.084
297.794
146.255
147.049
146.248
231.197
24472.4
146.202
162.404
365.655
146.202
25592
146.202
146.203
146.202
356.348
157.005
254.3
146.432
146.203
146.948
363.078
351.852
146.681
146.203
153.169
25047.8
9488.7
146.202
3834.7
7342.84
240.252
23809.5
146.205
3625.9
146.202
146.207
146.202
146.203
146.223
192.928
146.221
24426.7
146.214
229.456
146.202
146.202
146.202
146.202
146.202
147.854
216.188
146.202
146.203
5461.18
193.852
25241.1
146.241
146.203
4808.32
146.207
146.203
146.203
24396.3
147.963
146.202
253.857
250.406
148.985
146.202
248.805
146.204
146.202
146.202
146.202
146.203
148.38
146.216
490.341
146.202
213.567
146.202
517.209
146.202
146.211
164.095
146.556
148.935
148.392
147.522
163.367
146.666
150.2
146.202
146.204
146.202
146.202
14435.9
146.202
146.202
146.202
149.804
146.203
215.523
146.204
146.205
180.382
146.302
146.203
146.205
146.204
146.205
146.203
146.202
146.203
224.455
146.202
146.202
146.202
146.202
146.203
146.202
10811.8
146.232
146.219
146.203
146.202
215.907
146.203
199.966
256.08
146.34
146.958
146.202
146.203
146.202
152.814
5391.3
146.203
146.202
5765.42
146.202
146.202
146.204
146.202
147.855
156.364
210.018
146.203
146.202
146.203
6698.8
5210.49
6492.48
206.881
7843.1
1371.02
153.15
146.203
195.904
6606.98
146.203
146.603
146.203
190.241
153.841
146.202
146.203
146.368
173.828
221.577
217.119
297.91
146.822
1195.52
161.165
146.961
202.173
152.097
146.203
146.796
164.113
149.503
184.262
146.936
2314.69
160.852
328.785
12807.1
239.875
212.665
147.033
146.217
158.535
146.302
146.982
147.615
147.777
146.861
58876.3
219.479
147.641
208.8
146.209
271.311
319.872
785.375
216.291
147.725
523.031
146.184
147.67
146.202
7037.08
317.537
273.503
146.202
305.487
146.203
146.274
146.202
146.258
146.202
8225.45
201.363
146.203
146.203
150.462
241.708
146.203
30341.6
147.674
146.203
10395
146.203
166.891
147.605
228.9
166.394
146.202
165.817
146.203
214.323
158.303
28561.8
146.202
146.333
165.197
226.964
3354.45
146.202
157.404
146.202
3151.98
146.6
1592.93
19824.8
2149.25
146.202
8440.65
483.138
157.779
149.871
7228.82
148.095
146.203
3530.45
151.959
146.31
193.001
146.203
3578.4
146.202
146.202
146.203
146.463
37134
146.417
91122.3
158.698
146.425
146.487
146.208
146.258
146.435
146.59
146.203
146.21
227.522
167.354
3537.24
264.674
3830.53
1238.98
3633.74
146.638
146.203
146.204
4392.13
19023.1
9258.56
212.943
171.832
189.278
3963.53
12243.5
7586.27
146.204
30152.4
11763
3691.56
146.205
223.2
1931.81
2306.19
8680.67
1661.9
648.228
195.882
146.317
483.178
146.14
1663.7
210.864
7774.84
1525.62
146.299
149.301
293.666
2167.94
210.556
146.509
146.202
146.202
1145.56
146.213
146.861
185.185
146.202
286.879
146.203
144865
146.889
146.202
156.405
832.745
214.375
28212.2
8717.5
4406.09
216.344
146.203
146.202
5209.02
146.203
146.203
146.226
146.261
216.048
1242.69
229.257
146.213
4512.78
6692.07
146.202
149.441
774.393
148.31
213.269
7485.77
146.202
146.202
146.212
916.186
67804.1
5010.23
146.251
231.937
146.202
3495.27
36684.1
557.286
8485.76
146.202
146.212
146.202
148.046
146.204
9257.64
2563.64
146.202
7642.96
146.202
146.202
896.317
146.202
213.467
146.209
5037.98
153.373
146.202
146.202
146.288
30065.3
146.202
147.076
70865.7
146.199
149.267
146.219
146.202
146.203
146.202
146.202
146.202
183.164
146.202
215.414
401.87
146.203
3913.91
7574.51
207.089
516.473
146.203
280.464
180.95
146.202
1016.05
6489.19
7168.75
1128.44
2267.35
54116.9
146.541
146.912
178.945
586.806
25530.1
146.363
202.925
25868.6
146.203
146.202
146.203
216.247
148.681
228.909
6233.82
146.203
146.238
146.264
1968.89
10281.4
146.204
23729.3
1438.44
221.125
5332.93
37264.7
146.202
148.879
1802.95
187.68
146.201
146.204
146.677
146.204
168.561
146.202
492.632
3462.72
9753.66
146.789
220.38
146.637
151.299
146.203
146.204
17411.7
146.202
146.202
146.202
34107.3
148.002
8949.21
172.352
146.357
147.411
971.575
212.308
156.829
147.765
148.53
148.671
7830.71
324.202
188.64
166.059
147.85
1678.79
154.618
59968.9
882.904
187.152
1449.11
146.366
146.239
3870.87
228.43
147.544
199.539
149.682
146.574
146.202
192.534
147.144
16625.3
146.217
146.202
201.742
146.376
146.202
146.203
147.139
4883.33
146.771
183.339
146.222
148.248
148.012
146.226
146.202
146.203
13357.3
6039.7
77575.6
180.652
146.211
5134.24
5050.47
187.977
146.214
206.795
146.236
147.346
146.261
5014.46
146.219
217.891
146.691
4769.45
146.202
146.205
146.202
146.248
2981.85
4109.95
146.856
4937.16
210.135
146.256
146.208
146.221
146.206
5235.91
154.477
146.202
146.202
146.284
187.201
178.389
151.299
146.226
146.266
148.44
169.068
229.902
146.324
146.213
146.202
148.721
146.207
146.202
4264.76
146.214
228.352
146.514
146.209
11096.9
147.761
214.682
217.283
207.707
146.202
176.273
146.237
146.202
146.202
213.072
210.666
147.97
7781.28
146.308
146.413
192.426
146.203
146.854
146.214
146.219
163.716
146.737
196
146.825
146.203
146.272
19093
3045.68
164.469
24431.8
148.431
193.241
2005.22
147.209
41119.4
205.724
236.998
155.447
146.202
147
146.202
146.552
147.348
173.864
24183.6
146.237
146.254
152.045
211.668
170.532
148.26
147.295
153.377
146.327
146.316
182.165
146.292
199.88
146.244
172.778
197.437
146.264
200.694
192.037
148.336
146.628
146.283
288.889
147.098
156.05
210.812
272.395
55869.9
190.58
11831.5
4682.05
146.208
105749
146.248
10555
146.678
5357.56
146.678
7279.45
1657.72
146.207
146.175
152.619
3535.71
11622.7
146.203
5906.13
234.207
7591.92
146.202
148.41
146.202
146.851
170.533
146.324
153.978
148.006
146.308
182.861
146.202
531.295
21853.2
146.943
146.54
146.202
2785.04
146.205
146.202
276.328
7801.1
254.186
146.202
147.52
2029.77
265.829
146.202
146.202
3298.19
166.64
4054.69
146.376
388.343
146.266
146.202
187.3
146.202
146.202
168.881
239.458
146.202
146.202
146.213
160.823
170.563
146.205
146.238
148.625
146.202
146.233
146.21
146.74
146.202
146.202
146.202
146.203
195.411
2263.71
153.745
146.202
146.202
146.202
146.202
582.774
146.202
146.333
174.881
146.202
146.242
146.202
227.315
146.214
146.202
146.927
146.202
146.504
146.277
147.367
146.288
146.289
1924.86
146.202
146.374
146.287
148.119
146.203
146.293
146.203
146.206
146.176
146.202
155.752
160.389
157.016
2948.41
2303.63
146.366
157.585
152.5
146.202
146.202
146.202
147.407
146.202
2904.4
107985
146.203
97401.4
150.282
146.202
80407.1
83562.1
146.204
146.914
1036.09
146.242
146.202
146.202
174.865
146.202
93342
151.296
109265
146.442
146.202
150.018
147.981
149.229
148.804
147.613
146.937
146.202
146.203
146.209
146.202
146.202
146.206
146.202
146.204
147.879
146.153
151.087
157.666
148.149
146.473
146.202
146.228
147.083
152.26
205.041
146.204
184.354
148.179
146.602
200.786
146.334
150.059
146.334
149.744
190.577
146.202
159.808
146.432
146.199
299.216
158.746
182.74
146.267
146.395
146.281
11248.7
203.783
173.67
146.202
146.27
208.519
156.168
146.202
146.732
146.392
146.251
169.631
148.116
208.803
2560.15
8046.95
150.701
146.202
150.111
2690.23
169.174
213.225
149.832
146.205
146.212
159.668
1695.41
8201.46
509.514
236.913
3575.67
146.514
183.195
167.737
2563.17
146.671
146.38