/*--------------------------------*- C++ -*----------------------------------*\
| =========                 |                                                 |
| \\      /  F ield         | OpenFOAM: The Open Source CFD Toolbox           |
|  \\    /   O peration     | Version:  v2012                                 |
|   \\  /    A nd           | Website:  www.openfoam.com                      |
|    \\/     M anipulation  |                                                 |
\*---------------------------------------------------------------------------*/
FoamFile
{
    version     2.0;
    format      ascii;
    class       volScalarField;
    location    "5";
    object      ILambda_2_0;
}
// * * * * * * * * * * * * * * * * * * * * * * * * * * * * * * * * * * * * * //

dimensions      [1 0 -3 0 0 0 0];


internalField   nonuniform List<scalar> 
108993
(
146.203
146.209
146.203
146.202
146.202
146.202
223.04
146.202
146.202
146.203
146.202
146.202
146.202
146.202
146.202
146.204
146.207
146.202
146.202
146.205
146.202
146.202
153.414
146.202
146.202
146.202
146.202
146.21
146.203
146.202
146.202
146.202
146.202
146.203
146.202
146.202
146.202
146.202
419.997
6068.05
146.399
146.203
146.203
146.202
146.967
19099.8
146.202
169.209
146.202
146.208
146.202
7467.61
146.204
146.202
146.203
146.202
146.202
146.202
146.202
146.202
146.202
146.202
146.202
146.202
146.202
146.202
146.202
146.202
146.202
170.058
146.202
146.202
146.202
146.202
146.202
146.201
146.202
146.203
146.202
146.202
146.202
146.202
146.202
146.202
146.202
146.202
146.203
146.202
146.202
146.202
146.202
146.202
146.202
146.202
146.202
146.202
146.202
146.203
146.202
146.202
146.202
146.202
146.202
146.203
146.202
146.202
146.202
146.201
146.202
4624.81
200.146
146.202
669.46
5961.76
146.204
650.575
146.202
146.206
146.212
146.201
146.202
146.202
318.685
146.205
146.202
146.206
146.409
146.202
146.202
146.202
146.202
146.202
146.202
2564.73
146.203
146.203
146.202
146.203
146.202
146.202
146.205
146.202
146.222
146.202
146.202
146.202
146.202
7801.06
146.205
379.729
365.178
146.202
146.204
359.875
146.202
1097.37
146.203
146.201
146.201
317.036
360.495
146.201
146.202
146.202
146.202
5492.63
146.202
146.202
146.202
146.206
146.202
146.202
1889.54
146.202
146.203
146.202
152.831
146.202
146.203
146.202
146.203
146.202
146.201
146.205
146.202
146.203
146.202
146.202
146.202
146.205
146.205
146.201
146.205
146.73
146.204
146.204
146.344
146.205
146.202
146.205
146.202
192.215
146.202
146.201
204.914
147.407
146.202
1951.23
146.202
149.599
226.613
146.204
152.874
1127.11
52828.9
146.202
146.202
146.202
146.201
146.201
146.202
368.778
146.204
146.286
146.202
146.202
146.201
146.202
11072.9
146.202
4395.35
146.202
146.202
146.339
146.202
146.202
146.201
146.202
203.766
146.201
146.202
146.202
146.202
146.201
146.201
146.206
1106.95
302.622
146.201
146.202
146.202
146.202
146.202
146.205
146.201
146.201
146.201
146.203
146.201
146.202
146.202
146.202
146.213
146.207
146.202
146.202
146.202
146.202
146.202
146.202
146.202
146.202
1700.72
157.212
6052.6
146.204
146.202
874.39
146.205
146.202
146.202
24428.9
24176.7
146.202
146.201
146.204
146.202
146.202
146.204
3850.89
146.202
146.202
146.202
146.202
146.202
146.202
146.201
146.202
146.226
146.202
260.42
165.389
146.202
146.202
146.202
146.449
146.201
146.202
146.517
1486.39
146.202
146.202
146.205
146.202
147.237
347.413
146.202
146.205
8835.51
146.202
146.214
146.202
146.209
146.208
146.204
360.877
153.728
226.195
146.202
146.203
146.202
349.391
9953.49
146.201
1156.1
146.202
146.202
146.202
146.203
146.201
146.202
185.616
146.203
146.202
146.203
146.202
146.202
146.202
146.202
146.202
146.202
146.202
25158.2
2309.17
146.201
146.202
146.202
7347.31
146.202
146.202
146.204
146.203
146.202
146.202
146.202
146.205
146.202
146.202
146.202
154.488
146.209
146.203
146.202
203.793
146.205
148.902
146.203
146.203
147.716
146.204
169.499
148.58
146.204
146.218
146.202
192.312
146.203
5333.51
146.202
3199.47
148.146
208.562
149.593
146.202
1047.29
146.202
152.235
146.202
146.21
146.202
146.203
995.63
563.452
146.202
146.202
225.623
204.73
146.203
146.203
154.444
146.203
146.222
176.341
146.202
146.202
146.202
273.83
165.243
2434.56
146.202
153.827
146.209
150.852
146.202
146.202
153.347
146.202
824.013
151.998
146.202
151.914
11556.4
151.72
146.201
146.203
146.203
146.202
146.202
146.202
146.202
146.202
146.202
146.202
146.202
180.2
146.334
146.239
1470.95
146.202
146.202
146.202
146.202
146.202
146.203
146.202
146.202
146.202
146.202
146.205
146.202
160.089
146.204
168.299
491.597
146.22
146.202
146.202
180.075
146.202
146.203
168.618
146.202
146.201
146.205
146.201
146.209
146.202
215.135
1816.63
146.222
146.202
146.201
146.202
146.202
146.204
146.203
146.203
146.203
919.112
146.203
146.202
146.202
146.209
146.203
146.234
146.202
146.204
146.203
146.202
146.202
146.202
146.201
146.202
146.202
146.298
323.581
146.202
146.202
4210.16
146.202
146.208
146.387
146.201
146.203
146.202
146.201
146.202
146.202
146.203
146.865
146.203
146.203
146.229
148.672
146.202
146.293
171.699
146.204
146.434
149.814
146.209
146.202
146.319
146.202
146.204
146.203
2435.19
146.202
146.204
1944.99
146.202
3808.64
146.202
146.202
146.203
146.202
146.202
149.296
146.207
146.202
293.151
146.207
31619
146.202
146.202
146.202
146.202
146.228
154.108
146.202
146.203
146.202
146.203
146.703
216.227
381.811
146.202
146.202
146.246
146.438
146.204
146.206
5881.42
194.488
497.672
147.896
146.203
229.539
151.63
156.626
146.203
146.203
146.202
146.202
146.202
146.231
20860.3
193.059
146.202
146.202
146.779
146.202
146.204
146.202
154.24
146.202
146.202
146.202
146.29
146.213
146.202
146.203
156.832
146.209
146.202
146.202
157.463
146.202
146.205
146.203
3028.72
146.204
147.633
146.204
146.465
146.202
146.205
146.202
1283.91
146.202
11369.5
146.202
146.202
4485.09
146.23
146.202
146.201
155.316
25349.8
146.205
384.228
146.202
284.028
262.59
146.205
146.202
146.202
562.553
146.444
4414.9
146.203
5754.47
146.202
146.208
146.202
146.205
146.203
899.255
146.285
146.205
146.205
146.247
2451.66
10323.2
217.471
146.205
146.408
10339.8
194.579
10332.4
10349.1
146.202
146.204
146.202
146.202
146.218
162.742
146.205
1955.91
1655.16
146.212
155.322
8709.73
10373.1
10141
146.202
146.311
165.344
146.202
7867.53
147.295
195.718
146.215
146.205
4377.45
146.207
180.1
170.453
163.884
212.568
146.201
146.203
1337.29
146.204
146.21
517.187
146.224
982.597
146.214
1520.55
593.058
146.202
146.202
146.202
146.217
146.202
146.555
147.222
146.202
146.202
148.088
2600.85
5396.22
146.202
2794.81
146.202
3196.23
146.218
146.202
3994.69
146.203
146.205
786.924
146.205
146.202
146.205
264.241
512.001
170.128
146.202
2639.37
146.205
146.204
146.205
146.202
146.202
214.723
146.202
146.203
162.117
146.202
146.207
9797.63
1636.25
146.205
198.307
146.205
146.206
146.205
146.212
146.203
146.202
146.202
146.205
146.202
156.068
146.202
146.203
146.223
146.202
146.205
146.202
146.205
146.205
183.393
146.236
146.806
1157.64
146.202
146.202
146.205
196.23
146.202
613.05
298.824
146.202
146.205
156.174
561.464
146.203
146.202
143.237
146.205
146.205
177.352
146.205
146.91
146.202
146.202
199.167
146.202
13299.8
146.202
146.206
9820.44
146.206
230.691
299.694
148.475
146.202
149.215
146.207
146.202
146.203
146.205
146.201
146.203
146.202
146.202
146.202
146.204
146.372
146.202
184.164
146.206
1163.82
146.402
146.202
480.75
146.451
155.429
146.203
146.202
146.204
136.521
146.219
146.437
161.478
222.133
147.363
233.883
1740.36
146.236
146.205
155.903
146.347
146.204
238.994
9563.18
146.204
146.202
146.205
183.835
146.205
147.183
169.863
146.204
146.202
200.119
146.205
204.167
146.204
187.819
146.205
146.801
433.072
146.226
209.667
146.202
440.572
460.769
151.859
157.186
24907
146.202
146.202
146.203
146.251
146.206
146.234
146.202
146.202
146.209
23791.8
146.203
146.227
148.93
246.187
146.262
221.454
9430.32
23224.5
157.874
596.171
141.557
10292
146.202
11361.2
11194.6
156.759
146.202
146.201
146.223
146.21
572.737
146.202
146.202
146.222
149.213
146.202
450.007
146.363
146.202
9823.96
146.202
146.202
11504.9
157.88
146.202
174.423
146.202
146.202
146.216
5265.67
9927.48
146.204
10342.5
146.237
146.217
146.208
146.203
146.208
317.627
146.21
146.201
146.205
146.202
8018.22
146.202
146.202
146.847
146.202
368.929
146.234
146.208
146.213
146.202
160.438
146.202
3741.34
146.668
146.202
146.201
1067.03
5203.8
146.202
146.21
1087.97
2363.16
263.467
146.202
146.211
171.829
150.552
146.202
146.29
673.928
146.214
146.219
146.211
146.206
4530.09
7048.97
4518.07
146.292
146.237
146.206
146.221
146.214
146.278
146.251
397.608
146.21
146.201
146.204
146.285
146.202
146.202
146.202
146.358
146.205
146.203
146.205
146.203
146.206
146.205
146.203
2681.71
146.205
146.203
146.203
146.202
7030.28
146.202
146.202
146.205
146.202
146.203
4347.04
151.69
146.244
146.205
146.202
2796.39
152.452
2623.03
146.206
146.205
463.935
146.202
146.274
147.393
230.956
146.202
146.205
146.205
146.202
146.203
154.111
146.202
146.202
146.204
146.201
942.902
146.204
159.127
146.201
146.204
157.441
3336.29
169.214
367.751
146.204
146.203
148.633
520.983
146.206
146.202
146.201
164.913
146.202
159.969
146.204
146.244
146.205
146.201
25090.9
1137.71
146.218
156.976
4558.47
146.214
146.234
156.494
25334.3
146.202
146.203
146.202
2084.46
146.224
7236.72
146.229
171.798
146.205
146.686
146.237
146.205
146.244
4916.98
146.243
146.204
145.795
1855.19
773.109
146.202
146.202
146.202
146.202
146.202
146.202
146.203
10972.5
146.202
8049.77
146.204
146.206
146.202
344.129
3038.15
146.202
146.204
146.202
146.205
146.202
146.206
482.638
146.208
146.202
247.539
146.202
146.202
146.202
146.201
146.202
146.926
13240
148.37
146.202
146.202
146.202
146.202
146.202
146.202
146.205
146.202
146.202
146.202
146.205
146.205
146.202
146.203
146.202
146.202
146.203
146.207
146.205
156.993
3768.28
6457.95
12764.5
146.206
146.202
146.204
146.202
146.203
146.205
146.209
146.203
146.205
7518.64
146.202
176.367
146.207
146.208
146.205
146.202
155.814
151.555
146.204
146.202
146.202
150.994
146.204
146.202
3377.95
146.202
146.202
146.202
146.202
146.202
147.311
146.212
146.209
3362.6
146.207
146.205
146.208
147.726
148.339
146.215
146.202
146.202
354.674
146.202
1033.55
245.303
265.178
213.537
255.269
169.69
146.202
146.322
146.202
146.606
146.293
205.889
146.202
146.205
146.205
146.205
146.203
146.202
412.186
4903.08
146.245
146.202
146.202
146.247
146.202
146.201
146.202
146.202
146.202
1092.73
146.361
1252.75
146.203
148.574
146.202
169.929
183.343
150.162
146.202
146.445
146.205
233.348
146.612
236.178
4983.24
146.202
146.202
146.205
146.202
146.203
1981.77
146.203
146.203
146.202
259.635
146.204
146.202
146.331
146.203
169.028
1373.26
146.202
290.307
146.203
247.665
146.202
146.203
146.202
149.891
146.202
196.886
146.213
146.202
2501.75
146.202
146.202
146.202
424.745
150.897
146.202
185.717
657.042
153.781
170.383
146.204
146.202
146.208
146.202
1273.77
763.546
594.641
222.85
614.627
146.201
1618.03
1479.26
185.167
194.02
146.202
507.737
146.202
146.201
146.202
182.439
146.201
146.203
146.203
149.265
146.202
146.202
146.203
146.203
146.203
146.203
146.202
2289.56
4069.28
146.203
895.603
146.208
146.602
147.522
146.202
146.267
146.202
146.203
230.237
146.203
146.203
146.203
146.202
146.203
215.47
146.203
146.932
146.204
146.215
154.461
146.204
146.202
146.207
146.203
146.204
146.201
146.202
146.205
146.207
146.206
146.199
400.233
146.203
276.737
1430.96
146.202
618.441
146.201
146.206
146.208
146.202
146.202
3398.95
674.685
2975.26
146.213
1297.75
168.077
146.202
146.203
146.202
146.204
146.204
150.793
322.094
146.202
146.202
146.205
146.205
146.209
146.204
146.204
13095
9444.79
146.205
146.201
243.342
146.202
146.203
146.204
146.204
709.125
146.203
146.203
146.204
146.205
4199.25
146.218
146.203
153.933
162.967
146.203
146.277
345.013
146.203
146.204
146.205
2144.53
146.213
146.202
146.204
3179.09
146.831
1720.96
146.205
146.206
2914.61
146.206
146.202
1812.24
146.203
146.202
146.209
146.203
8608.76
146.202
146.202
4345.48
146.204
11713.9
146.207
3385.44
146.205
146.204
2201.96
146.217
146.204
23846.9
146.205
146.221
2021.31
146.202
146.202
146.202
11927.1
1811.78
146.202
241.26
146.202
146.958
9516.41
281.625
146.229
4863.28
146.202
5605.37
146.202
146.202
146.208
146.202
146.201
146.201
146.202
146.202
733.013
434.52
146.879
225.843
146.202
146.202
146.202
146.202
146.202
146.202
2939.23
150.859
146.202
146.202
146.202
5989.83
146.208
146.202
5004.32
146.203
146.202
146.202
147.425
20865.9
225.113
1252.81
296.091
146.202
146.207
469.484
146.202
146.202
146.202
1168.17
3953.59
224.705
4266.55
146.202
146.202
4632.4
146.202
147.306
146.203
146.202
146.208
146.202
147.542
146.202
147.071
911.285
146.387
146.611
146.986
146.687
146.202
11718.6
146.202
146.202
146.202
146.202
146.202
146.202
149.817
146.202
146.21
10536.4
162.769
426.293
146.202
146.202
12634.3
425.069
146.202
325.413
146.202
146.202
211.382
2512.83
764.741
566.721
146.202
2854.76
10104.5
409.038
146.202
706.774
226.449
210.652
784.446
289.931
921.395
212.555
146.203
233.634
515.747
234.549
225.681
222.499
236.04
155.315
1579.93
10115.7
1602.1
146.201
146.202
1194.46
146.202
146.202
452.767
146.201
286.724
190.883
146.202
146.203
146.202
146.202
172.544
384.799
4007.1
1079.24
228.181
146.202
1701.33
235.859
230.738
146.204
149.424
146.203
146.202
146.202
146.202
207.459
146.202
146.202
146.205
148.752
209.468
160.088
21325.4
147.221
146.203
208.148
146.202
146.202
146.211
146.202
146.202
146.202
952.935
149.563
646.046
6962.43
4921.27
146.229
146.202
236.357
383.341
164.836
2271.64
146.202
146.222
146.202
312.663
178.468
235.783
146.204
146.202
146.202
146.202
255.276
146.202
194.676
146.202
963.318
294.588
146.202
146.202
5575.34
200.368
2260.38
335.282
146.202
586.551
3840.1
146.202
267.117
147.243
146.213
252.274
146.202
196.61
445.747
1745.56
256.699
3677.66
536.206
193.269
146.202
26871.6
693.29
146.236
8757.32
146.203
146.624
194.377
146.203
8907.48
146.717
146.211
146.205
146.234
209.405
146.219
146.202
159.644
146.205
146.202
146.204
146.309
146.202
13769.7
3945.78
146.206
189.793
146.228
146.202
146.208
255.66
3728.78
146.318
146.281
545.157
382.391
846.501
604.551
146.204
7593.61
146.202
146.204
146.205
149.067
146.205
6047.99
146.793
1643.98
3533.8
6292.75
146.205
203.91
146.206
146.202
146.202
146.204
146.202
146.205
146.209
225.049
4162.7
15205.9
146.209
10738.1
334.754
1729.21
146.205
12396.1
224.183
173.876
146.203
146.206
146.202
146.202
146.202
146.201
150.947
173.262
218.59
2464.34
210.272
158.004
5421.32
5131.84
25916.9
6193.61
146.202
193.832
246.164
146.203
146.204
539.233
1191.67
146.202
146.203
146.202
426.913
146.202
238.09
208.656
217.021
568.196
146.201
39095.4
1674.76
146.202
148.014
146.202
146.21
9281.52
146.227
146.22
157.248
366.634
146.205
146.21
146.205
146.201
146.202
545.236
146.21
146.214
272.369
229.061
1952.07
373.333
150.492
146.202
146.204
146.203
146.202
793.308
7866.62
146.203
146.202
15276.1
146.203
146.202
146.203
146.203
2938.32
4118.04
23023.6
609.134
551.483
146.202
1620.91
146.203
1345.96
3347.61
146.202
775.356
146.202
146.202
8237.41
146.202
146.204
3184.25
1120.36
5931.23
4241.25
146.202
652.316
376.377
1773.44
191.031
154.597
2924.77
6255.17
1689.15
3332.7
146.765
146.203
670.224
164.68
1489.95
288.656
190.958
3823.18
146.202
146.202
450.781
4838.94
399.083
624.05
956.566
149.088
8694.94
146.202
678.266
146.202
5136.23
146.202
596.73
628.421
146.202
4395.57
146.202
2937.92
3395.85
146.202
146.202
1827.76
146.202
146.202
146.202
146.202
1278.79
146.202
3573.33
23097.5
146.201
146.202
5591.8
182.49
146.202
454.183
146.202
146.202
146.202
146.205
234.661
209.193
6864.39
146.204
146.202
2764.13
146.202
154.123
504.517
146.201
146.202
146.049
146.221
1031.23
146.202
146.202
146.202
146.201
146.202
171.82
161.232
145.389
146.202
165.845
146.232
3197.14
146.202
385.292
146.202
361.243
2000.81
146.202
146.202
146.202
1216.57
3026.93
146.202
901.194
146.21
146.202
146.213
146.247
146.202
220.214
146.202
4776.02
146.202
146.202
146.202
146.203
146.202
1961.8
157.826
146.202
146.202
1984.82
146.202
240.982
146.204
146.202
25676.3
9388.94
214.861
146.376
146.203
172.945
7097
146.203
12769.7
146.202
10660.3
3045.9
146.202
1580.92
4182.68
7588.68
21000.7
2527.98
146.209
146.202
146.202
146.707
244.148
147.195
7323.59
146.204
146.266
146.202
146.449
5459.07
3711.33
146.202
691.228
216.976
146.202
5922.64
146.203
146.202
146.202
5211.55
2218.45
1409.95
146.202
146.202
146.202
7508.28
146.216
10590
146.202
146.202
9318.64
354.187
146.202
146.203
17187.6
146.203
146.204
185.668
13672.7
2175.51
147.597
146.202
23828.3
5174.46
211.809
450.747
183.374
175.019
146.203
202.001
6269.23
3986.46
279.295
347.288
232.103
9401.65
146.202
11317
3484.19
466.207
146.202
224.919
6168.24
146.202
1672.46
5314.26
146.202
3719.92
146.202
9240.91
753.313
196.524
1884.81
1670.92
146.202
146.202
146.202
146.205
7143.2
146.202
792.356
190.786
146.202
146.202
146.202
146.203
146.202
146.202
146.267
146.202
7022.3
146.203
6586.66
146.202
246.981
146.202
146.209
207.749
146.202
146.202
146.203
146.205
146.214
303.248
294.794
21341.6
187.937
146.192
145.235
146.202
186.144
146.209
147.497
146.203
2148.65
205.809
229.265
144.181
146.214
146.238
7555.46
146.274
146.202
219.346
146.203
148.56
218.586
200.47
431.475
146.205
146.22
1142.59
349.816
146.202
149.33
1026.14
147.592
1735.38
196.537
146.259
146.78
146.206
146.226
146.202
146.203
226.358
146.202
248.973
146.213
146.654
146.202
146.202
146.777
150.002
10296
166.017
146.202
146.202
9791.29
174.849
146.202
198.871
202.895
146.202
146.21
147.106
179.949
189.015
146.206
170.965
230.74
146.202
207.502
146.205
146.202
146.202
146.204
146.202
146.202
146.203
146.202
146.202
236.036
146.229
146.202
149.477
146.202
146.214
524.149
146.202
146.202
350.789
397.475
146.202
437.302
146.201
146.202
213.486
147.425
146.206
147.223
171.142
146.202
146.202
146.202
146.203
146.202
146.395
146.284
9530.95
2706.15
2376.97
146.273
197.425
417.018
146.218
8856.64
355.521
146.203
147.19
357.057
6815.34
146.202
337.106
146.212
220.424
1000.33
215.921
958.02
146.229
239.427
672.409
146.202
149.768
146.203
195.181
216.599
146.221
638.954
278.541
872.422
146.213
700.364
268.938
146.206
146.202
420.613
146.207
146.205
146.205
146.202
223.141
146.122
146.214
146.225
146.202
146.202
146.212
146.206
233.266
146.202
146.205
146.204
146.202
227.793
146.202
766.872
146.204
146.204
146.202
146.202
176.386
146.202
146.202
146.202
146.204
146.203
146.202
172.948
146.203
146.231
883.015
146.202
171.604
146.211
146.202
146.202
146.203
146.202
146.202
146.254
146.251
146.21
146.206
146.204
146.202
146.213
10474
146.202
146.202
866.499
146.202
146.202
146.24
146.202
163.381
162.342
146.202
146.202
168.809
6130.66
8129.94
146.203
146.202
146.202
146.202
985.152
151.016
146.202
146.201
146.203
2946.59
146.202
146.201
146.201
22623.6
189.429
146.228
21176.7
246.9
146.202
146.237
146.206
146.203
160.871
155.216
1195.44
146.206
212.813
20961.7
146.206
146.205
22120.6
4451.36
22886.8
146.206
146.21
146.205
147.913
7746.83
146.206
7805.95
146.203
146.202
7337.8
146.203
146.202
194.708
7963.71
146.202
146.223
6612.92
146.203
146.235
7798.75
157.948
146.212
146.202
174.392
2211.94
145.149
3889.12
146.201
146.202
884.789
146.21
620.962
243.583
146.202
146.202
146.202
249.948
146.212
146.209
146.577
146.202
146.235
146.202
245.692
5093.08
146.202
223.976
250.634
5177.82
146.202
545.717
6488.46
146.201
252.096
146.222
396.163
146.202
249.206
146.202
146.202
146.204
146.202
1610.82
149.744
149.554
4007
262.443
146.202
146.203
162.589
146.203
146.202
146.236
149.816
146.203
160.202
146.204
2124.09
4831.73
170.755
198.255
167.453
190.775
146.207
149.654
3536.77
175.672
192.557
148.012
224.695
146.206
208.93
162.395
194.384
146.287
146.21
212.473
217.132
146.202
367.301
194.42
146.209
301.41
147.005
7006.07
2033.32
146.202
23660.7
146.212
146.204
3044.65
146.202
23526.4
146.202
399.19
157.149
4392.25
146.202
146.202
146.202
22783.3
146.207
445.493
146.206
18871.8
22314.8
4040.96
146.202
287.606
223.389
189.834
5000.1
226.601
146.204
146.221
146.202
146.209
146.202
146.203
146.202
146.207
146.203
146.202
146.203
8552.94
146.205
146.205
146.202
3741.19
2741.14
179.252
207.837
146.202
146.202
146.21
146.203
146.205
146.202
146.204
146.202
146.215
146.204
12582.6
146.202
146.984
214.75
12287.1
146.202
216.66
721.873
146.202
146.202
568.051
146.202
146.205
146.202
146.202
146.206
146.205
146.202
146.202
146.205
146.202
337.311
1569.59
146.202
221.632
146.202
7994.87
2900.73
146.202
146.201
7154.95
146.202
148.168
146.202
212.216
147.92
146.202
146.202
18002
10899.5
146.202
190.974
146.202
146.202
148.128
226.969
146.202
146.346
146.354
146.814
146.202
215.462
147.776
736.322
4084.12
146.205
146.203
149.663
8351.22
146.202
146.202
146.202
146.202
146.202
146.202
146.202
9555
146.795
146.202
168.407
689.417
1118.41
146.202
208.268
216.619
146.202
232.292
15108.5
146.202
5223.92
497.097
146.212
146.204
146.204
1230.75
208.377
183.788
188.739
146.212
146.202
249.829
178.912
157.176
221.848
146.206
146.202
146.241
581.085
203.321
147.003
146.202
1538.02
308.827
146.202
146.99
146.202
148.149
205.13
4544.49
149.537
225.391
146.304
158.414
146.202
146.202
22824.8
146.202
146.202
146.202
146.202
146.794
146.205
146.203
146.206
146.203
147.559
146.235
146.202
4240.17
882.708
146.202
212.081
146.202
146.202
146.202
7542.96
986.722
20499.7
146.203
146.203
146.201
146.208
148.415
146.22
162.937
146.202
146.202
146.451
6946.58
14977.1
148.483
146.202
157.211
155.533
170.826
177.156
264.737
231.117
4705.57
875.341
146.202
146.202
146.202
146.202
146.202
146.202
169.103
7182.61
390.08
529.651
242.173
146.206
246.17
246.161
132.405
149.172
419.986
148.658
991.983
8313.84
146.202
184.01
428.313
146.203
146.203
16054.1
146.202
146.202
285.191
6143.53
146.202
146.202
146.202
146.204
146.203
146.202
146.202
238.893
21895.3
146.202
146.204
146.213
406.646
173.698
146.204
146.202
146.203
237.858
146.202
146.219
875.673
146.202
147.382
146.202
146.203
5475.14
147.312
146.202
146.202
146.202
146.202
147.754
151.816
146.202
154.905
147.317
146.202
227.299
146.202
146.202
146.202
146.202
146.202
146.203
146.213
146.202
146.202
2541.67
146.203
207.02
146.206
146.202
146.202
146.202
146.202
146.207
187.326
228.404
2157.39
190.683
189.638
189.576
152.045
219.899
209.095
190.853
845.415
146.202
146.21
146.202
146.202
146.201
146.202
379.525
151.49
146.202
7601.62
146.203
146.207
146.219
146.202
163.054
146.202
212.984
16953.2
212.166
146.202
146.202
146.209
277.055
146.203
146.205
5665.16
146.22
5418.52
146.202
146.202
157.963
3765.77
5282.37
5041.66
4805.58
3660.34
223.179
18811.8
1429.6
3772.88
146.202
146.204
146.202
146.202
196.322
7646.33
515.508
210.589
7023.2
6766.9
146.203
7468.14
11889
146.204
146.202
146.202
612.69
329.996
146.799
146.202
612.263
2919.57
408.817
16496.5
279.709
755.743
9358.58
146.202
175.442
9400.51
269.813
146.202
147.589
6777.48
146.202
146.202
9424.41
146.202
146.202
538.156
146.209
9565.76
760.347
146.204
171.787
331.719
379.437
180.931
352.706
595.273
364.072
155.662
146.202
376.938
146.326
369.276
337.674
146.207
4320.09
161.556
190.982
21331.3
146.202
147.445
571.877
146.202
25159.7
146.202
146.202
146.202
597.131
146.374
226.518
146.202
146.202
792.487
557.244
550.995
241.823
146.202
10482.4
24054.6
7989.9
146.202
1979.51
460.445
403.891
22728.9
146.202
1924.56
146.202
146.202
146.202
146.202
146.202
146.204
146.202
23037.5
146.202
163.165
146.202
146.202
146.202
146.202
146.202
878.839
234.37
146.202
146.202
5111.48
146.206
24401.5
146.211
146.202
2689.01
146.203
146.202
146.202
24318.8
146.209
146.202
168.433
172.707
146.237
146.202
214.187
146.204
146.202
146.202
146.202
146.202
146.234
146.203
965.33
146.202
196.561
146.202
335.886
146.202
146.215
146.218
6626.68
146.287
146.272
146.229
146.202
2715.3
149.026
146.202
146.204
146.202
146.202
14519.8
146.202
146.202
146.202
146.283
146.203
234.935
146.204
146.205
146.203
146.208
146.202
146.202
146.202
146.203
146.203
146.202
146.203
210.684
146.202
146.202
146.202
146.203
146.202
146.202
9531.66
146.211
146.203
146.203
146.203
207.027
146.203
146.044
208.253
146.218
3195.82
146.202
146.202
146.202
146.208
4870.69
146.205
146.202
5147.22
146.202
146.201
146.202
146.202
146.202
146.479
165.583
146.202
146.202
146.202
5494.9
5226.34
5228.16
161.674
896.044
3697.28
146.178
146.202
146.209
5502.16
146.202
146.204
146.202
146.211
150.908
146.202
146.202
146.202
302.952
147.728
223.961
772.006
146.202
422.422
6250.33
146.202
187.9
146.202
146.202
146.202
146.208
146.091
183.127
146.202
1577.45
674.619
4001.58
-73.6613
609.157
153.281
146.202
146.202
146.202
534.755
146.202
146.201
146.201
146.204
523.42
146.275
151.576
186.164
146.202
696.228
149.814
965.748
146.364
146.201
615.543
146.202
146.201
146.202
1898.41
627.949
671.237
146.202
700.527
146.202
146.21
146.202
146.209
146.202
6369.62
183.165
146.202
146.202
141.642
164.615
146.202
313.837
146.201
146.202
7424.43
146.202
146.752
146.201
160.687
146.202
146.202
146.202
146.202
150.759
146.202
24897.4
146.202
146.641
146.202
158.431
1602.9
146.202
146.202
146.202
3903.33
171.402
745.098
537.477
1331.12
146.202
6896.44
595.802
146.202
146.202
3040.33
148.323
146.202
2895.99
187.625
146.206
157.322
146.203
3418.29
146.202
146.202
146.202
146.205
194.923
146.206
2954.01
146.202
5839.35
146.204
146.202
2550.73
146.205
222.386
146.202
146.202
200.202
315.661
1259.58
381.796
2376.51
901.953
1644.85
146.204
146.202
146.201
2084.15
3682.29
8100.91
236.467
146.221
1351.69
2164.94
9565.12
4777.87
146.201
11042.2
9194.51
1578.14
146.201
239.8
3674.38
3761.79
6282.29
1200.85
812.047
680.577
146.205
1822.41
146.21
3641.5
208.479
7404.67
1306.99
146.203
146.206
381.843
3467.41
146.79
521.493
146.202
146.202
1984.93
146.204
146.202
146.204
146.202
218.187
146.202
36247.7
155.246
146.202
146.202
1425.81
149.817
23181.4
5082.7
977.022
150.911
146.202
146.202
4015.69
146.202
146.202
146.205
146.21
148.022
1396.29
217.219
146.208
1834
7201.59
146.202
146.443
815.401
146.204
146.969
8377.12
146.202
146.202
146.217
842.598
49786.4
1959.49
146.202
146.225
146.202
1914.6
1406.49
1037.29
886.131
146.202
146.209
146.202
148.553
146.202
316.648
1202.12
146.202
7513.45
146.202
146.202
253.145
146.202
181.601
146.216
4755.36
154.47
146.202
146.202
538.203
197.436
146.202
467.043
58827.2
146.202
146.224
146.217
146.202
146.202
146.202
146.202
146.202
146.203
146.202
146.805
15940.6
146.202
1493.7
5751.77
399.688
15065.4
146.202
221.628
146.202
146.202
7859.01
2571.6
7151.97
10220.5
150.316
578.901
146.202
1623.17
154.522
362.266
302.668
3717.93
146.207
4427.13
146.202
146.202
146.202
149.534
587.744
147.472
5306.18
146.202
146.21
146.202
5363.66
7378.99
146.202
1530.11
5927.72
200.963
6820.96
226.963
146.202
146.202
222.115
146.211
146.202
146.202
146.202
146.202
151.617
146.202
162.607
2236.96
198.138
642.951
210.94
716.895
146.202
146.202
146.202
330.232
146.202
146.202
146.202
262.192
143.748
4836.32
5895.02
220.909
148.153
759.017
146.347
6109.16
146.202
146.202
444.792
3313.03
526.078
146.212
146.202
150.345
2374.74
146.202
166.961
3200.96
2810.68
9319.45
146.202
146.202
231.404
163.453
146.212
9526.6
3253.15
758.822
146.202
10938.2
325.944
269.347
146.203
146.202
228.993
1194.83
146.202
146.202
7135.29
3989.58
3715.77
146.221
146.204
2355.46
1659
146.204
146.202
146.202
11101.1
206.738
9903.55
1736.39
146.203
4143.73
4010.93
149.994
146.203
146.34
146.203
146.203
146.21
3548.59
146.202
146.402
155.411
4295.6
146.202
146.202
146.202
146.202
1961.1
1783.9
146.202
4302.3
147.036
146.206
146.202
146.205
146.202
4223.38
748.268
146.202
146.202
5725.2
146.203
146.202
146.208
146.202
146.206
6920.71
146.223
211.423
146.202
146.202
146.202
5922.94
146.202
146.202
2291.56
146.202
158.204
146.202
146.207
7420.54
146.202
225.583
160.491
542.489
146.202
146.203
146.202
146.202
146.202
146.214
149.122
5941.14
3123.14
146.202
146.202
146.204
146.202
146.21
146.202
146.202
146.202
146.21
146.204
146.211
146.202
148.593
11497.3
2084.01
146.91
298.943
155.373
146.203
3610.15
146.21
1697.11
146.274
417.77
146.202
146.202
146.202
146.202
146.21
146.202
198.558
537.758
146.202
146.202
146.202
156.685
146.204
146.209
146.201
146.202
146.202
147.6
196.988
147.396
146.203
146.202
208.048
217.104
149.788
146.204
146.487
146.202
200.871
146.202
221.14
409.604
146.216
221.976
147.339
510.767
196.968
2230.26
1364.12
146.206
25212
146.203
6488.77
146.202
7110.68
742.347
4228.05
1275.47
146.202
146.202
146.203
2373.26
7006.93
146.202
3317.4
210.057
7508.85
146.202
146.203
146.202
146.204
3167.06
146.202
146.258
146.203
146.202
146.203
146.202
6816.1
270.063
421.463
146.202
146.202
259.614
146.202
146.202
221.31
7279.92
194.576
146.202
146.202
639.45
221.935
146.202
146.201
1938.73
3986.65
2322.37
146.202
5429.3
445.948
146.202
146.202
146.202
146.202
146.202
153.852
146.202
146.202
146.202
146.202
146.202
146.202
146.202
146.202
146.202
146.202
146.206
146.202
146.202
146.202
146.202
146.202
222.811
201.798
165.271
146.202
146.201
146.202
146.202
588.643
146.202
146.202
146.208
146.202
146.202
146.202
198.554
146.202
146.202
146.202
146.202
146.202
146.938
146.201
146.829
149.044
864.47
146.202
146.202
173.794
146.202
146.202
146.202
146.202
146.202
146.202
146.202
146.475
146.202
146.203
2086.38
1569.81
146.202
146.203
146.202
146.202
146.202
146.202
146.202
146.202
1548.47
13139.4
146.202
12275.7
146.203
146.202
718.794
5798.68
146.203
222.985
1074.97
146.203
146.202
146.202
146.212
146.202
3205.7
146.202
7659.61
146.202
146.202
146.201
9173.63
9240.64
8636.66
146.202
146.202
146.202
146.202
146.202
146.202
146.202
146.202
146.202
146.202
3848.01
146.202
146.202
146.203
146.202
146.202
146.202
146.202
2859.17
158.971
224.41
146.204
146.208
146.202
146.202
146.241
146.204
146.202
146.203
229.552
146.203
146.202
146.203
590.537
146.202
164.147
146.203
146.205
146.232
146.202
146.262
9413.25
180.802
162.598
146.202
146.31
184.023
146.203
146.201
146.202
146.202
146.264
146.205
146.224
199.746
1927.26
10225.2
150.601
146.202
145.962
1937.71