/*--------------------------------*- C++ -*----------------------------------*\
| =========                 |                                                 |
| \\      /  F ield         | OpenFOAM: The Open Source CFD Toolbox           |
|  \\    /   O peration     | Version:  v2012                                 |
|   \\  /    A nd           | Website:  www.openfoam.com                      |
|    \\/     M anipulation  |                                                 |
\*---------------------------------------------------------------------------*/
FoamFile
{
    version     2.0;
    format      ascii;
    class       volScalarField;
    location    "5";
    object      ILambda_1_0;
}
// * * * * * * * * * * * * * * * * * * * * * * * * * * * * * * * * * * * * * //

dimensions      [1 0 -3 0 0 0 0];


internalField   nonuniform List<scalar> 
108993
(
146.203
146.206
146.202
146.202
146.202
146.202
159.077
146.202
146.202
146.203
146.202
146.202
146.202
146.202
146.202
146.203
146.205
146.202
146.202
146.202
146.202
146.202
146.217
146.202
146.202
146.202
146.202
146.203
146.203
146.202
146.202
146.202
146.202
146.204
146.202
146.202
146.202
146.203
195.299
2982.97
146.074
146.202
146.203
146.202
146.47
18847.7
146.202
162.088
146.202
146.209
146.202
2300.93
146.206
146.202
146.202
146.203
146.202
146.202
146.202
146.202
146.202
146.201
146.202
146.202
146.202
146.202
146.202
146.202
146.202
150.483
146.202
146.202
146.202
146.202
146.202
146.202
146.202
146.203
146.202
146.202
146.202
146.202
146.202
146.202
146.202
146.202
146.202
146.202
146.202
146.202
146.202
146.202
146.202
146.202
146.202
146.202
146.202
146.205
146.202
146.202
146.202
146.202
146.202
146.202
146.203
146.202
146.202
146.201
146.202
2421.91
148.041
146.202
2905.72
907.561
146.203
159.87
146.202
146.204
146.21
146.202
146.202
146.201
290.709
146.202
146.202
146.208
146.029
146.203
146.201
146.201
146.202
146.201
146.202
3164.65
146.202
146.202
146.201
146.203
146.202
146.202
146.202
146.202
146.223
146.201
146.201
146.202
146.203
7191.86
146.202
172.21
163.368
146.202
146.204
171.538
146.202
181.501
146.205
146.201
146.201
820.479
163.359
146.201
146.202
146.202
146.202
2345.79
146.202
146.202
146.202
146.205
146.202
146.203
330.647
146.202
146.202
146.202
146.881
146.202
146.203
146.202
146.203
146.202
146.201
146.202
146.202
146.203
146.202
146.202
146.202
146.202
146.204
146.202
146.204
146.294
146.204
146.203
146.067
146.206
146.203
146.202
146.202
157.215
146.202
146.201
480.834
147.37
146.202
1413.77
146.203
149.339
4418.95
146.204
146.864
927.329
53542
146.203
146.202
146.202
146.201
146.202
146.202
158.994
146.204
146.314
146.202
146.202
146.201
146.202
3304.49
146.202
2061.14
146.202
146.202
146.043
146.202
146.202
146.202
146.201
463.44
146.201
146.202
146.202
146.202
146.201
146.201
146.205
831.122
224.899
146.201
146.202
146.202
146.202
146.202
146.205
146.201
146.201
146.201
146.202
146.202
146.202
146.202
146.202
146.212
146.226
146.202
146.202
146.202
146.202
146.202
146.202
146.202
146.202
1647.48
160.066
5181.38
146.204
146.202
657.714
146.203
146.202
146.202
24232.1
23862.4
146.202
146.201
146.204
146.202
146.202
146.203
3900.07
146.202
146.202
146.202
146.202
146.202
146.202
146.202
146.202
146.215
146.202
215.358
147.377
146.202
146.202
146.202
147.774
146.201
146.202
147.168
1403.97
146.202
146.201
146.206
146.202
146.837
155.9
146.202
146.205
5555.16
146.202
146.205
146.202
146.204
146.202
146.205
178.419
152.895
159.961
146.202
146.203
146.203
208.167
969.979
146.202
1119.81
146.202
146.202
146.202
146.203
146.201
146.202
147.857
146.204
146.202
146.203
146.202
146.202
146.202
146.202
146.202
146.202
146.202
24970.4
2355.18
146.201
146.202
146.202
5465.82
146.202
146.202
146.202
146.204
146.202
146.202
146.202
146.209
146.202
146.201
146.202
158.184
146.209
146.203
146.202
154.074
146.209
148.23
146.203
146.202
147.688
146.203
147.232
147.675
146.206
146.215
146.202
150.844
146.203
2853.33
146.202
2144.12
148.023
154.679
148.083
146.202
1005.85
146.204
154.255
146.202
146.232
146.202
146.205
829.358
517.303
146.202
146.202
154.793
151.092
146.203
146.202
158.059
146.203
146.21
211.351
146.202
146.202
146.202
195.007
157.411
2495.88
146.202
156.922
146.209
152.274
146.202
146.202
153.715
146.202
343.635
153.134
146.202
154.097
4018.36
154.093
146.201
146.203
146.203
146.202
146.202
146.202
146.202
146.202
146.202
146.202
146.202
167.844
146.162
146.205
303.305
146.202
146.202
146.202
146.202
146.202
146.205
146.202
146.202
146.202
146.202
146.204
146.202
147.422
146.202
154.799
159.865
146.217
146.202
146.202
171.139
146.202
146.203
150.259
146.202
146.202
146.205
146.201
146.262
146.202
3493.33
1832.81
146.218
146.202
146.202
146.202
146.202
146.203
146.203
146.202
146.203
193.96
146.204
146.202
146.202
146.321
146.203
146.224
146.202
146.203
146.202
146.202
146.203
146.202
146.202
146.202
146.202
146.554
150.128
146.202
146.202
1367.83
146.202
146.206
145.734
146.202
146.203
146.202
146.201
146.202
146.202
146.202
146.208
146.208
146.207
146.153
141.017
146.202
146.295
164.713
146.202
146.353
141.46
146.203
146.202
146.249
146.202
146.204
146.203
949.755
146.202
146.205
1901.5
146.202
3175.36
146.202
146.202
146.203
146.202
146.202
146.318
146.206
146.202
259.122
146.203
32022.2
146.202
146.202
146.202
146.202
146.215
147.174
146.202
146.205
146.202
146.203
144.467
161.023
368.61
146.203
146.202
146.192
146.14
146.202
146.206
5364.92
158.802
362.551
146.269
146.203
163.577
152.1
150.791
146.203
146.205
146.202
146.202
146.202
146.533
20945.4
159.119
146.202
146.202
146.053
146.202
146.202
146.202
155.11
146.201
146.202
146.202
146.229
146.21
146.202
146.202
128.905
146.207
146.202
146.202
164.022
146.202
146.205
146.202
6971.5
146.202
147.994
146.202
146.013
146.202
146.203
146.202
907.791
146.202
3088.84
146.202
146.204
3630.28
146.207
146.202
146.202
148.482
23685.6
146.203
281.693
146.202
149.079
185.884
146.202
146.202
146.202
225.871
146.236
711.285
146.203
1148.87
146.202
146.206
146.202
146.203
146.202
1167.78
146.238
146.203
146.203
146.227
2125.45
6793.41
162.902
146.202
146.397
6200.82
184.014
6228.48
6908.21
146.202
146.204
146.202
146.202
146.215
557.191
146.21
1435.58
1653.86
146.209
158.957
2341.56
6734.74
6477.02
146.202
146.26
153.484
146.202
8853.19
146.211
338.481
146.218
146.203
6832.9
146.204
157.857
151.566
151.927
176.816
146.201
146.202
201.69
146.203
146.202
224.328
146.205
737.329
146.206
188.009
153.694
146.202
146.202
146.202
146.218
146.202
146.488
145.551
146.202
146.202
147.461
1807.65
546.13
146.202
204.323
146.202
465.28
146.216
146.202
447.359
146.202
146.203
916.183
146.204
146.202
146.203
160.393
149.453
149.562
146.202
396.908
146.204
146.203
146.203
146.202
146.202
549.268
146.202
146.202
147.789
146.202
146.205
3999.18
1243.4
146.203
146.18
146.203
146.203
146.203
146.213
146.203
146.202
146.202
146.203
146.202
141.689
146.202
146.203
146.218
146.202
146.204
146.202
146.203
146.202
205.634
146.197
146.428
1039.62
146.202
146.202
146.202
1398.27
146.202
171.47
190.899
146.202
146.202
155.651
497.726
146.203
146.202
143.695
146.202
146.202
144.316
146.212
144.524
146.202
146.202
177.961
146.202
13403.7
146.202
146.204
6635
146.204
233.161
214.51
148.69
146.202
145.466
146.217
146.202
146.202
146.208
146.202
146.205
146.202
146.202
146.202
146.203
146.132
146.202
213.447
146.204
1054.59
146.32
146.202
3621.55
146.217
1578.16
146.203
146.202
146.203
131.044
146.237
146.408
151.551
3275.69
146.253
395.918
1267.37
146.237
146.202
146.92
146.294
146.202
242.456
4299.37
146.202
146.202
146.203
164.601
146.203
147.018
149.244
146.202
146.202
101.263
146.203
173.644
146.204
79.653
146.203
145.841
146.236
146.22
4413.85
146.202
146.231
146.232
146.455
146.581
17800.5
146.202
146.202
146.202
146.236
146.204
146.226
146.202
146.202
146.225
18197.6
146.202
146.223
146.946
238.178
146.142
3187.08
3471.53
14350.1
147.427
155.52
146.218
3818.67
146.202
2357.75
12003
154.665
146.201
146.201
146.223
146.215
148.751
146.202
146.202
146.298
147.319
146.202
266.788
146.19
146.202
3591.33
146.202
146.203
6490.25
156.143
146.202
147.179
146.202
146.202
146.213
1978.81
7294.69
146.206
7588.97
146.236
146.214
146.203
146.203
146.206
146.224
146.203
146.201
146.204
146.202
2577.27
146.202
146.202
146.797
146.202
155.311
146.503
146.206
146.214
146.201
148.098
146.202
1098.74
147.285
146.202
146.201
147.323
3029.44
146.202
146.203
4967.88
1551.68
147.125
146.202
146.21
150.992
147.461
146.202
146.259
585.252
146.212
146.204
146.21
146.205
156.845
6691.21
2511.58
146.297
146.234
146.207
146.218
146.214
146.213
146.249
187.63
146.203
146.202
146.202
146.275
146.202
146.202
146.202
146.383
146.204
146.202
146.204
146.202
146.203
146.204
146.202
273.241
146.205
146.202
146.203
146.202
6169.93
146.202
146.202
146.202
146.202
146.202
1471.84
151.089
146.212
146.204
146.202
151.321
146.735
1928.37
146.211
146.204
309.887
146.202
146.258
146.322
420.312
146.202
146.204
146.204
146.203
146.203
146.701
146.202
146.202
146.203
146.202
690.548
146.203
146.754
146.201
146.203
148.684
886.689
208.032
156.496
146.203
146.202
146.347
489.641
146.206
146.202
146.202
163.538
146.202
135.886
146.203
146.24
146.204
146.201
24642.5
147.852
146.219
145.037
3084.75
146.213
146.22
144.175
24985.8
146.202
146.203
146.203
736.912
146.22
2591.04
146.233
146.21
146.203
145.888
146.232
146.202
146.246
794.874
146.243
146.206
147.116
393.399
172.362
146.202
146.202
146.202
146.202
146.202
146.202
146.206
5562.35
146.202
1763.93
146.207
146.203
146.202
145.556
898.952
146.202
146.207
146.203
146.205
146.202
146.204
161.734
146.311
146.202
175.432
146.202
146.202
146.203
146.201
146.202
145.746
13694.5
146.609
146.202
146.203
146.202
146.202
146.202
146.202
146.203
146.203
146.203
146.202
146.206
146.205
146.203
146.203
146.202
146.202
146.204
146.203
146.204
173.311
212.692
241.357
13166.4
146.203
146.202
146.202
146.202
146.203
146.204
146.206
146.203
146.203
1907.12
146.202
148.158
146.204
146.207
146.204
146.202
155.746
151.031
146.205
146.202
146.202
143.685
146.205
146.202
2530.56
146.202
146.202
146.202
146.201
146.202
376.937
146.216
146.203
3259.53
146.207
146.206
146.207
147.651
143.352
146.216
146.202
146.202
151.542
146.202
329.335
148.788
149.099
149.15
226.834
128.694
146.202
146.288
146.202
146.363
146.306
149.015
146.202
146.204
146.202
146.204
146.204
146.202
155.829
624.539
146.245
146.202
146.202
146.247
146.202
146.202
146.202
146.202
146.202
325.411
146.362
968.811
146.202
146.506
146.202
160.66
146.943
146.22
146.202
146.443
146.203
416.616
146.386
761.979
680.606
146.202
146.202
146.206
146.202
146.203
2049.91
146.202
146.203
146.202
255.895
146.204
146.202
146.194
146.203
147.3
882.998
146.202
152.717
146.206
622.979
146.202
146.205
146.202
150.054
146.202
152.536
146.214
146.202
1827.66
146.202
146.202
146.202
191.97
151.479
146.202
146.593
152.175
155.553
148.388
146.203
146.202
146.294
146.202
934.467
579.711
498.397
147.104
507.218
146.201
1185.33
1052.98
153.282
157.436
146.202
150.391
146.202
146.202
146.202
167.372
146.202
146.203
146.203
146.497
146.202
146.202
146.208
146.206
146.209
146.207
146.202
340.315
31.3804
146.207
7880.24
146.208
146.199
147.126
146.202
146.229
146.202
146.204
5071.01
146.208
146.205
146.206
146.202
146.206
159.636
146.206
146.499
146.205
146.219
147.327
146.207
146.202
146.202
146.202
146.207
146.202
146.202
146.202
146.202
146.205
146.21
215.16
146.207
147.025
1089.58
146.202
504.185
146.202
146.203
146.203
146.202
146.202
2507.5
604.053
569.757
146.214
418.39
153.928
146.202
146.203
146.202
146.207
146.207
143.472
171.731
146.202
146.202
146.205
146.207
146.203
146.203
146.203
5794.66
4478.05
146.207
146.202
148.716
146.202
146.208
146.217
146.203
609.231
146.202
146.208
146.204
146.207
695.301
146.218
146.204
148.827
1069.61
146.204
146.243
151.943
146.207
146.202
146.203
1079.4
146.242
146.202
146.203
526.504
146.815
1404.05
146.203
146.203
1793.58
146.203
146.202
1106.91
146.203
146.202
146.203
146.202
9894.96
146.202
146.203
265.875
146.203
12420.2
146.203
2652.59
146.203
146.213
2193.23
146.217
146.217
23337.2
146.205
146.214
327.83
146.202
146.202
146.202
11380.9
252.485
146.202
204.735
146.202
146.106
8936.1
196.419
146.23
2582.56
146.202
8325.68
146.202
146.202
146.209
146.202
146.202
146.202
146.202
146.202
699.174
149.173
149.042
228.577
146.202
146.202
146.202
146.202
146.202
146.202
2342.22
146.749
146.202
146.202
146.202
1032.66
146.207
146.202
1304.96
146.202
146.202
146.202
149.407
10934.4
6261.26
1064.49
164.919
146.202
146.209
149.768
146.202
146.202
146.202
1243.45
2162.03
234.442
189.316
146.202
146.202
3760.94
146.202
148.708
146.202
146.202
146.207
146.202
147.28
146.202
147.024
179.315
146.346
146.674
146.91
146.335
146.202
2786.36
146.202
146.202
146.202
146.202
146.201
146.202
144.461
146.202
146.21
8596.26
147.682
344.377
146.202
146.202
1882.33
149.169
146.201
275.915
146.202
146.202
506.349
2263.61
721.107
461.523
146.202
353.636
2861.88
320.55
146.202
595.181
400.098
570.887
602.137
146.791
608.59
547.428
146.208
498.787
493.554
401.931
646.451
3557.43
711.204
137.288
994.988
4334.38
1010.03
146.202
146.202
820.497
146.202
146.202
147.964
146.201
256.869
653.202
146.202
146.203
146.202
146.202
664.091
351.344
3488.74
1053.62
226.49
146.202
3404.52
757.939
206.553
146.203
143.586
146.203
146.202
146.202
146.203
146.693
146.203
146.202
146.204
148.482
672.075
165.534
14973.6
146.259
146.202
201.856
146.202
146.203
146.203
146.202
146.202
146.203
850.206
977.185
155.732
3797.38
2381.62
146.247
146.203
178.273
239.851
138.056
310.559
146.202
146.22
146.202
201.438
164.313
227.928
146.203
146.202
146.202
146.202
1135.57
146.201
176.271
146.202
226.432
190.285
146.202
146.202
4361.74
156.043
1799.24
208.318
146.202
149.552
674.628
146.202
149.301
146.865
146.265
203.385
146.202
208.871
203.048
1751.29
184.338
833.127
504.679
201.8
146.203
26586.9
1013.78
146.224
17741.8
146.203
146.299
153.808
146.202
17930.3
146.244
146.208
146.203
146.206
221.579
146.209
146.202
145.359
146.204
146.202
146.203
146.076
146.202
6398.73
2320.75
146.205
170.85
146.29
146.202
146.253
178.702
2255.47
146.28
146.246
447.484
185.288
1147.35
3098.34
146.204
3468.12
146.202
146.202
146.203
117.687
146.205
3866.97
146.813
626.92
2145.8
2029.77
146.204
460.663
146.204
146.202
146.202
146.204
146.202
146.205
146.236
166.855
3789.33
13704.1
146.231
15463.8
311.271
857.536
146.202
2348.52
167.062
153.334
146.206
146.206
146.202
146.201
146.202
146.202
146.47
149.976
403.987
6099.29
469.218
147.345
860.996
2206.59
25352.4
21058.8
146.202
157.837
175.45
146.203
146.203
228.656
829.081
146.202
146.203
146.202
168.64
146.202
196.791
180.243
187.319
221.051
146.201
37157.7
178.236
146.202
146.597
146.202
146.204
16621
146.208
146.204
2298.21
176.101
146.202
146.204
146.202
146.201
146.202
308.194
146.21
146.217
150.709
416.663
1952.99
348.171
144.226
146.202
146.202
146.205
146.204
268.378
7373.99
146.205
146.202
16697
146.206
146.201
146.206
146.206
9407.26
3960.3
15100.6
213.876
148.272
146.202
902.341
146.206
1180.14
2720.07
146.202
762.698
146.201
146.202
7014.32
146.202
146.205
2955.26
948.559
6625.7
3498.05
146.202
478.598
371.726
1166.31
146.707
146.799
2781.85
6582.23
1461.67
2845.83
146.333
146.203
192.733
161.495
1566.11
183.389
160.491
3332.58
146.202
146.202
283.341
4604.75
297.761
152.77
1015.19
148.922
5883.19
146.202
487.86
146.202
5720.79
146.202
175.463
153.41
146.202
2557.97
146.202
2932.7
4468.15
146.202
146.202
1627.77
146.202
146.202
146.202
146.202
1252.03
146.202
5313.77
22918.2
146.202
146.202
4037.04
146.504
146.202
437.483
146.202
146.202
146.202
146.203
326.718
338.202
6526.34
146.203
146.202
2402.62
146.202
151.327
271.619
146.202
146.202
146.229
146.221
715.392
146.202
146.202
146.202
146.201
146.202
188.768
157.17
146.323
146.203
175.141
146.215
652.991
146.202
339.053
146.202
340.69
1447.85
146.202
146.202
146.202
201.743
2922.8
146.202
794.066
146.213
146.202
146.217
146.249
146.202
153.026
146.202
2879.69
146.202
146.202
146.202
146.204
146.202
1361.01
276.951
146.202
146.202
1100.95
146.202
236.051
146.204
146.202
22777.2
9019.17
222.501
146.263
146.203
153.555
7595.37
146.202
13102.4
146.202
8296.18
2514.15
146.202
279.886
4115.89
1509.96
12837
1368.92
146.209
146.202
146.202
146.93
231.476
147.206
4207.87
146.204
146.244
146.202
146.451
4558.31
2731.66
146.202
229.242
288.527
146.202
2915.9
146.202
146.202
146.202
6211.39
1957.14
1111.26
146.202
146.202
146.202
6175.98
146.212
10897.3
146.202
146.202
2635.93
153.688
146.202
146.202
16565.1
146.203
146.202
153.71
13559.8
662.863
147.178
146.202
21741.7
418.144
207.867
149.898
146.392
164.599
146.203
1200.82
1258.15
261.993
390.447
363.192
187.274
8743.06
146.202
11127.8
2873.24
148.936
146.202
2192.37
6650.52
146.202
1146.57
3968.54
146.202
203.733
146.202
10970.5
471.184
330.907
1813.55
1275.46
146.202
146.202
146.203
146.204
6825.92
146.202
613.469
196.85
146.202
146.202
146.202
146.203
146.203
146.202
146.274
146.202
9734.48
146.203
18499.1
146.202
171.957
146.202
146.207
280.472
146.202
146.202
146.203
146.202
146.205
186.116
185.878
23190.2
179.556
146.207
146.219
146.202
154.549
146.22
146.229
146.202
169.49
149.449
186.042
146.271
146.206
146.218
1207.55
146.244
146.202
201.481
146.205
146.307
182.695
802.066
181.537
146.203
146.205
1032.32
152.925
146.202
146.405
182.942
146.194
218.391
146.359
146.214
146.66
146.204
146.217
146.202
146.208
1647.68
146.202
244.464
146.214
146.646
146.202
146.202
146.724
154.751
3559.63
145.265
146.202
146.202
6501.29
79.4091
146.202
255.009
179.206
146.202
146.211
146.38
163.014
97.3743
146.207
186.141
595.577
146.202
179.345
146.205
146.202
146.202
146.202
146.203
146.202
146.202
146.202
146.203
233.678
146.217
146.202
146.63
146.202
146.211
232.021
146.202
146.202
374.096
430.165
146.203
146.246
146.201
146.202
2274.4
146.208
146.203
146.729
186.039
146.203
146.204
146.204
146.202
146.202
146.237
146.235
3023.87
1165.15
1710.98
146.232
162.21
146.242
146.217
4928.21
146.219
146.203
147.191
146.23
3080.13
146.202
146.204
146.21
565.014
582.104
580.347
603.957
146.214
551.971
370.967
146.202
149.139
146.203
152.268
738.535
146.283
440.687
599.283
615.854
146.209
530.695
549.781
146.204
146.202
218.241
146.21
146.204
146.202
146.202
626.594
146.21
146.212
146.22
146.202
146.202
146.217
146.204
228.435
146.202
146.206
146.205
146.202
523.628
146.202
152.226
146.204
146.202
146.202
146.202
268.093
146.202
146.202
146.202
146.22
146.203
146.202
440.503
146.203
146.225
264.469
146.202
149.156
146.21
146.202
146.202
146.202
146.202
146.202
146.586
146.223
146.21
146.203
146.204
146.202
146.214
2073.79
146.202
146.202
1584.73
146.202
146.202
146.57
146.202
155.048
182.527
146.202
146.202
151.96
1196.54
6364.2
146.207
146.202
146.202
146.204
146.476
145.226
146.202
146.202
146.203
2791.85
146.202
146.202
146.202
15256.3
164.005
146.224
15716.3
1529.69
146.203
146.253
146.205
146.204
146.264
149.046
147.814
146.203
294.398
16803.4
146.203
146.203
16606
148.024
14694.8
146.203
146.209
146.204
144.248
5633.71
146.203
5782.44
146.203
146.202
5608.96
146.203
146.202
1162.88
5591.22
146.202
146.219
5566.79
146.203
146.225
5370.39
151.284
146.211
146.202
164.337
3868.22
146.476
1191.86
146.202
146.203
148.007
146.217
147.386
256.508
146.202
146.202
146.202
237.756
146.203
146.214
146.225
146.202
146.225
146.202
280.094
1005.64
146.202
225.225
233.089
821.398
146.202
1115.06
456.06
146.202
268.372
146.328
5377.62
146.203
242.993
146.202
146.202
146.206
146.202
16697
148.478
148.177
1408.15
9132.48
146.202
146.203
150.364
146.203
146.203
146.208
147.049
146.203
148.52
146.204
507.025
1604.83
149.667
151.391
161.762
190.955
146.203
148.229
2413.87
147.478
153.72
146.542
332.526
146.212
496.152
162.051
160.358
146.295
146.207
162.933
754.265
146.202
386.948
160.098
146.207
266.481
147.139
2491.36
615.182
146.202
22735.9
146.211
146.202
10741.5
146.202
21050.8
146.202
196.128
160.299
1582.3
146.202
146.203
146.202
21335.6
146.208
190.066
146.204
14978.4
17099.6
1812.33
146.202
194.843
244.607
155.603
225.022
839.83
146.202
146.216
146.202
146.206
146.202
146.202
146.202
146.203
146.203
146.202
146.205
7948.58
146.202
146.205
146.202
742.19
150.46
146.2
344.179
146.202
146.202
146.209
146.203
146.203
146.202
146.203
146.202
146.214
146.205
15534.9
146.202
147.194
2844.7
12252.7
146.202
3124.31
729.838
146.202
146.202
388.03
146.202
146.203
146.202
146.202
146.202
146.207
146.202
146.202
146.202
146.202
154.986
753.224
146.202
179
146.202
2297.7
210.119
146.202
146.201
7367.58
146.202
280.765
146.202
2346.84
213.669
146.202
146.202
17899.6
10297.1
146.202
174.976
146.202
146.202
228.051
5774.32
146.202
145.991
146.354
146.257
146.202
1040.51
226.113
9820.06
3348.77
146.204
146.203
271.611
5352.18
146.202
146.202
146.202
146.202
146.202
146.202
146.202
7882.78
266.2
146.202
186.109
287.904
657.64
146.202
337.15
1482.97
146.202
257.612
13515.7
146.202
10860.1
148.253
146.212
146.204
146.209
10549.3
262.551
146.21
146.207
146.213
146.202
146.216
247.333
212.427
3190.3
146.204
146.202
146.241
321.95
146.208
146.21
146.202
876.639
167.401
146.202
148.162
146.202
144.797
630.666
1713.62
143.131
5352.35
146.228
253.892
146.202
146.202
16014.3
146.202
146.202
146.202
146.202
146.767
146.207
146.203
146.209
146.203
145.128
146.304
146.202
1990.02
853.92
146.202
3091.76
146.202
146.202
146.202
9108.44
1128.08
20499.7
146.206
146.203
146.201
146.204
153.596
146.222
155.89
146.202
146.202
161.174
5209.37
11362.5
151.69
146.202
154.668
154.752
433.524
157.581
267.285
164.038
4122
374.638
146.202
146.202
146.202
146.202
146.202
146.203
161.127
6373.4
302.976
437.322
257.48
146.204
170.24
167.311
990.646
147.625
312.224
148.405
423.276
2596.73
146.202
172.758
320.759
146.202
146.203
16415.5
146.202
146.202
229.152
3176.2
146.202
146.202
146.202
146.202
146.206
146.202
146.202
223.747
14311.6
146.202
146.203
146.206
319.486
187.14
146.203
146.202
146.203
209.046
146.202
146.209
314.421
146.202
146.224
146.202
146.203
3956.5
150.255
146.202
146.202
146.202
146.203
147.266
148.986
146.202
168.52
144.703
146.202
2882.92
146.202
146.202
146.202
146.202
146.202
146.202
146.203
146.202
146.202
2323.1
146.202
162.369
146.203
146.202
146.202
146.202
146.202
146.203
226.199
166.35
1821.02
157.191
812.62
180.597
212.474
161.972
162.36
529.818
650.731
146.202
146.203
146.202
146.202
146.201
146.202
349.369
148.488
146.201
5408.22
146.203
146.207
146.203
146.201
164.543
146.202
259.35
17541.1
238.154
146.202
146.201
146.209
227.197
146.203
146.208
436.308
146.203
531.122
146.202
146.202
308.188
470.133
468.994
405.837
736.146
471.332
403.873
12114.8
1430.14
415.403
146.202
146.202
146.202
146.202
974.386
5103.14
6572.28
499.271
4403.94
4615.43
146.203
5195.05
2496.14
146.205
146.202
146.202
208.993
284.065
146.779
146.202
206.079
2305.3
10469.6
16638
184.45
462.505
4919.2
146.202
146.955
4551.42
2502.12
146.202
146.233
188.013
146.202
146.202
4917.33
146.202
146.202
247.759
146.203
4735.3
288.447
146.203
169.232
267.588
286.152
158.015
277.683
208.294
304.534
146.383
146.202
281.625
146.312
253.596
246.516
146.211
1305.19
146.647
196.318
21375.2
146.202
144.94
562.145
146.202
24658.8
146.202
146.202
146.202
561.333
146.184
168.982
146.202
146.202
2232.2
520.942
514.826
772.623
146.201
2257.63
24005.4
4935.41
146.202
1901.45
205.063
292.702
22763.3
146.203
1934.36
146.202
146.202
146.202
146.201
146.202
146.205
146.202
22845.3
146.202
231.969
146.201
146.201
146.202
146.202
146.202
5366.31
1266.49
146.202
146.201
4890.56
146.203
24396.2
146.212
146.201
2101.8
146.203
146.201
146.202
24247.6
146.207
146.201
158.919
147.002
146.206
146.201
411.895
146.204
146.202
146.202
146.202
146.202
146.199
146.203
884.028
146.202
149.108
146.202
268.771
146.202
146.219
146.213
2656.2
146.13
146.105
146.204
146.202
1943.54
146.236
146.202
146.204
146.202
146.202
14550.4
146.201
146.201
146.203
146.158
146.205
1038.46
146.204
146.204
146.203
146.208
146.202
146.203
146.202
146.205
146.202
146.202
146.202
464.161
146.202
146.202
146.202
146.202
146.203
146.202
9065.94
146.208
146.203
146.205
146.203
1459.52
146.202
146.095
350.877
146.217
434.176
146.202
146.203
146.202
146.203
5839.08
146.202
146.202
5643.22
146.202
146.201
146.202
146.202
146.202
146.514
165.583
146.202
146.202
146.202
7495.9
4887.31
5178.09
514.557
461.437
574.073
146.208
146.203
146.204
7193.64
146.202
146.202
146.202
146.217
150.759
146.202
146.202
146.202
1382.99
158.914
3977.06
236.32
146.202
147.714
5504.39
146.202
169.398
146.202
146.202
146.202
146.217
146.207
151.226
146.202
154.667
12491
6013.95
3410.2
401.793
192.135
146.202
146.202
146.202
146.544
146.202
146.201
146.201
146.202
238.895
146.244
157.987
155.395
146.202
435.037
147.299
871.074
145.837
146.201
610.717
146.202
146.201
146.202
1004.33
417.306
439.461
146.202
448.569
146.202
146.211
146.202
146.206
146.202
3637.33
146.973
146.202
146.202
141.982
634.135
146.202
151.091
146.201
146.202
4757.49
146.201
146.288
146.201
146.905
146.204
146.202
146.204
146.201
182.733
146.204
19944.5
146.202
146.548
146.203
147.08
1304.92
146.202
146.203
146.202
341.335
151.314
178.801
315.33
1023.16
146.202
7165.22
349.375
146.203
146.202
1393.65
147.066
146.202
2457.93
151.51
146.206
149.75
146.202
3241.18
146.202
146.202
146.202
146.202
177.805
146.202
5995.48
146.202
287.688
146.202
146.202
1489.51
146.202
146.233
146.202
146.202
346.784
188.321
1213.75
3582.93
2265.87
796.656
1819.69
146.205
146.202
146.202
2095.26
361.878
5220.6
225.789
146.227
11212.3
2352.06
9126.14
3364.71
146.202
2060.08
7330.34
1466.12
146.202
289.661
1205.75
1164.63
2638.11
983.484
789.452
284.152
146.208
534.168
146.209
1224.84
910.154
4627.12
348.356
146.204
146.211
245.844
947.633
147.569
1403.58
146.202
146.202
324.035
146.207
146.202
146.204
146.202
1444.64
146.202
40443.8
154.05
146.202
146.202
404.37
194.219
13679.5
2223.94
359.264
182.87
146.202
146.202
3272.95
146.202
146.202
146.203
146.209
145.868
389.737
157.43
146.209
921.944
3280.85
146.202
146.206
191.255
146.21
146.265
3743.46
146.202
146.202
146.219
748.66
48831.2
1563.35
146.202
146.225
146.202
1899.88
174.814
794.893
391.606
146.202
146.21
146.202
148.234
146.202
240.982
1085.24
146.202
5794.82
146.202
146.202
249.114
146.202
426.778
146.217
3678.71
160.959
146.202
146.202
180.241
162.841
146.202
146.672
59491.9
146.202
146.225
146.215
146.202
146.202
146.202
146.202
146.202
146.207
146.202
146.19
5775.16
146.202
1260.12
6324.61
148.535
5933.12
146.202
3169.13
146.202
146.202
5469.19
1279.35
5753.09
6581.32
146.447
213.146
146.202
187.757
153.477
148.652
3565.82
289.086
146.206
9826.52
146.202
146.202
146.202
146.638
785.631
145.972
4750.46
146.202
146.21
146.202
2595.46
3570.29
146.202
6835.23
1865.57
502.012
4556.08
4652.06
146.201
146.202
149.086
146.21
146.202
146.202
146.202
146.202
155.089
146.202
151.943
1894.43
149.806
196.151
306.764
6104.49
146.202
146.202
146.202
173.263
146.202
146.202
146.202
158.101
146.676
2046.33
1023.77
148.752
147.014
597.045
145.317
1027.64
146.202
146.202
327.413
2043.15
333.391
146.208
146.202
141.894
604.545
146.202
1088.73
1706.02
2226.38
2933.27
146.202
146.203
148.502
322.089
146.204
3217.34
1048.94
212.042
146.202
1733.75
227.456
150.319
146.203
146.202
229.325
146.588
146.202
146.202
2241.2
3310.3
2990.17
146.208
146.203
1664.79
1096.16
146.202
146.202
146.202
9644.09
150.754
11065.7
3895.26
146.203
3624.64
3428.81
142.495
146.203
145.656
146.204
146.203
146.21
254.405
146.202
145.986
144.925
3598.19
146.202
146.202
146.202
146.202
1727.9
1305.98
146.202
3701.13
146.935
146.204
146.202
146.204
146.202
3659.4
592.648
146.202
146.202
847.714
146.203
146.202
146.203
146.202
146.205
5010.14
146.211
626.223
146.202
146.202
146.202
4974.04
146.202
146.202
1209.6
146.202
147.271
146.202
146.207
8819.1
146.202
234.235
147.784
1963.71
146.202
146.203
146.202
146.202
146.202
146.212
146.443
4568.98
791.686
146.202
146.203
146.205
146.203
146.203
146.202
146.202
146.202
146.203
146.204
146.203
146.202
146.423
3974.37
1203.14
146.983
152.578
146.304
146.203
325.505
146.203
336.065
145.3
148.507
146.202
146.202
146.204
146.202
146.203
146.202
160.151
150.374
146.202
146.202
146.202
146.644
146.21
146.207
146.201
146.202
146.202
146.399
158.857
146.276
146.203
146.202
161.951
162.963
146.404
146.203
145.968
146.202
1330.91
146.202
1325.64
146.637
146.214
163.178
146.837
175.317
159.343
7200.44
135.272
146.206
28252.7
146.203
8108.69
146.202
3394.64
212.49
2627.68
821.709
146.203
146.202
146.203
2459.48
4945.77
146.202
2306.29
196.023
5648.16
146.202
146.202
146.202
146.204
3477.43
146.202
146.212
146.203
146.202
146.206
146.202
8648.85
1769.44
172.698
146.202
146.202
277.686
146.202
146.202
166.847
5626.62
158.616
146.202
146.202
278.734
167.682
146.202
146.201
1952.53
6495.07
2110.08
146.203
9752.3
149.912
146.202
146.202
146.202
146.202
146.202
145.34
146.202
146.202
146.202
146.202
146.202
146.202
146.202
146.202
146.202
146.202
146.206
146.202
146.202
146.202
146.202
146.202
147.108
538.128
337.088
146.202
146.202
146.202
146.202
446.272
146.202
146.202
146.202
146.202
146.202
146.202
249.62
146.202
146.202
146.202
146.202
146.202
146.28
146.201
146.26
146.28
606.457
146.201
146.202
147.416
146.202
146.202
146.202
146.202
146.202
146.202
146.202
146.164
146.202
146.203
1223.18
1077.28
146.202
146.203
146.202
146.202
146.202
146.202
146.202
146.202
1861.15
16165
146.202
14177
146.203
146.202
1717.67
6612.61
146.203
3196.64
990.939
146.203
146.202
146.202
146.208
146.202
4434.58
146.203
7426.58
146.202
146.202
146.202
3741.12
3765.13
3196.01
146.202
146.201
146.202
146.202
146.202
146.202
146.202
146.202
146.202
146.202
2376.78
146.202
146.203
146.203
146.202
146.202
146.202
146.202
1121.65
168.487
5438.94
146.204
146.205
146.202
146.202
146.187
146.212
146.202
146.204
475.413
146.203
146.202
146.203
154.549
146.202
146.876
146.203
146.204
146.227
146.202
146.255
8361.81
225.506
139.686
146.202
146.285
189.543
146.203
146.201
146.202
146.202
146.259
146.21
146.224
161.284
2143.72
1767.79
150.758
146.202
146.207
2055.57
146.205
146.201