/*--------------------------------*- C++ -*----------------------------------*\
| =========                 |                                                 |
| \\      /  F ield         | OpenFOAM: The Open Source CFD Toolbox           |
|  \\    /   O peration     | Version:  v2012                                 |
|   \\  /    A nd           | Website:  www.openfoam.com                      |
|    \\/     M anipulation  |                                                 |
\*---------------------------------------------------------------------------*/
FoamFile
{
    version     2.0;
    format      ascii;
    class       volScalarField;
    location    "5";
    object      ILambda_6_0;
}
// * * * * * * * * * * * * * * * * * * * * * * * * * * * * * * * * * * * * * //

dimensions      [1 0 -3 0 0 0 0];


internalField   nonuniform List<scalar> 
108993
(
146.502
146.208
146.202
146.201
146.202
146.202
148.461
146.202
146.202
399.271
146.202
146.202
146.201
145.82
146.416
146.361
527.508
152.258
146.201
146.214
146.202
146.201
146.203
146.203
146.202
146.202
146.202
146.218
146.208
146.202
146.202
146.17
146.202
148.776
146.201
146.202
146.202
146.202
496.696
6346.54
146.205
146.202
146.177
146.202
147.451
10512.4
146.202
146.261
146.203
146.206
146.202
146.371
146.206
146.202
164.092
146.208
146.202
146.202
146.201
146.202
146.202
146.202
146.202
146.202
146.202
146.202
146.202
146.201
148.297
214.974
146.203
146.201
146.201
146.201
146.202
146.202
146.202
288.251
146.202
146.202
146.202
167.342
146.201
146.202
151.524
146.185
146.202
146.202
146.202
146.202
146.202
146.202
146.202
146.202
146.202
146.067
146.202
146.202
146.202
146.202
146.202
146.201
146.211
146.29
146.202
146.202
146.202
146.201
146.201
3593.33
146.906
146.202
146.278
146.318
146.202
151.233
146.202
146.202
594.639
146.202
176.948
146.202
638.512
146.202
146.202
146.706
146.205
146.202
146.202
146.201
146.169
146.201
146.202
149.204
146.202
146.202
146.202
146.202
146.202
145.938
146.202
146.202
145.012
146.201
146.201
146.201
146.202
4832.62
146.202
148.232
148.235
146.202
146.206
148.417
146.202
146.208
146.233
146.201
146.201
146.358
148.413
146.201
146.202
146.202
146.201
146.28
146.202
146.202
146.202
146.202
146.201
146.205
146.364
146.202
146.21
146.202
146.234
146.202
146.202
146.202
515.375
146.201
146.201
146.202
146.22
146.202
146.201
147.296
147.163
146.202
146.202
146.201
146.203
146.217
146.202
146.202
146.206
146.202
146.202
146.202
146.202
146.22
146.202
146.201
147.83
162.627
146.202
2160.2
146.202
131.983
146.292
146.202
146.239
809.648
26225
146.202
146.437
146.202
146.201
146.202
146.201
148.191
146.193
146.219
146.202
146.202
146.201
146.202
147.392
146.202
3358.14
146.202
146.202
146.211
146.202
146.202
146.201
146.202
154.378
146.201
146.202
146.202
146.202
146.201
146.201
146.278
633.183
407.885
146.201
146.201
146.202
146.201
146.202
146.202
146.201
146.201
146.201
146.202
146.202
146.202
146.202
146.202
168.036
146.854
146.201
146.202
146.202
146.203
146.202
146.202
146.202
146.202
1737.77
884.243
3631.33
146.202
146.202
1033.22
146.202
146.202
146.202
16069.7
15224.8
146.202
146.202
146.166
146.201
146.202
146.196
4249.5
181.586
146.202
146.203
146.202
146.202
146.202
146.202
146.202
382.65
146.202
248.771
147.723
146.202
146.202
146.202
146.203
146.201
146.202
146.203
1375.35
146.202
146.202
246.065
146.202
146.203
147.703
146.202
190.513
1956.44
146.202
146.215
146.202
146.204
146.204
146.202
154.789
163.291
257.726
146.202
146.202
146.203
281.508
154.605
146.202
1030.61
146.202
146.202
146.202
146.202
146.202
146.202
146.968
146.209
146.202
146.236
147.223
146.202
146.202
146.202
146.202
146.202
146.202
19144.2
1425.43
146.201
146.202
146.202
5719.1
146.202
146.202
146.091
146.208
146.202
146.202
146.202
146.211
146.202
146.202
146.305
1836.83
146.214
146.107
146.202
149.2
146.209
210.694
146.104
146.202
168.716
146.202
243.254
202.426
146.212
151.357
147.121
146.21
379.725
1153.61
146.202
2162.86
226.461
146.213
246.874
156.792
1741.66
146.205
249.739
146.202
147.335
146.202
146.205
958.452
1035.34
146.202
146.201
146.215
146.209
146.202
146.202
198.349
148.577
146.204
200.998
146.202
146.202
146.202
155.039
267.653
623.608
146.202
219.19
146.212
146.047
146.202
146.202
148.821
146.202
260.385
148.86
146.202
250.35
1363.79
259.145
146.202
146.202
523.491
146.201
146.202
146.202
146.202
146.941
146.202
146.202
146.202
157.538
146.213
146.212
146.361
146.202
146.202
146.2
146.202
146.202
162.314
146.202
146.225
146.988
146.202
146.202
146.202
411.153
146.202
806.702
148.689
376.011
146.202
146.202
746.006
146.202
146.202
222.364
146.202
146.202
146.211
146.201
146.477
146.202
149.605
1995.28
307.659
146.202
146.202
146.202
146.202
146.202
146.203
146.202
146.202
146.345
146.213
147.334
146.202
146.726
146.202
149.91
146.202
146.202
146.202
146.202
146.204
146.202
146.202
146.202
146.202
146.705
147.416
146.202
146.202
1143.58
146.202
155.53
146.213
146.202
145.655
146.202
146.201
146.202
146.202
146.205
146.209
146.206
146.206
146.214
146.206
146.202
168.33
146.214
146.202
162.333
146.207
146.211
146.202
158.982
160.422
146.202
146.202
146.228
146.22
484.708
1802.19
146.202
2737.35
146.202
146.202
146.202
146.202
146.202
153.497
146.202
146.202
252.753
146.21
15547.3
146.202
147.164
146.202
146.202
146.208
151.283
146.204
159.759
146.202
146.203
146.212
158.253
695.336
146.299
146.202
146.207
146.205
146.202
146.203
6012.24
156.462
219.244
146.206
146.226
161.031
149.801
146.317
145.109
146.205
146.202
146.201
146.202
146.915
9363.5
156.403
146.167
146.202
146.206
146.202
146.206
146.202
883.051
146.202
146.202
146.202
146.248
284.743
146.202
146.202
2170.08
147.135
146.925
146.202
979.962
146.202
201.19
146.203
152.269
146.203
148.067
146.203
146.21
146.202
145.983
146.202
514.246
146.202
146.371
146.202
146.202
4585.34
146.211
146.202
146.202
146.986
15535.8
146.731
183.338
146.202
147.156
152.941
146.34
146.202
146.202
418.199
149.969
146.327
213.993
146.332
146.202
146.218
146.202
146.404
146.157
146.305
146.949
146.415
146.191
150.092
2258.44
10515.5
197.785
146.206
1669.26
10331.5
214.562
10563.8
9967.88
146.202
264.293
146.202
146.202
146.212
146.212
146.35
688.155
2143.09
147.753
146.213
146.299
10527.5
10574.5
146.202
146.217
238.418
146.202
4756
146.211
149.922
737.409
146.328
4700.19
147.602
201.547
241.045
255.687
159.512
146.202
146.202
146.32
318.553
146.204
7665.07
316.808
990.519
372.854
202.055
146.534
146.202
146.202
146.202
154.416
146.202
147.147
146.204
146.202
146.202
146.21
2106.59
764.488
146.202
295.472
146.202
146.305
1233.78
146.202
146.311
146.205
146.298
146.229
146.544
160.662
147.386
146.212
146.836
146.933
146.202
146.343
146.276
146.541
147.041
146.189
146.202
151.899
146.202
146.202
146.211
146.202
147.067
2815.91
1151.63
145.297
146.207
145.327
149.097
147.035
1160.34
146.283
146.202
146.202
145.388
146.202
146.212
146.202
146.203
150.259
146.202
145.861
146.202
145.416
146.198
247.802
146.208
146.208
1934.85
146.201
146.202
146.192
146.26
146.202
159.419
237.379
163.456
146.165
1426.2
745.244
351.045
146.202
152.159
146.143
146.131
146.206
146.21
146.213
146.202
146.202
253.345
146.202
3765.76
146.202
146.202
4807.44
147.537
373.641
146.204
150.778
146.202
146.211
146.775
146.202
146.202
146.474
146.202
146.224
149.01
146.202
146.202
146.203
146.205
146.202
244.438
146.202
271.681
146.204
146.233
411.997
146.204
400.4
561.382
154.455
145.588
176.93
146.211
146.203
203.425
158.108
146.212
150.375
1806.94
168.426
146.202
146.58
146.203
146.203
234.686
4838.96
146.203
146.202
145.596
154.139
146.102
146.203
157.22
146.129
146.202
1519.54
146.197
4145.2
146.186
1073.03
146.184
146.212
146.222
323.32
146.228
146.185
146.236
146.236
255.672
146.205
12852.3
146.201
146.202
146.202
457.997
146.67
470.241
146.201
146.202
148.121
13337.2
146.202
389.468
147.307
243.799
146.211
156.83
9621.55
11946
146.208
147.625
146.205
155.747
146.202
153.528
4509.91
286.966
146.202
146.202
149.275
187.885
146.4
146.202
146.202
147.548
165.522
146.202
150.869
146.212
146.204
154.73
146.202
146.203
161.839
282.332
146.202
146.248
146.202
146.824
176.961
146.272
200.628
146.204
187.913
413.971
169.139
146.207
146.201
166.031
146.215
146.209
146.201
149.848
146.202
146.299
146.202
146.202
147.581
146.202
146.412
146.819
160.768
182.602
146.202
215.71
146.204
1602.91
146.205
146.202
146.201
146.495
146.298
146.202
397.433
158.604
146.306
147.059
146.202
156.366
147.022
150.241
147.601
157.242
765.628
162.454
392.014
160.61
146.21
146.661
4304.92
146.322
818.69
994.869
809.742
146.561
146.214
146.21
1082.13
149.105
398.742
146.202
146.206
1743.11
146.202
146.202
146.202
1788.95
146.201
146.202
146.203
146.206
146.202
146.203
146.204
147.226
146.204
146.202
602.374
146.201
3947.97
146.202
146.202
146.208
146.202
146.206
1500.33
156.45
146.203
146.202
146.202
146.972
146.402
146.261
146.205
146.202
223.351
146.202
146.221
152.996
149.576
146.202
146.201
146.201
146.202
146.199
146.207
146.202
146.202
146.202
146.202
381.486
146.202
146.207
146.201
146.202
146.207
146.388
146.206
146.204
146.202
146.202
146.205
146.216
146.203
146.202
146.202
267.927
146.187
146.211
146.202
316.557
146.207
146.202
18578.8
146.881
144.216
146.21
6787.21
148.802
165.646
146.21
18431.6
146.202
146.203
146.202
146.334
471.467
5986.17
160.578
146.204
144.83
146.204
1714.88
146.202
428.674
146.287
180.222
338.274
153.567
146.448
146.383
146.202
146.202
146.202
146.202
146.202
146.201
148.401
148.635
146.204
3378.09
182.61
146.202
146.202
146.37
147.909
146.202
177.795
146.202
147.773
146.202
154.284
149.8
147.646
146.202
146.848
146.202
146.202
146.202
146.201
146.202
146.204
9635.22
146.9
146.201
146.202
146.202
146.115
146.131
146.202
146.205
146.202
146.202
146.202
146.203
146.203
146.202
146.202
146.202
146.202
146.202
146.207
146.202
182.89
146.678
146.379
7613.53
146.202
146.201
146.226
146.202
217.29
146.202
146.204
146.202
146.202
146.427
146.147
146.204
146.204
146.204
146.202
150.844
255.209
163.817
146.203
146.202
146.202
146.204
146.208
146.202
2530.09
146.202
146.202
146.202
146.202
146.202
146.216
167.056
146.208
1819.69
146.208
146.209
146.212
156.964
146.213
170.183
146.202
146.202
147.977
146.202
146.331
146.211
146.217
146.213
184.037
146.216
146.202
2701.14
146.202
3695.24
1438.02
146.209
146.202
146.204
146.187
146.204
148.668
146.201
147.753
2911.21
629.578
146.202
146.202
497.984
146.203
146.202
146.203
146.202
146.202
154.726
1339.89
712.193
146.202
146.924
146.202
207.669
146.893
146.203
146.201
1714.2
145.733
149.707
2188.33
146.798
147.394
146.202
146.202
835.908
146.202
146.203
3710.44
146.202
146.203
146.202
279.246
146.202
146.202
146.211
146.202
146.917
776.568
146.202
146.206
149.089
157.951
146.202
156.079
146.202
146.208
146.202
147.044
1014.88
146.202
2194.57
146.202
146.201
146.202
146.206
149.066
146.202
146.409
146.869
262.656
201.903
146.203
146.202
147.367
146.202
364.654
457.316
365.268
146.944
448.177
146.201
461.887
398.096
146.209
146.214
146.202
146.842
146.202
146.202
146.202
146.209
146.202
146.204
146.204
147.215
146.202
146.202
146.205
146.238
146.205
146.205
146.202
146.217
151.545
146.205
147.277
146.213
146.203
146.205
146.205
147.507
146.202
146.204
146.232
146.205
146.225
146.211
146.201
146.243
179.647
146.225
147.036
146.203
208.791
147.305
198.631
146.202
146.211
146.202
192.205
146.202
146.202
145.857
146.21
146.473
146.21
149.365
162.969
147.057
1595.25
146.202
740.794
146.202
146.21
146.211
146.195
146.183
2257.45
834.515
146.48
151.87
511.829
154.769
146.202
146.651
146.202
160.059
205.097
146.205
148.221
146.201
146.202
146.212
434.323
146.211
146.202
146.202
5498.15
4166.92
330.54
146.202
147.092
146.204
146.208
147.203
146.202
146.216
146.202
146.207
145.892
428.121
833.978
144.508
472.211
167.951
146.225
146.206
147.751
152.945
146.205
146.203
238.308
146.243
146.762
146.201
210.533
146.397
147.034
1725.35
187.29
222.611
1454.85
262.298
146.202
1925.11
261.666
146.202
275.256
146.201
3870.46
146.202
146.202
150.022
284.413
5823.75
273.504
4148.25
263.323
146.212
2608.73
175.304
146.217
11608.9
653.207
146.208
146.911
146.202
146.202
146.206
6219.26
146.394
146.202
392.979
146.202
197.483
4039.89
170.444
180.428
4239.43
146.202
15239.7
146.202
146.202
146.204
146.202
146.202
146.202
146.202
146.202
392.234
149.611
150.111
160.666
146.202
146.202
146.202
146.202
146.202
146.202
319.069
285.733
146.202
146.202
146.202
146.373
146.203
146.202
146.283
146.202
146.202
146.202
153.677
8209.64
146.251
1233.13
152.501
146.202
146.9
149.58
146.202
146.202
146.202
1602.14
3317.95
159.389
338.952
146.202
146.202
2293.65
146.202
154.902
146.203
146.202
146.212
146.202
150.654
146.202
150.738
244.437
155.428
153.526
150.785
147.865
146.202
146.407
146.202
146.202
146.202
146.202
146.202
146.202
146.204
146.202
1022.23
2361.18
148.076
302.421
146.202
146.202
1298.18
149.502
146.202
676.031
146.202
146.202
168.346
1837.36
778.899
815.673
146.202
182.847
1396.01
175.098
146.202
842.564
170.145
167.738
847.862
146.216
762.002
168.814
146.206
170.794
1106.6
172.258
147.519
146.243
147.27
146.208
828.809
1354.3
930.429
146.202
146.202
377.233
146.202
146.203
147.84
146.202
256.124
146.331
146.202
146.202
146.202
146.202
146.254
435.049
4983.93
905.089
396.267
146.202
150.446
146.759
146.205
146.203
146.203
146.202
146.202
146.202
146.202
146.242
146.202
146.202
146.881
210
146.273
146.859
9078.7
147.742
146.204
203.359
146.202
146.202
146.209
146.202
146.202
148.743
881.091
149.371
146.812
148.933
6399.89
148.206
146.202
161.501
180.708
146.21
155.732
146.201
160.087
146.202
174.453
146.203
156.499
146.203
146.202
146.202
146.202
152.628
146.202
159.331
146.202
155.622
197.535
146.202
146.201
7946.7
198.191
1815.07
267.746
146.202
148.37
354.465
146.202
146.203
146.86
146.823
162.436
146.202
159.042
151.8
1608.44
164.971
1313.13
1058.5
158.363
146.202
17181
651.802
157.49
3905.39
383.375
155.01
196.518
146.136
3063.94
147.698
627.519
146.21
146.208
208.552
146.215
146.203
146.203
146.21
146.202
146.203
146.214
146.202
3483.85
151.42
865.463
240.069
153.453
146.202
146.716
219.359
4323.44
167.386
246.172
714.08
153.43
233.058
149.937
146.208
1605.9
146.202
146.202
146.189
114.672
146.211
146.515
149.711
146.795
152.784
5502.31
146.212
156.81
146.206
146.203
146.202
146.207
146.202
146.21
146.433
242.148
200.336
4240.63
146.512
17575.6
146.206
521.977
145.83
148.759
152.285
151.654
146.204
146.205
146.202
146.202
146.202
146.201
146.422
203.896
146.208
421.507
151.818
147.221
675.322
4513.56
17091.6
536.326
146.202
150.118
148.157
146.202
146.203
178.464
331.988
146.202
146.169
146.202
146.205
146.202
173.54
158.416
173.937
170.826
146.202
20627.8
146.848
146.202
146.743
146.202
380.845
155.202
295.536
378.747
344.619
146.205
146.203
417.842
146.202
146.201
146.202
272.711
146.205
146.208
147.275
149.917
2439.5
146.207
146.205
146.205
146.202
146.207
146.202
192.555
3568.46
146.203
146.202
10328.7
146.213
146.202
146.208
146.213
146.303
4003.95
8085.91
173.299
147.666
146.202
1219.07
146.211
1228.15
2213.72
146.202
957.658
146.202
146.202
3873.21
146.201
146.204
3748.36
1069.03
3832.06
3910.02
146.202
371.761
692.855
1157.96
146.203
146.477
2665.12
3987
1669.81
202.117
147.262
207.008
235.704
250.75
2064.67
233.367
158.266
3780.88
146.202
146.202
594.247
2596.33
547.192
149.914
769.654
156.087
4878.49
146.202
274.96
146.202
2719.15
146.202
152.419
148.292
146.202
4158.22
146.202
3289.54
3801.95
146.202
146.202
1365.4
146.202
146.202
146.202
146.202
1731.92
146.202
3644.06
10065.2
146.202
146.202
5690.02
146.203
146.202
964.639
146.202
146.202
146.202
146.202
169
164.758
3519.5
146.202
146.202
2629.81
146.202
183.434
340.666
146.202
146.202
146.216
146.209
707.741
146.202
146.202
146.202
146.201
146.202
441.492
249.369
146.219
146.202
155.28
146.208
146.387
146.202
492.385
146.202
351.482
1705.24
146.12
146.202
146.202
147.018
2986.74
146.202
951.814
213.844
146.202
189.131
355.522
146.202
146.206
146.202
1885.58
146.202
146.202
146.202
146.202
146.202
1297.99
311.767
146.202
146.202
1111.69
146.202
205.814
166.074
146.202
11468.2
5964.61
159.65
146.208
146.388
234.205
4377.32
146.202
8483.16
146.202
2195.08
2254.74
146.202
160.279
2983.79
2644.85
6681.15
1420.31
146.212
146.202
146.202
1383.73
233.717
146.588
8326.7
146.202
312.602
146.202
1688.05
3232.75
2663.91
146.202
147.107
156.687
146.202
5546.12
146.202
146.202
146.202
4537.39
1988.42
1373.48
146.202
146.202
146.202
6967.81
146.209
4625.96
146.202
146.202
7747.95
153.653
146.202
146.202
11231.8
146.202
146.202
155.661
8197.74
146.688
155.495
146.202
15545.9
1522.55
206.47
148.777
146.204
307.537
146.211
151.556
2561.85
188.188
166.097
502.768
160.512
5073.67
146.202
13748
3845.61
149.501
146.202
152.214
17848.7
146.202
1574.95
4214.33
146.202
183.072
146.202
7486.44
372.445
150.752
1963.69
1283.34
146.202
146.202
146.202
146.202
2597.56
146.202
898.398
156.003
146.202
146.202
146.202
146.202
146.202
146.202
146.22
146.202
6457.62
146.202
2966.66
146.202
146.241
155.032
149.734
147.354
146.202
146.202
146.202
146.197
353.338
480.675
463.348
156.058
146.231
146.215
146.208
146.202
146.209
146.622
146.209
146.201
147.467
147.384
465.472
146.208
146.213
146.206
146.253
146.038
146.201
150.54
146.16
147.144
479.406
146.21
154.237
146.218
340.144
149.568
151.679
146.202
146.225
146.209
146.203
146.211
146.203
146.216
146.736
146.209
146.205
146.873
146.19
152.494
146.202
245.605
146.205
146.639
146.202
146.202
146.742
189.269
146.395
146.205
146.202
146.202
9874.43
1286.4
146.202
176.785
3458.26
145.444
804.56
147.816
212.002
1095.75
146.207
146.204
156.235
146.495
4052.25
753.375
146.201
145.844
146.192
146.202
146.201
146.202
146.202
146.202
228.414
146.207
146.201
146.84
146.202
147.615
169.489
146.202
146.202
676.343
559.479
146.202
146.231
146.201
146.202
146.4
146.203
146.202
151.232
146.206
146.202
146.202
146.202
146.167
146.202
146.558
150.485
1603.88
146.918
1370.89
146.922
147.082
146.218
146.205
3355.27
146.228
263.237
226.388
146.217
1787.55
146.961
146.222
146.218
173.291
646.328
167.854
704.426
146.208
170.748
364.417
146.575
2379.1
146.286
239.36
167.014
147.279
378.901
169.108
855.089
151.953
731.071
172.28
156.511
146.202
157.331
1263.98
146.19
146.192
146.181
166.442
146.208
147.767
145.67
146.202
146.202
146.215
152.167
169.471
146.202
359.422
147.55
146.202
146.301
146.202
146.23
145.683
146.116
146.202
146.202
146.225
146.202
146.202
146.202
146.238
190.394
146.202
149.815
186.044
1141.11
230.63
146.202
146.21
244.503
146.202
146.202
146.205
146.202
146.202
147.153
265.794
146.868
146.202
150.162
146.202
147.915
146.494
146.202
146.202
146.365
146.202
146.202
147.111
146.202
261.955
151.19
146.202
146.202
146.415
3549.83
8259.35
146.438
146.202
146.202
146.202
146.275
146.203
146.202
146.202
304.585
2482.1
146.202
146.202
146.202
11643.2
153.161
1458.61
11986.7
146.291
195.481
146.211
146.173
146.208
146.203
148.994
146.209
146.202
158.366
12423.6
146.202
146.202
12850.4
146.594
12200
146.202
1302.34
146.202
146.208
6716.74
146.202
7487.12
146.087
146.498
5373.89
360.025
146.69
146.225
7748.88
146.171
188.615
5067.03
146.126
182.191
8199.96
443.81
145.098
146.207
738.097
151.592
210.121
1211.73
146.202
147.611
146.873
146.218
146.822
278.373
152.011
146.202
146.203
236.32
146.208
146.215
146.208
146.202
246.716
146.201
260.69
3147.03
146.202
223.584
232.342
2803.48
155.688
146.221
1453.93
146.202
275.395
146.7
146.271
146.451
235.74
146.202
146.202
335.089
146.202
156.526
257.93
255.506
4853.6
146.272
146.692
438.204
258.375
146.091
146.202
146.204
234.741
164.184
218.025
146.203
146.566
4405.48
251.96
146.205
367.925
158.505
146.214
244.47
149.643
147.234
183.474
146.515
152.342
148.208
146.257
422.965
160.333
162.461
151.787
161.901
147.205
146.335
146.208
163.86
1348.37
146.208
148.036
4259.95
146.22
146.202
16341.7
146.213
146.206
146.565
146.202
15774.8
146.202
151.913
331.89
1044.7
146.202
146.452
146.202
17466.6
730.817
151.426
148.616
17188
14984.5
146.267
146.202
157.5
157.971
162.227
435.399
218.493
146.202
256.904
155.69
149.105
146.202
226.071
146.202
146.209
146.141
146.202
147.04
11607.3
146.202
201.304
146.676
146.249
146.934
146.204
158.748
146.202
149.274
146.611
218.835
146.202
146.728
144.97
146.202
602.542
262.609
4966.44
146.202
146.239
146.281
7570.73
146.202
146.222
789.803
146.202
146.202
276.037
146.202
145.642
146.202
146.774
146.202
146.234
146.202
146.202
146.202
146.202
147.338
158.001
146.202
146.371
146.202
146.304
146.361
146.202
146.202
3688.97
174.78
146.209
146.202
146.217
146.207
146.202
146.202
9343.5
6883.04
146.202
155.593
146.202
146.202
146.21
146.289
146.202
146.214
693.721
146.217
146.202
160.415
146.209
153.428
4140.69
146.21
146.214
146.208
10615.5
146.202
146.202
146.202
146.202
146.202
146.202
146.202
146.419
146.211
146.202
146.222
591.889
758.443
146.202
162.885
148.86
146.201
167.174
17637.9
146.202
146.4
147.554
146.217
146.212
146.206
146.289
163.911
146.206
146.206
146.208
146.262
146.21
146.224
154.729
152.915
146.271
146.202
146.212
583.105
146.21
146.206
146.202
1075.94
492.417
146.202
146.205
146.202
146.216
165.141
5520.32
146.203
146.298
215.019
151.299
146.202
146.198
11847.4
146.202
146.202
146.202
146.202
168.974
315.989
146.202
1062.03
598.585
146.207
146.204
146.202
2772.16
743.603
146.202
146.261
146.202
146.202
146.202
4076
1360.8
11018.5
146.204
146.203
146.201
146.206
172.223
147.233
179.89
146.202
146.202
146.205
7908.49
7226.11
149.319
146.202
200.568
162.69
149.056
158.058
309.891
150.843
4623.49
274.047
146.202
151.332
146.202
181.258
146.202
163.718
246.683
4462.03
197.625
810.787
285.12
146.38
183.21
194.494
149.752
146.902
396.634
150.811
160.865
151.374
146.202
186.146
213.459
238.447
146.214
5446.93
145.653
146.202
368.443
7390.46
146.202
146.262
146.201
146.206
146.215
146.202
146.202
220.61
11697
146.202
145.611
461.206
258.365
201.851
146.202
146.202
146.202
266.801
146.202
146.209
146.228
146.202
146.214
146.202
146.202
5331.35
168.272
146.202
146.202
146.202
146.825
146.206
151.091
146.202
146.216
146.205
146.202
146.223
146.202
146.203
146.202
145.84
186.014
146.202
337.254
146.202
146.202
2405.92
146.202
152.405
335.758
146.202
146.202
146.209
146.216
340.093
150.174
151.809
2370.78
151.679
146.21
198.208
158.377
150.924
151.972
148.499
608.526
146.202
342.481
146.202
146.202
146.202
146.202
146.208
149.762
146.202
9482.72
146.204
146.208
364.488
146.202
146.205
146.202
146.991
7489.4
160.322
146.203
146.202
146.208
230.711
146.202
1006.92
511.229
365.926
625.645
146.202
146.202
146.217
541.033
453.435
402.906
788.937
197.858
149.058
9919.7
1405.76
428.118
146.265
146.215
146.202
146.202
146.449
2656.26
146.307
162.862
3040.63
3461.5
195.02
3060.31
149.269
146.202
146.202
146.202
150.41
284.624
146.728
146.202
151.594
4378.88
146.253
7651.51
285.318
148.632
9538.25
146.202
151.83
9856.14
146.289
146.202
146.214
146.335
146.202
146.202
8572.02
146.202
146.205
154.591
146.207
9509.69
156.578
146.209
147.473
309.506
319.807
178.953
315.931
146.793
289.469
146.203
146.202
291.332
268.647
325.623
312.162
700.234
146.262
146.489
154.799
13585.3
146.202
146.205
773.814
146.202
17859.2
146.202
146.202
146.202
739.985
146.204
169.723
146.202
146.202
146.251
784.858
749.292
146.308
146.202
147.045
15215.6
9533.21
146.202
2129.58
351.498
167.739
12024.8
196.529
2327.24
146.202
146.202
146.202
146.202
146.202
146.207
146.202
13975.5
146.202
146.216
146.202
146.202
146.202
146.202
146.202
146.313
146.322
146.202
146.202
4184.91
146.214
15991.5
330.991
146.202
3038.97
265.658
146.202
146.202
15035.6
146.217
146.202
249.25
146.21
146.204
146.202
151.407
146.202
146.201
146.202
146.202
146.202
146.204
304.558
1001.1
146.202
146.217
146.202
205.054
146.202
152.581
146.21
146.727
146.204
146.204
146.204
146.202
146.256
146.203
146.202
146.202
146.201
146.202
7723.74
146.202
146.202
146.202
146.204
146.319
147.078
146.202
146.202
146.207
150.357
146.202
146.202
146.202
172.385
146.202
146.201
146.202
147.291
146.498
146.201
146.201
146.201
146.202
146.202
5716.98
474.781
417.241
147.529
146.244
146.229
146.203
146.215
160.767
545.859
146.221
146.481
146.202
146.202
146.209
4580.82
146.202
146.201
4706.25
146.201
146.201
146.202
146.202
146.203
146.205
168.168
161.392
146.201
146.202
5110.12
4908.71
5503.89
146.22
161.475
199.732
146.214
146.202
146.209
5390.98
146.202
146.206
146.202
146.207
187.068
146.202
146.202
146.202
146.221
146.218
146.242
180.198
146.202
147.419
164.16
146.202
212.138
146.201
146.202
146.202
146.214
146.203
158.025
146.202
151.479
146.472
151.462
152.513
540.47
146.219
146.202
146.202
146.202
146.22
146.202
146.201
146.201
146.206
155.768
146.218
147.805
168.844
146.202
557.818
146.82
405.751
146.216
146.201
806.562
146.202
146.201
146.202
1559.71
686.445
530.897
147.076
562.442
146.202
146.214
146.202
147.011
146.202
6265.19
146.957
146.202
146.202
925.368
146.221
146.202
152.234
146.201
146.202
2536.94
146.202
146.389
146.201
146.869
146.203
146.289
146.203
146.202
146.218
146.203
14360.9
146.202
149.037
146.203
146.21
1879.43
146.202
146.203
146.202
434.734
146.204
164.706
184.694
814.797
146.202
5484.16
237.581
146.203
146.202
3516.23
162.25
146.202
2295.5
188.045
146.219
146.207
146.202
2593.27
147.159
146.295
146.202
146.208
160.466
146.209
14354.2
146.204
146.407
146.208
146.202
146.345
146.209
146.205
146.202
146.202
146.72
480.689
1090.9
237.886
1026.08
1099.63
1145.92
146.204
146.202
146.202
1854.51
244.202
9272.57
204.408
146.212
270.033
1098.28
6174.29
5929.1
146.202
2978.36
6254.01
1002.41
146.202
287.483
1755.62
1693.9
7269.45
801.253
463.597
521.557
146.217
725.998
146.218
1310.43
146.21
6062.16
480.975
146.205
146.217
161.202
1159.28
146.218
150.15
146.201
146.202
489.681
164.777
146.202
146.209
146.202
147.536
146.202
49552.5
208.19
146.202
146.203
545.641
146.218
10648.8
4598.54
318.136
146.219
146.202
146.202
2552.9
146.202
146.202
145.79
146.218
146.216
509.624
153.133
146.203
609.973
6590.29
146.202
146.203
458.546
146.211
146.217
7439.6
146.202
146.202
153.947
971.408
32284.3
2149.23
146.202
146.215
146.202
1909.16
228.979
702.606
510.429
146.202
167.671
146.202
149.914
146.202
169.446
2033.91
146.202
6003.7
146.202
146.202
223.008
146.202
146.222
148.103
3041.23
1463.21
146.202
146.202
146.607
153.453
146.202
146.208
29590.1
146.205
146.21
157.189
146.202
146.202
146.202
146.202
146.202
146.206
146.202
146.216
166.093
146.202
1528.39
12611.8
147.473
162.472
146.202
163.785
146.207
146.202
152.732
2215.68
6024.83
198.569
148.885
153.16
146.202
146.238
236.154
147.666
152.509
146.802
146.214
216.661
146.202
146.202
146.202
253.508
148.605
146.213
4007.62
146.202
146.204
146.202
1860.8
9056.01
146.202
152.442
154.192
149.613
156.263
152.747
146.202
146.201
149.503
146.212
146.203
146.202
146.201
146.202
146.206
146.201
177.784
1480.91
151.436
146.579
152.017
146.264
146.202
146.202
146.202
149.204
146.202
146.202
146.202
149.924
146.21
4658.94
155.331
147.693
157.757
877.047
146.215
154.935
146.202
146.203
146.252
175.192
150.119
146.209
146.204
146.203
150.377
146.202
152.84
242.047
184.886
154.76
146.202
146.202
149.719
194.188
146.209
155.217
146.288
146.257
146.202
154.936
146.205
150.355
146.203
146.202
215.554
146.223
146.202
146.202
146.309
3928.98
147.205
146.209
146.207
146.517
149.528
146.21
146.202
146.202
7189.46
151.246
16910
150.436
146.203
4189.52
4185.24
146.206
146.203
146.214
146.202
146.203
146.204
206.198
146.202
146.216
146.203
4294.99
146.202
146.202
146.202
146.202
2122.69
1836.12
146.202
4254.47
146.218
146.809
146.202
146.213
146.202
4203.83
154.39
153.469
153.264
146.338
146.208
146.208
146.208
146.202
146.211
148.376
146.207
147.274
146.202
146.202
149.729
148.362
146.202
149.554
1353.46
146.202
146.209
146.202
146.202
4070.42
146.202
159.124
146.217
146.3
149.749
146.206
146.202
146.202
151.961
146.213
146.214
147.701
1112.24
146.202
146.202
146.21
146.202
146.21
146.202
146.202
146.204
146.21
146.211
146.208
146.202
146.925
5266.56
1270.66
146.227
153.151
146.203
146.213
424.383
146.209
160.202
146.214
147.698
146.201
146.202
146.206
146.202
146.209
146.203
221.237
148.802
146.202
146.202
146.201
146.217
146.207
146.216
146.201
146.201
146.202
147.976
221.05
147.618
146.214
146.202
219.339
212.869
146.922
146.214
146.21
146.201
146.215
146.202
160.11
146.207
146.211
211.299
146.822
151.611
211.628
152.21
153.147
146.209
34314.7
146.202
154.57
146.201
155.431
146.354
154.15
787.458
146.202
146.202
146.202
2050.45
5062.79
146.202
152.873
146.849
5484.23
146.202
146.204
146.202
146.204
151.263
146.202
146.203
146.203
146.202
146.206
146.202
191.036
158.509
146.574
146.202
146.202
152.599
146.202
146.202
159.798
5368.99
155.816
146.202
146.202
201.006
161.441
146.202
146.201
2010.94
150.932
2164.45
146.203
151.997
146.218
146.202
146.21
146.201
146.202
146.206
146.21
146.202
146.202
146.202
146.202
146.208
146.202
146.202
146.201
146.202
146.202
146.203
146.202
146.202
146.202
146.202
146.202
147.034
152.17
150.229
146.202
146.202
146.202
146.202
233.604
146.202
146.202
146.208
146.202
146.202
146.202
146.313
146.202
146.202
146.202
146.202
146.202
147.273
146.201
147.703
147.946
445.214
146.202
146.202
147.102
146.201
146.202
146.202
146.202
146.202
146.202
146.202
146.204
146.205
146.204
1158.15
910.656
146.202
146.205
146.201
146.202
146.202
146.202
146.202
146.202
1394.65
8261.88
146.202
5695.26
146.203
146.202
676.065
2831.69
146.203
146.225
582.097
146.203
146.202
146.202
146.209
146.202
1646.4
146.202
4063.1
146.202
146.202
146.201
146.64
147.179
146.444
146.202
146.201
146.202
146.202
146.202
146.202
146.202
146.202
146.202
146.202
147.382
146.202
146.203
146.204
146.202
146.202
146.202
146.202
146.24
1361.16
146.252
146.203
146.21
146.202
146.202
146.211
146.253
146.201
146.239
225.656
146.21
146.202
146.205
146.659
146.202
147.623
146.204
146.209
308.676
146.202
330.13
6432.46
246.56
146.211
146.202
318.955
250.796
146.204
146.201
146.201
146.202
260.814
146.205
146.209
222.688
1814.66
156.471
148.335
146.202
146.204
2104.31
146.206
146.217
146.203
146.202
146.202
146.205
253.813