/*--------------------------------*- C++ -*----------------------------------*\
| =========                 |                                                 |
| \\      /  F ield         | OpenFOAM: The Open Source CFD Toolbox           |
|  \\    /   O peration     | Version:  v2012                                 |
|   \\  /    A nd           | Website:  www.openfoam.com                      |
|    \\/     M anipulation  |                                                 |
\*---------------------------------------------------------------------------*/
FoamFile
{
    version     2.0;
    format      ascii;
    class       volScalarField;
    location    "5";
    object      ILambda_4_0;
}
// * * * * * * * * * * * * * * * * * * * * * * * * * * * * * * * * * * * * * //

dimensions      [1 0 -3 0 0 0 0];


internalField   nonuniform List<scalar> 
108993
(
146.204
146.209
146.202
146.202
146.202
146.202
178.323
146.202
146.202
146.21
146.207
146.207
146.202
146.216
146.202
147.101
146.226
146.202
146.202
146.21
146.202
146.201
146.208
146.203
146.202
146.202
146.201
146.211
146.21
146.202
146.201
146.209
146.202
146.206
146.202
146.202
146.202
146.202
5423.7
6612.36
146.211
146.202
146.226
146.202
1315.93
17244.7
146.202
149.503
146.203
146.208
146.201
167.115
146.205
146.202
146.203
146.203
146.201
146.202
146.202
146.202
146.202
146.202
146.202
146.202
146.202
146.202
146.202
146.202
146.204
181.832
146.202
146.202
146.202
146.202
146.202
146.201
146.202
146.209
146.201
146.202
146.202
146.203
146.202
146.203
146.202
146.262
146.202
146.215
146.202
146.202
146.202
146.201
146.202
146.202
146.202
146.298
146.201
146.202
146.201
146.201
146.202
146.202
146.203
146.205
146.202
146.202
146.202
146.201
146.202
5401.25
152.724
146.202
169.595
146.865
146.202
241.803
146.202
146.202
152.577
146.201
146.203
146.202
1025.94
146.205
146.202
426.685
146.211
146.202
146.202
146.202
146.364
146.202
146.202
255.392
146.202
146.202
146.202
146.202
146.202
146.213
146.204
146.201
270.557
146.202
146.202
146.202
146.202
8168.56
146.205
1125.64
1154
146.202
146.205
1222.71
146.202
146.239
146.203
146.201
146.201
208.81
1201.45
146.201
146.202
146.202
146.209
148.751
146.202
146.202
146.202
146.202
146.202
146.203
183.183
146.202
146.209
146.202
147.177
146.202
146.202
146.202
146.264
146.202
146.201
146.203
146.211
146.202
146.201
146.203
146.203
146.203
146.203
146.201
146.203
147.159
146.202
146.203
146.211
146.202
146.202
146.203
146.202
146.864
146.202
146.201
212.913
794.888
146.202
2665.16
146.202
1164.02
202.564
146.202
147.416
1170.54
21574.6
146.202
146.203
146.202
146.201
146.202
146.202
1101.7
146.211
146.552
146.202
146.202
146.201
146.202
629.786
146.202
4219.77
146.202
146.202
146.208
146.201
146.202
146.201
146.202
208.716
146.201
146.202
146.202
146.202
146.201
146.201
150.828
1231.4
942.362
146.201
146.202
146.202
146.202
146.202
146.202
146.201
146.201
146.201
146.211
146.201
146.202
146.202
146.202
163.156
788.982
146.201
146.202
146.202
146.203
146.202
146.202
146.202
146.202
2086.67
1276.51
6921.95
146.202
146.201
1029.77
146.204
146.202
146.202
24789.8
24261
146.202
146.202
155.545
146.202
146.202
146.213
4708.99
146.204
146.202
146.202
146.202
146.202
146.202
146.201
146.202
191.103
146.202
838.585
905.286
146.202
146.202
146.202
146.204
146.201
146.202
146.204
1518.9
146.202
146.202
148.432
146.202
146.204
945.057
146.202
147.902
8917.07
146.202
146.212
146.202
146.204
146.204
146.202
1851.5
1519.38
930.674
146.201
146.202
146.202
891.3
1864.6
146.202
3752.19
146.202
146.201
146.202
146.202
146.202
146.202
482.027
146.204
146.202
146.203
146.202
146.202
146.202
146.202
146.202
146.202
146.202
25681.2
1349.1
146.201
146.202
146.202
5725.39
146.205
146.202
148.356
146.204
146.202
146.202
146.202
146.207
146.202
146.202
146.203
2006.53
146.209
149.843
146.202
1419.76
146.205
1100.91
146.211
146.202
918.959
146.203
964.32
937.361
146.206
157.437
146.202
146.208
146.392
4624.27
146.202
2704.02
995.251
146.211
1015.76
146.214
1671.96
146.203
1368.03
146.201
1624.28
146.202
146.203
840.951
1171.23
146.202
146.202
146.214
146.207
146.202
146.202
1131.24
146.203
146.21
3944.11
146.202
146.224
146.202
1394.64
204.741
810.125
146.202
1156.83
146.209
1168.63
146.202
146.202
1099.58
146.202
948.418
1181.51
146.202
1321.95
8000.88
1239.71
146.202
146.202
146.212
146.201
146.202
146.202
146.201
146.203
146.202
146.202
146.202
193.438
146.283
146.22
182.845
146.202
146.202
146.481
146.202
146.202
146.207
146.202
146.202
146.203
146.202
146.203
146.201
223.251
146.203
618.37
583.798
207.909
146.202
146.202
919.233
146.202
146.202
187.728
146.202
146.202
146.208
146.201
906.148
146.201
208.925
2226.05
500.445
146.202
146.202
146.202
146.202
146.203
146.203
146.202
146.202
191.011
146.204
146.203
146.202
1690.16
146.203
4380.43
146.202
146.206
146.202
146.202
146.203
146.202
146.202
146.202
146.202
1455.97
619.554
146.202
146.202
4435.25
146.202
148.695
146.307
146.202
147.147
146.202
146.201
146.202
146.202
146.207
146.205
146.206
146.206
146.275
146.209
146.202
1371.9
146.21
146.202
1206.49
146.208
146.212
146.202
1283.75
146.211
146.202
146.202
146.345
146.204
146.264
2028.95
146.202
4822.07
146.202
146.202
146.203
146.202
146.202
1210.45
146.202
146.201
856.386
146.211
19982.2
146.202
146.203
146.202
146.202
146.208
1420.6
146.203
146.205
146.202
146.204
146.242
226.037
1176.49
146.203
146.202
146.211
146.212
146.206
146.209
8457.55
202.423
1218.31
146.213
146.203
235.372
1261
203.744
146.42
146.203
146.202
146.202
146.202
3423.5
17306
193.472
146.299
146.202
146.212
146.202
146.211
146.202
1369.48
146.202
146.202
146.202
147.492
202.541
146.202
146.208
1533.77
162.221
146.207
146.202
1271.97
146.202
147.98
146.213
1845.06
146.228
335.965
146.214
146.216
146.202
148.062
146.202
1199.05
146.201
147.613
146.201
146.202
5111.17
146.216
146.202
146.202
356.733
27220.6
191.27
1103.97
146.202
559.357
211.258
155.997
146.202
146.202
2275.45
4115.92
158.57
146.203
158.738
146.202
146.211
146.202
166.014
147.928
188.995
724.216
188.926
162.81
4480.89
2288.07
10532.9
213.2
146.209
162.075
10354.4
189.676
10586.5
10311.3
146.202
146.76
146.202
146.202
146.207
146.224
274.034
877.649
1854.44
321.108
146.223
148.431
10629.8
10579
146.202
146.255
241.533
146.202
7890.79
146.227
205.531
208.464
176.276
6269.48
235.626
239.369
181.824
224.607
1913.73
146.202
146.202
160.899
146.208
146.204
4517.26
146.232
2250.24
146.384
4210.4
146.285
146.202
146.202
146.202
255.522
146.202
861.547
146.209
146.201
146.202
146.238
2779.28
9387.66
146.202
3959.15
146.202
156.476
196.611
146.202
152.71
146.206
152.424
148.965
166.903
146.203
264.898
146.436
148.263
583.127
146.202
166.212
152.462
155.972
172.039
146.542
146.202
210.136
146.202
146.202
146.216
146.232
190.288
10757.8
3702.99
146.844
146.296
146.772
148.701
146.792
148.93
146.203
146.202
146.202
146.305
146.202
146.377
146.202
146.246
1091.18
146.202
146.343
146.202
146.306
146.277
248.167
146.214
146.211
1703.12
146.202
146.202
146.266
198.595
146.202
815.027
853.976
146.227
146.313
1515.29
1064.57
146.259
146.202
752.276
146.441
146.53
146.233
146.206
146.388
146.202
146.202
249.74
146.201
7762.25
146.201
146.203
9802.3
318.947
1258.15
146.214
963.032
146.202
146.335
723.963
146.202
146.524
307.581
146.202
146.203
146.203
146.202
146.202
146.21
146.213
146.201
250.819
146.202
3238.26
146.204
146.207
2414.14
146.204
1910.41
146.251
146.21
149.73
2741.63
146.272
146.203
188.493
229.514
146.217
209.036
2193.66
159.346
146.206
585.244
146.204
146.203
251.854
9220.05
146.203
146.202
146.751
212.528
146.211
146.204
244.505
146.376
146.223
10546.4
146.223
10624.6
146.224
10203.2
146.239
146.301
146.211
454.094
147.59
146.225
146.219
146.233
239.82
146.217
23096.4
146.202
146.202
146.375
2894.2
160.032
560.029
146.202
146.202
1006.45
21781.7
146.202
149.426
312.61
240.913
146.206
253.67
9638.59
22485.1
146.234
156.943
146.213
2237.77
146.202
2596.67
7879.89
2840.06
146.202
146.202
146.941
188.656
146.244
146.201
146.202
3448.58
802.053
146.202
2409.07
146.248
146.203
1956.58
146.202
146.203
5020.53
2421.57
146.202
146.817
146.202
146.203
205.026
147.565
2553.76
146.203
2524.25
147.665
204.929
146.212
146.283
157.249
146.209
146.209
146.201
147.683
146.202
147.804
146.202
146.202
467.225
146.202
182.718
2661.31
157.316
169.267
146.202
940.452
146.203
3233.41
146.209
146.202
146.201
146.25
153.749
146.202
146.22
1948.33
161.266
199.487
146.202
157.32
588.312
824.68
146.203
155.226
1778.61
164.712
146.224
159.862
146.207
146.444
6722.18
158.37
151.704
177.745
146.393
480.344
146.21
146.212
190.21
1054.44
146.219
146.201
146.206
249.686
146.202
146.202
146.201
213.079
146.215
146.202
146.205
146.206
146.206
146.204
146.205
149.971
146.204
146.345
146.214
146.202
7448.54
146.202
146.202
146.208
146.202
146.207
5500.2
191.365
146.204
146.215
146.202
146.571
238.839
147.293
146.209
146.21
228.671
146.225
164.76
3672.46
210.104
146.202
146.217
146.214
146.202
149.758
146.222
146.301
146.202
146.202
146.202
1223.5
146.202
146.229
146.201
146.202
146.228
187.445
146.209
146.212
146.202
146.202
146.213
146.51
146.203
146.202
146.202
3959.62
147.334
146.424
146.202
147.711
146.792
146.202
25844.6
146.926
257.779
146.385
6461.05
169.903
3473.98
146.3
25703.3
146.202
146.202
146.202
178.405
147.36
6470.51
454.679
146.204
146.559
146.211
148.58
146.234
147.365
148.034
146.262
146.352
2692.46
173.067
194.831
146.202
146.202
146.202
146.202
146.202
146.202
146.21
504.874
146.204
7541
146.291
146.204
146.202
198.145
313.628
146.202
146.291
146.202
148.529
146.202
150.343
200.951
646.845
146.202
152.256
146.202
146.202
146.202
146.201
146.202
146.211
9687.12
240.951
146.202
146.202
146.202
146.466
146.398
146.202
146.206
146.202
146.202
146.201
146.203
146.203
146.202
146.203
146.201
146.202
146.202
146.208
146.204
203.002
146.55
146.545
9419.64
146.208
146.202
151.113
146.202
146.204
146.203
146.205
146.203
146.205
159.244
146.953
146.22
146.204
146.204
146.203
146.224
1509.74
1484.03
146.202
146.202
146.202
146.209
146.209
146.202
3632.51
146.201
146.202
146.202
146.202
146.202
146.216
146.34
146.215
2423.61
146.206
146.206
146.21
874.46
146.655
146.25
146.202
146.202
926.834
146.202
190.426
146.208
146.211
146.211
1943.8
147.03
146.202
148.765
146.202
203.036
150.142
146.208
146.202
146.202
146.396
146.202
146.288
146.202
655.619
4705.64
148.792
146.202
146.202
149.102
146.203
146.201
146.203
146.202
146.202
3507.28
175.591
1654.37
146.203
306.833
146.202
195.667
160.667
146.21
146.201
151.187
147.335
208.309
147.295
163.444
148.61
146.202
146.202
146.344
146.202
146.203
4494.5
146.202
146.203
146.202
1063.16
146.202
146.202
146.256
146.203
393.788
2594.98
146.202
146.239
146.204
239.386
146.202
146.206
146.202
146.24
146.202
693.802
188.793
146.202
2846.07
146.202
146.201
146.202
146.233
1045.2
146.39
226.642
148.38
1270.19
192.782
146.203
146.202
1062.46
146.202
575.977
591.086
516.514
148.182
514.935
146.201
646.888
647.285
146.209
146.213
146.202
149.472
146.202
146.202
146.202
146.208
146.202
146.202
146.202
1789.56
146.202
146.202
146.206
146.204
146.207
146.206
146.202
146.279
350.972
146.206
175.101
146.217
146.209
146.208
146.206
2154.39
146.21
146.203
151.849
146.207
146.203
146.204
146.201
146.204
1221.18
146.203
467.515
146.206
231.592
212.39
146.22
146.202
146.211
146.202
146.221
146.202
146.202
147.262
146.211
157.497
146.21
1056.55
146.208
151.472
1711.23
146.202
992.216
146.202
146.211
146.212
147.516
146.255
2781.53
1421.04
195.828
146.229
2726.87
679.142
146.202
146.204
146.202
146.227
146.246
146.209
1255.71
146.201
146.201
146.21
146.565
146.212
146.203
146.206
14267.5
9960.57
146.58
146.202
544.568
146.204
146.203
153.253
146.208
146.348
146.202
146.203
146.211
146.605
5628.6
319.947
146.231
801.964
161.66
146.203
2940.46
198.071
146.203
146.204
146.21
147.027
1257.97
146.202
146.207
150.023
309.909
1716.13
146.207
146.208
3196.49
146.208
146.202
1969.18
146.207
146.202
146.21
146.566
9332.71
146.202
146.202
433.805
146.207
7697.67
146.21
5312.55
146.207
160.607
2775.57
146.439
161.705
22480.9
146.25
146.209
156.111
146.202
146.202
146.203
9399.6
152.366
146.202
774.569
146.202
160.325
7761.16
1162.61
163.409
5352.69
146.202
10181.1
146.202
146.202
146.204
146.202
146.202
146.201
146.202
146.202
619.072
160.587
183.897
222.766
146.202
146.202
146.202
146.202
146.202
146.202
858.962
217.926
146.202
146.202
146.202
150.279
146.204
146.202
147.243
146.202
146.202
146.202
199.256
17528.5
192.737
1568.27
1248.72
146.202
146.214
160.651
146.202
146.202
146.202
1541.2
4570.75
208.446
4324.99
146.202
146.202
5066.5
146.202
170.97
146.219
146.202
146.208
146.202
157.001
146.202
157.44
3905.44
2443.74
168.466
722.68
2747.88
146.202
154.571
146.202
146.202
146.202
146.202
146.202
146.202
146.209
146.202
181.102
18118.4
808.449
959.575
146.202
146.202
9496.43
171.044
146.202
809.747
146.202
146.202
215.684
2550.15
9149.08
1163
146.202
1478.71
8656.55
1338.58
146.202
1300.22
232.708
216.52
1583.04
146.208
9872.6
218.936
146.205
243.902
1156.43
245.221
186.85
206.649
172.69
146.207
1876.13
7747.59
9709.08
146.202
146.201
8028.72
146.202
146.203
176.298
146.202
1981.61
154.145
146.202
146.202
146.202
146.202
148.076
909.318
5422.3
960.545
1262.47
146.202
687.914
157.908
146.219
146.204
146.207
146.203
146.202
146.202
146.202
146.227
146.202
146.202
230.293
1116.52
149.456
261.959
18579.9
2605.39
146.205
211.481
146.202
146.202
146.216
146.202
146.202
146.203
1367.45
156.921
146.329
446.94
6288.82
199.047
146.202
257.514
949.459
146.358
3709.97
146.202
146.25
146.202
1035.01
146.21
220.104
146.204
146.202
146.202
146.202
1073.78
146.202
222.335
146.202
2518.4
956.372
146.202
146.201
7854.8
1000.62
2928.16
1017.07
146.202
170.07
7629.38
146.202
146.208
149.063
1756.78
265.883
146.202
224.145
935.217
1730.44
274.632
3366.57
1214.83
217.275
146.202
23341.1
5176.11
2690.77
4775.31
146.21
170.955
181.035
146.54
4982.03
2527.48
176.715
146.208
146.324
215.773
146.212
146.203
146.208
146.21
146.202
146.204
146.238
146.202
13171.8
2386.38
153.122
2947.92
146.713
146.202
1341.52
1130.51
4484.77
325.575
1757.66
1480.7
1649.38
5524.81
478.136
146.21
5068.43
146.202
146.203
146.292
1169.92
146.213
216.418
189.65
149.488
1489.27
7354.1
146.211
210.996
146.33
146.203
146.202
146.21
146.202
146.213
817.322
1243.9
4232.23
11939
821.525
13817.8
146.241
1694.42
146.635
1430.44
737.143
2810.31
146.203
146.205
146.202
146.202
146.202
146.201
224.251
226.364
146.331
958.678
210.176
153.457
3516.99
6985.06
26436.3
2157.82
146.202
2019.51
154.446
146.202
146.204
880.026
752.24
146.202
146.273
146.259
146.213
146.202
2324.11
2209.47
1963.29
472.929
146.202
43471.9
146.411
146.202
163.281
146.202
146.228
3938.39
146.783
146.224
1652.92
146.212
146.207
146.226
146.204
146.201
146.202
999.851
146.228
146.206
900.118
169.498
2573.96
146.251
146.209
146.206
146.202
146.204
146.202
476.386
6980.65
146.202
146.201
18692.9
146.203
146.202
146.203
146.203
158.581
4744.26
25404.5
915.196
164.423
146.202
1755.21
146.204
1405.96
3271.02
146.202
1644.6
146.202
146.202
6322.4
146.201
146.206
3665.66
1812.75
5499.51
4741.04
146.202
989.8
982.058
1206.46
146.21
257.442
3623.69
4866.94
1485.24
2767.2
148.421
146.204
687.854
1199.15
2136.35
1057.77
718.463
4102.45
146.202
146.202
2586.13
4847.2
924.319
347.399
1009.78
1104.04
7588.58
146.202
394.216
146.202
5414
146.202
181.283
215.388
146.202
3966.39
146.202
3325.99
5194.43
146.202
146.202
2240.22
146.202
146.202
146.202
146.202
1324.7
146.202
5794.45
19649.7
146.202
146.202
7746.89
146.209
146.302
905.183
146.303
146.292
146.202
146.202
258.645
214.506
7387.27
146.202
146.202
2911.22
146.202
198.209
2135.17
146.202
146.202
146.217
146.205
2289.78
146.202
146.202
146.202
146.201
146.202
2249.32
2307.05
146.229
146.202
2859.39
146.209
150.247
146.202
917.482
146.202
1409.34
1684.75
146.25
146.202
146.203
150.515
4096.71
146.202
1101.37
152.085
146.202
215.424
148.69
146.202
146.257
146.202
2599.54
146.202
146.202
146.202
146.202
146.202
2005.72
247.692
146.202
146.202
1721.06
146.202
228.873
146.208
146.202
26914.5
9125.94
204.433
146.208
146.203
224.444
6928.56
146.202
9780.77
146.202
6287.24
3399.53
146.202
4075.51
5085.25
5980.46
21398.1
2196.98
146.208
146.202
146.202
175.266
260.111
250.648
6931.05
146.202
216.508
146.202
305.658
5332.76
2926.29
146.202
164.56
209.338
146.202
7333.65
146.207
146.202
146.202
7785.21
2672.89
1607.49
146.202
146.202
146.202
6602.74
146.816
12503.9
146.202
146.202
9173.26
161.606
146.202
146.202
20440.4
146.202
146.209
233.342
10499.7
167.113
811.535
146.202
26555.2
4413.36
215.876
199.947
146.213
2576.09
146.209
208.925
5392.05
3717.72
3899.45
2879.64
2747.69
10459.1
146.202
12876
4855.45
159.861
146.202
1636.56
10123.8
146.202
2145.94
6549.1
146.202
4266.99
146.202
12043.9
482.793
162.754
2160.71
2923.55
146.202
146.202
146.202
146.203
5741.82
146.202
1590.69
203.983
146.202
146.202
146.202
146.202
146.203
146.202
146.254
146.202
9031.3
146.202
6585.8
146.202
146.316
146.203
158.602
217.885
146.202
146.202
146.202
146.229
146.228
5362.17
5561.3
2578.56
146.293
146.211
146.214
146.202
146.209
550.89
146.217
146.257
147.972
171.989
5874.81
146.216
146.21
146.209
146.55
302.246
146.202
200.638
148.056
1714.03
5943.09
146.227
1946.97
146.213
146.228
1564.34
429.539
146.202
146.215
146.218
146.212
146.239
146.209
146.216
164.537
146.215
146.21
146.203
151.747
1206.64
146.202
247.383
146.209
151.947
146.202
146.202
213.412
296.409
162.516
146.204
146.202
146.202
9456.56
8363.82
146.202
186.207
8432.04
146.318
149.027
194.251
210.7
9644.13
146.205
146.209
252.03
146.203
9843.83
146.263
146.201
146.353
146.71
146.202
146.201
146.202
146.202
146.202
220.838
146.208
146.201
159.493
146.202
197.91
950.095
146.202
146.202
1168.21
1058.81
146.202
146.221
146.201
146.202
183.952
146.208
146.202
3112.74
146.205
146.202
146.202
146.202
148.034
146.207
652.594
5280.17
5287.41
373.049
5362.23
805.782
407.652
146.211
146.209
8446.85
146.224
146.204
936.723
146.211
5281.74
146.204
146.214
146.216
224.914
998.434
235.276
980.053
146.208
271.313
998.01
146.203
4060.96
146.203
239.627
241.256
2862.07
957.491
304.811
965.398
1504.9
977.659
301.069
146.209
146.202
2797.31
147.557
147.606
146.506
146.31
251.694
146.209
173.461
402.741
146.202
146.202
146.206
156.703
216.141
146.202
161.98
146.209
146.202
151.467
146.202
146.235
146.23
146.829
146.232
146.202
146.221
146.202
146.202
146.202
170.119
146.203
146.202
163.166
146.203
160.714
3245.65
146.202
146.208
146.65
146.202
146.202
146.204
146.202
146.202
2698.6
2267.48
300.399
146.202
146.257
146.202
923.485
176.435
146.202
146.202
205.142
146.202
146.202
3347.2
146.202
225.032
203.893
146.202
146.202
224.871
5359.09
7071.52
146.203
146.202
146.202
146.202
146.216
146.209
146.202
146.202
146.217
3092.27
146.202
146.202
146.202
19062.4
193.237
190.004
17876.7
200.912
146.204
146.274
151.279
146.208
146.208
1239.42
146.217
146.202
213.457
19332.2
146.202
146.202
21302.7
146.281
22267.1
146.203
150.416
146.202
146.206
5525.24
146.202
5306.77
148.812
146.203
5896.4
146.207
146.205
181.994
6373.34
146.534
1827.52
5634.79
146.663
342.737
6147.16
238.094
146.713
146.208
760.407
1305.05
169.483
4204.89
146.202
146.203
147.539
146.209
147.612
231.125
146.203
146.202
146.203
231.627
146.207
146.207
146.213
146.202
160.509
146.201
250.693
4806.15
146.202
233.196
226.519
4703.48
146.203
146.283
6734.96
146.202
240.469
1621.07
194.68
146.203
250.075
146.202
146.202
146.245
146.202
216.786
204.207
177.788
5424.67
205.917
146.204
146.21
205.777
146.214
146.202
146.211
183.881
146.454
189.669
146.204
146.596
5699.01
177.874
146.205
2860.79
198.517
146.211
177.925
205.831
156.642
185.733
302.611
208.391
490.64
209.394
3781.48
203.714
210.1
264.562
228.912
205.274
146.204
146.234
197.666
149.864
146.289
1924.54
6393.34
146.347
146.202
23572.9
146.207
146.206
197.054
146.202
22623.1
146.202
979.995
2866.05
4356.3
146.202
146.203
146.202
23392.9
146.416
569.735
146.209
22175.1
22483.1
149.814
146.202
3210.25
208.102
194.297
4285.84
261.415
146.276
625.102
146.207
192.123
146.202
146.203
146.202
146.212
146.666
146.202
146.203
8595.78
146.211
148.105
146.203
146.466
146.876
146.204
212.969
146.202
146.272
185.837
146.204
146.21
146.204
146.253
146.202
206.572
146.247
11254.6
146.202
146.399
209.452
10495.1
146.202
146.463
834.171
146.202
146.328
5643.2
146.202
148.106
146.202
146.203
146.218
157.599
146.202
146.248
146.216
146.202
155.845
4477.51
146.202
217.682
146.202
149.51
148.233
146.202
146.202
6622.39
146.203
146.216
146.202
147.346
146.206
146.202
146.202
16637.5
11080.3
146.202
194.801
146.202
146.202
146.209
211.099
146.202
146.218
151.947
146.211
146.202
209.844
146.21
229.094
4289.95
146.212
146.209
146.214
9962.16
146.202
146.202
146.202
146.202
146.202
146.202
146.202
167.879
146.215
146.203
147.784
1739.22
3559.28
146.202
212.53
206.046
146.202
256.112
17458.6
146.201
182.807
303.48
146.217
146.207
146.207
181.619
223.043
146.204
146.205
146.211
146.204
146.208
208.101
263.728
224.799
153.318
146.202
149.187
1647.46
146.208
146.211
146.202
2144.4
3168.2
146.202
146.209
146.202
146.221
215.267
5741.68
146.205
205.431
156.39
208.096
146.202
146.22
25317.7
146.202
146.202
146.202
146.202
149.434
146.694
146.203
146.988
146.22
146.207
146.205
146.202
3341.38
975.376
146.202
179.198
146.202
146.202
146.202
6963.05
1724.56
19266.5
146.203
146.202
146.201
146.206
197.922
146.257
2569.79
146.202
146.202
146.205
6810.76
15223
200.131
146.202
2560.11
2536.77
209.509
2299.68
1557.88
231.338
5271.22
927.162
146.202
146.202
146.202
146.203
146.202
146.204
3433.72
7984.7
1537.78
1084.51
1338.71
146.209
268.269
276.58
157.242
221.472
1610
237.283
431.619
2165.1
146.202
218.385
1608.44
146.253
146.203
13186.4
146.302
146.202
1607.75
8457.23
146.202
146.204
146.202
146.207
146.21
146.202
146.202
221.641
25154.7
146.202
146.273
146.235
1671.41
227.213
146.206
146.202
146.202
1407.28
146.202
146.21
146.395
146.202
146.218
146.202
146.202
6079.98
196.787
146.202
146.202
146.202
146.203
146.209
190.883
146.202
148.281
146.208
146.202
147.27
146.202
146.202
146.202
146.293
146.203
146.202
146.221
146.202
146.202
2551.73
146.202
3066.6
146.217
146.202
146.202
146.202
146.202
146.217
207.093
2542.33
2593.27
2749.49
146.225
231.064
214.01
2455.74
2767.07
232.757
965.355
146.202
146.22
146.202
146.202
146.202
146.202
146.261
1270.29
146.202
9218.59
146.202
146.215
146.224
146.202
146.209
146.202
167.291
14900.3
208.246
146.203
146.202
146.317
256.374
146.203
147.027
4022.86
146.224
3495.81
146.202
146.202
147.8
2931.99
3361.74
3283.88
3011.71
1897.49
216.59
16015.9
1400.47
3717.15
146.204
146.211
146.202
146.202
203.035
5147.07
203.419
214.479
5563.12
6283.73
146.234
6149.28
610.177
146.202
146.202
146.202
180.83
1044.33
180.598
146.202
207.818
5078.86
182.141
14430.6
864.224
1771.14
9827.05
146.202
2512.22
10315.5
201.225
146.202
146.217
146.365
146.202
146.202
9216.85
146.202
146.202
1788.96
146.208
9962.12
333.922
146.21
211.148
871.901
919.979
192.41
903.939
146.943
1052.81
146.213
146.202
964.135
149.9
905.637
877.59
154.415
146.548
274.298
203.86
20210.7
146.202
146.208
1108.78
146.202
25798.1
146.202
146.202
146.202
1091.97
146.209
213.756
146.201
146.202
148.068
1072.12
1136.1
200.704
146.202
184.602
23405.2
7419.6
146.202
2395.74
5897.78
1335.67
21283.1
146.204
2156.8
146.203
146.202
146.202
146.202
146.202
146.207
146.202
23168.1
146.202
146.331
146.202
146.202
146.202
146.202
146.202
203.088
205.029
146.202
146.202
4650.18
146.209
24190.4
163.544
146.202
3853.96
146.205
146.202
146.202
24111.5
146.214
146.202
246.224
146.207
146.205
146.202
213.88
146.202
146.202
146.202
146.202
146.201
146.204
146.206
956.549
146.202
146.249
146.202
213.552
146.202
146.229
146.207
437.266
146.204
146.204
146.204
146.202
149.263
146.212
146.202
146.202
146.201
146.202
13196.2
146.202
146.202
146.202
146.205
146.204
205.636
146.202
146.202
146.207
150.655
146.202
146.975
146.202
146.21
146.202
146.202
146.202
216.208
146.202
146.221
146.202
146.247
146.202
146.238
9897.13
152.404
146.208
146.204
146.203
202.511
146.203
177.481
211.734
209.942
146.309
146.202
146.202
146.202
146.212
6253.1
146.23
146.202
7122.52
146.274
146.201
146.202
146.202
146.202
146.206
2872.61
146.206
146.202
146.202
7601.5
5600.58
6126.58
153.644
514.459
1766.49
146.211
146.202
146.209
7493.67
146.202
146.207
146.202
146.207
1712.09
146.202
146.202
146.202
149.251
151.711
199.661
491.46
146.202
244.296
1828.13
146.202
206.297
146.201
146.202
146.202
146.204
146.211
231.894
146.202
1072.26
205.047
328.497
2107.19
1776.08
152.81
146.202
146.202
146.202
146.211
146.202
146.201
146.201
146.208
2694.95
161.57
201.09
190.545
146.202
1781.87
146.924
1076.15
146.518
146.201
1135.31
146.202
146.201
146.202
1813.45
1761.57
1881.47
146.202
1918.62
146.202
146.217
146.202
201.486
146.202
7510.86
159.362
146.202
146.202
9323.12
176.934
146.202
210.096
146.201
146.202
6707.27
146.202
189.765
146.201
151.872
146.202
146.202
146.203
146.202
152.331
146.202
27092.9
146.202
159.344
146.203
146.208
2305.99
146.202
146.202
146.202
2855.66
146.206
452.548
2643.44
2001.88
146.202
8813.03
295.298
146.202
146.202
4148.6
773.334
146.202
2920.13
1286.24
146.211
146.209
146.202
3502.16
146.202
146.202
146.202
146.209
2707.39
146.209
5698.8
146.203
146.578
146.209
146.202
186.558
146.209
146.204
146.202
146.202
201.164
2096.16
1209.52
224.754
1390.62
1730.2
1560
146.203
146.202
146.202
2145.95
5802.28
7586.41
215.035
146.306
291.512
1552.5
9183.44
6836.78
146.202
11687.4
7683.06
1194.54
146.202
1129.47
3549.21
4225.05
8075.2
1762.77
722.576
1942.23
146.212
2008.9
146.214
2425.26
146.227
7689.16
2607.97
146.202
146.212
877.294
3227.04
148.003
305.24
146.202
146.202
2486.52
146.244
146.203
146.206
146.202
191.499
146.202
36454.6
396.796
146.202
146.203
2459.76
152.57
25245.3
7352.88
2669.43
152.953
146.202
146.202
3441.3
146.202
146.202
149.282
146.221
146.217
2690.62
243.291
146.209
1243.87
7674.17
146.202
146.204
3165.76
146.203
146.21
8711.17
146.202
146.202
146.252
1645.19
32104.6
2797.28
146.202
146.513
146.202
2263.7
4515.29
933.844
7917.97
146.202
146.259
146.202
191.307
146.202
2062.15
1955.96
146.202
6747.83
146.202
146.202
226.218
146.202
190.49
146.23
5055.48
1279.19
146.202
146.202
156.496
2533.85
146.202
146.214
35035.4
146.202
147.141
146.293
146.202
146.202
146.202
146.202
146.202
146.205
146.202
146.21
2984.03
146.202
1881.28
8065.96
377.681
3086.69
146.202
229.157
146.204
146.202
3213.3
2944.67
6805.93
3091.51
1257.29
220.13
146.202
146.275
2497.99
558.831
1730.12
147.18
146.214
2460.67
146.202
146.202
146.202
183.573
154.497
146.206
4342.89
146.202
146.216
146.202
7719.72
9352.52
146.202
2375.73
1479.79
205.729
1828.92
2374.2
146.202
146.201
977.737
146.3
146.202
146.202
146.202
146.202
146.213
146.201
1585.09
1374.58
1272.23
146.42
208.986
169.297
146.203
146.202
146.202
1415.39
146.202
146.202
146.202
1583.38
146.229
5995.49
1875.13
237.623
818.512
1455.37
146.312
1967.49
146.202
146.203
146.378
4035.73
174.883
146.207
146.203
146.206
845.243
146.202
2388.52
1641.45
2507.22
1597.65
146.202
146.202
1116.09
236.555
146.21
1882.66
148.36
146.346
146.202
2218.2
146.227
974.601
146.324
146.202
216.836
146.211
146.202
146.202
147.166
4223.32
327.322
146.211
146.668
147.168
1818.27
146.514
146.202
146.202
10895.1
1062.45
9572.91
957.061
146.227
4269.01
4227.21
146.206
146.318
146.289
146.203
146.204
146.216
886.868
146.202
146.437
146.204
4322.5
146.202
146.202
146.202
146.202
2640.39
3100.42
146.202
4330
147.763
195.444
146.202
146.601
146.202
4331.83
2174.45
146.202
146.202
150.7
146.207
146.206
146.215
146.202
146.206
692.197
146.212
208.762
146.202
146.202
146.202
472.334
146.202
146.202
2276.71
146.202
146.207
146.202
146.204
7940.74
146.202
210.079
146.216
159.026
146.202
146.203
146.202
146.202
146.202
146.309
146.209
408.433
3505.25
146.202
146.202
146.205
146.202
146.211
146.202
146.202
146.205
146.211
146.212
146.209
146.202
760.951
11377
2342.45
146.467
161.515
146.212
146.208
1887.06
146.209
2615.04
146.425
161.388
146.201
146.202
146.202
146.202
146.209
146.202
248.343
172.997
146.202
146.202
146.201
146.214
146.204
146.215
146.201
146.201
146.202
2263.75
208.18
2174.45
146.21
146.202
246.501
244.468
1216.81
146.214
146.211
146.202
146.215
146.202
253.446
146.215
146.566
240.178
146.839
215.755
205.718
2442.91
2094.39
146.205
21112.2
146.202
2170.65
146.201
1630.03
146.346
1610
2422.48
146.202
146.202
146.202
2331.89
7062.38
146.202
1419.66
148.264
7133.96
146.202
146.204
146.202
146.203
1106.31
146.202
146.209
146.202
146.202
146.204
146.202
2696.47
2013.01
146.326
146.202
146.202
213.226
146.202
146.202
226.518
6454.16
200.849
146.202
146.202
1203.02
233.296
146.202
146.201
2169.9
1438.79
2167.55
146.202
1887.15
146.208
146.202
146.208
146.202
146.202
146.205
146.206
146.202
146.202
146.202
146.202
146.208
146.202
146.202
146.201
146.202
146.202
146.204
146.202
146.202
146.202
146.202
146.202
150.089
392.32
156.156
146.202
146.201
146.202
146.202
480.259
146.202
146.202
146.207
146.202
146.202
146.202
157.389
146.202
146.202
146.202
146.202
146.202
1980.52
146.201
2637.97
2673.13
464.827
146.202
146.202
1488.16
146.201
146.202
146.202
146.202
146.202
146.202
146.202
146.211
146.206
146.203
2525.42
2370.36
146.201
146.203
146.201
146.202
146.202
146.202
146.202
146.202
1265.59
11517.6
146.202
12972.9
146.204
146.202
3997.01
4751.7
146.203
146.482
1339.22
146.204
146.202
146.202
146.207
146.202
5699.41
146.202
7382.31
146.202
146.202
146.201
164.458
163.217
150.787
146.202
146.201
146.202
146.202
146.202
146.202
146.202
146.202
146.202
146.201
148.444
146.202
146.203
146.203
146.202
146.202
146.202
146.202
146.403
10457.7
192.951
146.206
146.207
146.202
146.201
146.214
146.259
146.202
146.206
6871.02
146.21
146.202
146.204
149.836
146.202
264.093
146.203
146.207
500.925
146.202
521.598
9374.37
244.71
146.36
146.202
218.614
244.577
146.202
146.201
146.202
146.203
232.392
146.207
148.054
222.145
2013.26
3726.82
1026.04
146.201
146.211
2087.22
146.209
146.21
146.207
146.202
146.202
146.204
3597.27
6992.1
2626.92