/*--------------------------------*- C++ -*----------------------------------*\
| =========                 |                                                 |
| \\      /  F ield         | OpenFOAM: The Open Source CFD Toolbox           |
|  \\    /   O peration     | Version:  v2012                                 |
|   \\  /    A nd           | Website:  www.openfoam.com                      |
|    \\/     M anipulation  |                                                 |
\*---------------------------------------------------------------------------*/
FoamFile
{
    version     2.0;
    format      ascii;
    class       volScalarField;
    location    "5";
    object      ILambda_15_0;
}
// * * * * * * * * * * * * * * * * * * * * * * * * * * * * * * * * * * * * * //

dimensions      [1 0 -3 0 0 0 0];


internalField   nonuniform List<scalar> 
108993
(
146.34
146.348
146.202
146.202
146.205
146.206
150.684
146.209
146.202
146.263
146.202
146.202
146.203
146.203
146.215
146.256
146.272
146.204
146.203
146.206
146.222
146.202
146.206
146.249
146.203
146.21
146.202
146.206
146.209
146.205
146.202
146.206
146.202
146.399
146.202
146.218
146.202
146.204
50404.1
3245.55
146.208
146.202
146.204
146.202
146.362
30394.9
146.202
146.955
146.208
146.207
146.202
146.583
146.296
146.202
146.208
146.249
146.202
146.207
146.202
146.205
146.203
146.203
146.254
146.202
146.202
146.21
146.203
146.203
146.215
154.738
146.229
146.203
146.204
146.203
146.216
146.202
146.202
146.287
146.202
146.203
146.205
146.215
146.202
146.202
146.205
146.205
146.202
146.202
146.207
146.203
146.204
146.202
146.204
146.203
146.205
146.215
146.202
146.203
146.202
146.202
146.204
146.202
146.218
146.228
146.205
146.204
146.239
146.202
146.202
962.916
146.601
146.204
146.774
147.183
146.202
148.028
146.207
146.202
146.399
146.202
146.204
146.202
372.853
146.202
146.204
146.326
146.212
146.235
146.202
146.202
146.211
146.202
146.203
147.918
146.202
146.203
146.202
146.203
146.204
146.204
146.202
146.202
146.241
146.202
146.202
146.203
146.204
6942.16
146.202
150.559
150.999
146.208
146.206
151.78
146.202
146.592
146.229
146.202
146.202
146.263
151.618
146.202
146.202
146.23
146.204
146.89
146.209
146.202
146.202
146.202
146.202
146.229
146.337
146.202
146.215
146.211
147.078
146.202
146.203
146.202
146.231
146.202
146.202
146.202
146.215
146.204
146.202
146.209
146.22
146.202
146.202
146.202
146.202
146.918
146.202
146.211
146.209
146.203
146.203
146.202
146.203
146.92
146.224
146.202
148.956
147.236
146.202
1134.1
146.203
230.776
146.469
146.203
147.09
692.278
68563.6
146.203
146.233
146.202
146.202
146.202
146.207
150.73
146.354
147.036
146.202
146.202
146.202
146.202
147.343
146.202
2409.37
146.227
146.202
146.209
146.202
146.202
146.202
146.202
206.168
146.202
146.202
146.203
146.202
146.202
146.202
146.408
745.413
238.822
146.202
146.202
146.202
146.202
146.202
146.202
146.202
146.202
146.202
146.202
146.202
146.206
146.202
146.216
146.3
146.383
146.202
146.202
146.202
146.207
146.207
146.203
146.211
146.202
881.528
69.4827
4678.51
146.203
146.202
390.512
146.203
146.209
146.21
24090.6
30782.2
146.202
146.202
146.223
146.203
146.209
146.212
8971.42
146.204
146.202
146.209
146.202
146.202
146.202
146.202
146.202
146.707
146.202
156.805
147.803
146.21
146.203
146.202
146.212
146.201
146.259
146.217
721.852
146.214
146.202
146.325
146.219
146.215
148.07
146.202
146.335
36241.1
146.202
146.234
146.202
146.206
146.205
146.203
149.358
4489.11
170.956
146.202
146.219
146.207
241.928
150.431
146.202
2228.8
146.274
146.202
146.204
146.202
146.202
146.202
147.009
146.206
146.208
146.215
146.209
146.202
146.218
146.202
146.202
146.202
146.206
25354
1665.41
146.202
146.206
146.203
7657.17
146.202
146.202
146.212
146.206
146.202
146.202
146.211
146.204
146.202
146.202
146.21
2864.71
146.359
146.222
146.202
656.074
146.206
212.89
146.252
146.203
148.545
146.202
151.379
150.993
146.204
146.774
146.214
146.225
146.246
4020.59
146.212
971.834
155.983
146.222
160.337
146.205
1139.87
146.208
4683.12
146.202
146.522
146.202
146.207
381.312
338.296
146.202
146.206
146.22
146.228
146.204
146.208
169.418
146.203
146.204
18524
146.265
146.202
146.202
426.531
183.213
1566.46
146.225
350.719
146.273
346.477
146.202
146.206
171.605
146.214
169.438
177.861
146.214
5010.83
49060.2
2406.91
146.202
146.202
146.248
146.202
146.209
146.202
146.202
146.216
146.203
146.203
146.204
164.915
146.486
146.286
146.337
146.202
146.203
146.203
146.206
146.202
146.295
146.202
146.222
146.219
146.203
146.202
146.202
307.417
146.203
320.983
149.045
146.258
146.202
146.21
319.151
146.202
146.202
172.354
146.206
146.202
146.207
146.202
146.313
146.202
150.779
2814.98
146.455
146.205
146.202
146.202
146.202
146.203
146.203
146.202
146.203
146.27
146.628
146.21
146.324
146.424
146.203
146.623
146.204
146.202
146.202
146.202
146.221
146.202
146.202
146.202
146.202
146.396
147.819
146.202
146.202
1005.14
146.202
146.54
146.434
146.202
146.247
146.202
146.202
146.207
146.202
146.229
146.209
146.206
146.206
146.344
146.279
146.206
146.355
146.225
146.203
146.333
146.253
146.21
146.222
146.344
146.203
146.203
146.202
146.885
146.206
146.266
1459.15
146.323
2374
146.222
146.235
146.202
146.203
146.216
146.311
146.203
146.202
171.933
146.211
57781.4
146.227
146.211
146.318
146.202
146.205
503.313
146.215
146.296
146.202
146.203
146.377
225.567
224.147
146.235
146.202
146.205
146.205
146.202
146.37
4879.26
207.883
168.875
146.219
146.212
253.956
1331.14
147.086
146.256
146.237
146.202
146.202
146.329
146.676
33100.3
229.551
146.209
146.202
146.21
146.224
146.233
146.202
84.8422
146.202
146.202
146.228
146.788
146.247
146.202
146.204
68.7776
146.273
146.203
146.23
68.9525
146.238
146.301
146.202
149.906
146.202
146.251
146.202
146.257
146.203
146.328
146.233
291.997
146.202
147.129
146.202
146.267
4784.89
146.257
146.204
146.202
148.53
30269.5
146.281
168.542
146.208
147.149
149.684
146.226
146.207
146.227
2879.18
146.443
146.489
146.206
146.494
146.202
146.34
146.202
146.24
146.211
146.422
146.299
146.28
146.264
146.624
2441.62
9478.19
229.246
146.239
167.842
9032.48
159.655
9159.06
9508.13
146.209
146.307
146.202
146.202
146.212
146.277
146.236
1247.74
2179.39
146.287
146.389
146.769
9238.16
9351.92
146.203
146.867
239.128
146.206
8091.66
146.484
172.611
146.25
146.243
9280.94
146.283
221.143
207.979
221.867
1973.28
146.202
146.203
146.375
146.227
146.206
107185
146.28
955.571
146.282
57558
146.889
146.202
146.202
146.202
146.26
146.203
146.306
146.211
146.202
146.202
146.394
1588.54
52780
146.246
8287.32
146.207
146.495
146.262
146.203
146.481
146.234
146.271
146.929
146.396
146.21
146.373
146.751
146.639
146.977
146.205
146.362
146.28
146.256
146.302
146.205
146.203
189.237
146.202
146.202
146.34
146.202
146.555
23421.4
1354.05
146.275
146.581
146.378
146.365
146.302
146.294
146.23
146.202
146.202
146.281
146.202
146.625
146.202
146.203
146.362
146.212
146.342
146.202
146.288
146.208
182.441
146.204
146.25
1177.97
146.202
146.202
146.215
147.245
146.202
147.655
185.549
146.226
146.216
2262.91
248.462
146.261
146.202
150.67
146.214
146.216
146.427
146.211
146.596
146.215
146.202
194.332
146.202
32889
146.202
146.202
2634.27
146.29
647.58
146.387
157.395
146.217
146.529
146.359
146.203
146.202
146.271
146.202
146.221
146.203
146.203
146.203
146.203
146.204
146.202
181.752
146.202
173.501
146.206
146.21
8215.57
146.209
3447.04
146.221
146.206
146.252
9560.66
146.658
146.205
200.005
161.945
146.289
155.584
1113.22
153.903
146.203
146.371
146.204
146.204
246.329
1939.77
146.205
146.561
146.236
150.356
146.27
146.213
234.304
146.218
146.202
89.0845
146.213
87.2855
146.25
115.973
146.218
146.471
146.246
146.564
146.726
146.213
146.246
146.244
161.165
146.295
21337.3
146.203
146.203
146.202
146.467
146.232
146.689
146.203
146.203
146.576
19984.1
146.202
146.672
146.572
161.025
146.209
221.043
7812.12
15590.7
146.397
147.507
146.209
152.679
146.21
150.589
26283.5
7905.18
146.202
146.202
146.677
146.271
146.634
146.202
146.204
146.672
147.815
146.203
147.559
146.354
146.216
156.559
146.203
146.227
167.474
9990.31
146.23
146.452
146.211
146.203
146.352
146.971
176.116
146.214
167.104
146.556
146.317
146.251
146.203
146.385
146.236
146.209
146.202
146.335
146.212
146.961
146.209
146.202
147.57
146.202
146.438
146.502
146.343
146.277
146.202
151.047
146.229
1031.24
146.231
146.272
146.202
146.691
146.854
146.202
146.255
168.417
146.741
147.24
146.207
146.279
147.291
147.714
146.206
201.756
1218.87
146.287
146.246
146.28
146.215
146.751
3757.3
146.782
150.657
146.702
146.3
146.271
146.215
146.221
148.042
148.907
146.259
146.202
146.208
148.217
146.202
146.214
146.202
149.03
146.217
146.202
146.213
146.209
146.204
146.212
146.21
147.78
146.216
146.202
146.233
146.203
2179.25
146.202
146.218
146.209
146.212
146.209
841.351
146.279
146.203
146.215
146.211
147.077
146.238
147.008
146.205
146.214
211.066
146.202
146.894
146.473
147.556
146.206
146.222
146.22
146.21
146.205
146.346
146.203
146.205
146.205
146.202
234.807
146.205
146.369
146.202
146.206
146.401
146.341
146.28
146.331
146.205
146.202
146.224
146.807
146.203
146.202
146.202
16040.1
146.206
146.692
146.202
153.467
146.235
146.202
25320.9
146.829
146.243
146.561
3735.16
146.289
146.497
146.537
25385.3
146.208
146.206
146.21
146.393
146.352
192.592
146.277
146.209
146.288
146.211
146.511
146.202
147.718
146.869
147.143
146.295
150.482
146.541
146.291
146.203
146.202
146.202
146.202
146.202
146.203
146.515
147.365
146.208
2177.63
146.429
146.203
146.203
146.283
148.188
146.202
146.728
146.259
146.322
146.202
146.28
151.354
146.484
146.202
147.426
146.204
146.213
146.221
146.202
146.202
146.212
7126.49
146.371
146.203
146.22
146.202
146.22
146.209
146.202
147.566
146.244
146.243
146.202
146.213
146.213
146.209
146.205
146.203
146.202
146.204
147.825
146.211
147.46
147.435
146.847
11521.3
146.209
146.203
146.21
146.267
146.207
146.209
146.206
146.203
146.203
146.969
146.213
146.367
146.205
146.205
146.207
146.222
1762.64
4213.74
146.205
146.208
146.202
146.293
146.206
146.202
2312.3
146.202
146.204
146.202
146.202
146.202
146.23
146.485
146.235
2451.92
146.214
146.218
146.263
148.037
146.658
146.433
146.21
146.255
150.137
146.214
146.31
146.231
146.227
146.22
1423.22
146.829
146.202
150.189
146.203
161.962
149.029
146.227
146.216
146.204
146.206
146.205
146.28
146.202
148.358
581.718
151.431
146.202
146.202
154.911
146.204
146.202
146.205
146.208
146.205
491.69
155.884
485.028
146.202
146.291
146.217
166.055
147.048
146.208
146.203
170.602
146.395
147.323
173.644
147.316
147.376
146.203
146.434
146.263
146.206
147.131
2231.27
146.202
147.174
146.205
185.238
146.203
146.202
146.362
146.202
146.914
437.031
146.202
146.541
146.293
214.999
146.217
146.3
146.211
146.418
146.202
146.952
146.26
146.222
1026.01
146.222
146.202
146.202
146.551
168.768
146.202
146.255
146.677
1378.46
147.395
146.203
146.205
146.435
146.297
593.249
499.496
451.842
147.06
450.838
146.202
648.631
649.539
146.222
146.22
146.207
146.611
146.291
146.202
146.202
146.224
146.202
146.207
146.205
146.604
146.204
146.217
146.205
146.334
146.206
146.205
146.202
146.774
149.332
146.205
147.918
146.316
146.203
146.224
146.21
146.368
146.202
146.212
146.915
146.205
146.334
146.344
146.202
146.331
545.815
146.363
146.286
146.322
146.266
146.997
146.297
146.202
146.211
146.203
146.303
146.202
146.202
146.229
146.211
146.252
146.205
149.289
146.298
147.187
911.324
146.211
331.036
146.202
146.211
146.211
146.204
146.205
1410.84
349.956
146.495
146.435
253.293
180.774
146.213
146.339
146.204
146.303
146.305
146.297
150.975
146.202
146.202
146.213
146.278
146.211
146.202
146.202
6929.73
2946.92
146.331
146.202
147.212
146.212
146.216
146.272
146.202
146.76
146.202
146.216
146.288
146.276
309.365
146.247
146.275
151.002
146.946
146.216
146.425
152.23
146.217
146.204
146.302
146.921
146.421
146.202
146.297
146.702
146.985
1027.79
146.313
146.309
1999.18
146.215
146.207
1054.59
146.218
146.202
146.224
146.203
14659.1
146.209
146.225
148.341
146.228
22510.4
146.215
3529.74
146.228
146.233
2604.19
152.035
146.234
34047.1
146.304
146.204
147.6
146.206
146.205
146.226
9525.31
146.662
146.219
246.614
146.203
342.213
5023.92
183.024
148.647
3064.15
146.318
115394
146.203
146.281
146.205
146.202
146.202
146.202
146.202
146.203
244.484
150.877
154.61
153.149
146.203
146.203
146.207
146.202
146.203
146.202
234.849
150.209
146.21
146.202
146.203
146.808
146.597
146.226
146.943
146.203
146.208
146.207
152.843
8118.12
146.835
680.549
150.725
146.208
147.597
150.526
146.376
146.205
146.206
2262.63
1102.84
154.137
13740.3
146.205
146.203
66310.9
146.204
153.333
146.202
146.204
146.254
146.205
149.942
146.205
150.777
23314.4
147.529
153.292
150.257
146.532
146.202
146.787
146.202
146.29
146.206
146.202
146.202
146.203
146.285
146.207
146.26
1389.4
147.955
231.466
146.206
146.203
53181.1
150.633
146.202
252.279
146.202
146.281
265.905
1937.83
50297.9
278.402
146.203
162.447
50527.9
162.768
146.202
379.516
268.551
267.911
463.535
146.235
44459
268.652
146.207
277.353
357.71
270.397
154.893
146.796
152.523
146.217
350.435
50293.2
51949.2
146.202
146.202
66377.2
146.202
146.402
148.215
146.202
1269.03
150.271
146.433
146.913
146.483
146.331
146.546
222.741
3453.65
421.644
609.507
146.212
148.182
146.859
146.412
146.206
146.225
147.797
146.6
146.206
146.503
146.331
146.356
146.255
146.253
216.357
146.641
146.246
48583.7
146.391
146.207
159.523
146.279
146.587
146.21
146.345
146.203
146.264
457.864
148.753
147.292
147.366
2521.09
146.243
146.597
244.702
175.561
146.596
149.715
146.204
146.628
146.202
169.275
146.324
149.276
146.204
146.202
146.224
146.208
153.453
146.203
229.586
146.203
149.423
174.224
146.216
146.201
5555.15
167.95
1078.32
217.128
146.204
148.816
65981.3
146.21
146.278
146.88
146.533
252.722
146.202
226.356
151.933
2208.04
279.166
204.711
380.458
225.53
146.376
75478.7
39919.9
146.432
15177.6
146.214
169.81
161.033
146.217
16164.6
146.36
146.246
146.212
146.488
157.8
146.24
146.212
146.258
146.208
146.202
146.206
146.325
146.278
7267.42
148.259
146.245
25234
163.773
146.218
146.403
215.839
2576.19
148.069
147.007
725.979
150.018
91620.9
148.238
146.204
5554.9
146.221
146.205
146.215
231.287
146.246
146.507
149.97
147.777
158.204
4872.56
146.22
220.541
147.246
146.206
146.202
146.205
146.218
146.214
146.313
896.229
374.979
66611.3
146.314
112135
146.532
275.376
146.257
147.294
152.931
4329.18
146.209
146.214
146.206
146.202
146.203
146.202
146.241
155.004
146.621
241.551
196.817
146.758
3241.21
3528.72
54981.3
236.293
146.233
1748.63
148.448
146.202
146.205
152.15
266.031
146.202
146.204
146.202
146.37
146.204
824.646
2085.39
1921.01
152.843
146.202
124598
147.913
146.202
146.51
146.202
146.253
164.839
146.458
146.245
2447.36
146.369
146.205
146.256
146.203
146.202
146.209
222.57
146.578
146.208
147.471
148.237
2020.1
146.535
146.284
146.209
146.203
146.346
146.29
156.498
4289.08
146.37
146.202
21934.9
146.369
146.203
146.361
146.361
146.963
8781.91
21395.1
151.524
147.765
146.203
697.832
146.378
740.752
2752.86
146.204
450.774
146.202
146.202
6796.04
146.202
146.313
6626.92
627.024
6547.34
8402.95
146.208
217.003
247.697
1063.08
146.254
146.245
2522.99
6334.2
1085.22
156.969
149.884
146.261
168.115
752.657
1139.04
197.634
178.117
8002.04
146.21
146.217
19778.9
3610.93
273.719
149.422
409.278
241.179
2005.09
146.203
239.051
146.208
6165.69
146.213
147.969
147.181
146.205
2028.63
146.213
4862.68
6823.09
146.207
146.219
921.019
146.216
146.202
146.202
146.205
1171.82
146.208
6825.64
38618.5
146.202
146.203
4164.64
146.242
146.203
294.872
146.203
146.202
146.206
146.202
271.076
259.563
2448.09
146.203
146.206
1974.65
146.203
299.212
723.142
146.202
146.202
146.233
146.215
403.115
146.216
146.21
146.204
146.202
146.203
3740.88
9086.66
146.278
146.213
21990
146.205
146.704
146.219
247.535
146.208
386.15
1580.84
146.205
146.267
146.404
147.272
3753.26
146.219
361.017
147.081
146.206
146.251
156.045
146.202
146.572
146.202
792.202
146.202
146.219
146.206
146.338
146.21
753.536
153.103
146.216
146.217
755.2
146.202
173.002
146.3
146.202
26573.3
5807.16
154.272
146.222
146.295
156.373
4721.19
146.203
15935.6
146.202
19461.6
3477.31
146.228
149.483
3111.56
987.4
11210.6
1061.18
146.308
146.202
146.208
163.817
222.546
146.239
7572.54
146.237
146.245
146.202
170.589
4243.2
1502.8
146.202
147.441
173.948
146.202
4573.09
146.203
146.264
146.209
8919.82
1583.25
779.544
146.206
146.208
146.203
3881.92
146.638
21812.8
146.202
146.202
6463.54
152.729
146.224
146.202
21248.4
146.202
146.203
159.005
21114.1
147.367
147.46
146.23
29899
2704.54
170.978
149.97
146.246
12514.9
146.215
166.34
1100.72
152.201
1230.55
12607.2
1666.51
30802.4
146.224
12972.3
3689.33
149.719
146.229
157.016
96117.8
146.204
848.82
37859
146.209
2316.94
146.224
18503.4
223.903
149.688
1825.43
1390.51
146.238
146.224
146.233
146.559
51506.2
146.208
474.943
200.773
146.202
146.202
146.202
146.208
146.685
146.257
146.832
146.211
15601.8
146.205
1742.87
146.202
147.107
146.203
146.272
148.162
146.202
146.202
146.203
146.204
146.253
55180.1
59372.3
154.89
147.052
146.208
146.21
146.207
146.22
146.278
146.248
146.205
147.66
146.987
50335
146.225
146.208
146.204
146.889
146.238
146.204
156.085
146.222
146.37
38098.7
146.387
149.88
146.21
146.249
148.466
151.945
146.202
146.263
146.471
146.204
146.618
146.25
146.26
148.698
146.225
146.204
146.226
146.223
152.39
146.239
215.507
146.205
147.05
146.25
146.205
147.31
146.307
146.704
146.226
146.207
146.202
8174.73
102.786
146.206
164.045
99.4758
146.209
146.307
146.251
248.962
134.011
146.21
146.292
162.073
146.209
127.621
146.279
146.202
146.227
146.207
146.285
146.202
146.202
146.258
146.203
161.06
146.205
146.202
146.523
146.202
146.278
149.133
146.243
146.202
219.763
219.261
146.265
146.241
146.201
146.282
147.134
146.203
146.202
147.71
146.241
146.29
146.295
146.325
146.208
146.202
146.28
146.582
4715.6
147.753
3496.76
146.309
146.314
146.238
146.204
4830.01
146.234
146.224
150.334
146.241
2555
146.203
146.236
146.57
267.86
283.708
277.021
329.578
146.205
287.763
177.101
146.208
164.162
146.228
218.438
285.406
146.543
212.154
271.912
318.794
146.573
298.488
303.801
146.511
146.205
148.498
146.264
146.288
146.208
146.205
282.058
146.206
146.291
146.251
146.205
146.203
146.212
146.474
161.25
146.202
146.243
146.777
146.203
146.662
146.202
146.547
146.256
146.213
146.203
146.202
146.253
146.202
146.202
146.202
146.228
146.204
146.202
149.23
146.204
146.568
305.984
146.206
146.266
146.414
146.205
146.213
146.218
146.202
146.204
146.638
146.521
146.257
146.202
146.34
146.202
146.432
146.727
146.202
146.21
146.302
146.202
146.21
146.713
146.206
172.954
155.257
146.258
146.202
146.243
2912.12
5628.01
146.283
146.203
146.202
146.208
146.36
146.242
146.204
146.202
146.233
2377.02
146.219
146.202
146.202
17029.1
222.876
146.286
16874
146.307
146.219
146.681
146.28
146.207
146.215
1074.78
146.443
146.202
187.192
17533.2
146.202
146.203
18449.4
146.878
16998
146.202
146.254
146.206
146.226
8371.99
146.203
8416.12
146.23
146.215
7501.42
146.241
146.206
146.96
8584.03
146.212
146.433
6376.4
146.211
146.986
8147.79
275.309
146.586
146.211
286.702
151.489
231.826
896.673
146.202
146.245
146.65
146.216
146.619
204.66
146.205
146.503
146.21
204.457
146.326
146.21
146.219
146.237
149.569
146.202
181.331
586.873
146.208
220.074
204.486
569.82
146.205
146.705
9467.62
146.202
196.179
146.423
146.688
146.237
180.398
146.202
146.202
146.279
146.202
148.93
196.283
192.003
2546.04
146.775
146.203
146.275
212.92
146.256
146.214
146.203
146.561
146.294
148.996
146.257
147.939
1157.49
202.515
146.238
7837.72
200.39
146.208
191.952
147.927
147.004
180.754
146.281
153.821
146.489
146.939
7149.6
206.798
146.242
146.722
234.249
150.093
146.213
146.449
208.902
146.251
146.594
146.802
1319.59
146.853
146.221
24664.6
146.209
146.262
146.577
146.208
33660.8
146.231
152.032
7378.59
664.109
146.207
146.241
146.209
23136.7
146.305
151.82
146.92
23738.1
31208.8
146.901
146.202
253.439
153.182
216.323
2218.89
192.252
146.203
146.412
146.233
146.351
146.203
146.204
146.202
146.242
146.209
146.202
146.285
77662.2
146.202
146.322
146.211
147.188
146.835
146.215
224.347
146.202
146.237
146.272
146.206
146.206
146.206
146.286
146.202
146.26
146.307
61594.7
146.202
147.262
146.365
20888.8
146.203
146.558
217.658
146.203
146.202
74202.5
146.203
146.232
146.203
146.214
146.204
146.243
146.202
146.202
146.203
146.319
147.018
150.549
146.202
146.241
146.202
146.782
146.538
146.413
146.202
3678.89
146.207
146.237
146.212
146.648
146.228
146.202
146.202
29681.1
9603.42
146.208
231.185
146.453
146.202
146.226
147.128
146.463
146.285
195.012
146.236
146.367
172.03
146.226
149.219
4258.35
146.209
146.214
146.243
9350.06
146.341
146.386
146.231
146.206
146.208
146.209
146.208
146.74
146.226
146.485
146.591
1619.31
3584.14
146.208
246.722
146.454
146.207
266.228
86797
146.202
146.679
147.915
146.219
146.205
146.207
146.748
238.867
146.212
146.211
146.203
146.217
146.223
146.936
146.25
157.989
146.355
146.209
146.956
1643.12
146.211
146.21
146.206
1309.99
5837.89
146.203
146.234
146.202
146.327
245.248
2972.37
146.208
146.884
150.658
146.313
146.205
146.204
16643.6
146.204
146.214
146.202
146.206
171.092
146.293
146.617
146.266
146.232
146.205
146.205
146.202
477.599
616.066
146.207
146.908
146.202
146.202
146.224
5173.62
668.757
31499.9
146.318
146.206
146.202
146.206
146.256
152.161
20224.6
146.243
146.202
146.21
5363.71
13056.8
146.258
146.202
20949
21096.1
146.348
6625.72
900.037
154.008
3978.37
182.711
146.206
146.211
146.206
146.218
146.214
146.267
30476.7
2913.7
193.945
266.437
1180.3
147.946
270.884
258.559
148.826
146.245
569.964
146.242
157.496
148.208
146.202
228.119
193.458
146.21
146.209
32126.9
146.218
146.202
2191.17
6373.9
146.223
146.205
146.206
146.209
146.295
146.202
146.224
206.792
17255.3
146.209
146.278
146.249
234.175
148.634
146.203
146.202
146.203
1628.74
146.288
146.213
147.008
146.202
146.307
146.202
146.203
6157.08
146.251
146.202
146.207
146.202
146.249
146.236
146.274
146.202
146.742
146.226
146.203
146.754
146.202
146.218
146.202
146.218
146.204
146.203
146.241
146.202
146.203
2792.42
146.202
254.623
146.248
146.206
146.203
146.216
146.238
146.264
159.317
178.216
1874.11
389.577
146.338
201.632
146.264
191.462
320.867
146.248
435.833
146.203
146.259
146.253
146.203
146.202
146.299
146.566
161.42
146.202
8850.54
146.213
146.313
146.232
146.202
146.28
146.207
148.451
33537.5
164.501
146.208
146.202
146.53
182.183
146.56
146.263
231.654
146.247
175.849
146.214
146.216
146.75
193.129
694.496
177.274
230.529
184.549
148.758
11540.3
994.22
165.987
146.206
146.208
146.218
146.212
146.426
4520.73
146.398
249.04
3595.12
3683.58
146.254
4824.61
147.769
146.203
146.205
146.205
149.109
200.035
146.773
146.259
149.032
2963.92
146.928
24647.3
190.056
147.621
8628.03
146.224
146.58
8492.19
146.371
146.209
146.287
146.933
146.203
146.202
8326.16
146.206
146.204
151.105
146.207
8143.18
154.767
146.211
151.035
181.98
199.099
206.754
185.444
147.31
201.192
146.237
146.226
201.87
252.151
220.308
194.284
146.281
147.107
146.314
214.32
33616.8
146.23
146.246
253.949
146.217
26041.3
146.235
146.203
146.272
246.006
146.203
223.045
146.203
146.294
147
254.905
247.45
146.266
146.202
147.627
29467.8
8227.11
146.202
1837.28
73410.3
160.751
30314.7
146.224
2389.46
146.202
146.509
146.255
146.202
146.206
146.206
146.21
29150.9
146.202
146.495
146.202
146.202
146.208
146.234
146.449
146.391
146.723
146.202
146.202
5341.72
146.213
27681.2
146.293
146.202
2642.7
146.232
146.202
146.202
27249
146.245
146.202
260.144
146.257
146.205
146.202
156.018
146.202
146.202
146.254
146.202
146.202
146.205
146.262
369.276
146.202
146.417
146.203
187.548
146.203
146.648
146.207
147.426
146.205
146.204
146.204
146.205
146.948
146.206
146.251
146.202
146.202
146.204
27243.7
146.202
146.202
146.228
146.205
146.248
146.823
146.202
146.202
146.209
146.342
146.207
146.204
146.202
146.295
146.202
146.202
146.203
147.331
146.21
146.202
146.202
146.203
146.217
146.202
7516.85
146.387
146.226
146.306
146.21
146.956
146.26
147.263
234.887
146.258
146.865
146.211
146.205
146.231
146.212
9517.46
146.204
146.202
9458.62
146.203
146.202
146.206
146.202
146.237
146.218
8119.56
146.207
146.202
146.211
9875.16
11323.5
11484.3
146.85
156.384
184.331
146.208
146.285
146.248
11443.7
146.209
146.212
146.225
146.205
5403.28
146.203
146.208
146.211
146.914
146.769
146.912
174.231
146.202
147.905
155.428
146.202
157.95
146.202
146.209
146.202
146.217
146.203
159.254
146.202
149.078
146.653
147.335
150.138
317.351
146.761
146.202
146.209
146.21
146.257
146.202
146.202
146.201
146.213
150.689
146.894
146.277
179.641
146.211
346.931
146.899
314.603
146.561
146.201
319.073
146.204
146.202
146.206
844.211
357.531
309.349
146.213
342.079
146.202
146.344
146.202
146.76
146.21
5159.64
147.059
146.202
146.202
172.858
146.941
146.202
152.32
146.202
146.202
7051.08
146.202
147.013
146.201
146.996
146.204
146.213
146.204
146.202
146.748
146.204
26838.2
146.214
188.365
146.203
146.234
1186.17
146.202
146.204
146.202
1911.15
146.234
152.814
162.436
464.499
146.202
9803.93
214.229
146.203
146.207
629.815
147.938
146.202
2229.22
1603
146.212
146.265
146.211
3328.01
146.208
146.214
146.249
146.21
3258.68
146.21
113770
146.206
147.067
146.209
146.206
146.398
146.209
146.227
146.282
146.209
147.229
3132.87
1111.06
234.79
2236.67
542.033
1866.42
146.216
146.202
146.202
1534.23
156.412
8761.53
157.796
146.778
151.288
2333.01
5524.47
3265.67
146.202
9023.31
3241.25
1124.96
146.202
316.274
1264.84
1242.77
5531.78
495.368
343.857
955.77
146.212
972.889
146.369
1224.63
146.463
6251.52
257.26
146.209
146.212
158.877
782.298
146.669
146.427
146.203
146.202
637.53
146.335
146.418
146.22
146.202
149.584
146.202
145076
146.445
146.202
146.298
258.234
146.813
23753.3
1802.69
235.841
146.8
146.202
146.22
1689.41
146.202
146.202
146.324
146.668
146.308
254.699
160.548
146.597
410.464
6163.52
146.212
146.203
8650.19
146.214
146.238
7384.72
146.202
146.202
146.528
481.666
69578.3
1184.85
146.322
146.713
146.281
1658.88
58818.8
296.238
50847.1
146.202
146.357
146.202
155.292
146.202
187.628
1111.43
146.202
7823.38
146.202
146.202
207.669
146.605
146.936
146.387
3013.84
1858.96
146.202
146.21
146.792
1359.95
146.211
146.306
73081.1
146.206
146.904
146.453
146.202
146.299
146.202
146.304
146.251
146.207
146.205
146.247
180.011
146.253
904.854
12147.5
147.465
230.764
146.203
236.421
146.21
146.241
179.656
647.139
7247.53
308.109
150.679
153.315
146.208
146.877
7831.25
148.446
154.624
147.249
146.204
248.879
146.253
146.228
146.202
146.426
147.719
146.219
5350.89
146.202
146.549
146.266
5925.03
6983.71
146.206
167.523
159.722
168.764
156.274
165.75
146.202
146.205
150.264
146.471
146.205
146.202
146.207
146.202
146.29
146.202
6243.3
1632.84
156.661
147.626
155.002
146.881
146.21
146.202
146.202
152.674
146.205
146.202
146.207
153.828
146.317
2409.07
154.472
147.299
147.673
487.879
146.469
155.131
146.21
146.213
147.103
188.808
148.717
146.208
146.206
146.214
149.796
146.209
155.204
192.429
163.845
158.36
146.206
146.293
151.933
147.632
146.21
155.431
147.075
147.181
146.208
153.902
146.514
153.252
146.202
146.206
160.214
146.34
146.208
146.208
147.126
4246.43
148.005
146.222
146.203
147.793
148.418
146.203
146.223
146.208
4582.71
152.556
103612
148.207
146.203
4306.23
4300.5
146.209
146.203
146.425
146.347
146.486
146.533
160.169
146.212
146.508
146.213
4408.89
146.21
146.207
146.202
146.206
2950.75
553.372
146.206
4493.04
146.62
146.419
146.21
146.284
146.211
4803.97
151.535
146.204
146.204
146.659
146.206
146.21
146.212
146.204
146.215
147.961
146.203
148.753
146.206
146.202
146.204
148.036
146.211
146.204
740.067
146.209
146.242
146.211
146.59
5882.49
146.213
152.22
146.341
147.069
146.204
146.207
146.209
146.261
146.204
146.509
146.253
148.012
659.176
146.209
146.213
146.207
146.213
146.209
146.21
146.205
146.231
146.209
146.206
146.208
146.209
146.335
1849.25
703.902
147.183
151.222
146.214
146.209
266.248
146.208
153.149
146.677
147.293
146.205
146.202
146.208
146.202
146.209
146.204
260.473
149.266
146.206
146.206
146.202
146.302
146.209
146.247
146.202
146.206
146.209
146.591
228.171
146.389
146.208
146.207
260.11
254.012
146.336
146.212
146.234
146.207
146.369
146.202
205.148
146.335
146.661
243.326
146.904
152.879
196.625
154.199
149.193
146.231
121712
146.214
157.998
146.202
158.784
147.477
158.238
422.661
146.217
146.202
146.212
1622.61
2426.2
146.202
158.168
148.049
7799.62
146.202
146.228
146.209
146.212
150.735
146.204
146.203
146.214
146.212
146.207
146.202
184.747
196.696
147.584
146.209
146.202
149.097
146.206
146.202
228.992
7828.84
208.213
146.202
146.209
157.069
242.496
146.202
146.202
2130.64
148.305
1755.4
146.204
150.028
146.249
146.205
146.21
146.203
146.202
146.213
146.225
146.202
146.202
146.212
146.205
146.214
146.207
146.209
146.202
146.202
146.206
146.287
146.211
146.241
146.202
146.208
146.21
147.149
148.786
149.335
146.202
146.202
146.208
146.207
192.989
146.249
146.206
146.211
146.207
146.206
146.207
146.94
146.202
146.203
146.209
146.207
146.205
146.386
146.202
146.39
146.383
485.452
146.202
146.204
146.486
146.202
146.202
146.203
146.202
146.208
146.209
146.218
146.204
146.21
146.209
468.823
387.267
146.203
146.209
146.202
146.206
146.207
146.202
146.204
146.203
1626.35
22015.5
146.208
22872.3
146.529
146.204
11131.6
13576.1
147.021
146.702
462.832
147.026
146.214
146.203
146.273
146.206
8961.37
146.203
12597.6
146.203
146.202
146.202
147.67
147.75
147.616
146.208
146.202
146.202
146.204
146.206
146.212
146.207
146.205
146.25
146.202
147.859
146.202
146.209
146.21
146.204
146.203
146.212
146.207
147.039
170.264
146.838
147.246
146.222
146.21
146.203
146.206
147.262
146.208
147.137
160.306
146.206
146.226
146.249
146.504
146.202
146.921
146.208
146.291
146.766
146.208
146.892
3850.58
219.062
146.594
146.215
147.111
220.029
146.213
146.202
146.203
146.208
147.014
146.204
146.864
197.675
2717.23
192.858
154.346
146.202
146.203
2719.62
146.204
146.244
146.203
146.266
146.204
146.226
291.808
4604.85
148.871
193.826
2112.94
146.203