/*--------------------------------*- C++ -*----------------------------------*\
| =========                 |                                                 |
| \\      /  F ield         | OpenFOAM: The Open Source CFD Toolbox           |
|  \\    /   O peration     | Version:  v2012                                 |
|   \\  /    A nd           | Website:  www.openfoam.com                      |
|    \\/     M anipulation  |                                                 |
\*---------------------------------------------------------------------------*/
FoamFile
{
    version     2.0;
    format      ascii;
    class       volScalarField;
    location    "5";
    object      ILambda_14_0;
}
// * * * * * * * * * * * * * * * * * * * * * * * * * * * * * * * * * * * * * //

dimensions      [1 0 -3 0 0 0 0];


internalField   nonuniform List<scalar> 
108993
(
163.254
146.211
146.202
146.265
146.546
146.211
148.675
146.587
146.202
146.288
146.219
146.206
146.346
146.204
147.995
146.666
146.264
146.289
146.306
146.216
151.785
146.218
146.206
157.596
146.337
146.212
146.202
146.215
146.214
146.202
146.202
146.215
146.202
157.149
146.243
147.957
146.202
148.806
9845.07
6311.96
146.203
146.196
146.204
146.277
146.387
18394.3
146.202
146.369
146.209
146.204
146.202
146.972
146.21
146.202
146.292
154.815
146.202
146.204
146.339
146.206
146.202
146.208
146.295
146.202
146.244
146.212
146.252
146.406
146.226
211.298
155.734
146.405
147.152
146.414
146.21
146.202
146.202
152.113
146.203
146.298
146.203
146.358
146.248
146.199
146.422
146.207
146.196
146.208
146.301
146.276
146.212
146.202
146.211
146.555
146.208
146.238
146.202
146.861
146.202
146.202
146.208
146.232
149.514
146.282
147.326
146.211
146.386
146.215
146.227
4500.79
146.561
146.211
146.746
146.905
146.192
150.133
146.599
146.239
146.28
146.202
146.224
146.203
358.711
146.235
149.17
146.461
146.203
148.689
146.204
146.206
146.246
146.205
146.294
147.035
146.196
146.201
146.205
146.396
146.202
146.205
146.234
146.202
146.237
146.207
146.209
147.474
147.208
6096.58
146.235
151.589
151.831
146.209
146.212
152.131
146.257
146.423
147.893
146.205
146.202
146.347
152.138
146.202
146.202
157.488
146.224
146.866
146.203
146.202
146.202
146.218
146.341
152.796
146.467
146.199
146.213
146.21
146.513
146.202
146.211
146.206
146.285
146.241
146.21
146.23
146.236
149.838
146.219
146.437
146.729
146.229
146.275
146.206
146.372
146.425
146.253
146.159
146.203
147.55
146.96
146.225
146.202
146.459
155.245
146.203
150.721
156.336
146.202
1803.82
146.272
1185.37
147.005
147.932
146.523
882.791
73002
147.638
148.127
146.202
146.205
146.202
146.209
151.393
146.182
146.447
146.202
146.202
146.206
146.2
147.05
146.203
3001.7
157.008
146.202
146.21
146.201
146.202
146.205
146.202
256.373
146.204
146.202
146.207
146.202
146.205
146.205
147.049
1118
336.56
146.203
146.229
146.202
146.235
146.209
146.227
146.208
146.205
146.206
146.201
146.202
146.21
146.202
146.21
146.268
146.538
146.205
146.205
146.202
146.211
146.21
146.251
146.285
146.202
1460.31
3874.12
5415.99
146.23
146.202
429.526
146.264
146.208
146.208
25436.3
27705
146.207
146.202
146.241
146.311
146.207
146.254
6974.75
146.209
146.202
146.207
146.202
146.202
146.202
146.202
146.202
152.574
146.202
259.148
148.63
147.512
146.202
146.207
146.204
146.201
146.215
146.204
1105.1
146.207
146.202
146.297
147.711
146.204
149.998
146.202
146.315
2446.42
146.201
146.206
146.202
146.204
146.204
147.681
151.036
10151.5
202.387
146.202
146.154
146.207
281.34
152.65
146.202
532.345
151.612
146.202
146.207
146.219
146.202
146.2
147.215
146.207
146.805
146.571
146.986
146.202
146.206
146.202
146.202
146.2
146.21
25617.5
3064.14
146.201
146.621
146.44
6399.57
146.202
146.202
146.352
146.207
146.202
146.202
146.211
146.204
146.202
146.204
146.444
13844.2
146.226
146.253
146.202
165.34
146.204
693.258
146.274
146.19
215.55
146.22
248.211
257.941
146.207
148.408
147.591
146.216
146.233
2426.98
146.206
2709.74
434.906
146.216
423.017
146.205
1683.61
146.206
8868.18
146.206
146.528
146.204
146.205
485.309
413.596
146.201
146.205
146.216
146.213
147.996
146.183
1918.36
146.203
146.203
64512.6
154.238
146.21
146.201
154.414
222.169
1133.92
146.205
2593.39
146.208
2845.21
146.202
146.202
1751.98
151.225
181.998
5557.66
146.287
7585.2
2247.2
6800.41
146.202
146.197
146.269
146.201
146.211
146.202
146.201
146.675
146.2
146.199
146.203
213.507
146.237
146.215
146.456
146.2
146.203
146.21
146.213
146.199
147.622
146.202
149.409
146.439
146.202
146.236
146.202
462.96
146.212
464.543
149.484
146.264
146.202
146.212
461.91
146.202
146.202
163.367
146.623
146.202
146.211
146.201
146.33
146.202
171.274
3190.43
146.368
146.802
146.202
146.202
146.202
146.203
146.202
146.202
146.202
146.309
160.433
146.452
146.455
146.526
146.202
146.428
146.202
146.228
146.196
146.202
146.209
146.202
146.202
146.202
146.202
146.363
148.411
146.202
146.202
1726.08
146.202
146.423
146.218
146.202
146.287
146.202
146.204
146.212
146.202
146.21
146.205
146.205
146.205
146.211
146.214
146.216
146.322
146.217
146.182
146.328
146.214
146.211
147.753
146.304
146.205
147.501
146.192
146.722
146.246
147.078
2562.86
146.288
3714.43
146.384
146.272
146.208
146.236
146.229
146.296
146.327
146.202
290.688
146.21
51367.5
148.036
146.558
146.263
146.202
146.204
338.321
146.213
149.524
146.202
146.203
146.211
269.736
263.174
147.753
146.202
146.203
146.203
146.21
146.213
7625.92
221.928
171.609
146.211
146.706
279.612
7670.6
146.665
146.254
153.201
146.202
146.233
154.614
146.521
20701
228.754
146.222
146.202
146.204
157.457
146.209
146.202
2773.43
146.203
146.203
157.618
147.635
146.248
146.201
146.25
3583.23
146.281
146.203
157.525
3896.22
157.9
146.273
146.203
148.135
146.204
146.253
146.203
146.205
146.202
146.423
157.882
354.482
146.202
146.932
146.202
151.505
6054.48
146.209
146.23
146.202
147.215
29426.5
146.483
169.321
146.21
148.044
151.11
146.448
146.212
157.772
181.475
146.416
146.654
146.212
146.727
146.202
146.238
146.201
146.471
146.238
146.573
146.28
146.482
146.471
146.517
2656.14
10041.5
232.502
146.209
229.787
9710.94
208.84
9944.44
9867.11
146.209
146.266
146.202
146.204
146.209
146.258
146.331
1562.44
2919.02
146.307
146.243
146.962
9610.87
10093.7
146.203
146.379
242.589
146.204
6025.63
146.234
229.641
146.298
146.42
7297.31
146.422
206.534
168.323
243.554
146.144
146.202
146.193
146.397
146.229
146.204
59253.8
147.857
570.479
152.478
4614.93
146.828
146.202
146.202
146.202
146.244
146.202
146.293
146.203
146.201
146.202
146.284
2189.74
5602.42
146.284
575.438
146.205
146.571
146.248
146.202
146.587
146.21
146.556
146.564
146.718
146.419
146.527
146.325
146.572
147.185
146.996
146.58
146.604
146.668
146.588
146.224
146.202
245.996
146.202
146.202
146.213
146.203
146.628
3095.59
796.601
146.287
146.261
146.257
146.302
146.271
150.383
147.77
146.202
146.202
146.219
146.202
146.265
146.202
146.293
146.281
146.212
146.428
146.202
146.206
146.314
201.104
146.206
146.206
1726.36
146.303
146.202
146.297
146.672
146.198
153.592
219.84
146.22
146.297
11708.3
264.989
146.463
146.202
150.569
146.321
146.309
146.233
146.209
146.257
146.938
146.224
203.211
146.202
2727.98
146.202
146.247
4199.99
146.436
235.385
146.257
1154.72
146.203
146.242
146.458
146.244
146.214
146.4
146.202
148.735
146.203
146.268
146.203
146.207
146.203
146.202
200.671
146.228
197.113
146.203
146.282
3485.31
146.203
1298.32
146.225
146.206
146.292
23797.3
146.285
146.203
193.492
164.075
146.208
150.114
1525.42
186.928
146.271
146.383
146.203
146.227
198.34
3868.49
146.213
148.778
146.258
155.531
146.181
146.204
203.596
146.288
146.207
76.8967
146.233
78.093
146.007
122.479
146.209
146.226
146.242
146.936
146.637
146.256
146.242
146.242
173.812
146.218
20753.9
146.202
146.202
146.207
146.481
146.281
148.708
146.332
146.198
146.667
18537.1
146.199
149.191
146.571
160.153
146.21
264.535
7910.19
19228.6
146.333
147.335
146.208
152.604
146.205
151.17
5181.25
5820.73
146.202
146.202
149.46
146.257
146.664
146.202
147.064
146.483
155.766
146.202
147.24
146.224
146.211
152.405
146.202
154.531
196.418
9329.16
146.21
146.253
146.984
146.208
146.273
146.772
182.619
146.926
167.372
198.035
146.261
146.208
146.204
146.3
146.228
146.206
146.215
146.281
146.207
146.872
146.205
146.202
154.703
146.202
146.359
146.419
146.296
146.267
146.202
226.484
153.343
1531.22
146.204
146.209
146.202
146.632
147.003
146.202
146.281
155.333
146.904
147.32
146.207
146.277
147.325
151.243
146.213
261.417
304.74
146.263
146.24
146.268
146.208
146.788
5632.21
147.057
245.898
150.878
146.807
146.248
146.207
146.212
154.94
150.483
146.287
146.202
146.208
150.551
146.202
154.101
146.205
153.653
146.144
146.202
146.162
146.208
146.279
146.259
146.209
147.711
146.27
146.206
146.239
146.279
4529.47
146.201
146.212
146.208
146.213
146.209
1406.6
146.769
146.203
146.162
146.396
146.974
146.239
146.841
146.204
146.137
233.81
146.204
146.39
146.529
152.627
146.211
146.109
146.103
152.986
146.216
146.245
146.203
146.211
146.176
146.202
251.779
146.182
146.246
146.202
146.171
146.288
146.619
146.248
146.252
146.194
146.193
146.213
146.419
146.531
146.203
146.202
43372.2
146.22
146.299
146.195
269.025
146.734
146.202
25736.9
146.76
146.242
146.249
5952.79
146.281
146.452
146.257
25616
146.21
150.45
151.973
146.623
149.956
511.748
146.259
146.207
146.239
146.203
149.971
146.297
209.1
146.891
222.844
152.346
149.498
146.585
146.345
146.201
146.202
146.202
146.202
146.202
146.435
156.835
147.136
146.215
2603
149.579
146.279
146.202
146.282
147.739
146.202
153.457
146.986
146.338
146.202
146.291
150.606
146.685
146.199
147.739
146.202
146.217
146.259
146.202
146.202
146.203
8534.13
146.448
146.313
146.359
146.202
146.261
146.222
146.202
155.842
146.259
146.838
146.203
146.37
146.38
152.189
146.177
146.202
146.202
149.317
158.898
146.115
176.607
147.09
146.874
6792.54
146.168
146.884
146.318
146.252
146.213
146.138
146.204
146.202
146.263
146.87
146.233
146.236
146.204
146.204
146.152
146.225
12271
5528.75
147.927
146.624
146.201
146.208
146.208
146.201
2238.61
146.202
146.206
146.202
146.204
146.202
146.226
152.125
146.208
2345.95
146.207
146.208
146.216
264.979
146.266
156.236
146.211
146.21
151.115
146.538
146.368
146.219
146.219
146.213
126.492
146.378
146.202
155.879
146.276
255.171
166.51
146.214
146.202
146.206
146.378
146.207
146.239
146.507
149.03
2251.01
222.14
146.202
146.202
238.994
146.204
146.202
146.204
146.202
146.203
191.056
215.233
656.965
146.199
146.288
147.345
199.817
147.094
146.204
146.201
273.348
146.429
157.289
551.312
147.135
146.93
146.202
146.773
146.444
146.215
146.988
5620.94
146.193
147.028
146.747
222.212
146.25
146.202
146.221
146.202
147.094
426.341
146.201
146.299
151.04
180.201
155.032
150.567
146.285
146.294
146.202
147.23
146.292
156.708
1438.52
153.944
146.201
146.211
146.291
1018.18
146.207
146.247
146.581
7872.39
184.655
146.203
146.701
146.564
146.306
641.999
497.69
387.384
147.008
432.243
146.205
681.674
669.551
146.217
146.216
146.208
146.561
146.306
146.202
146.202
146.218
146.202
146.21
146.208
146.63
146.216
146.317
146.205
166.45
146.205
146.205
146.202
146.554
150.842
146.205
148.086
146.247
146.203
146.204
146.209
146.309
146.203
146.206
146.681
146.205
153.137
158.507
146.201
162.076
201.394
156.483
146.293
148.256
146.243
146.948
153.223
146.202
146.211
146.197
151.742
146.202
146.202
146.407
146.211
146.27
146.205
150.991
155.247
147.1
1277.79
146.203
349.839
146.202
146.21
146.211
146.214
146.21
3232.68
519.113
146.587
166.82
254.641
159.729
147.466
160.417
146.673
153.288
151.642
146.209
151.731
146.221
146.202
146.213
153.429
146.211
146.202
146.229
4970.97
3492.32
167.772
146.202
147.545
146.21
146.209
146.633
146.224
146.407
146.201
146.209
146.079
152.478
773.717
146.24
146.914
150.641
146.536
146.207
146.362
153.124
146.209
146.244
174.153
146.672
146.41
146.389
161.608
146.649
152.65
1915.63
183.273
173.909
1709.43
146.216
146.206
1530.78
146.231
146.202
146.225
146.236
3651.57
146.212
156.591
148.986
146.24
4605.9
146.219
5571.29
146.248
146.237
4514.02
186.108
146.237
32712.7
146.869
146.205
147.183
146.21
146.202
152.492
5514.77
146.589
146.209
374.08
146.202
272.38
3911.91
171.36
156.988
4215.68
146.244
63981.4
146.199
146.221
146.204
146.202
146.202
146.202
146.202
146.202
247.87
150.381
153.877
159.845
146.202
146.206
146.208
146.202
146.203
146.2
314.253
166.242
146.21
146.202
146.206
146.792
146.228
146.207
147.024
146.197
146.202
146.202
164.149
11631.2
146.784
987.449
151.464
146.202
163.544
149.869
146.288
146.202
146.21
3360.16
4099.57
199.508
883.092
146.202
146.202
96182.8
146.202
164.649
146.203
146.202
146.216
146.202
162.818
146.74
162.047
1390.89
147.638
164.826
168.386
146.561
146.202
146.963
146.202
149.532
146.203
146.202
146.202
146.213
146.207
146.279
146.242
796.679
148.589
225.22
146.203
146.197
3945.36
150.495
146.202
349.708
146.202
146.634
275.746
2945.57
10090.8
314.121
146.202
179.892
2342.39
158.798
146.204
540.901
272.479
276.216
456.306
146.224
11382.8
280.24
146.206
283.14
373.836
274.416
150.627
146.942
148.065
146.213
488.823
2073.27
6106.46
146.202
146.202
18566.6
146.202
146.229
148.316
146.202
112.336
147.454
146.207
153.282
146.204
146.203
146.314
261.533
6103.59
537.808
221.838
146.457
147.364
146.686
146.249
146.274
146.205
147.516
146.219
146.211
146.258
146.364
146.203
146.202
146.413
1170.01
146.366
146.276
39126.6
146.474
146.206
152.365
146.202
147.929
146.206
146.216
146.275
148.248
610.368
148.853
146.993
147.028
4774.38
146.245
148.212
279.126
183.002
146.27
151.123
146.202
151.244
146.202
169.812
146.226
155.713
146.279
146.203
147.569
146.427
150.126
146.214
239.44
146.203
150.097
186.163
146.214
146.201
6966.77
189.691
1677.25
226.992
146.21
148.401
9385.26
146.209
146.227
146.909
146.484
274.084
146.202
259.324
152.68
3050.31
286.398
1171.65
517.57
243.611
146.485
63364.6
51499.8
146.346
6638.52
146.221
185.292
217.991
146.281
7736.62
146.38
146.251
146.209
146.22
151.302
146.207
146.209
146.208
146.215
146.202
146.275
146.208
146.219
6575.53
148.915
146.25
4151.24
193.411
146.216
146.544
198.43
5505.28
153.049
147.839
293.736
152.665
70130.4
147.686
146.211
1556.66
146.213
146.216
146.265
1190.15
146.253
146.878
150.324
147.572
152.259
5650.8
146.218
256.989
148.898
146.204
146.202
146.213
146.202
146.243
146.33
317.45
197.439
47853.4
146.329
59814.7
146.299
420.271
146.374
147.061
150.767
425.831
146.205
146.208
146.33
146.202
146.202
146.201
146.242
182.875
146.331
339.271
247.021
146.739
376.535
3921.27
49239.3
241.063
148.025
185.629
148.447
146.196
146.28
153.193
314.821
146.202
146.204
146.204
146.264
146.731
99.7042
131.873
126.189
152.82
146.202
73832.9
147.428
146.202
146.535
146.202
146.312
148.97
146.727
146.284
973.336
146.256
146.273
146.326
146.238
146.202
146.213
218.276
146.228
146.204
148.544
148.335
3224.64
146.31
146.208
146.212
146.205
155.1
147.712
175.089
4510.31
154.37
146.204
18178.1
154.972
146.205
164.964
165.091
146.891
6820.15
18813.3
159.112
147.698
146.224
833.412
167.539
949.112
2489.94
146.252
612.316
146.202
146.202
6389.19
146.227
146.211
5757.09
791.43
5591.95
6446.73
146.206
228.371
281.139
1304.95
146.218
146.245
3095.31
5573.49
1919.29
191.984
163.853
147.079
209.955
707.588
1821.77
203.867
166.792
6295.24
146.21
146.211
49575.6
3024.64
241.869
150.846
495.599
1431.35
4210.72
146.278
358.052
146.204
5329.42
146.202
150.985
145.703
146.202
5531.82
146.202
4531.12
5870.95
146.211
146.213
1131.65
146.203
146.202
146.202
146.211
1807.5
146.203
5828.76
31690.9
146.202
146.246
6998.69
146.216
146.204
344.24
146.205
146.205
146.204
146.224
274.548
269.936
3295.15
146.198
146.204
4279.91
146.205
216.843
152.778
146.202
146.202
146.224
146.207
432.116
146.404
146.213
146.202
146.202
146.204
454.617
7610.88
146.27
146.205
53950.2
146.204
146.655
146.324
252.894
146.207
255.954
1772.34
146.207
151.41
146.254
147
4091.02
146.386
479.115
158.988
146.202
146.243
267.031
146.202
146.268
146.202
1328.41
146.202
146.364
146.21
146.212
146.213
993.579
162.19
146.412
146.413
1077.13
146.202
187.431
161.071
146.202
26143.1
7247.26
171.499
146.205
151.915
194.697
5983.4
146.198
6669.89
146.202
1529.48
3470.47
146.213
154.562
3701.14
1033.92
8954.18
1363.53
146.224
146.202
146.207
258.525
200.542
146.242
8710.03
146.209
146.263
146.202
265.438
5371.9
3683
146.201
147.147
234.442
146.202
5326.33
146.202
146.229
146.209
6943.4
2494.05
1208.1
146.207
146.208
146.199
7473.42
146.239
4755.11
146.202
146.202
7117.21
153.495
149.812
146.202
18883.4
146.202
146.202
164.742
6534.87
146.939
148.231
149.681
28168
1577.35
155.714
149.802
146.244
4281.59
146.215
198.923
1558.16
189.836
348.903
4360.01
136.08
8117.57
148.817
29136.8
5594.3
149.585
149.724
150.122
117884
146.202
1326.55
13883.8
146.202
193.137
148.833
8855.13
288.403
150.254
2760.17
981.233
146.203
148.846
146.207
146.24
76124.8
146.211
478.526
236.581
146.202
146.202
146.202
146.206
147.581
148.065
146.395
146.213
6441.54
146.185
1563.99
146.202
146.592
146.204
146.276
147.751
146.202
146.202
146.196
146.371
148.086
15007.3
19796.8
151.051
146.509
146.206
146.215
146.211
146.216
146.292
146.226
146.262
147.394
146.824
22556.6
146.216
146.207
146.203
146.812
146.238
146.202
154.936
146.226
146.429
17806.5
146.317
151.949
146.217
147.107
147.869
152.994
146.206
146.257
146.319
146.203
146.413
146.224
146.208
151.899
146.21
146.203
146.397
146.229
148.833
146.417
174.161
146.203
149.681
146.522
146.531
151.322
146.422
146.98
146.212
146.208
146.206
9040.27
135.898
146.211
150.142
118.877
146.214
146.303
146.253
244.073
136.127
146.205
146.244
156.322
146.296
108.882
146.319
146.202
146.255
146.319
146.656
146.202
146.201
146.539
146.202
162.279
146.203
146.202
146.512
146.202
146.274
153.102
146.501
146.202
259.552
244.728
146.321
146.234
146.201
146.212
147.064
146.203
146.252
147.411
146.224
146.741
146.365
146.979
146.245
146.219
146.261
146.589
989.507
147.169
810.201
146.278
146.303
146.234
146.203
2106.78
146.228
146.317
233.58
146.233
1456
146.203
146.229
146.298
277.284
388.65
279.188
384.928
146.203
296.188
192.141
146.248
176.487
146.72
247.144
262.772
146.412
217.849
243.431
403.157
146.364
344.328
282.717
188.459
146.21
148.864
146.566
146.542
146.338
146.208
240.364
146.205
146.295
146.24
146.206
146.203
146.209
146.38
209.116
146.202
146.235
162.766
146.202
146.455
146.202
146.481
146.16
146.312
146.219
146.202
146.253
146.202
146.202
146.202
146.236
146.204
146.199
149.24
146.204
148.304
213.803
146.211
146.214
146.47
146.203
146.213
146.213
146.202
146.204
146.534
146.547
146.265
146.243
146.243
146.202
146.383
146.886
146.202
146.213
146.487
146.202
146.205
146.655
146.212
239.753
178.074
146.212
146.202
146.247
2281.07
6069.74
153.875
146.202
146.202
150.011
146.343
146.205
146.202
146.202
146.396
2519.01
146.202
146.202
146.202
17580.7
230.945
146.271
16398.7
146.35
146.383
146.3
146.312
146.208
146.209
1498.47
146.342
146.24
198.749
17105.1
146.231
146.226
17418.5
146.843
17754.9
146.262
146.287
146.192
146.205
7324.98
146.232
7806.69
146.249
146.273
6021.72
146.275
146.21
146.558
8212.46
146.237
146.336
5341.14
146.214
148.038
8868.76
425.67
146.587
146.212
392.56
148.333
446.279
1367.52
146.202
148.44
146.584
146.212
146.571
196.291
146.215
146.391
146.211
196.783
146.213
146.207
146.213
146.599
215.16
146.201
187.128
2818.95
146.21
189.792
196.205
2429.78
146.319
146.644
2093
146.202
190.307
146.416
146.711
147.96
186.524
146.202
146.202
148.208
146.202
149.423
228.78
176.244
5065.78
146.833
146.204
146.342
228.74
146.26
154.914
146.203
164.387
146.29
197.207
146.164
147.354
4055.02
168.515
146.212
3000.39
236.459
146.214
177.694
146.927
146.906
220.746
146.282
183.853
146.711
146.983
3801.68
217.855
146.252
146.794
272.418
198.301
146.26
146.326
213.866
146.263
146.293
146.911
3192.98
146.533
146.208
26111.4
146.205
146.21
146.96
146.214
37013.1
146.206
153.465
5140.74
1144.79
146.21
148.201
147.708
23453.3
146.354
152.442
185.261
25520.7
38693.4
146.875
146.202
148.024
199.592
224.053
472.661
211.195
146.247
146.315
146.258
146.356
146.201
146.206
146.202
146.211
146.211
146.202
149.139
74598.3
146.287
146.309
146.253
146.767
146.794
146.208
261.089
146.202
146.238
146.269
146.209
146.251
146.212
146.172
146.202
146.267
165.142
65602.5
146.202
146.616
146.356
7225.63
146.209
146.538
299.916
146.209
146.206
64706.5
146.202
146.403
146.209
146.249
146.321
146.247
146.208
146.204
146.306
146.459
146.84
150.683
146.208
146.253
146.208
146.982
146.574
146.421
146.203
4572.96
146.283
146.229
146.509
146.483
146.214
146.202
146.202
15018
8238.85
146.206
236.321
146.478
146.202
146.214
148.103
146.54
146.206
362.677
146.207
146.434
194.749
146.214
149.556
4258.07
146.209
146.218
146.232
10642.6
146.468
146.252
146.219
146.202
146.202
146.202
146.203
147.035
146.221
146.576
146.268
214.652
444.68
146.207
266.327
146.751
146.206
283.178
119998
146.202
147.021
147.835
146.214
146.206
146.206
146.953
273.791
146.212
146.21
146.203
146.291
146.22
146.485
146.311
168.014
146.595
146.213
146.356
223.13
146.211
146.207
146.213
484.714
826.445
146.202
146.205
146.202
146.213
262.848
5555.54
146.204
146.857
213.824
149.617
146.204
146.223
15890
146.202
146.202
146.205
146.203
198.551
148.399
147.149
146.703
146.243
146.205
146.204
146.205
3286.45
687.308
146.211
146.795
146.205
146.205
146.206
4428.87
922.967
21615.1
158.187
150.358
146.22
146.205
146.27
168.149
9566.47
146.212
146.205
146.206
8122.93
8436.16
146.268
146.205
12023.8
16700.2
153.398
787.404
212.941
151.336
5836.73
204.531
146.203
146.682
146.203
146.478
152.328
147.001
38583.6
4937.52
173.354
289.552
222.06
172.341
281.335
269.89
148.789
146.252
264.276
146.264
163.893
148.117
146.202
175.331
183.775
146.213
147.119
9096.12
146.226
146.202
187.171
7665.89
147.717
146.214
146.208
146.209
149.709
146.202
150.836
194.528
17821
147.257
146.182
146.305
206.681
167.897
146.204
146.202
146.702
210.244
147.34
146.207
146.549
146.202
146.21
146.202
146.2
5760.02
146.265
146.201
146.524
146.201
146.396
146.205
146.291
146.202
146.288
146.204
146.205
146.618
146.202
153.996
146.202
146.239
146.216
146.192
146.233
146.201
146.197
3193.19
146.193
141.168
146.257
146.205
146.22
149.924
152.059
146.273
208.828
149.043
3764.04
144.962
146.294
162.832
146.904
148.97
139.606
146.36
620.787
146.199
146.285
146.3
146.197
146.202
147.269
146.311
197.499
146.202
10062
146.206
146.211
146.235
146.202
146.24
146.211
147.163
11259.7
198.137
146.21
146.202
146.218
180.032
146.665
146.918
397.072
146.246
341.902
147.95
148.38
146.307
231.048
302.367
242.13
407.056
230.319
149.1
12159.2
1691.63
242.991
146.236
146.217
146.213
146.212
147.279
3294.33
146.612
270.388
3588.35
4001.81
146.243
3951.29
147.116
147.843
146.652
146.202
149.842
223.245
148.184
146.291
149.859
5578.98
146.816
12646.6
234.325
147.097
9114.55
151.521
146.608
8876.95
146.412
151.098
146.209
146.93
146.208
146.205
8428.02
146.203
146.208
154.676
146.206
8537.41
156.128
146.209
151.646
243.995
239.715
243.331
240.987
147.256
225.993
146.218
147.854
237.232
370.587
261.424
269.808
158.969
147.075
146.29
239.89
26829.4
146.309
146.204
277.103
155.727
26004.9
156.627
146.221
146.479
265.944
146.203
230.986
146.202
146.852
146.956
273.128
274.735
146.319
146.202
146.992
27148.3
9864.62
146.219
3151.84
18426.9
157.539
25911.7
146.474
3508.15
146.2
146.403
154.797
146.202
146.211
146.205
146.209
26661.2
146.202
146.269
146.202
146.202
146.213
148.911
146.279
146.657
161.544
146.202
146.202
4010.61
146.214
26475.2
146.255
146.202
4706.34
146.426
146.202
146.202
26305.4
146.223
146.202
257.527
146.221
146.204
146.202
152.327
146.193
146.299
146.506
146.202
146.202
146.204
146.353
519.139
146.202
146.253
146.203
210.22
146.203
165.851
146.204
146.987
146.204
146.204
146.204
146.205
146.842
146.204
146.312
146.192
146.21
146.202
8745.58
146.202
146.202
156.865
146.204
146.738
162.308
146.198
146.2
146.214
146.344
146.213
146.208
146.202
147.633
146.197
146.23
146.208
147.222
147.514
146.213
146.223
146.239
146.277
146.208
7730.82
146.27
146.247
153.027
146.593
146.641
157.566
146.665
264.18
146.306
146.588
147.643
146.187
146.254
146.207
7099.7
146.341
146.243
7039.78
146.218
146.218
146.209
146.202
146.212
146.204
34864.6
146.213
146.225
146.206
6987.97
6613.95
6684.79
146.37
155.848
230.207
146.206
147.326
146.211
6708.09
146.21
146.21
146.239
146.204
6454.64
146.206
146.211
146.213
146.478
146.288
146.726
178.351
146.202
147.947
151.797
146.202
191.493
146.202
146.215
146.202
146.213
146.203
165.736
146.202
149.628
146.951
147.066
148.257
335.271
146.296
146.202
146.207
146.208
146.245
146.202
146.201
146.201
146.21
153.596
146.372
146.302
222.806
146.211
392.946
146.844
376.369
146.231
146.201
393.71
146.204
146.201
146.211
1289.21
356.768
342.032
147.261
381.903
146.202
146.289
146.204
147.108
148.467
7354.77
147.107
146.202
146.202
208.813
146.467
146.202
152.726
146.201
146.202
2078.6
146.202
147.431
146.201
146.949
146.204
147.351
146.204
146.202
146.299
146.204
26887.5
146.212
208.6
146.203
146.208
1737.49
146.202
146.203
146.204
269.931
146.21
156.733
163.678
623.513
146.202
6431.8
252.816
146.203
146.212
4622.8
148.969
146.202
2124.37
380.657
146.209
146.212
146.183
3259.35
146.658
147.557
146.279
146.21
267.865
146.21
97058.8
146.21
146.883
146.209
146.203
146.702
146.209
146.215
146.21
146.214
148.456
279.166
1078.99
210.131
1824.63
787.017
1500.82
146.207
146.202
146.202
3029.8
220.387
9454.97
165.45
146.307
154.158
1964.29
6879.59
5774.23
146.202
5887.57
6549.22
1024.39
146.202
222.519
1522.58
1572.48
7422.71
594.18
393.345
246.727
146.21
280.029
146.237
1322.97
146.335
7574.63
248.632
146.208
146.209
162.651
1213.56
146.247
146.605
146.901
146.202
237.536
161.793
146.23
146.206
146.202
147.527
146.205
151571
146.749
146.202
146.211
255.412
146.303
19180
4193.19
229.937
146.301
146.202
146.212
3705.33
146.202
146.202
146.402
146.324
146.211
252.629
162.81
146.224
525.461
6498.26
151.74
146.203
521.576
146.209
146.207
7693.25
146.202
146.202
185.929
671.801
75295.1
1775.34
146.217
146.272
146.292
1819.37
3352.18
397.501
18378.3
146.202
161.841
146.202
160.189
146.202
153.839
1648.98
146.202
5914.99
146.202
146.202
204.374
147.079
146.483
153.717
3829.42
7446.19
146.202
146.212
146.628
149.783
146.206
146.294
75710.1
146.21
146.328
147.208
146.202
146.202
146.206
146.21
146.203
146.206
149.301
146.207
164.197
146.208
1377.3
15623.6
148.194
168.99
146.207
248.419
146.213
146.202
147.395
1668.66
6067.4
220.471
379.124
153.757
146.209
146.637
9680.92
148.928
148.65
146.952
146.209
211.368
146.205
146.202
146.202
157.793
147.188
146.206
3425.1
146.202
146.23
146.212
1058.57
8653.31
146.208
148.239
155.755
224.335
156.036
148.421
146.204
146.204
151.068
146.221
146.208
146.203
146.206
146.202
146.214
146.239
3201.53
3128.15
153.008
147.381
168.293
146.909
146.214
146.202
146.202
152.296
149.887
146.206
150.495
150.609
146.267
5164.26
151.006
147.196
148.57
473.273
146.216
152.11
146.207
146.209
146.581
170.339
148.769
146.206
146.217
146.204
150.322
146.207
148.831
234.865
164.31
154.597
146.215
146.211
152.131
149.098
146.205
151.354
146.732
146.803
146.212
152.111
146.269
151.697
146.26
146.211
164.122
146.336
151.723
146.212
146.803
4290.97
147.368
146.213
146.279
146.885
147.627
146.253
146.203
146.206
7345.58
152.772
99115.4
147.371
146.303
4302.76
4293.15
146.205
146.303
146.217
146.212
146.263
146.223
172.998
146.206
146.224
146.205
4323.27
146.213
146.209
146.203
146.202
4155.41
675.46
146.212
4089.41
146.244
146.694
146.207
146.71
146.206
4292.32
150.985
146.32
146.354
146.739
146.209
146.21
146.208
146.206
146.207
147.287
146.203
152.458
146.215
146.204
146.376
147.312
146.207
146.393
1034.36
146.206
146.208
146.206
146.227
4643.76
146.206
200.861
146.214
146.768
146.424
146.206
146.208
146.213
146.378
146.235
146.208
147.288
1029.89
146.213
146.206
146.205
146.206
146.208
146.213
146.203
146.212
146.21
146.208
146.208
146.207
146.375
4542.74
1052.12
146.536
152.281
146.21
146.215
468.498
146.208
156.088
146.275
147.084
146.203
146.202
146.208
146.202
146.209
146.203
243.884
148.877
146.212
146.205
146.201
146.212
146.205
146.229
146.201
146.206
146.211
146.706
192.02
146.476
146.213
146.204
246.866
243.453
146.383
146.214
146.204
146.212
146.358
146.202
183.901
146.307
146.242
250.371
146.866
152.811
210.948
148.09
149.718
146.21
96490.9
146.206
151.717
146.201
156.33
146.857
153.201
373.618
146.207
146.202
146.206
1487.07
4514.86
146.203
151.764
147.073
6160.17
146.206
146.21
149.89
146.207
148.281
146.205
146.203
146.206
146.206
146.205
146.203
183.113
156.425
147.088
146.207
146.202
150.771
146.206
146.202
262.169
6133.78
218.322
146.203
146.207
164.799
264.899
146.202
146.206
2681.51
147.575
3811.11
146.204
148.314
146.243
150.605
146.212
146.614
146.202
146.21
146.206
146.202
146.203
146.208
146.203
146.211
146.212
146.207
146.201
146.202
146.203
146.213
146.207
146.3
146.202
146.355
146.212
147.19
149.391
150.018
146.202
146.203
146.208
146.209
224.582
146.211
146.204
146.207
146.21
146.212
146.21
146.65
146.205
146.41
146.209
146.21
146.202
146.433
146.201
146.436
146.445
470.689
146.203
146.202
146.505
146.201
146.202
146.202
146.205
146.21
146.206
146.367
146.203
146.212
146.206
978.384
478.936
146.202
146.206
146.201
146.488
146.209
146.202
146.202
146.517
3077.47
15771
146.211
17229.8
146.706
146.207
5695.07
7432.32
149.395
146.666
504.524
149.478
146.211
146.253
146.208
146.21
4992.98
146.203
6968.66
146.202
146.202
146.201
147.012
147.013
146.928
146.209
146.201
146.202
146.208
146.203
146.207
146.211
146.207
146.218
146.202
146.908
146.202
146.206
146.206
146.202
146.201
149.548
146.205
147.007
157.708
146.807
155.754
146.208
146.209
146.202
146.209
155.033
146.204
149.599
154.688
146.209
146.208
146.21
146.488
146.203
147.107
146.206
146.211
148.056
146.206
148.999
6858.17
203.52
146.269
146.503
159.225
204.315
146.206
146.21
146.202
146.209
152.608
146.204
146.312
203.599
3304.64
148.851
662.087
146.203
146.203
3323.78
146.205
146.207
146.203
146.21
146.204
146.208
234.74
5961.69
147.671
225.8
1732.64
146.202
146.206
146.203
3561.3
147.102
146.204