/*--------------------------------*- C++ -*----------------------------------*\
| =========                 |                                                 |
| \\      /  F ield         | OpenFOAM: The Open Source CFD Toolbox           |
|  \\    /   O peration     | Version:  v2012                                 |
|   \\  /    A nd           | Website:  www.openfoam.com                      |
|    \\/     M anipulation  |                                                 |
\*---------------------------------------------------------------------------*/
FoamFile
{
    version     2.0;
    format      ascii;
    class       volScalarField;
    location    "5";
    object      ILambda_11_0;
}
// * * * * * * * * * * * * * * * * * * * * * * * * * * * * * * * * * * * * * //

dimensions      [1 0 -3 0 0 0 0];


internalField   nonuniform List<scalar> 
108993
(
146.204
215.504
146.241
146.202
146.202
146.202
221.002
146.202
146.203
146.226
146.202
146.202
146.202
146.203
146.202
146.368
146.238
146.203
146.202
147.57
146.202
146.202
146.84
146.203
146.202
146.206
146.203
147.83
146.242
146.202
146.204
146.203
146.203
146.205
146.202
146.202
146.203
146.202
7879.14
7258.88
182.858
146.205
146.203
146.202
146.301
19993.2
146.203
157.957
146.203
202.394
146.203
157.916
210.264
146.203
146.203
146.203
146.202
146.202
146.202
146.202
146.202
146.202
146.202
146.209
146.202
146.275
146.202
146.202
146.204
232.248
146.202
146.202
146.202
146.202
146.203
146.204
146.203
146.214
146.202
146.202
146.202
146.205
146.203
146.202
146.203
146.203
146.202
146.202
146.202
146.202
146.202
146.203
146.202
146.202
146.202
146.203
146.203
146.203
146.203
146.204
146.202
146.202
146.202
146.203
146.202
146.202
146.202
146.202
146.202
8014.91
146.46
146.202
146.719
147.304
146.206
5369.41
146.202
146.203
147.34
146.203
146.204
146.202
601.684
146.204
146.202
146.3
203.979
146.203
146.202
146.202
146.204
146.202
146.203
191.714
146.205
146.21
146.202
146.203
146.202
146.203
146.204
146.204
146.258
146.202
146.202
146.202
146.203
8288.94
146.204
22250.8
24169.2
146.203
148.332
23799.3
146.204
149.238
146.203
146.202
146.202
173.037
24444.3
146.202
146.205
146.202
146.202
159.914
146.202
146.202
146.203
146.206
146.202
146.202
146.572
146.203
146.222
146.326
223.725
146.203
146.203
146.203
146.245
146.203
146.202
146.204
146.203
146.203
146.202
146.203
146.203
146.204
146.203
146.202
146.203
200.32
146.205
146.214
190.465
146.204
146.203
146.203
146.202
214.469
146.202
146.202
214.884
157.573
146.207
4241.34
146.203
14274.4
233.353
146.204
223.986
2635.19
59981.6
146.203
146.202
146.208
146.202
146.204
148.405
22246.8
146.239
197.244
149.276
146.203
146.202
146.206
173.718
146.205
3509.84
146.203
146.202
146.251
146.204
146.206
146.202
146.202
238.549
146.202
146.224
146.203
146.202
146.202
146.202
146.484
2762.85
499.604
146.202
146.202
146.221
146.202
146.203
146.206
146.202
146.202
146.202
146.203
146.203
146.202
146.223
146.202
146.272
146.301
146.202
146.249
146.233
146.214
146.202
146.203
146.202
146.257
3450.83
974.578
7614.41
146.203
146.203
1651.35
146.203
168.301
172.091
25508.6
25269.1
146.206
146.203
146.291
146.202
182.847
146.205
4679.72
146.204
146.229
184.343
146.232
146.243
146.225
146.203
146.231
148.408
146.202
308.779
5261.3
146.202
146.202
146.203
146.204
146.609
146.202
146.204
3283
146.202
146.202
146.232
146.202
146.205
5333.78
146.203
146.233
10425.9
146.203
196.124
146.209
146.205
146.204
146.203
8942.33
1910.81
976.575
146.203
146.215
179.869
742.995
2840.95
146.206
4079.74
146.202
146.204
146.202
146.203
146.203
146.204
4413.79
172.711
146.203
146.202
146.202
146.237
146.202
146.202
146.242
146.203
146.202
25446.7
2098.15
146.271
146.202
146.203
6971.19
146.202
146.202
146.224
172.956
146.245
146.234
146.203
187.107
146.231
146.202
146.202
5173.58
151.551
146.243
146.259
35590.7
193.647
392.629
146.205
146.203
208.666
146.203
273.133
225.126
174.252
147.273
146.202
146.236
146.24
3984.64
150.51
6172.45
202.537
146.227
246.078
146.203
2662.96
186.918
7009.67
146.202
146.288
146.203
190.309
2004.19
902.488
146.205
150.212
146.228
146.245
146.203
146.232
2255.56
146.203
184.318
9199.29
146.202
146.202
146.203
25036.9
238.069
3720.16
146.202
3985.07
208.841
4612.62
146.203
146.202
886.793
146.202
4324.19
1302.96
146.202
7194.67
13289.9
5447.11
146.202
146.204
146.238
147.927
146.523
146.209
146.204
146.202
146.205
146.204
146.203
214.657
206.282
203.17
146.453
146.205
146.203
146.205
146.202
146.206
146.206
146.209
146.202
146.203
146.203
146.203
146.202
338.558
146.225
530.918
11602.3
147.979
146.241
146.202
513.818
146.247
146.246
162.18
146.202
146.206
158.678
148.088
146.288
146.204
244.409
2765.35
147.023
146.202
146.205
146.203
146.242
146.245
146.213
146.235
146.25
146.282
146.205
146.203
146.203
146.29
146.244
146.337
146.202
146.245
146.203
146.225
191.112
146.202
146.209
146.205
146.235
146.354
9955.87
146.249
146.205
1311.75
146.238
146.443
203.658
146.211
146.218
146.229
146.202
146.202
146.216
146.213
146.255
173.079
172.935
200.78
182.598
146.403
161.702
146.253
146.203
161.934
169.259
146.212
146.202
151.214
146.204
146.203
146.205
147.049
146.202
146.225
2616.9
146.202
4940.92
146.202
146.202
146.202
146.203
146.202
153.026
146.204
146.204
339.293
146.212
24945.5
146.202
146.203
146.202
146.213
207.802
56575.4
154.207
146.206
146.209
146.209
213.905
233.578
668.252
146.202
146.206
214.181
182.483
146.204
159.694
21548.4
241.324
4996.77
202.445
146.202
242.766
1053.26
205.965
146.22
146.203
146.208
146.202
146.203
146.304
21461.1
240.657
146.203
146.203
222.289
146.202
146.214
146.22
766.034
146.202
146.203
146.202
194.792
146.296
146.215
146.203
1129.55
146.339
146.203
146.202
1142.07
146.202
146.253
146.204
477.027
146.206
159.447
146.204
215.943
146.207
146.291
146.202
3482.06
146.204
151.701
146.204
146.203
6011.79
147.178
146.202
146.205
2342.18
27800.2
146.287
6483.97
159.182
4155.82
2016.75
146.272
146.202
146.202
11249.6
146.501
146.332
146.204
146.372
146.204
181.042
146.204
146.281
146.222
146.414
146.26
146.282
146.278
146.347
4268.27
9503.12
259.06
146.211
182.866
6152.57
179.413
7612.15
7116.57
146.202
146.269
146.219
146.203
202.019
146.262
146.31
3698.36
3167.79
146.294
240.331
147.556
9459.27
8953.36
146.202
179.526
175.754
146.202
8889.73
220.463
234.668
170.162
146.29
5863.68
146.315
188.332
175.983
173.23
34650.9
146.203
146.205
146.278
146.211
146.205
50692.1
146.231
4408.62
146.23
17316.6
147.533
146.245
146.22
146.221
146.265
146.202
146.298
153.18
146.204
146.221
180.986
4783.71
21492.3
146.202
15660.8
146.204
146.455
154.085
146.202
146.34
146.212
146.284
213.581
146.369
146.204
146.308
220.602
146.461
2857.21
146.202
146.341
146.302
146.389
146.321
146.206
146.202
220.15
146.207
146.225
151.967
146.203
146.407
16500.6
8470.88
146.254
224.305
146.291
146.274
146.265
147.799
146.203
146.207
146.211
146.257
146.206
215.951
146.213
146.296
146.319
146.202
146.302
146.207
146.259
146.212
232.2
153.355
146.261
3041.43
146.202
146.214
146.214
204.043
146.205
3797.84
850.887
146.208
146.217
1953.23
568.238
146.236
146.282
155.248
146.215
146.216
224.725
203.334
212.178
146.202
146.203
243.234
146.204
13504.7
146.204
146.203
12598.9
146.315
454.307
147.767
449.751
146.202
213.157
146.287
146.202
146.209
146.309
146.214
146.202
146.203
146.203
146.203
146.228
177.753
146.203
223.944
146.203
218.586
146.204
146.203
62135.7
146.204
64508.6
146.226
146.204
146.236
5800.52
203.689
146.204
172.859
272
146.867
232.476
4041.65
159.307
146.224
146.411
146.204
146.252
227.071
12901.4
146.255
146.203
146.228
208.268
146.243
146.205
217.003
146.207
146.202
230.543
146.218
407.401
146.222
149.562
146.223
209.272
146.259
148.436
170.913
146.203
146.255
146.256
211.82
206.319
22821.6
149.204
153.15
146.204
153.428
146.316
150.778
146.202
146.204
146.358
22624.9
146.204
150.665
146.27
219.381
146.294
292.676
5090.3
22600.7
154.736
146.572
148.019
7949.57
146.202
1385.01
11255.5
2082.29
146.202
146.203
148.612
146.259
146.75
153.865
146.202
146.292
196.348
146.202
159.739
205.468
146.215
2196.95
147.768
146.202
15339.6
5109.42
146.203
183.226
146.202
146.203
146.292
181.21
12316.4
146.203
11601.8
153.617
146.275
146.214
146.203
146.289
146.26
146.208
146.202
146.271
147.879
169.309
146.205
146.203
233.581
146.204
146.242
146.307
146.277
146.27
146.202
391.395
146.202
3852.01
146.215
146.253
146.202
146.784
174.35
146.205
146.225
58700.3
147.096
5498.73
146.202
146.287
2344.01
1272.77
146.203
188.705
1999.97
146.283
146.224
146.276
154.296
146.66
6984.81
153.962
169.599
156.328
146.24
146.289
199.751
200.175
158.31
9226.88
146.225
146.203
146.208
171.846
146.206
146.202
146.202
171.659
146.205
146.242
146.204
146.208
146.204
146.204
146.208
150.883
146.203
146.205
146.232
146.202
10125.3
146.202
146.203
146.209
146.202
146.209
5911.24
194.963
161.605
146.205
146.202
146.444
146.31
148.551
193.659
146.206
2238.2
146.202
202.644
148.691
206.539
146.202
146.207
146.207
146.202
146.243
195.311
146.203
146.202
146.208
146.209
3329.67
146.205
195.468
146.202
146.206
163.785
151.065
146.516
146.89
146.205
146.203
188.605
207.895
146.203
146.202
146.209
3868.56
146.219
221.241
146.205
153.797
146.351
146.203
25601.7
146.521
146.252
235.102
6696.64
146.322
146.496
217.361
25583.4
146.206
146.202
146.202
146.458
147.772
716.849
150.158
146.331
146.259
169.053
161.69
146.225
162.163
146.845
152.284
146.225
155.162
147.475
146.267
146.204
146.203
146.202
146.221
146.202
146.202
146.207
232.036
146.262
16901.4
146.221
146.203
146.21
146.24
155.579
146.202
146.221
146.204
146.24
146.202
146.253
6349.04
146.388
146.202
2516.72
146.202
146.204
146.205
146.202
146.202
166.729
26515.2
146.289
146.202
146.204
146.202
146.205
146.205
146.202
146.208
146.205
146.204
146.204
146.204
146.204
146.202
146.21
155.776
146.255
146.203
146.208
146.206
226.353
146.502
146.563
13170.4
146.206
146.202
146.279
146.202
146.204
146.207
146.205
146.24
146.203
149.289
146.212
181.782
146.204
146.204
146.204
146.205
1519.37
1807.83
146.203
146.202
146.204
185.452
156.252
146.204
3551.66
146.204
150.799
146.205
146.202
146.202
146.224
146.47
146.216
3458.44
194.889
178.993
181.647
186.749
214.36
146.246
146.212
166.969
22313.9
146.202
146.419
146.237
146.23
146.228
29462.4
214.884
146.203
183.248
146.202
205.189
181.292
146.246
146.202
146.331
146.224
146.428
146.247
146.202
10433.4
9824.74
162.666
146.206
146.203
163.578
146.204
146.203
146.203
146.202
146.203
81851.9
201.405
2978.99
146.202
146.254
146.203
256.604
3640.6
154.806
146.631
192.827
146.304
206.155
182.407
188.662
224.483
146.208
146.202
146.245
146.202
146.206
7042.94
146.203
146.206
146.203
270.177
146.203
146.246
211.896
146.253
3933.72
4785.49
146.204
166.777
146.204
254.485
146.202
146.205
146.202
175.49
146.213
3004.55
146.778
146.202
4584.19
146.203
147.511
146.203
154.475
1336.19
146.204
146.235
146.435
1050.77
205.55
147.06
146.202
146.316
146.203
3195.57
3272.62
3141.58
3849.15
3205.55
146.202
3317.54
3258.5
146.246
146.233
146.202
146.396
146.203
146.203
146.204
146.274
146.203
150.855
150.383
146.435
146.202
146.204
179.117
146.208
180.196
177.887
146.223
147.61
296.12
173.015
237.489
171.453
163.487
146.226
146.21
146.302
146.202
188.093
224.062
173.188
146.209
146.209
151.915
146.208
10202.4
146.209
146.286
146.222
146.425
146.354
146.214
146.221
146.212
146.204
146.217
146.222
146.206
146.241
146.212
146.304
186.141
8787.52
146.212
4717.95
4803.04
146.202
1310.37
146.204
146.212
146.212
146.214
146.203
3861.39
2732.81
152.971
146.286
8711.55
650.762
146.202
146.203
146.202
146.211
146.223
209.301
22226.9
146.202
146.203
166.25
146.274
146.212
146.248
146.248
23501
17484.7
146.297
146.209
5776.35
146.221
179.523
146.383
146.238
162.648
146.202
185.209
146.242
146.239
5421.57
146.262
146.224
376.82
203.228
181.083
146.279
6667.08
179.247
146.234
146.212
170.025
146.29
146.202
146.209
146.295
174.92
3735.5
146.208
146.209
9622.15
146.208
146.202
4956
146.208
146.203
146.21
146.207
10060.6
146.202
146.203
283.555
146.211
12101.4
146.209
5200.28
146.209
146.255
3449.67
146.477
146.242
24820
146.233
190.232
147.049
146.202
146.209
146.202
13141.2
146.275
146.218
591.58
146.202
207.154
12860.9
12217.4
159.828
6459.8
146.202
63240.3
146.204
146.202
146.205
146.208
146.204
146.202
146.221
146.202
2145.13
7657.14
578.527
213.306
146.203
146.217
146.202
146.202
146.203
146.205
387.133
212.698
146.242
146.209
146.309
146.954
148.709
146.202
146.921
146.205
146.202
146.202
166.178
23626.5
199.863
4417.29
21340.3
146.202
146.213
5945.47
146.202
146.202
146.202
1959.81
6468.01
206.974
15331.9
146.202
146.202
39283.4
146.202
162.292
146.204
146.202
156.944
146.202
159.502
146.202
150.266
20325.6
147.878
152.376
214.479
146.337
146.202
164.273
146.213
146.202
146.202
146.205
146.202
146.203
198.251
146.202
146.716
1718.79
1351.97
2544.86
146.202
146.203
16515.1
8109.28
146.203
437.781
146.203
146.202
241.696
4491.85
6015.63
1930.42
146.203
3809.46
14616.4
7879.91
146.229
4986.46
238.493
242.225
5886.84
146.246
11487.5
244.556
178.354
244.5
1042.71
245.59
189.524
224.399
192.881
146.305
3654.81
13032.9
13548.8
146.205
146.203
20417.7
146.202
158.086
8866.88
146.203
20373.7
155.587
146.202
146.205
146.203
146.202
150.391
553.158
5982.44
2964.2
532.608
146.202
217.707
177.886
151.543
146.203
148.951
146.204
146.202
157.728
146.203
147.13
146.203
146.202
146.314
456.044
150.104
170.796
22978.1
146.474
146.205
214.634
146.202
146.203
146.216
146.202
146.202
146.203
4403.66
175.441
147.466
243.44
7551.34
146.6
146.203
268.621
2913.1
217.83
1326.2
147.377
147.185
155.747
5616.08
160.413
220.919
146.203
146.282
146.202
146.202
26945.2
146.202
269.828
155.498
2532.52
3166.69
146.202
146.325
7247.05
2141.79
3867.95
1864.31
146.202
6637.2
25055.9
146.202
146.551
2819.8
146.278
269.1
146.287
267.113
12640.1
2542.3
276.472
8538.24
1058.03
271.363
146.206
47193.4
91784.7
146.454
6273.53
146.216
170.858
189.519
146.205
8314.62
146.307
146.296
146.217
223.757
214.065
198.833
146.207
149.4
152.559
146.205
146.203
203.403
146.202
17807.4
489.518
146.272
29714.5
149.385
146.202
146.288
4807.88
5719.82
151.272
149.417
1788.47
13321.1
49337.6
206.44
150.384
9692.88
148.344
146.226
146.213
15727.5
159.523
187.19
155.505
156.425
4121.96
5691.31
154.156
246.642
147.911
146.203
146.226
147.953
146.202
152.779
146.263
1995.95
21918.8
33091.7
146.261
37238.7
155.595
4814.49
146.262
179.885
26479.4
71424.7
194.298
146.69
146.203
146.202
146.202
148.412
146.294
196.423
210.417
948.456
223.517
146.334
9528.16
5542.94
30791.7
532.977
146.202
56893.5
2584.72
146.204
146.203
8254.13
3590.05
146.21
146.204
146.203
146.845
146.202
32654.2
42731.5
35094.2
7003.75
146.203
151410
148.645
146.207
146.377
146.262
146.225
3845.89
146.244
146.225
61768.9
146.955
146.236
146.226
146.22
146.202
146.226
1627.97
150.3
202.282
9157.66
248.836
3560.97
154.917
208.588
146.224
146.247
146.208
146.205
4686.21
10501.7
146.205
146.204
17761.5
146.207
146.202
146.206
146.207
217.766
4968.66
28106.3
6181.81
6453.06
146.202
7504.79
146.207
3107.87
4859.36
146.202
1684.6
146.203
146.214
10679.4
146.202
197.272
4208.12
2122.51
5715.02
4932.71
147.099
3108.77
434.762
3581.61
147.308
146.368
4813.86
6165.5
2838.13
781.969
152.603
146.205
2608.42
404.92
3668.14
3736.14
723.93
4288.7
146.214
146.202
37298.9
6769.06
1857.9
5972.72
3192.92
5071.83
11475.8
146.202
2437.48
146.202
7234.53
146.202
3739.07
5502.07
146.202
6662.11
146.202
2969.51
4472.91
146.202
146.203
3676.13
146.202
146.229
146.209
146.202
2151.49
146.202
5389.05
24485.3
146.209
146.202
7494.81
147.12
146.203
589.664
146.203
146.203
146.202
146.203
267.206
266.327
10302.7
146.204
146.345
2952.97
146.203
190.802
13358.8
146.207
146.202
162.36
196.306
5099.54
146.202
146.203
146.202
146.203
151.425
638.286
18879.5
153.358
192.179
26883.3
192.438
146.294
146.202
721.333
146.566
3631.41
3776.88
146.203
146.202
146.206
146.437
4931.35
146.202
2992.46
147.766
146.202
146.316
161.841
146.232
202.383
146.242
8269.85
146.238
146.202
146.203
156.046
146.202
7868.12
216.457
146.202
146.202
4391.62
146.203
227.959
146.207
146.203
29562.5
10413
207.368
146.212
146.203
230.251
7018.4
146.226
13316.5
146.243
10053.9
4074.66
146.202
3646.53
6043.37
2129.32
27094.8
5036.05
153.386
146.221
146.211
209.513
228.442
148.274
8200.82
146.392
225.401
146.244
183.521
5877.9
4402.25
146.221
146.5
207.268
146.206
6253.79
146.23
146.202
146.202
7454.2
3876.07
4084.88
146.251
146.242
146.205
6426.72
192.305
14421.7
146.207
146.206
4986.31
1582.88
146.202
146.233
20734.7
146.245
146.224
227.702
13366.9
146.738
187.192
146.202
27002.4
7464.28
206.036
12451
147.07
51316.8
146.232
234.9
2143.72
1981.47
36903.5
49396
38502.7
109417
146.202
55310.9
4970.3
6501.32
146.202
71916.4
107617
146.202
4670.28
72837.8
146.202
8449.85
146.202
10056.4
3082.71
276.872
3545.74
8840.15
146.202
146.202
177.586
147.788
33327.3
146.206
6135.7
212.293
146.202
146.202
146.202
146.206
146.241
146.202
187.331
146.22
10330.1
146.207
2021.13
146.202
187.185
146.203
146.301
205.784
146.202
146.202
146.204
146.228
146.228
6721.23
6564.01
266.831
184.312
190.742
164.738
146.202
146.269
146.258
190.991
146.203
146.58
146.313
3403.15
166.469
198.839
213.711
146.889
146.258
146.235
237.686
146.222
146.328
3403.38
146.333
16540.5
147.134
146.228
157.99
14878.5
146.216
147.383
146.727
168.698
146.929
146.625
176.627
424.556
146.275
212.479
146.203
146.246
9260.58
146.203
197.017
209.96
422.78
146.203
146.202
310.954
225.705
173.48
146.537
146.202
146.205
5400.23
225.862
146.205
212.007
307.003
146.205
146.285
147.086
241.151
194.626
199.029
147.467
267.516
146.202
308.022
146.257
154.244
146.204
146.21
146.204
154.293
146.203
146.203
155.892
218.887
203.913
155.132
146.47
154.62
146.328
4104.1
146.203
154.873
592.366
456.788
146.205
146.257
146.66
158.975
247.597
152.14
146.203
149.644
146.384
146.205
146.205
146.206
146.225
146.202
146.25
146.458
9328.47
149.855
4466.31
146.254
162.577
146.264
214.063
10707.9
146.256
146.211
190.31
146.264
9918.44
146.203
146.259
164.79
270.023
2479.87
272.162
2652.29
209.158
270.633
3298.04
146.202
185.138
146.203
266.162
278.717
146.274
2897.58
303.356
3687.34
146.315
3381.32
300.232
146.209
146.202
162.483
146.246
146.299
146.211
146.204
300.851
173.304
146.338
146.275
146.202
146.202
199.34
146.314
220.531
146.204
146.236
146.208
146.208
175.466
146.204
147.073
146.219
146.209
146.203
146.204
146.256
146.204
146.205
146.205
146.258
146.203
146.203
246.242
146.203
155.026
17833.8
146.202
151.961
146.843
146.202
146.202
157.05
146.202
146.202
146.315
148.041
146.274
146.203
146.263
146.202
146.277
163.654
146.202
146.202
167.592
146.202
146.202
146.327
146.202
270.185
226.469
146.653
146.202
146.635
15378.3
5541.44
146.204
146.202
146.202
146.203
146.715
154.007
146.202
146.209
146.222
4028.4
146.202
146.209
146.212
19189.8
227.012
170.888
18874.7
156.29
146.207
207.985
146.298
160.435
147.001
21135
146.704
146.203
214.436
19286.2
146.204
146.204
21302.7
146.924
21492.4
146.203
146.301
146.204
161.478
6884.24
146.204
7251.15
146.236
146.203
6977.2
146.217
146.203
216.539
7881.09
146.207
146.587
6430.05
146.21
148.798
8131.79
324.777
146.707
146.221
499.57
568.508
293.01
4209.61
146.205
146.203
146.498
196.923
146.549
220.474
146.203
146.238
146.213
203.679
173.941
194.807
181.498
146.202
162.524
146.514
213.061
10399.1
146.203
227.36
196.261
11590.3
146.203
146.712
17979.2
146.205
239.286
146.397
147.202
146.202
205.553
146.231
146.241
146.222
146.244
278.538
153.484
152.458
7195.14
226.55
146.203
146.225
171.415
146.206
146.202
166.318
242.458
146.212
229.319
146.215
149.524
8839.57
177.874
146.353
5156.59
193.207
146.317
150.232
216.88
146.333
188.564
146.247
206.501
146.402
208.576
313.639
237.168
183.549
146.708
234.488
240.761
146.203
147.544
232.371
146.305
180.167
146.587
15731.2
153.519
149.363
23880.5
203.582
146.214
213.878
146.653
24047
146.202
14170.2
1159.38
948.256
146.202
146.202
146.202
23152.9
146.261
12505.1
146.208
22879.9
23688.2
171.438
146.286
34774.6
206.951
208.695
13678
233.213
146.207
146.629
146.206
146.289
146.234
146.204
146.29
147.783
146.208
146.279
146.203
50588.6
146.211
146.235
146.203
149.802
146.414
146.321
215.962
146.291
146.204
146.286
146.204
146.218
146.203
146.251
146.265
146.826
146.215
41008
146.281
186.147
153.899
13211.4
146.202
146.913
2138.49
146.202
146.204
26243.4
146.208
146.24
146.203
146.203
146.208
146.28
146.202
146.203
146.231
146.202
146.373
3521.62
146.202
146.571
146.203
147.679
146.443
146.202
146.202
8371.01
146.205
146.223
146.202
165.185
146.217
146.202
146.202
18995.7
11713.7
146.202
211.888
146.202
146.204
146.217
163.177
146.202
206.845
187.785
158.883
146.202
227.928
146.215
230.376
4337.04
146.223
146.341
146.223
10077.7
146.202
146.202
146.202
146.202
146.202
146.202
146.202
202.474
146.215
146.241
154.287
5702.73
3931.18
146.221
255.541
225.381
146.516
254.391
69614.6
151.022
210.15
6673.46
181.061
184.066
188.104
204.548
254.163
146.281
146.278
201.416
146.203
146.262
204.924
217.433
261.321
146.34
146.295
161.454
3403.8
146.262
211.002
146.203
6765.05
4136.91
146.202
146.209
146.216
227.051
274.447
7422.75
146.494
230.739
150.585
223.207
146.202
146.202
26812
146.202
146.202
146.203
146.202
156.014
146.372
146.467
146.24
146.233
146.54
146.205
146.203
7687.51
2876.89
146.202
272.196
146.203
146.203
146.202
9137.7
2149.77
20862.1
146.206
146.203
146.202
146.206
207.91
146.274
48878
146.202
146.203
146.205
6991.02
18637.4
160.207
146.203
53993.7
56271.7
225.922
52494.2
7531.05
229.082
6577.75
3886.6
146.202
146.203
146.202
146.204
146.202
146.204
23245.2
9252.66
10475.1
1376.11
3915.92
146.209
288.993
276.012
180.935
152.55
6544.18
179.769
5599.4
422.633
146.216
189.206
9760.18
146.21
146.202
17159.8
146.204
146.218
4357.03
8540.92
146.202
146.202
150.464
146.209
146.213
146.219
146.202
198.108
25947.8
146.203
146.249
146.232
9287.25
211.187
146.243
146.216
146.203
6371.53
146.203
146.23
181.021
146.219
165.82
146.205
146.204
6168.4
195.013
146.206
146.202
146.205
146.203
146.229
174.642
146.204
215.96
157.321
146.203
155.565
146.203
146.202
146.206
146.203
146.204
146.204
146.22
146.205
146.205
3426.63
146.203
57817.3
146.221
146.202
146.203
146.202
146.202
146.221
218.632
52221.6
3409.82
77933.5
146.288
200.694
223.922
64953.8
52526.2
205.181
2534.56
146.213
146.224
146.202
146.212
146.202
146.203
155.644
40983.7
146.202
9251.97
188.107
194.57
146.223
146.202
147.796
146.202
185.319
18502.2
208.292
146.21
146.202
201.856
209.64
147.074
146.247
11653.7
146.224
10434.6
146.202
146.202
221.42
9461.66
11594.2
11155.6
8949.94
1421.79
206.643
16621.5
2941.99
10509.7
146.202
146.398
146.202
146.203
231.419
12111.9
202.677
232.06
12112.8
11606.3
146.218
11295.2
209.055
146.203
146.202
146.202
207.874
530.781
169.288
146.202
378.574
5786.69
226.47
15131.6
426.974
155.717
6405.66
146.202
153.979
6060.16
156.988
146.202
158.48
146.925
146.202
146.687
6628.96
146.202
160.281
7721.11
146.208
6181.45
4534.65
146.209
201.405
303.463
366.364
235.204
310.467
157.892
487.815
154.837
146.202
483.258
194.307
363.302
319.995
146.38
147.107
146.247
223.774
24882.3
146.202
199.118
697.939
146.202
25767.4
146.202
146.204
146.202
569.677
153.982
246.498
154.213
146.203
146.941
1089.12
1307.37
163.886
146.203
200.177
25339.5
8204.37
146.202
3358.17
15937.3
9720.16
23825.7
146.207
3354.54
146.202
146.247
146.203
146.203
146.202
189.062
146.24
24212.4
146.202
236.642
146.202
146.202
146.202
146.202
146.202
200.221
219.921
146.216
146.202
4823.59
146.261
25389.3
146.31
146.202
3999.22
146.21
146.203
146.219
24343.3
195.315
146.202
224.866
149.595
146.205
146.202
245.473
146.204
146.202
146.202
146.203
146.204
146.205
146.216
2916.21
146.202
196.405
146.202
2211.45
146.202
146.252
202.333
155.723
146.205
146.204
146.204
154.502
175.187
163.188
146.202
146.205
146.202
146.202
13994.9
146.202
146.202
146.203
146.205
146.204
208.294
146.205
146.205
146.253
146.295
146.204
146.208
146.205
146.21
146.205
146.203
146.226
205.164
146.202
146.202
146.203
146.203
146.205
146.203
10361.7
146.456
146.225
146.204
146.202
214.403
146.203
189.471
247.649
152.489
147.524
146.202
146.209
146.202
146.21
5948.47
146.212
146.202
6066.56
146.203
146.202
146.227
146.202
146.462
146.215
2590.75
146.204
146.203
146.204
8129.41
5516.97
7546
217.624
5405.9
1027.8
189.045
146.204
156.368
8056.86
146.203
146.21
146.204
208.831
1854.68
146.207
146.203
146.34
234.077
203.429
217.154
3392.31
146.206
8452.1
237.142
146.208
185.14
148.625
146.203
146.207
201.507
157.967
221.149
146.207
593.16
222.658
303.643
3411.96
6508.3
207.989
146.21
146.202
146.28
146.258
146.21
146.38
146.387
146.211
11628.2
202.5
165.082
193.663
146.24
5590.69
2214.81
2782.68
203.446
146.308
2928.17
158.38
146.381
146.202
6094.04
5842.09
6063.02
146.202
5487.59
146.207
160.765
146.233
146.73
146.202
7662.51
4206.79
146.209
146.208
209.403
203.045
146.21
11864.9
146.3
146.21
11890.9
146.202
208.59
146.299
3182.63
161.63
146.202
161.712
146.203
206.027
160.059
28123.4
146.203
166.572
161.622
146.793
4368.95
146.262
159.419
146.204
10814.8
146.392
5717.37
14100.9
3134.14
146.217
9137.3
2509.21
159.599
146.219
6948.45
322.326
146.203
3485.1
10446.6
188.94
146.326
146.232
3461.6
146.202
146.202
146.203
146.21
41783.7
146.21
84169.2
169.063
146.445
146.21
146.202
150.061
146.21
146.302
146.298
146.22
211.446
2340.67
3409.65
253.026
3872.05
4758.02
3498.4
168.255
146.235
146.207
3466.68
6783.3
7717.77
230.973
194.41
264.498
3971.88
11293.4
6467.04
146.207
24225.6
10132
3664.91
146.204
389.107
2218.6
2433.65
8709.84
3241.81
2375.85
8599.22
189.023
7370.62
175.347
1898.05
149.78
7720.78
9565.99
151.703
191.024
2906.01
2452.02
203.922
212.846
146.202
146.221
9882.29
146.225
151.869
201.959
146.246
250.518
146.203
139796
227.014
146.202
149.199
7869.63
206.805
27464.9
6917.73
11082.6
205.805
146.205
146.202
4295.93
146.204
146.204
146.271
169.706
219.717
8813.67
243.173
150.317
4685.29
7193.66
146.202
150.798
12037.2
176.673
159.899
7658.08
146.202
146.226
146.298
4331.03
69392.5
3960.47
146.216
204.634
146.202
3732.06
21533
2731.98
12952.7
146.202
146.282
146.202
182.11
146.208
23823.1
3619.46
146.202
6335.49
146.202
146.202
2276.05
146.202
208.707
146.283
5243.93
3552.51
146.202
146.211
146.302
47698.1
146.216
146.731
70747.8
157.177
165.237
146.839
146.202
146.202
146.204
146.202
146.202
178.229
146.202
186.336
706.903
146.262
4630.74
23006.3
6041.91
831.312
146.203
281.441
147.954
146.202
1107.78
6158.37
6748.18
962.524
37475.7
3440.73
156.792
147.133
2529
15186.6
18997.4
146.488
155.232
11122.4
146.202
146.202
146.204
242.94
175.279
148.929
4867.78
146.203
151.084
147.419
7658.59
8102.38
146.228
6264.42
2700.09
248.636
20795.8
44219.6
146.202
157.108
47755.4
197.849
154.938
146.415
149.835
146.204
146.304
146.202
19476.2
2494.18
72768
152.949
211.309
156.981
148.51
146.204
146.204
30759.7
146.202
146.203
146.202
57603.1
166.721
7521.25
183.645
146.344
201.141
6449.37
203.854
168.504
146.206
181.477
178.537
1660.32
306.499
201.893
146.484
146.734
379.047
170.82
42457.3
730.138
208.154
2193.91
146.229
159.208
50445.4
214.242
146.21
315.962
209.829
149.88
146.202
1415.9
158.502
59252.4
146.27
146.202
229.228
146.333
146.202
146.202
168.054
4341.18
156.034
207.492
146.271
171.501
159.942
146.274
146.202
146.566
11495.9
65997.8
57521.5
224.723
146.285
4526.18
4414.74
147.455
146.293
204.84
172.191
175.035
151.242
2241
149.857
203.027
146.404
4366.89
146.202
146.202
146.207
146.215
2851.23
4348.15
146.206
4380.43
203.213
146.374
146.319
146.317
146.348
4578.91
180.375
146.203
146.202
146.302
158.696
147.607
146.216
147.21
158.851
168.388
204.782
213.145
146.222
146.33
146.202
169.398
146.407
146.202
5105.11
146.202
147.09
166.273
148.223
11667.8
177.848
217.445
213.421
215.725
146.202
174.223
146.202
146.202
146.202
195.901
159.044
163.529
6393.96
146.532
163.064
197.091
146.337
146.21
146.224
146.202
146.617
146.21
157.592
146.208
146.203
146.279
18021.1
4423.03
205.684
2332.64
148.108
147.121
3450.12
146.208
4613.53
208.324
4234.75
146.43
146.212
174.631
146.203
146.209
146.205
197.753
6003.5
146.203
146.495
147.393
191.381
194.1
192.897
146.308
149.963
147.434
146.558
199.809
146.485
149.151
146.284
203.45
230.543
146.456
147.5
212.329
148.783
146.428
146.202
268.018
146.854
193.684
227.402
2505.83
3563.01
197.126
3019.62
941.847
147.297
84613.3
181.963
9392.35
148.016
20499.1
149.993
27818.5
5371.22
147.221
151.886
186.345
3918
9579.7
146.231
7513.94
209.59
7043.32
146.204
146.205
146.202
173.205
226.888
158.144
178.321
186.794
153.002
180.91
146.214
539.054
81900.7
154.571
167.871
146.202
851.939
153.97
146.203
258.767
7064.56
243.266
146.259
167.279
6878.69
263.989
146.202
146.202
3473.33
205.482
2972.11
168.66
466.984
146.261
146.202
148.682
146.202
146.202
146.218
146.877
146.202
146.219
146.564
146.223
146.218
146.202
147.25
146.492
146.202
146.22
147.015
158.638
146.202
146.202
146.202
146.207
5208.06
713.103
211.607
146.202
146.202
146.202
146.202
2044.08
146.206
146.203
146.209
146.202
146.203
146.202
228.086
146.457
146.202
165.536
146.202
146.277
146.296
146.691
146.314
147.168
2978.03
146.202
146.407
147.975
148.373
146.204
146.202
146.235
146.203
171.671
146.202
157.947
146.225
202.425
4145.77
3566.17
158.493
202.768
147.402
146.202
146.202
146.202
146.205
146.202
1812.04
84061.1
146.202
74761.5
160.937
146.208
55759.8
70801.6
146.223
147.178
2774.98
146.572
146.203
146.202
210.77
146.202
70588.6
160.105
85940.5
146.203
146.202
146.98
173.361
178.267
180.883
175.641
146.585
146.21
146.248
146.202
146.209
146.202
146.227
146.202
146.203
205.694
154.886
198.479
203.179
146.207
146.213
146.202
146.202
147.046
202.601
248.786
146.226
195.271
170.965
155.836
149.381
147.398
146.256
147.379
211.232
159.179
146.212
200.088
146.434
150.055
3006.45
201.336
192.884
148.951
158.015
150.871
9789.37
235.774
215.855
146.202
154.185
243.165
188.846
146.202
147.788
146.203
152.288
183.15
165.833
218.187
2856.1
3916
217.567
146.204
161.831
3257.02
155.491
180.041
153.889
146.501
150.21
203.721
2235.27
7654.74
442.242
223.034
3721.14
148.471