/*--------------------------------*- C++ -*----------------------------------*\
| =========                 |                                                 |
| \\      /  F ield         | OpenFOAM: The Open Source CFD Toolbox           |
|  \\    /   O peration     | Version:  v2012                                 |
|   \\  /    A nd           | Website:  www.openfoam.com                      |
|    \\/     M anipulation  |                                                 |
\*---------------------------------------------------------------------------*/
FoamFile
{
    version     2.0;
    format      ascii;
    class       volScalarField;
    location    "5";
    object      k;
}
// * * * * * * * * * * * * * * * * * * * * * * * * * * * * * * * * * * * * * //

dimensions      [0 2 -2 0 0 0 0];


internalField   nonuniform List<scalar> 
108993
(
0.000174235
7.26519e-05
0.000467593
5.56042e-05
6.50216e-05
5.35781e-05
0.0849452
6.62638e-05
7.322e-05
6.65806e-05
6.82557e-05
6.57379e-05
7.76944e-05
6.38511e-05
6.68716e-05
0.000107007
0.0004001
6.55573e-05
7.86606e-05
6.9015e-05
0.000507639
0.000107814
6.13731e-05
0.000105364
0.000110661
6.50472e-05
0.000325299
6.63996e-05
7.27356e-05
6.2796e-05
0.000102865
6.77211e-05
0.00115375
8.10578e-05
8.71901e-05
6.68436e-05
0.000137273
0.000170598
0.0352351
0.18543
6.98231e-05
6.93049e-05
6.54672e-05
0.00154763
9.00491e-05
0.887604
0.000718856
0.0214645
0.000147027
7.02106e-05
7.37472e-05
0.000199454
6.91711e-05
7.32871e-05
6.82405e-05
6.745e-05
0.000283738
6.67757e-05
6.45661e-05
7.28998e-05
6.95942e-05
7.69321e-05
6.43676e-05
8.57383e-05
9.09252e-05
6.94401e-05
0.000627637
7.01441e-05
7.00919e-05
0.0210973
6.44261e-05
7.22334e-05
6.56307e-05
7.21495e-05
0.000103509
7.28285e-05
0.000167302
7.10618e-05
0.000235087
0.000103198
6.28947e-05
6.46379e-05
6.81558e-05
0.000378146
6.82061e-05
6.45931e-05
6.80031e-05
6.69583e-05
6.93164e-05
0.000104366
7.30533e-05
7.03822e-05
8.92937e-05
0.0002578
9.74766e-05
6.64021e-05
6.96272e-05
5.94115e-05
7.14473e-05
0.000140428
7.2143e-05
9.05377e-05
6.97124e-05
6.79917e-05
6.09645e-05
0.000151278
6.70199e-05
4.28522e-05
0.000112187
0.0669893
0.000287981
6.99042e-05
0.00040909
0.000130419
6.69784e-05
0.0395535
6.54705e-05
6.40045e-05
8.80743e-05
6.87884e-05
6.49409e-05
8.24647e-05
0.0596989
6.44351e-05
0.000234469
6.0629e-05
6.95369e-05
6.4016e-05
9.82582e-05
8.36119e-05
6.4711e-05
9.33639e-05
6.71844e-05
0.0327388
8.12389e-05
6.06741e-05
7.96975e-05
6.16839e-05
7.62063e-05
6.45664e-05
5.70387e-05
0.000145783
0.000137514
8.99263e-05
8.6254e-05
9.58799e-05
6.22974e-05
0.5648
6.69342e-05
0.00356049
0.0034578
6.13085e-05
7.34616e-05
0.00346123
6.48719e-05
6.78624e-05
6.79063e-05
0.000144809
0.00107223
0.00121765
0.00333774
0.00581156
7.24917e-05
0.000120162
6.55728e-05
9.69704e-05
6.80575e-05
0.000108793
0.000127342
6.69308e-05
7.15716e-05
6.59673e-05
9.51064e-05
0.000105958
0.000104533
6.50631e-05
0.00908126
6.33983e-05
6.50823e-05
0.000240487
6.26157e-05
6.46817e-05
0.000154097
4.71004e-05
6.83402e-05
7.18875e-05
0.000244411
6.67378e-05
6.52468e-05
5.56408e-05
6.44355e-05
0.000286827
7.01242e-05
0.00434771
6.54692e-05
6.91469e-05
7.02732e-05
6.10534e-05
6.14589e-05
4.32581e-05
6.81284e-05
0.00136575
0.00087967
0.000291885
0.0190639
0.0939148
8.1681e-05
0.04258
6.86615e-05
0.0513303
0.00181931
0.000227547
0.0136721
0.0732417
5.89195
5.98908e-05
6.4175e-05
6.6233e-05
0.000164435
8.69705e-05
7.57922e-05
0.00386128
0.00174184
0.00998902
9.56441e-05
6.23547e-05
0.000211458
6.66301e-05
0.00251573
6.2965e-05
0.165339
6.57315e-05
7.59347e-05
0.000197018
6.80194e-05
0.000123705
7.52231e-05
6.84283e-05
0.0221028
0.000175535
0.000160128
6.52114e-05
5.72953e-05
0.000213124
0.000166326
3.26717e-05
0.0776098
0.0546688
0.000231206
7.21187e-05
0.000251245
0.000127433
6.66222e-05
8.01794e-05
0.000130346
0.000208353
0.000143695
6.58504e-05
9.093e-05
5.63672e-05
6.6273e-05
0.000318762
6.97841e-05
0.000287263
0.000256675
6.82995e-05
6.57819e-05
7.25375e-05
5.55765e-05
6.42497e-05
6.11848e-05
0.000252797
0.0971101
0.0308856
0.32839
6.53152e-05
7.26983e-05
0.0387032
6.72313e-05
6.7746e-05
6.72345e-05
1.36429
1.33808
6.55071e-05
7.40772e-05
6.85199e-05
7.45554e-05
7.20262e-05
6.90537e-05
0.155221
6.47313e-05
6.2099e-05
6.9663e-05
6.55825e-05
9.52106e-05
6.47199e-05
8.59839e-05
6.46663e-05
0.0164311
5.61562e-05
0.231854
0.0334817
6.7749e-05
6.20786e-05
6.85748e-05
0.000116654
0.000188886
0.000105264
6.40706e-05
0.107025
6.82856e-05
7.17364e-05
6.29502e-05
6.61364e-05
6.98827e-05
0.0165505
0.000241002
6.3598e-05
0.207033
7.11441e-05
6.32947e-05
9.48788e-05
9.66268e-05
0.000828677
6.05386e-05
0.00313758
0.048296
0.0648696
7.25239e-05
7.02717e-05
5.92938e-05
0.0541074
0.075638
0.000101331
0.0803094
0.000257163
6.44522e-05
7.49452e-05
6.53871e-05
7.37656e-05
6.75479e-05
0.0381532
7.62401e-05
6.49005e-05
6.55163e-05
7.21719e-05
7.18215e-05
6.52134e-05
7.48539e-05
9.4307e-05
6.50287e-05
5.72034e-05
0.553512
0.129063
0.000124348
6.51071e-05
6.3897e-05
0.222871
0.000154549
5.71216e-05
7.427e-05
7.39293e-05
0.000281503
6.31621e-05
0.000112661
7.23188e-05
6.67713e-05
6.48922e-05
0.000134325
0.0880447
0.000219638
7.00039e-05
7.61018e-05
0.00892069
7.20009e-05
0.0788119
6.94963e-05
7.12547e-05
0.0651117
6.40574e-05
0.0884729
0.056482
7.00145e-05
0.000642373
7.18083e-05
5.83421e-05
6.60325e-05
1.7731
6.21741e-05
0.0345185
0.12924
6.64937e-05
0.0763985
7.60712e-05
0.133494
7.36067e-05
0.0130465
7.05014e-05
6.98263e-05
6.95951e-05
7.14538e-05
0.0656759
0.176262
6.54491e-05
7.5081e-05
9.22196e-05
6.3317e-05
5.73939e-05
9.94861e-05
0.0603474
6.49159e-05
0.000131936
0.0792209
7.26493e-05
6.63854e-05
6.88393e-05
0.0214522
0.0453395
0.0927443
9.44339e-05
0.0403581
6.78099e-05
0.0111775
7.09563e-05
6.96464e-05
0.0331403
6.54061e-05
0.0553582
0.0441001
5.84289e-05
0.0121955
0.140442
0.0107757
0.000137369
8.12089e-05
9.24751e-05
0.000399196
6.80125e-05
8.62019e-05
6.45998e-05
6.49475e-05
6.42616e-05
6.7641e-05
6.22915e-05
0.0169429
7.38912e-05
6.56449e-05
8.96336e-05
6.35478e-05
7.25691e-05
6.58436e-05
6.69529e-05
6.44665e-05
7.67113e-05
7.50893e-05
6.90248e-05
6.50252e-05
6.58244e-05
6.85352e-05
6.28771e-05
0.108679
7.04785e-05
0.100078
0.00247311
0.000125223
6.3021e-05
0.000209236
0.0857101
6.36595e-05
7.75882e-05
0.0720965
6.71727e-05
0.000125431
8.85246e-05
0.000140256
0.000779321
5.44197e-05
0.0372248
0.0412441
0.00012179
6.57531e-05
6.85499e-05
6.6938e-05
5.73609e-05
0.00470077
9.80283e-05
6.49594e-05
0.000381068
0.000141018
0.000163735
6.62601e-05
6.51796e-05
0.00127543
0.000487615
9.12064e-05
5.64311e-05
0.00469812
6.6661e-05
6.05981e-05
6.97838e-05
0.000207592
6.65363e-05
6.4147e-05
6.42606e-05
9.75347e-05
0.0142272
5.9721e-05
6.06518e-05
0.172831
6.43374e-05
7.5361e-05
7.29185e-05
6.74771e-05
6.82915e-05
6.23998e-05
0.000231739
6.54377e-05
6.75042e-05
0.000153377
7.02753e-05
0.000969836
0.00770382
7.15452e-05
6.82976e-05
6.96087e-05
0.000557828
0.000115284
6.47204e-05
0.000707639
7.00831e-05
0.000273213
6.63342e-05
0.000293349
6.82028e-05
0.000386013
6.90224e-05
6.5983e-05
6.62755e-05
6.9542e-05
0.119199
0.000362573
0.288549
7.46149e-05
6.76047e-05
6.68403e-05
6.934e-05
6.11701e-05
0.00041043
6.84877e-05
6.28359e-05
0.262981
0.00010723
1.52216
6.77648e-05
6.75618e-05
0.000466465
9.28819e-05
7.16069e-05
0.0462015
6.76398e-05
7.7156e-05
6.57558e-05
0.000383043
6.62827e-05
0.0746153
0.191505
6.49142e-05
6.10414e-05
7.20616e-05
6.99365e-05
6.45033e-05
6.34778e-05
0.129947
0.0265563
0.0324488
6.86747e-05
6.78457e-05
0.0972986
0.0632858
0.0267093
7.10871e-05
6.2633e-05
8.18317e-05
8.56305e-05
6.03532e-05
0.000153961
1.51792
0.0226191
6.77433e-05
7.38716e-05
6.92093e-05
5.59511e-05
0.000178032
6.28268e-05
0.0389826
7.18386e-05
6.84037e-05
0.000273567
0.00258409
0.000127146
6.43145e-05
6.73912e-05
0.0957919
6.10266e-05
6.43591e-05
0.000343694
0.0290044
0.000649527
6.79888e-05
7.02867e-05
0.00524891
7.89124e-05
0.000230268
6.99937e-05
6.92871e-05
0.000128366
7.17645e-05
0.000892418
0.0611974
6.22334e-05
0.00100736
6.37948e-05
6.69601e-05
0.153903
7.46117e-05
7.14156e-05
6.80318e-05
0.0312021
2.42029
7.18236e-05
0.0334191
6.69448e-05
0.0041469
0.00722663
7.2106e-05
6.21232e-05
6.29226e-05
0.0357644
0.000170834
7.38298e-05
6.37181e-05
7.39602e-05
0.00017681
0.000102173
6.45455e-05
7.29662e-05
6.63262e-05
0.000210537
8.12644e-05
7.07e-05
7.08741e-05
0.000151001
0.167029
0.391351
0.0809162
0.00082613
0.0235151
0.38074
0.0619595
0.476089
0.402878
6.67967e-05
6.72791e-05
6.49144e-05
7.95359e-05
0.00231236
0.00019773
0.000118852
0.233014
0.0757881
7.07358e-05
7.29927e-05
8.66172e-05
0.451742
0.608556
7.8771e-05
0.00527323
0.0623156
6.61757e-05
0.285353
0.000263271
0.020647
9.91322e-05
7.19932e-05
0.205357
7.41602e-05
0.105402
0.0926798
0.0524007
0.0137685
0.000183369
6.7102e-05
5.90499e-05
8.32366e-05
0.000285049
0.534462
0.0131467
0.0502579
8.0334e-05
0.0478508
0.00265231
0.000362472
5.18261e-05
0.000153986
7.12799e-05
0.000118131
8.28734e-05
6.27751e-05
6.61821e-05
5.92394e-05
8.45499e-05
0.0841721
0.0902981
6.70167e-05
0.0191624
0.000102598
0.00161954
0.000102761
6.04637e-05
0.000107053
0.000260636
6.86783e-05
0.000109612
7.76647e-05
6.58355e-05
6.57493e-05
9.11695e-05
0.000146152
0.0286561
6.49945e-05
8.09992e-05
7.05209e-05
0.000352684
6.95251e-05
6.8708e-05
6.08162e-05
0.0297033
6.97108e-05
6.44698e-05
0.00080746
0.000103944
6.82219e-05
0.43621
0.0621947
7.74233e-05
7.56175e-05
7.88103e-05
7.61994e-05
7.1716e-05
0.000105699
6.68683e-05
6.16034e-05
6.85532e-05
8.30176e-05
6.74031e-05
7.52097e-05
6.38567e-05
0.00583645
7.8757e-05
0.000137896
0.00021288
7.13375e-05
8.47224e-05
6.87786e-05
0.0565087
9.07093e-05
0.00041996
0.111479
0.000153254
6.78705e-05
6.84726e-05
0.0122959
6.60053e-05
0.010981
0.0411038
7.00004e-05
7.26382e-05
0.0266807
0.165344
6.57587e-05
0.000874902
0.0133791
8.25193e-05
7.31039e-05
7.20923e-05
0.00292012
7.74861e-05
6.47956e-05
6.94657e-05
0.110649
6.52721e-05
0.368027
0.000116242
6.48541e-05
0.9803
7.11792e-05
0.0490647
7.0456e-05
0.0529199
6.63362e-05
7.11088e-05
6.1097e-05
8.33889e-05
0.000128803
5.46092e-05
6.70689e-05
6.70181e-05
6.50484e-05
6.12717e-05
6.39341e-05
0.000640284
6.97695e-05
6.66535e-05
0.0522849
6.13623e-05
0.0912136
0.000219451
6.52457e-05
0.0967047
7.34042e-05
0.0110302
0.000287992
6.5419e-05
6.94049e-05
0.114427
0.000223785
0.000372862
0.0408634
0.049231
0.000110741
0.0826662
0.0455868
0.00110553
8.18846e-05
0.000108093
0.000530878
0.000809978
0.110886
0.0446796
0.00171595
8.83663e-05
7.33004e-05
0.0258084
0.000130493
6.86955e-05
0.0162235
6.83169e-05
6.7176e-05
0.0316894
7.26676e-05
0.0398623
9.03314e-05
0.0552094
8.17165e-05
7.38362e-05
5.46583e-05
0.000441076
9.34289e-05
7.07926e-05
5.4689e-05
6.12587e-05
0.00538791
7.04212e-05
0.954478
6.56717e-05
7.1444e-05
8.0989e-05
0.000851081
6.9486e-05
0.00102651
6.86431e-05
6.43888e-05
0.000146127
2.5146
6.51261e-05
0.00039265
9.91899e-05
0.0594077
6.60196e-05
0.140802
0.231045
1.05006
7.045e-05
0.00183873
0.000338256
0.0498441
6.84902e-05
0.0566659
0.201248
0.0641695
7.14425e-05
0.000145793
0.0023219
7.31096e-05
0.00113153
0.000149144
0.000105097
7.69337e-05
0.0370993
7.02028e-05
0.0175271
7.29093e-05
6.98886e-05
0.0438271
0.00011134
6.56172e-05
0.0662792
0.0526209
0.000153522
0.00475205
7.21192e-05
7.42696e-05
7.37448e-05
0.000187735
0.0760156
6.23957e-05
0.0782986
0.00014862
7.28842e-05
0.000828478
6.17148e-05
7.03368e-05
6.33155e-05
5.98306e-05
0.00055564
7.27985e-05
6.26828e-05
0.00023656
6.86881e-05
0.000395973
0.0073368
0.000121606
9.06427e-05
8.12771e-05
7.15166e-05
6.41819e-05
6.54956e-05
0.0854575
6.69595e-05
0.0797411
0.000511753
0.000108083
0.000233087
0.000826985
0.000191984
7.22879e-05
0.000179887
0.00511906
7.61583e-05
0.00870589
6.49161e-05
6.7162e-05
0.0277129
0.049131
6.50439e-05
0.00217635
0.104949
6.51356e-05
0.00150189
6.86122e-05
8.55367e-05
0.00015369
0.525374
0.000103253
0.0129839
0.00292394
7.21399e-05
8.21488e-05
8.79851e-05
6.58814e-05
0.0086678
0.00627132
8.04918e-05
6.87873e-05
0.000210109
0.0110034
7.02315e-05
6.43158e-05
0.000107103
0.0250508
6.72059e-05
6.43137e-05
6.39422e-05
6.84188e-05
6.29364e-05
6.48158e-05
7.3298e-05
0.0222545
6.84243e-05
0.000196797
0.000237898
7.75854e-05
0.594104
0.000118127
6.40668e-05
0.000627253
0.000118978
7.0593e-05
0.254119
0.00632364
0.000612897
6.50189e-05
6.60668e-05
0.00113812
0.000211484
7.94913e-05
7.242e-05
6.55836e-05
0.287981
7.03806e-05
0.00240909
0.00176532
0.0385732
5.23481e-05
6.80398e-05
6.70716e-05
6.37894e-05
0.000454193
7.04003e-05
6.93482e-05
5.86249e-05
6.37809e-05
6.54615e-05
0.0539621
6.63313e-05
7.31207e-05
0.00158285
6.33653e-05
7.32475e-05
0.000144795
6.9384e-05
6.88655e-05
6.5376e-05
6.76082e-05
7.06944e-05
7.91199e-05
6.53691e-05
0.000502588
6.85155e-05
0.0579458
6.234e-05
8.66848e-05
7.73998e-05
0.000630775
0.00114669
0.000453725
1.6682
0.00121535
0.000365478
6.62471e-05
0.0975787
8.83349e-05
0.00011359
7.66992e-05
0.984701
6.97202e-05
0.000118114
6.30028e-05
8.16865e-05
0.000107325
0.0658683
0.000222652
6.67186e-05
8.41168e-05
7.1751e-05
0.000468855
0.00013557
0.000340573
0.00082448
0.00272342
7.62476e-05
0.0428443
0.000161303
0.000102831
6.74419e-05
5.97234e-05
5.69104e-05
6.6224e-05
6.22918e-05
6.47739e-05
4.00269e-05
0.0143031
6.70906e-05
0.448897
0.000100623
6.7805e-05
0.000243622
0.000100701
0.00880411
6.22725e-05
8.12506e-05
6.81746e-05
6.79282e-05
7.83028e-05
7.32262e-05
0.0160014
0.0036635
0.000267562
0.0193327
6.64871e-05
7.27917e-05
6.90929e-05
0.00483028
0.000467794
6.66382e-05
0.220465
0.000141616
7.1027e-05
6.72505e-05
6.45909e-05
6.98463e-05
6.38115e-05
5.70279e-05
0.0161069
6.78536e-05
7.08013e-05
6.42386e-05
6.76703e-05
6.88173e-05
6.47532e-05
6.2958e-05
7.03268e-05
6.43156e-05
6.41023e-05
0.0393234
6.83221e-05
0.00754381
9.52043e-05
6.82961e-05
0.72985
6.73062e-05
0.000159797
1.29342e-05
6.67809e-05
0.000116936
7.2043e-05
0.000137626
6.9691e-05
6.73814e-05
0.000366633
6.68193e-05
7.10762e-05
0.00152987
0.000919922
6.93637e-05
7.10699e-05
0.0394697
0.0355267
6.6045e-05
6.57375e-05
6.73485e-05
7.03049e-05
0.000218885
6.56784e-05
0.0643461
9.17209e-05
0.000100284
0.000216894
7.15164e-05
5.99944e-05
7.22921e-05
9.03436e-05
0.000882075
0.0485695
7.27567e-05
6.53961e-05
6.90257e-05
0.0970392
7.93193e-05
7.22781e-05
5.8164e-05
6.66102e-05
0.00356034
6.76592e-05
0.000256023
6.04485e-05
6.33417e-05
9.55787e-05
0.0211757
0.000240479
7.4082e-05
0.0194634
6.97858e-05
0.0183986
0.00784331
6.57279e-05
7.32924e-05
0.00101497
7.51998e-05
0.000137276
7.14876e-05
0.000117021
0.00395426
0.0728781
0.000459933
5.96197e-05
8.07005e-05
0.000648798
9.2495e-05
7.10399e-05
6.0735e-05
6.74207e-05
6.68783e-05
0.0142372
0.0167136
0.0592381
6.82994e-05
7.60327e-05
6.41718e-05
0.0945045
0.00150948
6.80119e-05
0.000103233
0.022669
7.54536e-05
0.0340087
0.00414803
0.0382315
0.0828912
6.60011e-05
6.42239e-05
6.94334e-05
6.96175e-05
0.00597439
0.110353
7.04971e-05
0.00127503
6.57773e-05
0.331679
6.9704e-05
0.000392933
6.89341e-05
0.00394062
0.0209955
0.0669333
7.16178e-05
7.19929e-05
7.16269e-05
0.0927615
6.45109e-05
8.075e-05
6.80631e-05
7.88702e-05
8.97903e-05
0.0870909
8.18885e-05
6.46212e-05
0.0588471
6.34876e-05
8.22308e-05
6.81121e-05
6.79133e-05
0.0539698
6.6914e-05
7.07789e-05
8.10465e-05
0.0296287
0.00573287
0.00027342
6.5936e-05
0.00114449
6.86767e-05
0.179975
0.450747
0.360765
0.00265496
0.472504
0.000117601
0.240949
0.208344
5.93112e-05
7.08418e-05
6.75892e-05
9.50591e-05
6.81281e-05
6.83463e-05
0.00012685
6.12331e-05
0.000144999
7.26081e-05
0.000121765
0.000237179
6.91814e-05
7.07838e-05
0.00740716
0.00042809
0.00393996
0.0258875
6.60198e-05
6.7886e-05
0.106079
0.0111923
0.0488517
0.00125354
6.8241e-05
0.000220108
6.71619e-05
7.94661e-05
6.67326e-05
6.57015e-05
8.41671e-05
0.00188936
0.000165179
0.000401928
0.00404115
0.00025988
0.0485753
0.000211703
8.92538e-05
0.000127423
8.20429e-05
0.00151964
9.62966e-05
6.49977e-05
0.000443223
6.37593e-05
9.05518e-05
6.96642e-05
8.13473e-05
0.000102436
8.70401e-05
7.25398e-05
6.45695e-05
0.0227604
9.66834e-05
0.0115086
0.0371214
6.64512e-05
0.123748
8.78461e-05
0.000186965
0.0013379
6.73205e-05
6.63178e-05
0.183588
0.0413284
0.000962282
3.51745e-05
0.0387228
0.0878091
6.47896e-05
8.69485e-05
9.5672e-05
0.000109151
9.47453e-05
7.05786e-05
0.00660901
8.36012e-05
6.80491e-05
7.24918e-05
7.80702e-05
0.00135941
0.00472049
0.00457728
0.370571
0.260092
9.43712e-05
6.82452e-05
0.0192429
7.16354e-05
9.56783e-05
0.00174077
0.00156214
6.85315e-05
0.000207052
2.82561e-05
7.47515e-05
7.82935e-05
0.119205
6.76784e-05
7.02547e-05
0.0690607
0.00143746
6.98371e-05
8.9555e-05
0.014396
0.000194175
8.6273e-05
0.000319687
8.50822e-05
7.24351e-05
6.16856e-05
0.000104798
8.46454e-05
0.00259763
0.056669
0.000775197
0.000510218
0.100117
0.000153789
6.65286e-05
0.0410225
6.53352e-05
7.86999e-05
0.000595555
7.46221e-05
0.265082
6.89246e-05
6.64882e-05
0.0237831
6.31644e-05
0.521747
0.000630271
0.157171
8.59391e-05
7.01858e-05
0.182541
0.00387699
0.00047756
0.891391
7.22257e-05
6.63949e-05
0.000980114
5.59332e-05
0.000324153
6.76769e-05
0.423718
9.19826e-05
6.51429e-05
0.0809248
0.000144121
0.0170198
0.193662
0.0398939
0.000689093
0.654869
6.26975e-05
1.14695
6.83645e-05
6.18395e-05
0.0004741
0.000227691
0.000230869
9.79054e-05
6.66024e-05
6.78756e-05
0.096932
0.0371257
0.0631209
0.0585293
0.000117285
6.40478e-05
6.60827e-05
0.000105549
7.0515e-05
6.83328e-05
0.399745
0.00488746
6.67546e-05
0.00031745
7.13159e-05
0.000132314
0.000680536
6.4115e-05
9.19182e-05
6.412e-05
6.9484e-05
0.000289236
0.0135699
0.760417
0.00108002
0.0389798
0.00209697
6.32278e-05
0.000203709
0.0520438
6.13926e-05
6.28029e-05
6.60432e-05
0.0321207
0.100548
0.0932585
0.0620642
6.67521e-05
6.94605e-05
0.379019
0.000136292
0.0118222
8.14619e-05
5.81741e-05
6.57941e-05
6.59434e-05
0.0179406
6.60873e-05
0.0116493
0.017433
0.0153801
0.00836642
0.0162081
0.000140703
9.4597e-05
0.000676896
6.83792e-05
6.60596e-05
6.51322e-05
0.000113857
7.26802e-05
6.66292e-05
6.99389e-05
6.99985e-05
7.47119e-05
0.856229
0.0474786
0.0847607
6.94819e-05
6.80661e-05
0.120564
0.0211167
6.54867e-05
0.230388
6.45138e-05
6.7725e-05
0.139545
0.0534583
0.224075
0.0308936
6.39654e-05
0.0175357
0.142385
0.0186718
6.68027e-05
0.0260778
0.145664
0.0830466
0.0542747
6.10777e-05
0.171041
0.115176
0.00131118
0.253772
0.09841
0.189071
0.114282
0.00113919
0.0488206
0.000100635
0.0482346
0.0865645
0.122336
7.05639e-05
7.48444e-05
0.0749432
6.132e-05
8.21348e-05
0.0335297
0.000128356
0.0471551
0.0888693
0.000298191
7.1354e-05
0.000338526
9.2223e-05
0.0693046
0.0686199
0.124996
0.0568001
0.0580857
6.20238e-05
0.00233891
0.0271925
6.69558e-05
6.10236e-05
6.6392e-05
0.00123998
0.000327332
7.73397e-05
0.000103182
0.000301201
0.000617328
0.00012285
7.10531e-05
0.0785079
0.0179513
0.000193049
1.55621
0.000129603
7.04224e-05
0.0694041
0.000100375
6.57945e-05
7.16323e-05
0.000338956
6.8595e-05
6.86774e-05
0.0606791
0.0358287
0.00789703
0.0307081
0.0787544
0.000381428
6.65551e-05
0.0665613
0.040215
8.02282e-05
0.00710635
8.12545e-05
0.00100372
0.000327513
0.0428872
6.87391e-05
0.038233
5.92999e-05
9.60787e-05
6.76853e-05
6.64644e-05
0.0157415
7.40166e-05
0.0706113
6.78094e-05
0.00381893
0.0421044
0.0001632
0.00281303
0.260061
0.0518903
0.0502669
0.050796
5.40624e-05
0.037198
0.119229
6.6663e-05
7.24518e-05
0.00819853
3.89279e-05
0.0974529
0.00044295
0.0523078
0.00347491
0.0682291
0.0564085
0.0235911
0.144397
0.0196888
0.000344606
2.85355
0.348881
0.000118872
0.509065
0.000114209
0.00888414
0.0109237
6.85331e-05
1.03003
8.58708e-05
9.53817e-05
0.000167619
8.38804e-05
0.0838125
6.55596e-05
7.17783e-05
6.65097e-05
0.000105117
0.00028954
6.44785e-05
6.38014e-05
0.000157041
2.05132
0.00569758
0.000359094
0.0186228
0.0105128
6.78692e-05
0.000590489
0.0369124
0.20737
0.00670918
0.00608186
0.0448732
0.00330608
0.191081
0.00238956
0.00110642
0.071384
6.70619e-05
7.31531e-05
6.66253e-05
0.0529848
0.000290502
0.00269902
0.0192555
0.0143074
0.0263235
0.307792
0.000170549
0.0198216
0.000771786
6.81132e-05
0.000217038
0.00288145
0.00071308
0.00220688
0.000474083
0.0866082
0.076404
1.02974
0.000116165
3.0107
6.5033e-05
0.095829
9.25649e-05
0.00299706
0.0112036
0.000224618
7.19556e-05
0.00437158
6.68177e-05
0.000213467
7.69341e-05
9.40548e-05
0.000613534
0.0142497
6.65613e-05
1.25856
0.0226911
0.000285683
0.0503282
0.256354
4.07743
0.443172
0.000101172
0.00558594
0.0180882
0.000384428
6.45883e-05
0.018176
0.0584555
6.90585e-05
6.56471e-05
6.30659e-05
7.10139e-05
7.87719e-05
0.0121065
0.0121525
0.0174602
0.0183015
0.000362302
2.98356
0.0116744
0.000114773
0.000486857
5.39381e-05
0.000246007
0.0255321
0.0299343
0.00281793
0.0129301
6.86195e-05
0.000114872
9.01862e-05
7.28659e-05
0.000297413
6.88155e-05
0.0688413
0.000140112
7.0474e-05
0.0248831
0.0109235
0.0759306
6.53853e-05
7.14073e-05
6.60331e-05
0.000249324
0.000718634
6.98776e-05
0.121162
0.228253
7.01044e-05
6.44165e-05
0.82726
0.000290245
0.000111374
0.000206502
0.000420383
0.017764
0.163839
2.92306
0.0609211
0.057716
0.000103419
0.0443874
0.000797865
0.106593
0.107376
6.68568e-05
0.11406
6.59984e-05
7.033e-05
0.211725
0.000139108
6.70745e-05
0.179328
0.128489
0.320086
0.285883
6.7026e-05
0.0883845
0.341372
0.246806
7.08055e-05
0.000137056
0.165939
0.426393
0.0810786
0.0437329
0.0149456
8.65272e-05
0.0651553
0.180284
0.0790127
0.0407574
0.069655
0.20273
6.63741e-05
6.93092e-05
0.0477741
0.0959534
0.0222308
0.0555508
0.0581793
0.0232712
0.443657
9.62741e-05
0.0690818
6.53315e-05
0.129283
0.00040221
0.031362
0.0374161
8.53699e-05
0.29153
7.80043e-05
0.106448
0.195802
7.62967e-05
7.20544e-05
0.112222
7.01375e-05
8.1663e-05
6.87559e-05
5.2202e-05
0.167633
6.66692e-05
0.198481
0.997554
7.12622e-05
6.56487e-05
0.518075
7.02452e-05
5.69616e-05
0.225633
5.54375e-05
6.12795e-05
6.87926e-05
6.86538e-05
0.103288
0.0619533
0.237572
6.83257e-05
6.35857e-05
0.334368
6.80378e-05
0.0543796
0.0353519
7.30271e-05
5.83304e-05
0.000892565
0.00188454
0.0846932
6.22449e-05
6.35507e-05
6.02903e-05
0.00642121
7.6627e-05
0.0712961
0.0355211
0.000943259
6.61744e-05
0.0199059
6.66674e-05
9.66229e-05
6.0758e-05
0.0435465
6.39311e-05
0.042662
0.423746
6.50473e-05
0.000207263
0.000998696
0.000172143
0.0873952
6.21226e-05
0.0338429
0.000145762
7.18435e-05
7.24289e-05
0.00126498
6.50166e-05
7.49244e-05
6.52235e-05
0.115772
6.3288e-05
6.03969e-05
6.46728e-05
6.91711e-05
0.00012425
0.0453128
0.102308
6.38851e-05
6.54099e-05
0.0459633
6.0935e-05
0.0987372
8.96487e-05
6.07512e-05
2.67925
1.38434
0.117882
7.16648e-05
6.61319e-05
0.0359793
0.88439
6.32135e-05
0.84582
6.32848e-05
0.13861
0.0455747
0.000252192
0.010236
0.116392
0.450187
1.67946
0.0639532
7.00202e-05
6.50112e-05
5.98896e-05
0.0364689
0.0659903
0.000113531
0.304905
0.000469794
0.000251089
5.9616e-05
0.0207954
0.667426
0.242255
6.53307e-05
0.00027925
0.0367183
9.43187e-05
0.246883
6.7806e-05
0.000189906
6.57172e-05
0.307372
0.0581669
0.0457428
6.64969e-05
6.85064e-05
6.8623e-05
0.841214
0.000115645
0.346515
8.46641e-05
6.93584e-05
0.400144
0.084522
0.000235872
6.52368e-05
2.15335
6.6437e-05
6.69017e-05
0.0968165
1.6979
0.00065288
0.0253287
0.000474715
1.75579
0.535113
0.0548485
0.00734932
6.32396e-05
0.0389024
0.000522672
0.0538535
1.3023
0.00875765
0.015138
0.0951284
0.0143775
0.450097
0.000182485
0.310872
0.104043
0.0567459
0.000582253
0.00353487
1.4333
6.63754e-05
0.0684001
0.548572
6.66845e-05
0.0120299
6.08031e-05
1.08809
0.0676286
0.0512899
0.0532103
0.0788251
0.000295045
6.34474e-05
6.79938e-05
0.000650011
0.591459
6.41106e-05
0.0559552
0.0350563
6.55689e-05
0.000102047
0.000127175
6.43269e-05
0.000221518
6.5951e-05
0.0064257
6.57274e-05
0.438467
6.39391e-05
1.08511
6.4677e-05
0.00363888
6.35745e-05
6.69066e-05
0.0386657
7.4548e-05
6.34417e-05
6.87899e-05
8.27323e-05
0.000564977
0.0356528
0.0233266
0.0989676
0.00244397
6.9244e-05
6.62775e-05
6.57203e-05
6.16655e-05
0.000308402
6.78915e-05
6.80901e-05
0.00135591
0.000138752
0.0222708
6.40915e-05
6.50858e-05
6.70339e-05
7.33416e-05
0.00015965
0.000168427
0.105617
7.99052e-05
0.000120615
0.0218271
7.75712e-05
0.00358243
0.000111033
0.00524568
0.0045672
0.00161953
7.07184e-05
0.00033619
6.93067e-05
6.91969e-05
6.95376e-05
6.63264e-05
7.39198e-05
0.00271255
7.19826e-05
6.95959e-05
6.48717e-05
7.20866e-05
0.00624014
7.03068e-05
0.0439607
7.07912e-05
0.00180466
6.89292e-05
6.99612e-05
0.00287671
0.0032434
0.000936001
7.30437e-05
6.65216e-05
6.23734e-05
0.241235
0.0218594
6.7663e-05
0.0485666
0.044052
6.47524e-05
0.000418696
0.000815366
0.090837
0.0519909
6.74069e-05
6.9865e-05
0.0995997
7.15116e-05
0.0445509
7.01222e-05
0.000231772
6.72472e-05
6.59116e-05
7.11637e-05
0.000212528
0.000150699
6.882e-05
4.07404e-05
0.0676612
6.39991e-05
0.000221046
0.000411679
4.63171e-05
9.34062e-05
0.0165333
7.09577e-05
0.00913396
0.206552
0.212985
7.4492e-05
5.61224e-05
0.000146387
6.66767e-05
0.00414359
6.81475e-05
6.86653e-05
0.0120641
7.55448e-05
6.94974e-05
7.62565e-05
7.1742e-05
6.68445e-05
6.72033e-05
8.60784e-05
0.000211375
0.0723766
0.00136715
0.081912
8.37555e-05
0.000438664
5.81348e-05
6.67129e-05
0.115803
6.20268e-05
6.78168e-05
0.155427
5.74047e-05
0.0922586
6.52344e-05
5.66151e-05
0.000511645
0.132653
0.0362968
0.13963
0.0349539
6.90083e-05
0.188432
0.0718391
6.65033e-05
0.078795
6.6499e-05
0.107783
0.0971548
7.58451e-05
0.0621532
0.194777
0.0309111
7.40883e-05
0.0365433
0.163191
0.000265153
6.85679e-05
0.0272896
7.24727e-05
7.09681e-05
6.82651e-05
6.77348e-05
0.116319
0.000170037
0.000191198
7.91619e-05
6.84267e-05
6.96983e-05
0.000390076
7.1293e-05
0.204628
6.86887e-05
0.000940653
0.000113938
0.000174404
0.0108278
6.6882e-05
6.99745e-05
7.30239e-05
6.89565e-05
6.79472e-05
6.7578e-05
0.0002795
6.7329e-05
0.000445391
7.32564e-05
0.000226013
6.39464e-05
6.69144e-05
0.0374609
6.97347e-05
0.000234954
0.0278764
5.83975e-05
6.89597e-05
8.43748e-05
6.2594e-05
6.92177e-05
6.82005e-05
9.02663e-05
6.2676e-05
0.00028271
0.00136965
0.000182312
6.79681e-05
8.59699e-05
0.000292341
7.10716e-05
0.00192991
0.000266807
6.25097e-05
0.000746144
0.000542252
6.44199e-05
0.00245314
6.75514e-05
0.0859382
0.0257416
6.93511e-05
0.000724088
0.000326655
0.113701
0.183317
7.19399e-05
6.75995e-05
0.000128283
6.53889e-05
0.000123103
7.20232e-05
6.61524e-05
6.50913e-05
6.81931e-05
0.121366
7.54809e-05
6.4253e-05
6.56395e-05
1.35105
0.0305532
0.000207904
1.76989
0.00115581
6.6749e-05
0.000597976
6.55037e-05
0.000457164
6.77201e-05
0.00806444
6.26593e-05
6.79546e-05
0.125825
2.4918
6.84284e-05
6.63972e-05
3.43313
0.000146354
1.32023
6.94614e-05
6.64926e-05
6.92852e-05
6.90497e-05
0.193999
6.93317e-05
0.191784
6.57187e-05
6.34998e-05
0.174871
6.73662e-05
6.77107e-05
0.00024271
0.23623
6.73871e-05
0.000110852
0.168478
6.42183e-05
0.00404975
0.246159
0.138241
2.49352e-05
7.20672e-05
0.0930387
0.00756135
0.0677479
0.161991
8.3202e-05
6.95434e-05
0.000312041
0.000475046
0.00104359
0.0666264
6.94157e-05
0.000130283
6.79825e-05
0.0673907
7.36744e-05
5.41019e-05
6.75435e-05
8.43355e-05
0.00275287
0.00135818
0.099714
0.0485655
7.10767e-05
0.0776998
0.0622991
0.0429296
6.40069e-05
0.00018469
0.31105
8.14772e-05
0.0891145
0.00079268
0.000299168
6.39525e-05
0.0871344
5.6355e-05
0.000242088
7.12938e-05
0.000556761
0.0564845
0.0530099
0.0902497
0.117927
0.00180129
6.56475e-05
6.84574e-05
0.0575112
6.97511e-05
6.58146e-05
4.58359e-05
0.00266991
6.37149e-05
0.015976
9.00621e-05
0.0129622
0.032239
0.155455
6.89987e-05
0.0626894
0.0331839
6.92724e-05
0.0334994
0.099116
0.000702012
0.03396
8.78195e-05
0.0294776
0.000399298
0.000636254
0.101174
0.0801296
0.000184879
0.000146047
0.111183
0.0202578
6.43415e-05
6.76627e-05
0.0615022
6.34287e-05
6.73838e-05
0.00107713
0.0793282
7.55457e-05
6.40357e-05
0.728055
6.91557e-05
0.000506658
0.00823098
6.89111e-05
0.771508
6.44163e-05
0.00293588
0.0722556
0.272984
6.50926e-05
6.48865e-05
6.43903e-05
0.611294
0.000241298
0.00283979
0.000206139
0.447085
0.413831
0.000108249
0.000958358
0.012315
0.0504646
0.0383701
0.0220617
0.16766
6.71364e-05
9.65988e-05
6.77293e-05
7.34822e-05
9.62885e-05
6.91593e-05
0.001553
7.01872e-05
9.14799e-05
0.000899121
6.72221e-05
0.648682
7.34983e-05
6.21002e-05
6.59017e-05
0.000101593
7.45698e-05
6.75549e-05
0.0784825
0.00212717
6.80734e-05
0.000842104
6.7448e-05
7.73883e-05
6.67763e-05
8.62358e-05
9.52601e-05
0.000109092
8.38321e-05
1.93099
5.27659e-05
0.0189392
0.00392325
0.700418
5.8338e-05
0.0050486
0.165984
7.84668e-05
7.26349e-05
0.0639548
6.23598e-05
7.50175e-05
5.67686e-05
6.43409e-05
6.90731e-05
7.21235e-05
8.26298e-05
6.6569e-05
0.000370442
6.84178e-05
0.000116697
0.0119893
5.87122e-05
7.92745e-05
5.5762e-05
8.077e-05
0.000190194
0.000152622
0.00010341
0.233214
6.86932e-05
0.000106923
6.46699e-05
0.000255949
6.69911e-05
7.44811e-05
0.000104313
0.950529
2.54459
0.00012106
0.0405115
0.000220568
6.45051e-05
7.04894e-05
0.0131185
0.000291358
6.5095e-05
0.00642112
6.58743e-05
6.39136e-05
0.0437467
7.0209e-05
0.107403
0.0351337
7.11945e-05
0.000347698
6.19759e-05
0.780147
6.91606e-05
0.000627908
6.41005e-05
7.47727e-05
6.85418e-05
6.37702e-05
6.30692e-05
0.00280274
0.000111004
9.82645e-05
0.0165561
0.0335258
0.0334959
6.59054e-05
0.0462119
0.0315886
9.65343e-05
0.113825
0.864777
0.00052636
0.00712518
0.00789757
0.000102157
7.16852e-05
0.00321397
0.000557779
0.0837035
5.85145e-05
6.24201e-05
7.0954e-05
6.363e-05
6.35049e-05
0.000697235
0.00126292
0.0571142
6.45269e-05
6.8126e-05
0.00148967
0.0298199
8.60624e-05
6.41926e-05
6.72066e-05
0.0639433
0.0605022
6.54532e-05
0.000582779
0.000722702
7.16144e-05
0.0681259
0.0782818
9.0648e-05
0.0122025
0.0059518
0.00752587
0.000149102
6.85556e-05
1.1364
6.70985e-05
6.61491e-05
5.74282e-05
6.31987e-05
0.0177902
7.91157e-05
0.000830932
6.93267e-05
0.000209554
9.11606e-05
0.00028627
6.58339e-05
0.0422967
0.0726869
6.09167e-05
0.00334425
9.71725e-05
6.32088e-05
6.9458e-05
0.288874
0.108135
2.31252
8.90362e-05
0.00024245
0.000106998
0.00158306
0.00059653
0.00074352
0.0173174
0.000100146
5.70332e-05
0.000211934
1.05624
0.653718
0.003254
5.48697e-05
0.016804
0.0219391
0.00538214
0.0146254
0.055323
0.18373
0.224548
0.0525752
7.91687e-05
7.37497e-05
0.000183496
6.04444e-05
6.74206e-05
6.68565e-05
0.0211666
0.70267
0.0246416
0.0445261