/*--------------------------------*- C++ -*----------------------------------*\
| =========                 |                                                 |
| \\      /  F ield         | OpenFOAM: The Open Source CFD Toolbox           |
|  \\    /   O peration     | Version:  v2012                                 |
|   \\  /    A nd           | Website:  www.openfoam.com                      |
|    \\/     M anipulation  |                                                 |
\*---------------------------------------------------------------------------*/
FoamFile
{
    version     2.0;
    format      ascii;
    class       volScalarField;
    location    "5";
    object      N2;
}
// * * * * * * * * * * * * * * * * * * * * * * * * * * * * * * * * * * * * * //

dimensions      [0 0 0 0 0 0 0];


internalField   nonuniform List<scalar> 
108993
(
0.76699
0.76699
0.76699
0.76699
0.76699
0.76699
0.766171
0.76699
0.76699
0.76699
0.76699
0.76699
0.76699
0.76699
0.76699
0.76699
0.76699
0.76699
0.76699
0.76699
0.76699
0.76699
0.76699
0.76699
0.76699
0.76699
0.76699
0.76699
0.76699
0.76699
0.76699
0.76699
0.76699
0.76699
0.76699
0.76699
0.76699
0.76699
0.766028
0.759446
0.76699
0.76699
0.76699
0.76699
0.76699
0.748609
0.76699
0.76693
0.76699
0.76699
0.76699
0.76699
0.76699
0.76699
0.76699
0.76699
0.76699
0.76699
0.76699
0.76699
0.76699
0.76699
0.76699
0.76699
0.76699
0.76699
0.76699
0.76699
0.76699
0.766307
0.76699
0.76699
0.76699
0.76699
0.76699
0.76699
0.76699
0.76699
0.76699
0.76699
0.76699
0.76699
0.76699
0.76699
0.76699
0.76699
0.76699
0.76699
0.76699
0.76699
0.76699
0.76699
0.76699
0.76699
0.76699
0.76699
0.76699
0.76699
0.76699
0.76699
0.76699
0.76699
0.76699
0.76699
0.76699
0.76699
0.76699
0.76699
0.76699
0.763163
0.76699
0.76699
0.76699
0.76699
0.76699
0.766608
0.76699
0.76699
0.76699
0.76699
0.76699
0.76699
0.763768
0.76699
0.76699
0.76699
0.76699
0.76699
0.76699
0.76699
0.76699
0.76699
0.76699
0.76699
0.76699
0.76699
0.76699
0.76699
0.76699
0.76699
0.76699
0.76699
0.76699
0.76699
0.76699
0.76699
0.76699
0.7546
0.76699
0.766987
0.766984
0.76699
0.76699
0.766984
0.76699
0.76699
0.76699
0.76699
0.76699
0.76698
0.766985
0.76699
0.76699
0.76699
0.76699
0.76699
0.76699
0.76699
0.76699
0.76699
0.76699
0.76699
0.76699
0.76699
0.76699
0.76699
0.766982
0.76699
0.76699
0.76699
0.76699
0.76699
0.76699
0.76699
0.76699
0.76699
0.76699
0.76699
0.76699
0.76699
0.76699
0.76699
0.76699
0.766972
0.76699
0.76699
0.76699
0.76699
0.76699
0.76699
0.76699
0.76699
0.76699
0.76699
0.766769
0.766988
0.76699
0.759877
0.76699
0.76607
0.766969
0.76699
0.766952
0.762084
0.741139
0.76699
0.76699
0.76699
0.76699
0.76699
0.76699
0.766975
0.76699
0.766988
0.76699
0.76699
0.76699
0.76699
0.76697
0.76699
0.757759
0.76699
0.76699
0.76699
0.76699
0.76699
0.76699
0.76699
0.76646
0.76699
0.76699
0.76699
0.76699
0.76699
0.76699
0.76699
0.761589
0.764057
0.76699
0.76699
0.76699
0.76699
0.76699
0.76699
0.76699
0.76699
0.76699
0.76699
0.76699
0.76699
0.76699
0.76699
0.76699
0.76699
0.76699
0.76699
0.76699
0.76699
0.76699
0.76699
0.76699
0.76699
0.76021
0.766754
0.754964
0.76699
0.76699
0.764858
0.76699
0.76699
0.76699
0.744607
0.745826
0.76699
0.76699
0.76699
0.76699
0.76699
0.76699
0.757351
0.76699
0.76699
0.76699
0.76699
0.76699
0.76699
0.76699
0.76699
0.766979
0.76699
0.766157
0.766918
0.76699
0.76699
0.76699
0.76699
0.76699
0.76699
0.76699
0.761469
0.76699
0.76699
0.76699
0.76699
0.76699
0.766721
0.76699
0.76699
0.760891
0.76699
0.76699
0.76699
0.76699
0.76699
0.76699
0.766935
0.766966
0.765272
0.76699
0.76699
0.76699
0.765492
0.766571
0.76699
0.762328
0.76699
0.76699
0.76699
0.76699
0.76699
0.76699
0.76699
0.76699
0.76699
0.76699
0.76699
0.76699
0.76699
0.76699
0.76699
0.76699
0.76699
0.743791
0.760442
0.76699
0.76699
0.76699
0.752892
0.76699
0.76699
0.76699
0.76699
0.76699
0.76699
0.76699
0.76699
0.76699
0.76699
0.76699
0.763034
0.76699
0.76699
0.76699
0.766879
0.76699
0.766951
0.76699
0.76699
0.766982
0.76699
0.766927
0.766962
0.76699
0.76699
0.76699
0.76699
0.76699
0.757732
0.76699
0.762944
0.766972
0.76699
0.766963
0.76699
0.760944
0.76699
0.766747
0.76699
0.76699
0.76699
0.76699
0.76301
0.763907
0.76699
0.76699
0.76699
0.76699
0.76699
0.76699
0.766392
0.76699
0.76699
0.765792
0.76699
0.76699
0.76699
0.766156
0.765723
0.759996
0.76699
0.763649
0.76699
0.766966
0.76699
0.76699
0.766989
0.76699
0.765052
0.766987
0.76699
0.766519
0.76253
0.766924
0.76699
0.76699
0.76699
0.76699
0.76699
0.76699
0.76699
0.76699
0.76699
0.76699
0.76699
0.766757
0.76699
0.76699
0.76699
0.76699
0.76699
0.76699
0.76699
0.76699
0.76699
0.76699
0.76699
0.76699
0.76699
0.76699
0.76699
0.766512
0.76699
0.764509
0.766984
0.76699
0.76699
0.76699
0.763736
0.76699
0.76699
0.766816
0.76699
0.76699
0.76699
0.76699
0.76699
0.76699
0.76669
0.760516
0.76699
0.76699
0.76699
0.76699
0.76699
0.76699
0.76699
0.76699
0.76699
0.76699
0.76699
0.76699
0.76699
0.76699
0.76699
0.76699
0.76699
0.76699
0.76699
0.76699
0.76699
0.76699
0.76699
0.76699
0.76699
0.76699
0.76699
0.76699
0.76699
0.763851
0.76699
0.76699
0.76699
0.76699
0.76699
0.76699
0.76699
0.76699
0.76699
0.76699
0.76699
0.76699
0.76699
0.76699
0.76699
0.76699
0.766989
0.76699
0.76699
0.766989
0.76699
0.76699
0.76699
0.76699
0.76699
0.76699
0.76699
0.76699
0.76699
0.76699
0.760495
0.76699
0.756027
0.76699
0.76699
0.76699
0.76699
0.76699
0.766989
0.76699
0.76699
0.765448
0.76699
0.742172
0.76699
0.76699
0.76699
0.76699
0.76699
0.760193
0.76699
0.76699
0.76699
0.76699
0.76699
0.766028
0.765389
0.76699
0.76699
0.76699
0.76699
0.76699
0.76699
0.608345
0.766445
0.76522
0.76699
0.76699
0.765876
0.766984
0.766822
0.76699
0.76699
0.76699
0.76699
0.76699
0.76699
0.747113
0.76643
0.76699
0.76699
0.76699
0.76699
0.76699
0.76699
0.766727
0.76699
0.76699
0.76699
0.766978
0.76699
0.76699
0.76699
0.760448
0.76699
0.76699
0.76699
0.763568
0.76699
0.76699
0.76699
0.766765
0.76699
0.76699
0.76699
0.76699
0.76699
0.76699
0.76699
0.763937
0.76699
0.76699
0.76699
0.76699
0.756241
0.76699
0.76699
0.76699
0.766891
0.743123
0.76699
0.76453
0.76699
0.766989
0.76699
0.76699
0.76699
0.76699
0.765628
0.76699
0.76699
0.76699
0.76699
0.76699
0.76699
0.76699
0.76699
0.76699
0.76699
0.76699
0.76699
0.76699
0.76699
0.758656
0.749144
0.766179
0.76699
0.766896
0.749225
0.766508
0.749509
0.749085
0.76699
0.76699
0.76699
0.76699
0.76699
0.76699
0.76699
0.761624
0.759289
0.76699
0.76699
0.76699
0.748933
0.749259
0.76699
0.76699
0.765703
0.76699
0.751134
0.766989
0.76661
0.76699
0.76699
0.754181
0.76699
0.766032
0.766516
0.765746
0.766544
0.76699
0.76699
0.76699
0.76699
0.76699
0.75926
0.76699
0.762395
0.76699
0.766473
0.76699
0.76699
0.76699
0.76699
0.76699
0.76699
0.76699
0.76699
0.76699
0.76699
0.76699
0.759245
0.764839
0.76699
0.766477
0.76699
0.76699
0.76699
0.76699
0.76699
0.76699
0.76699
0.76699
0.76699
0.76699
0.76699
0.76699
0.76699
0.766986
0.76699
0.76699
0.76699
0.76699
0.76699
0.76699
0.76699
0.766562
0.76699
0.76699
0.76699
0.76699
0.76699
0.759162
0.760004
0.76699
0.76699
0.76699
0.76699
0.76699
0.76699
0.76699
0.76699
0.76699
0.76699
0.76699
0.76699
0.76699
0.76699
0.76699
0.76699
0.76699
0.76699
0.76699
0.76699
0.765952
0.76699
0.76699
0.760909
0.76699
0.76699
0.76699
0.766939
0.76699
0.766929
0.763476
0.76699
0.76699
0.765344
0.764354
0.76699
0.76699
0.766765
0.76699
0.76699
0.76699
0.76699
0.76699
0.76699
0.76699
0.765804
0.76699
0.753127
0.76699
0.76699
0.756897
0.76699
0.766039
0.76699
0.766989
0.76699
0.76699
0.76699
0.76699
0.76699
0.76699
0.76699
0.76699
0.76699
0.76699
0.76699
0.76699
0.76699
0.76699
0.766047
0.76699
0.76394
0.76699
0.76699
0.753688
0.76699
0.761792
0.76699
0.76699
0.76699
0.764158
0.76699
0.76699
0.766502
0.765634
0.76699
0.765937
0.760857
0.76699
0.76699
0.76699
0.76699
0.76699
0.76597
0.761134
0.76699
0.76699
0.76699
0.766426
0.76699
0.76699
0.766739
0.76699
0.76699
0.760224
0.76699
0.763186
0.76699
0.761589
0.76699
0.76699
0.76699
0.76699
0.76699
0.76699
0.76699
0.76699
0.766904
0.76699
0.74233
0.76699
0.76699
0.76699
0.76699
0.76699
0.766989
0.76699
0.76699
0.76699
0.745049
0.76699
0.76699
0.76699
0.765821
0.76699
0.76551
0.7511
0.742628
0.76699
0.76699
0.76699
0.766313
0.76699
0.766533
0.756735
0.766898
0.76699
0.76699
0.76699
0.76699
0.76699
0.76699
0.76699
0.76699
0.766831
0.76699
0.766539
0.76699
0.76699
0.766685
0.76699
0.76699
0.765163
0.766841
0.76699
0.766943
0.76699
0.76699
0.76699
0.76699
0.760476
0.76699
0.762198
0.76699
0.76699
0.76699
0.76699
0.76699
0.76699
0.76699
0.76699
0.76699
0.76699
0.76699
0.76699
0.76699
0.766987
0.76699
0.76699
0.76699
0.76699
0.76699
0.76699
0.766668
0.76699
0.761055
0.76699
0.76699
0.76699
0.76699
0.76699
0.76699
0.76699
0.763866
0.76699
0.766993
0.76699
0.76699
0.766966
0.76685
0.76699
0.76699
0.764126
0.76699
0.76699
0.76699
0.76699
0.76699
0.756476
0.76699
0.766944
0.766985
0.76699
0.76699
0.76699
0.76699
0.766966
0.766965
0.76699
0.76699
0.76699
0.766952
0.76699
0.76699
0.76699
0.766846
0.76699
0.76699
0.76699
0.76699
0.76699
0.76699
0.76699
0.76699
0.76699
0.76699
0.76699
0.76699
0.755944
0.76699
0.76699
0.76699
0.76699
0.76699
0.75715
0.766974
0.76699
0.76699
0.76699
0.76699
0.76699
0.76699
0.76699
0.76699
0.765959
0.76699
0.766977
0.766986
0.766525
0.76699
0.76699
0.76699
0.76699
0.76699
0.76699
0.76699
0.76699
0.76699
0.76699
0.763893
0.76699
0.76699
0.76699
0.76699
0.76699
0.76699
0.76699
0.76699
0.76699
0.76699
0.76699
0.76699
0.76699
0.76699
0.76699
0.766716
0.76699
0.76699
0.76699
0.76699
0.76699
0.76699
0.743713
0.76699
0.76699
0.76699
0.756519
0.76699
0.76699
0.76699
0.743923
0.76699
0.76699
0.76699
0.76699
0.76699
0.759551
0.76699
0.76699
0.76699
0.76699
0.766986
0.76699
0.766988
0.76699
0.76699
0.76699
0.766351
0.76699
0.76699
0.76699
0.76699
0.76699
0.76699
0.76699
0.76699
0.76699
0.766971
0.76699
0.762106
0.76699
0.76699
0.76699
0.76699
0.76699
0.76699
0.76699
0.76699
0.76699
0.76699
0.76699
0.766981
0.76699
0.76699
0.766969
0.76699
0.76699
0.76699
0.76699
0.76699
0.76699
0.650989
0.76699
0.76699
0.76699
0.76699
0.76699
0.76699
0.76699
0.76699
0.76699
0.76699
0.76699
0.76699
0.76699
0.76699
0.76699
0.76699
0.76699
0.76699
0.76699
0.76699
0.766914
0.76699
0.76699
0.750253
0.76699
0.76699
0.76699
0.76699
0.76699
0.76699
0.76699
0.76699
0.76699
0.76699
0.76699
0.76699
0.76699
0.76699
0.76699
0.76699
0.766986
0.766961
0.76699
0.76699
0.76699
0.76699
0.76699
0.76699
0.75648
0.76699
0.76699
0.76699
0.76699
0.76699
0.76699
0.76699
0.76699
0.757096
0.76699
0.76699
0.76699
0.766988
0.76699
0.76699
0.76699
0.76699
0.76699
0.76699
0.76699
0.76699
0.76699
0.76699
0.765555
0.76699
0.76699
0.766911
0.76699
0.76694
0.766867
0.76699
0.76699
0.76699
0.76699
0.76699
0.76699
0.76699
0.766988
0.763295
0.76699
0.76699
0.76699
0.766988
0.76699
0.76699
0.76699
0.76699
0.76699
0.766185
0.766788
0.760952
0.76699
0.76699
0.76699
0.765806
0.766989
0.76699
0.76699
0.766709
0.76699
0.766523
0.766967
0.766523
0.766976
0.76699
0.76699
0.76699
0.76699
0.76699
0.668613
0.76699
0.76699
0.76699
0.765939
0.76699
0.76699
0.76699
0.76699
0.76699
0.762724
0.76699
0.76699
0.76699
0.765682
0.76699
0.76699
0.76699
0.76699
0.76699
0.766988
0.76699
0.76699
0.75941
0.76699
0.76699
0.76699
0.76699
0.76699
0.76699
0.76699
0.76699
0.766982
0.766857
0.76699
0.76699
0.76699
0.76699
0.763457
0.764296
0.764836
0.76699
0.7645
0.76699
0.763651
0.763561
0.76699
0.76699
0.76699
0.76699
0.76699
0.76699
0.76699
0.76699
0.76699
0.76699
0.76699
0.76699
0.76699
0.76699
0.76699
0.76699
0.76699
0.76699
0.76699
0.76699
0.766981
0.76699
0.766402
0.76699
0.76699
0.76699
0.76699
0.76699
0.76699
0.76699
0.76699
0.76699
0.76699
0.76699
0.76699
0.76699
0.765827
0.76699
0.76699
0.76699
0.76699
0.76699
0.76699
0.76699
0.76699
0.76699
0.76699
0.76699
0.76699
0.76699
0.76699
0.76699
0.76699
0.766578
0.76699
0.76699
0.761833
0.76699
0.762566
0.76699
0.76699
0.76699
0.76699
0.76699
0.759069
0.764133
0.766989
0.76699
0.765123
0.765847
0.76699
0.76699
0.76699
0.76699
0.76699
0.76699
0.766932
0.76699
0.76699
0.76699
0.76699
0.76699
0.76699
0.76699
0.75464
0.760573
0.76699
0.76699
0.76699
0.76699
0.76699
0.76699
0.76699
0.76699
0.76699
0.76699
0.76699
0.76699
0.760134
0.76699
0.76699
0.766495
0.766986
0.76699
0.76699
0.76699
0.76699
0.76699
0.76699
0.76699
0.76699
0.76699
0.76699
0.76699
0.76699
0.761615
0.76699
0.76699
0.755439
0.76699
0.76699
0.761664
0.76699
0.76699
0.76699
0.76699
0.755802
0.76699
0.76699
0.766982
0.76699
0.754922
0.76699
0.757394
0.76699
0.76699
0.758572
0.766987
0.76699
0.745342
0.76699
0.76699
0.76699
0.76699
0.76699
0.76699
0.749693
0.76699
0.76699
0.763061
0.76699
0.766757
0.749358
0.765018
0.766981
0.757475
0.76699
0.730512
0.76699
0.76699
0.76699
0.76699
0.76699
0.76699
0.76699
0.76699
0.763948
0.76699
0.766913
0.766107
0.76699
0.76699
0.76699
0.76699
0.76699
0.76699
0.765407
0.76692
0.76699
0.76699
0.76699
0.76699
0.76699
0.76699
0.76699
0.76699
0.76699
0.76699
0.766748
0.75043
0.766988
0.762299
0.76698
0.76699
0.76699
0.76699
0.76699
0.76699
0.76699
0.760895
0.762635
0.766133
0.76578
0.76699
0.76699
0.764375
0.76699
0.766799
0.76699
0.76699
0.76699
0.76699
0.766801
0.76699
0.766954
0.766448
0.766882
0.76698
0.766989
0.76699
0.76699
0.76699
0.76699
0.76699
0.76699
0.76699
0.76699
0.76699
0.76699
0.76699
0.76699
0.752949
0.766811
0.763672
0.76699
0.76699
0.763462
0.76699
0.76699
0.764877
0.76699
0.76699
0.766016
0.757983
0.763221
0.764947
0.76699
0.766682
0.763265
0.765662
0.76699
0.763957
0.765959
0.766205
0.764174
0.76699
0.763614
0.766158
0.76699
0.765877
0.763476
0.765855
0.766559
0.766982
0.766617
0.76699
0.763303
0.764301
0.763729
0.76699
0.76699
0.765251
0.76699
0.76699
0.76699
0.76699
0.765064
0.766856
0.76699
0.76699
0.76699
0.76699
0.766963
0.765683
0.755737
0.76262
0.766369
0.76699
0.76699
0.766815
0.76699
0.76699
0.76699
0.76699
0.76699
0.76699
0.76699
0.76699
0.76699
0.76699
0.76699
0.766971
0.766949
0.766985
0.749941
0.76699
0.76699
0.766209
0.76699
0.76699
0.76699
0.76699
0.76699
0.76699
0.76361
0.76699
0.76699
0.766965
0.759195
0.76699
0.76699
0.765914
0.764113
0.76699
0.766804
0.76699
0.76699
0.76699
0.76478
0.76699
0.766293
0.76699
0.76699
0.76699
0.76699
0.766922
0.76699
0.766149
0.76699
0.766889
0.764491
0.76699
0.76699
0.754132
0.765717
0.758697
0.76477
0.76699
0.766979
0.765094
0.76699
0.76699
0.76699
0.76699
0.765676
0.76699
0.766188
0.766969
0.760723
0.765596
0.765364
0.763629
0.766267
0.76699
0.736426
0.75728
0.76699
0.752669
0.76699
0.766967
0.766634
0.76699
0.748697
0.76699
0.76699
0.76699
0.76699
0.766158
0.76699
0.76699
0.76699
0.76699
0.76699
0.76699
0.76699
0.76699
0.753773
0.766942
0.76699
0.766425
0.766989
0.76699
0.76699
0.764791
0.75922
0.766988
0.766979
0.764466
0.766945
0.763616
0.76699
0.76699
0.76067
0.76699
0.76699
0.76699
0.759176
0.76699
0.766947
0.766982
0.76699
0.766683
0.753988
0.76699
0.766462
0.766988
0.76699
0.76699
0.76699
0.76699
0.76699
0.76699
0.766264
0.764688
0.750738
0.76699
0.73057
0.76699
0.764787
0.76699
0.76697
0.76699
0.76488
0.76699
0.76699
0.76699
0.76699
0.76699
0.76699
0.76699
0.766585
0.76699
0.76322
0.766676
0.76699
0.76571
0.755688
0.736028
0.76166
0.76699
0.766866
0.766964
0.76699
0.76699
0.766703
0.765486
0.76699
0.76699
0.76699
0.76699
0.76699
0.766401
0.766567
0.766123
0.766612
0.76699
0.719697
0.76699
0.76699
0.76699
0.76699
0.76699
0.766348
0.76699
0.76699
0.764297
0.76699
0.76699
0.76699
0.76699
0.76699
0.76699
0.763483
0.76699
0.76699
0.766989
0.76699
0.758721
0.76699
0.76699
0.76699
0.76699
0.76699
0.76699
0.765702
0.751558
0.76699
0.76699
0.751638
0.76699
0.76699
0.76699
0.76699
0.766885
0.756648
0.744067
0.766234
0.766991
0.76699
0.763031
0.76699
0.761473
0.758305
0.76699
0.763672
0.76699
0.76699
0.751524
0.76699
0.76699
0.757794
0.762767
0.754471
0.756504
0.76699
0.762763
0.764924
0.761203
0.76699
0.76699
0.755748
0.754507
0.761501
0.765458
0.766888
0.76699
0.764866
0.766848
0.759772
0.765156
0.765473
0.757271
0.76699
0.76699
0.764061
0.755598
0.765808
0.766329
0.762442
0.766685
0.76029
0.76699
0.764523
0.76699
0.754524
0.76699
0.76689
0.766937
0.76699
0.75797
0.76699
0.758784
0.755208
0.76699
0.76699
0.761908
0.76699
0.76699
0.76699
0.76699
0.761104
0.76699
0.755061
0.745376
0.76699
0.76699
0.752459
0.76699
0.76699
0.764239
0.76699
0.76699
0.76699
0.76699
0.76595
0.766206
0.757574
0.76699
0.76699
0.759291
0.76699
0.766668
0.765342
0.76699
0.76699
0.76699
0.76699
0.762714
0.76699
0.76699
0.76699
0.76699
0.76699
0.7666
0.766619
0.76699
0.76699
0.766453
0.76699
0.76699
0.76699
0.765635
0.76699
0.765085
0.760157
0.76699
0.76699
0.76699
0.76699
0.755846
0.76699
0.764928
0.76699
0.76699
0.76699
0.76699
0.76699
0.76699
0.76699
0.760743
0.76699
0.76699
0.76699
0.76699
0.76699
0.763412
0.766102
0.76699
0.76699
0.762692
0.76699
0.766092
0.76699
0.76699
0.744345
0.753096
0.766181
0.76699
0.76699
0.766056
0.756353
0.76699
0.750939
0.76699
0.761834
0.7568
0.76699
0.766574
0.756571
0.76322
0.748778
0.761807
0.76699
0.76699
0.76699
0.766606
0.765782
0.76699
0.753742
0.76699
0.76699
0.76699
0.766875
0.756322
0.75962
0.76699
0.76699
0.766248
0.76699
0.754183
0.76699
0.76699
0.76699
0.754448
0.758644
0.761957
0.76699
0.76699
0.76699
0.756632
0.76699
0.753035
0.76699
0.76699
0.755249
0.76699
0.76699
0.76699
0.747236
0.76699
0.76699
0.765994
0.750938
0.76699
0.766934
0.76699
0.743949
0.761959
0.766185
0.76699
0.76699
0.764899
0.76699
0.765973
0.760045
0.766704
0.766687
0.758714
0.766581
0.745095
0.76699
0.697056
0.756421
0.76699
0.76699
0.766691
0.736998
0.76699
0.761095
0.744857
0.76699
0.7668
0.76699
0.751132
0.765208
0.76699
0.758528
0.758332
0.76699
0.76699
0.76699
0.76699
0.755478
0.76699
0.763624
0.766307
0.76699
0.76699
0.76699
0.76699
0.76699
0.76699
0.76699
0.76699
0.753769
0.76699
0.749211
0.76699
0.76699
0.76699
0.76699
0.766431
0.76699
0.76699
0.76699
0.76699
0.76699
0.766531
0.766657
0.765645
0.76699
0.76699
0.76699
0.76699
0.76699
0.76699
0.76699
0.76699
0.76699
0.76699
0.766659
0.76699
0.76699
0.76699
0.76699
0.76699
0.76699
0.765873
0.76699
0.76699
0.766649
0.76699
0.76692
0.76699
0.76699
0.76692
0.766989
0.76699
0.76699
0.76699
0.76699
0.76699
0.76699
0.76699
0.766988
0.76699
0.76699
0.76699
0.76699
0.766992
0.76699
0.765812
0.76699
0.76699
0.76699
0.76699
0.766989
0.76688
0.766986
0.76699
0.76699
0.76699
0.74974
0.761125
0.76699
0.766474
0.764693
0.76699
0.76699
0.76699
0.765901
0.762715
0.76699
0.76699
0.765693
0.76699
0.764595
0.76699
0.76699
0.76699
0.76699
0.76699
0.76699
0.76699
0.76699
0.76699
0.765978
0.76699
0.76699
0.76699
0.76699
0.76699
0.766595
0.76699
0.76699
0.765443
0.764982
0.76699
0.76699
0.76699
0.76699
0.766944
0.76699
0.76699
0.766779
0.76699
0.76699
0.76699
0.76699
0.76699
0.76699
0.76699
0.76699
0.761941
0.766989
0.761316
0.76699
0.766984
0.76699
0.76699
0.753424
0.76699
0.76699
0.766928
0.76699
0.755841
0.76699
0.76699
0.76699
0.765647
0.762491
0.765898
0.762475
0.76699
0.765635
0.764883
0.76699
0.765514
0.76699
0.765688
0.766041
0.76699
0.763495
0.765413
0.765029
0.76699
0.764968
0.765446
0.76699
0.76699
0.766262
0.76699
0.76699
0.76699
0.76699
0.765924
0.76699
0.76699
0.76699
0.76699
0.76699
0.76699
0.76699
0.766049
0.76699
0.76699
0.76699
0.76699
0.766885
0.76699
0.76699
0.76699
0.76699
0.76699
0.76699
0.76699
0.76699
0.76699
0.76699
0.76699
0.76699
0.76699
0.76699
0.76699
0.766989
0.765681
0.76699
0.76699
0.76699
0.76699
0.76699
0.76699
0.76699
0.76699
0.76699
0.76699
0.76699
0.76699
0.76699
0.76699
0.76699
0.766987
0.76699
0.76699
0.766988
0.76699
0.76699
0.76699
0.76699
0.765627
0.766436
0.76699
0.76699
0.76699
0.762762
0.7548
0.76699
0.76699
0.76699
0.76699
0.76699
0.76699
0.76699
0.76699
0.76699
0.757917
0.76699
0.76699
0.76699
0.743207
0.766461
0.766989
0.747155
0.76699
0.76699
0.76699
0.76699
0.76699
0.76699
0.76695
0.76699
0.76699
0.766092
0.746706
0.76699
0.76699
0.745085
0.76699
0.742888
0.76699
0.76699
0.76699
0.76699
0.752843
0.76699
0.751807
0.76699
0.76699
0.755106
0.76699
0.76699
0.76699
0.751864
0.76699
0.76699
0.755532
0.76699
0.766989
0.751572
0.766764
0.76699
0.76699
0.764848
0.766953
0.766689
0.7585
0.76699
0.76699
0.76699
0.76699
0.76699
0.766133
0.76699
0.76699
0.76699
0.766316
0.76699
0.76699
0.76699
0.76699
0.766967
0.76699
0.76616
0.763353
0.76699
0.766136
0.766299
0.764193
0.76699
0.76699
0.762767
0.76699
0.765943
0.76699
0.76699
0.76699
0.766254
0.76699
0.76699
0.76699
0.76699
0.76598
0.766066
0.766707
0.758831
0.766937
0.76699
0.76699
0.765839
0.76699
0.76699
0.76699
0.766978
0.76699
0.76675
0.76699
0.76699
0.763911
0.766576
0.76699
0.76673
0.766324
0.76699
0.766918
0.76699
0.76699
0.766654
0.76699
0.766545
0.76699
0.766989
0.766812
0.766381
0.76699
0.76699
0.766018
0.766673
0.76699
0.76699
0.766402
0.76699
0.76699
0.76699
0.762236
0.76699
0.76699
0.744781
0.76699
0.76699
0.766893
0.76699
0.744773
0.76699
0.766981
0.766889
0.76348
0.76699
0.76699
0.76699
0.74464
0.76699
0.76698
0.76699
0.746174
0.745459
0.76699
0.76699
0.766719
0.76615
0.766456
0.766325
0.764735
0.76699
0.76699
0.76699
0.76699
0.76699
0.76699
0.76699
0.76699
0.76699
0.76699
0.76699
0.74914
0.76699
0.76699
0.76699
0.76699
0.76699
0.76699
0.766173
0.76699
0.76699
0.76699
0.76699
0.76699
0.76699
0.76699
0.76699
0.76699
0.76699
0.751137
0.76699
0.76699
0.766976
0.753967
0.76699
0.76699
0.763452
0.76699
0.76699
0.765588
0.76699
0.76699
0.76699
0.76699
0.76699
0.76699
0.76699
0.76699
0.76699
0.76699
0.76699
0.766812
0.76699
0.76699
0.76699
0.76699
0.76699
0.76699
0.76699
0.756117
0.76699
0.76699
0.76699
0.76699
0.76699
0.76699
0.76699
0.748807
0.751867
0.76699
0.766279
0.76699
0.76699
0.76699
0.766979
0.76699
0.76699
0.766918
0.76699
0.76699
0.766256
0.76699
0.766041
0.755752
0.76699
0.76699
0.76699
0.75012
0.76699
0.76699
0.76699
0.76699
0.76699
0.76699
0.76699
0.766967
0.76699
0.76699
0.766957
0.766364
0.766217
0.76699
0.766214
0.766724
0.76699
0.765851
0.7336
0.76699
0.766931
0.766937
0.76699
0.76699
0.76699
0.76699
0.766
0.76699
0.76699
0.76699
0.76699
0.76699
0.766986
0.766953
0.765625
0.76699
0.76699
0.76699
0.766366
0.76699
0.76699
0.76699
0.76139
0.766697
0.76699
0.76699
0.76699
0.76699
0.765889
0.759987
0.76699
0.766899
0.766969
0.766908
0.76699
0.76699
0.744767
0.76699
0.76699
0.76699
0.76699
0.766919
0.76699
0.76699
0.76699
0.76699
0.76699
0.76699
0.76699
0.76291
0.762652
0.76699
0.766941
0.76699
0.76699
0.76699
0.757106
0.760683
0.747404
0.76699
0.76699
0.76699
0.76699
0.766988
0.76699
0.766783
0.76699
0.76699
0.76699
0.75621
0.750427
0.76699
0.76699
0.766788
0.766798
0.766937
0.766714
0.765009
0.765998
0.754785
0.764944
0.76699
0.76699
0.76699
0.76699
0.76699
0.76699
0.7667
0.755481
0.764673
0.765096
0.76542
0.76699
0.765512
0.765572
0.76699
0.76699
0.764999
0.766986
0.766827
0.766964
0.76699
0.766493
0.764572
0.76699
0.76699
0.749022
0.76699
0.76699
0.765515
0.752989
0.76699
0.76699
0.76699
0.76699
0.76699
0.76699
0.76699
0.766238
0.746713
0.76699
0.76699
0.76699
0.76449
0.766415
0.76699
0.76699
0.76699
0.765242
0.76699
0.76699
0.76699
0.76699
0.76699
0.76699
0.76699
0.755725
0.766989
0.76699
0.76699
0.76699
0.76699
0.76699
0.766989
0.76699
0.76699
0.76699
0.76699
0.76699
0.76699
0.76699
0.76699
0.76699
0.76699
0.76699
0.76699
0.76699
0.76699
0.758013
0.76699
0.76703
0.76699
0.76699
0.76699
0.76699
0.76699
0.76699
0.766693
0.766864
0.760383
0.767018
0.76699
0.766344
0.766972
0.766874
0.76691
0.766958
0.762756
0.76699
0.76699
0.76699
0.76699
0.76699
0.76699
0.76699
0.766929
0.76699
0.753295
0.76699
0.76699
0.76699
0.76699
0.76699
0.76699
0.766354
0.748944
0.766117
0.76699
0.76699
0.76699
0.766279
0.76699
0.76699
0.765951
0.76699
0.765862
0.76699
0.76699
0.76699
0.765872
0.766181
0.765923
0.765535
0.766308
0.766665
0.744772
0.761626
0.765695
0.76699
0.76699
0.76699
0.76699
0.766836
0.749511
0.766975
0.766153
0.75011
0.750367
0.76699
0.750227
0.766986
0.76699
0.76699
0.76699
0.76699
0.765996
0.76699
0.76699
0.76699
0.75692
0.76699
0.750959
0.765009
0.766812
0.750134
0.76699
0.766929
0.749264
0.76699
0.76699
0.76699
0.76699
0.76699
0.76699
0.750485
0.76699
0.76699
0.766856
0.76699
0.749216
0.766891
0.76699
0.76662
0.7654
0.765548
0.765948
0.765344
0.76699
0.765998
0.76699
0.76699
0.765796
0.766984
0.766006
0.765735
0.76699
0.76699
0.76699
0.766286
0.74664
0.76699
0.76699
0.76489
0.76699
0.743799
0.76699
0.76699
0.76699
0.76483
0.76699
0.765864
0.76699
0.76699
0.76699
0.765038
0.76513
0.76699
0.76699
0.766989
0.744833
0.751036
0.76699
0.758436
0.766318
0.76584
0.745783
0.76699
0.757694
0.76699
0.76699
0.76699
0.76699
0.76699
0.76699
0.76699
0.74532
0.76699
0.76699
0.76699
0.76699
0.76699
0.76699
0.76699
0.766979
0.766979
0.76699
0.76699
0.755586
0.76699
0.744211
0.76699
0.76699
0.75808
0.76699
0.76699
0.76699
0.744709
0.76699
0.76699
0.765701
0.76699
0.76699
0.76699
0.766008
0.76699
0.76699
0.76699
0.76699
0.76699
0.76699
0.76699
0.764421
0.76699
0.766984
0.76699
0.766213
0.76699
0.76699
0.76699
0.766988
0.76699
0.76699
0.76699
0.76699
0.76699
0.76699
0.76699
0.76699
0.76699
0.76699
0.750865
0.76699
0.76699
0.76699
0.76699
0.76699
0.766826
0.76699
0.76699
0.76699
0.76699
0.76699
0.76699
0.76699
0.76699
0.76699
0.76699
0.76699
0.766701
0.76699
0.76699
0.76699
0.76699
0.76699
0.76699
0.752759
0.76699
0.76699
0.76699
0.76699
0.766989
0.76699
0.766958
0.766237
0.76699
0.76699
0.76699
0.76699
0.76699
0.76699
0.754225
0.76699
0.76699
0.754197
0.76699
0.76699
0.76699
0.76699
0.76699
0.76699
0.766931
0.76699
0.76699
0.76699
0.753982
0.756004
0.754746
0.76699
0.766898
0.766266
0.76699
0.76699
0.76699
0.754015
0.76699
0.76699
0.76699
0.76699
0.766944
0.76699
0.76699
0.76699
0.76699
0.76699
0.766983
0.765032
0.76699
0.766989
0.765317
0.76699
0.766423
0.76699
0.76699
0.76699
0.76699
0.76699
0.766021
0.76699
0.766935
0.766774
0.766838
0.766799
0.764189
0.76699
0.76699
0.76699
0.76699
0.76699
0.76699
0.76699
0.76699
0.76699
0.766736
0.766986
0.766989
0.76656
0.76699
0.76352
0.76699
0.763412
0.76699
0.76699
0.76451
0.76699
0.76699
0.76699
0.762895
0.764398
0.763415
0.76699
0.763114
0.76699
0.76699
0.76699
0.76699
0.76699
0.755245
0.766989
0.76699
0.76699
0.766258
0.766982
0.76699
0.76699
0.76699
0.76699
0.75993
0.76699
0.766926
0.76699
0.766989
0.76699
0.76699
0.76699
0.76699
0.76699
0.76699
0.743416
0.76699
0.766982
0.76699
0.76699
0.760037
0.76699
0.76699
0.76699
0.76604
0.76699
0.766505
0.765888
0.761725
0.76699
0.754098
0.76584
0.76699
0.76699
0.763521
0.766983
0.76699
0.758594
0.766548
0.76699
0.76699
0.76699
0.756837
0.76699
0.76699
0.76699
0.76699
0.766709
0.76699
0.748109
0.76699
0.76699
0.76699
0.76699
0.76699
0.76699
0.76699
0.76699
0.76699
0.766923
0.766634
0.761705
0.764585
0.760712
0.763398
0.761083
0.76699
0.76699
0.76699
0.758897
0.766251
0.751197
0.766155
0.76699
0.765703
0.760725
0.753028
0.753347
0.76699
0.757777
0.755337
0.761876
0.76699
0.765995
0.760426
0.759177
0.755376
0.76234
0.763422
0.765424
0.76699
0.764669
0.76699
0.761777
0.76699
0.755016
0.765229
0.76699
0.76699
0.765081
0.762614
0.76699
0.766907
0.76699
0.76699
0.765664
0.76699
0.76699
0.76699
0.76699
0.766353
0.76699
0.723241
0.76685
0.76699
0.76699
0.765335
0.76699
0.743137
0.753987
0.764704
0.76699
0.76699
0.76699
0.758233
0.76699
0.76699
0.76699
0.76699
0.76699
0.765288
0.765864
0.76699
0.764505
0.752706
0.76699
0.76699
0.766396
0.76699
0.76699
0.751299
0.76699
0.76699
0.76699
0.763613
0.738443
0.759601
0.76699
0.76699
0.76699
0.759675
0.766637
0.762994
0.760913
0.76699
0.76699
0.76699
0.766954
0.76699
0.766426
0.759765
0.76699
0.753477
0.76699
0.76699
0.766107
0.76699
0.76699
0.76699
0.756059
0.759976
0.76699
0.76699
0.76699
0.766748
0.76699
0.76699
0.735702
0.76699
0.76699
0.76699
0.76699
0.76699
0.76699
0.76699
0.76699
0.76699
0.76699
0.76699
0.762922
0.76699
0.762326
0.645971
0.76689
0.762718
0.76699
0.765516
0.76699
0.76699
0.763869
0.761382
0.753901
0.762696
0.766748
0.766969
0.76699
0.76699
0.766909
0.76699
0.766717
0.76699
0.76699
0.758842
0.76699
0.76699
0.76699
0.766956
0.76699
0.76699
0.756878
0.76699
0.76699
0.76699
0.758477
0.752951
0.76699
0.766221
0.766823
0.766509
0.76605
0.766291
0.76699
0.76699
0.76699
0.76699
0.76699
0.76699
0.76699
0.76699
0.76699
0.76699
0.766621
0.761012
0.766989
0.76699
0.766665
0.76699
0.76699
0.76699
0.76699
0.766973
0.76699
0.76699
0.76699
0.766946
0.76699
0.761269
0.766726
0.76699
0.766831
0.76385
0.76699
0.766554
0.76699
0.76699
0.76699
0.766393
0.76699
0.76699
0.76699
0.76699
0.766944
0.76699
0.766694
0.765944
0.76345
0.766854
0.76699
0.76699
0.766989
0.766529
0.76699
0.76675
0.766984
0.76699
0.76699
0.766515
0.76699
0.76699
0.76699
0.76699
0.766105
0.76699
0.76699
0.76699
0.76699
0.756344
0.766988
0.76699
0.76699
0.76699
0.766848
0.76699
0.76699
0.76699
0.751736
0.76699
0.739785
0.766988
0.76699
0.756292
0.75616
0.76699
0.76699
0.76699
0.76699
0.76699
0.76699
0.766609
0.76699
0.76699
0.76699
0.755602
0.76699
0.76699
0.76699
0.76699
0.758484
0.760392
0.76699
0.755682
0.76699
0.76699
0.76699
0.76699
0.76699
0.756151
0.765607
0.76699
0.76699
0.76699
0.76699
0.76699
0.76699
0.76699
0.76699
0.766966
0.76699
0.766904
0.76699
0.76699
0.76699
0.766988
0.76699
0.76699
0.762565
0.76699
0.76699
0.76699
0.76699
0.756894
0.76699
0.766131
0.76699
0.766856
0.76699
0.76699
0.76699
0.76699
0.76699
0.76699
0.76699
0.766987
0.759753
0.76699
0.76699
0.76699
0.76699
0.76699
0.76699
0.76699
0.76699
0.76699
0.76699
0.76699
0.76699
0.76699
0.760937
0.762755
0.766989
0.76699
0.76699
0.76699
0.76475
0.76699
0.766667
0.76699
0.766971
0.76699
0.76699
0.76699
0.76699
0.76699
0.76699
0.765758
0.766983
0.76699
0.76699
0.76699
0.76699
0.76699
0.76699
0.76699
0.76699
0.76699
0.766989
0.766372
0.76699
0.76699
0.76699
0.765819
0.765893
0.76699
0.76699
0.76699
0.76699
0.76699
0.76699
0.765451
0.76699
0.76699
0.765947
0.76699
0.766987
0.766368
0.765886
0.766932
0.76699
0.721202
0.76699
0.76434
0.76699
0.766747
0.76699
0.766621
0.764109
0.76699
0.76699
0.76699
0.759113
0.759404
0.76699
0.766655
0.766471
0.75339
0.76699
0.76699
0.76699
0.76699
0.766968
0.76699
0.76699
0.76699
0.76699
0.76699
0.76699
0.761071
0.765455
0.76699
0.76699
0.76699
0.76699
0.76699
0.76699
0.765704
0.753
0.76632
0.76699
0.76699
0.766179
0.765697
0.76699
0.76699
0.760282
0.766665
0.75923
0.76699
0.766807
0.76699
0.76699
0.76699
0.76699
0.76699
0.76699
0.76699
0.76699