/*--------------------------------*- C++ -*----------------------------------*\
| =========                 |                                                 |
| \\      /  F ield         | OpenFOAM: The Open Source CFD Toolbox           |
|  \\    /   O peration     | Version:  v2012                                 |
|   \\  /    A nd           | Website:  www.openfoam.com                      |
|    \\/     M anipulation  |                                                 |
\*---------------------------------------------------------------------------*/
FoamFile
{
    version     2.0;
    format      ascii;
    class       volScalarField;
    location    "5";
    object      nut;
}
// * * * * * * * * * * * * * * * * * * * * * * * * * * * * * * * * * * * * * //

dimensions      [0 2 -1 0 0 0 0];


internalField   nonuniform List<scalar> 
108993
(
0.000135197
8.31169e-05
0.000167292
7.90973e-05
8.57115e-05
4.51767e-05
0.00272396
7.0179e-05
8.99086e-05
8.03494e-05
9.18745e-05
8.94805e-05
7.83469e-05
7.17796e-05
7.76681e-05
8.35137e-05
0.000168985
7.75998e-05
8.02114e-05
7.9792e-05
0.0001779
0.000104461
6.77682e-05
0.000108178
0.000108248
7.74752e-05
0.000165041
8.31878e-05
9.62643e-05
5.61692e-05
0.000114682
8.99014e-05
0.000314458
9.68644e-05
8.45468e-05
8.69188e-05
0.000108511
0.000137451
0.0016376
0.00408376
9.89464e-05
9.37521e-05
7.90071e-05
0.000411687
9.07379e-05
0.00680873
0.0002482
0.00137402
0.000147158
8.7208e-05
9.11101e-05
0.000164954
8.27625e-05
8.76107e-05
8.97582e-05
9.18803e-05
0.000162048
8.14764e-05
6.85574e-05
9.69901e-05
8.47936e-05
9.06581e-05
8.09567e-05
8.40733e-05
9.31818e-05
9.444e-05
0.000210563
9.16771e-05
9.84601e-05
0.00151932
7.95744e-05
8.1194e-05
8.51877e-05
8.66831e-05
9.42188e-05
9.51899e-05
0.000111756
0.000101389
0.000154484
0.000102068
7.70434e-05
7.42595e-05
7.41254e-05
0.000171373
9.3357e-05
7.70023e-05
9.34211e-05
7.61743e-05
8.13988e-05
0.000112282
8.46709e-05
7.25555e-05
0.000103627
0.000127692
0.000104776
8.52308e-05
7.18025e-05
5.89818e-05
7.12403e-05
0.000104934
9.17273e-05
0.000114376
9.81323e-05
9.31564e-05
6.38165e-05
0.000133161
9.24926e-05
7.51408e-05
0.000117292
0.00294059
0.000152025
8.21343e-05
0.000196189
0.000117701
8.58086e-05
0.0017941
7.42217e-05
6.89549e-05
0.000110151
8.44426e-05
8.07135e-05
8.63734e-05
0.00234414
5.73619e-05
0.000144045
7.90596e-05
8.75602e-05
7.42731e-05
8.60045e-05
9.90027e-05
7.53721e-05
0.000106069
9.4245e-05
0.0015572
9.11739e-05
6.78713e-05
8.62685e-05
7.20838e-05
7.90014e-05
7.80649e-05
6.80732e-05
9.99767e-05
0.000113925
9.32135e-05
9.98693e-05
0.00010173
6.79937e-05
0.00638433
7.98628e-05
0.0005913
0.000586443
6.65468e-05
7.24607e-05
0.000635201
8.33897e-05
8.15592e-05
9.85753e-05
0.000127641
0.000339059
0.000354273
0.000632912
0.00071967
9.74972e-05
0.000104992
7.91951e-05
0.000106061
8.11114e-05
8.97768e-05
9.58916e-05
9.50585e-05
9.11561e-05
8.72957e-05
0.000104952
9.38338e-05
0.00010094
7.77543e-05
0.000874426
7.3044e-05
8.82807e-05
0.000138732
7.31093e-05
6.97985e-05
0.000117782
2.55811e-05
9.74541e-05
8.83453e-05
0.000150427
8.47808e-05
8.39989e-05
3.06621e-05
8.33517e-05
0.000174088
7.67311e-05
0.000675883
8.8964e-05
8.19945e-05
9.62205e-05
8.22306e-05
8.78911e-05
2.96087e-05
9.02046e-05
0.000402068
0.000233283
0.000151339
0.0014735
0.00238386
8.45647e-05
0.00215894
8.18731e-05
0.00189159
0.000378637
0.000144355
0.00101224
0.00255967
0.0202018
5.77959e-05
7.38772e-05
8.34996e-05
0.000124747
0.000114088
8.84838e-05
0.000559513
0.000451322
0.000977262
9.02645e-05
6.42823e-05
0.00013388
9.24438e-05
0.00054051
6.81221e-05
0.00225517
8.42106e-05
7.58105e-05
0.000121025
7.90495e-05
8.97813e-05
9.31049e-05
7.8284e-05
0.00143414
0.000125456
9.06042e-05
8.7971e-05
5.32388e-05
0.000148012
0.000144426
5.51728e-05
0.00276915
0.0023133
0.000156716
9.53407e-05
0.000141115
0.000114726
8.05223e-05
9.70557e-05
0.000118885
0.000145234
0.000122653
8.08362e-05
0.000109959
5.24714e-05
8.29722e-05
0.00015708
9.45086e-05
0.000145419
0.000124319
8.38569e-05
9.11665e-05
9.98789e-05
5.18726e-05
8.05157e-05
5.91576e-05
0.000129812
0.00324269
0.0016178
0.00550027
7.78e-05
9.25294e-05
0.00229139
9.15668e-05
8.3194e-05
8.92478e-05
0.00956518
0.00830039
7.55572e-05
9.2222e-05
8.51685e-05
7.01757e-05
9.17569e-05
9.58858e-05
0.00247662
7.99652e-05
6.8668e-05
9.29436e-05
8.67201e-05
9.98437e-05
6.95577e-05
0.000106777
8.06184e-05
0.00110956
4.73159e-05
0.00427246
0.00154643
8.99562e-05
6.49078e-05
8.69302e-05
9.18208e-05
0.000105622
9.20181e-05
6.40605e-05
0.0036459
9.08591e-05
9.27811e-05
7.08593e-05
7.89157e-05
9.30863e-05
0.00116446
0.000115939
7.35514e-05
0.00437453
9.96789e-05
7.72984e-05
7.43283e-05
7.49398e-05
0.000209766
6.54726e-05
0.000535686
0.00209657
0.00291145
8.09636e-05
9.59011e-05
9.30235e-05
0.00274936
0.00187042
9.78197e-05
0.00276161
0.000152906
8.26895e-05
9.1776e-05
8.49175e-05
8.02739e-05
8.11145e-05
0.00188984
8.16542e-05
8.71311e-05
7.61252e-05
8.26146e-05
7.84701e-05
7.43005e-05
7.83341e-05
8.46503e-05
8.53785e-05
5.58796e-05
0.00548839
0.00346213
0.000106041
8.14579e-05
7.40165e-05
0.00325748
0.0001181
4.73338e-05
0.000104455
7.97757e-05
0.000135421
7.72077e-05
0.000109658
9.32673e-05
8.85611e-05
7.47389e-05
0.000113708
0.00316655
0.000126675
9.05303e-05
7.77038e-05
0.000950116
0.000104534
0.00296017
9.32055e-05
0.000112748
0.0021369
8.62357e-05
0.0023325
0.00194316
9.42228e-05
0.000219685
8.2702e-05
5.43032e-05
7.63145e-05
0.0112768
7.66436e-05
0.00208682
0.00292646
6.08422e-05
0.00222107
7.78703e-05
0.00313832
0.0001174
0.00105306
8.59968e-05
8.06207e-05
8.33132e-05
0.000113732
0.0024158
0.00355681
8.33834e-05
9.15712e-05
7.25152e-05
7.39325e-05
5.1101e-05
9.46749e-05
0.00207797
7.63888e-05
0.00010525
0.00236252
7.74391e-05
8.46668e-05
9.4095e-05
0.00151227
0.00199128
0.00191814
9.2653e-05
0.00200693
8.16126e-05
0.000810252
6.75186e-05
9.10215e-05
0.00122752
8.66892e-05
0.00176988
0.00179533
5.39746e-05
0.000926428
0.00372598
0.000973712
0.000110944
8.57923e-05
9.89968e-05
0.000184728
8.75241e-05
0.000103392
7.42786e-05
7.82272e-05
7.64899e-05
9.53258e-05
5.63471e-05
0.00138386
9.60106e-05
7.36619e-05
0.000105128
7.73211e-05
6.53689e-05
8.07713e-05
8.33063e-05
8.8671e-05
0.00011225
0.000104516
8.34535e-05
8.10667e-05
7.86325e-05
9.89058e-05
7.17798e-05
0.00211918
8.3429e-05
0.00213743
0.000512884
0.000111893
6.30592e-05
0.000123396
0.00237684
5.98716e-05
7.94905e-05
0.00183105
8.78194e-05
0.000117804
9.10477e-05
0.00013443
0.000251667
6.45439e-05
0.00212629
0.00184124
0.000119107
7.46683e-05
9.73224e-05
9.25077e-05
8.171e-05
0.00049007
8.90418e-05
7.23899e-05
0.000159826
0.000112077
0.000143425
8.24424e-05
8.9285e-05
0.000301539
0.000189482
9.34324e-05
5.46542e-05
0.000585392
8.8519e-05
6.23716e-05
8.20264e-05
0.000119408
8.30039e-05
6.54055e-05
8.19387e-05
0.00010631
0.00127967
7.57584e-05
7.0156e-05
0.00374978
8.02233e-05
9.26815e-05
8.0202e-05
8.94777e-05
9.44732e-05
7.9918e-05
0.0001447
7.09107e-05
8.24457e-05
0.000143283
0.00010063
0.000234991
0.000650023
8.715e-05
8.80409e-05
9.61337e-05
0.000225244
0.000103538
8.55554e-05
0.000258761
9.52669e-05
0.000136075
7.7097e-05
0.000152317
7.71359e-05
0.000187514
9.48233e-05
7.63855e-05
8.66261e-05
9.22913e-05
0.00322803
0.000156617
0.00544764
8.54063e-05
9.40265e-05
9.30731e-05
8.12352e-05
6.47776e-05
0.000183216
9.27851e-05
6.52473e-05
0.00459087
8.90495e-05
0.0105257
9.9056e-05
9.18061e-05
0.000178301
0.000104465
9.79294e-05
0.00201729
7.14103e-05
9.14491e-05
8.30539e-05
0.00016533
8.79746e-05
0.00198227
0.00403214
8.59856e-05
6.76729e-05
0.000111595
9.28963e-05
8.56795e-05
6.33094e-05
0.00277712
0.00124187
0.00182101
8.42246e-05
9.68247e-05
0.00230413
0.0020618
0.00166811
9.62438e-05
7.4555e-05
0.000104445
0.00011376
8.31973e-05
0.000109033
0.0110537
0.0011495
9.28418e-05
6.52376e-05
9.92883e-05
5.89196e-05
0.000128121
7.94777e-05
0.00172119
7.82251e-05
0.000101817
0.000133114
0.000582863
0.000108766
8.47966e-05
9.35581e-05
0.00338632
7.10335e-05
7.09678e-05
0.000136545
0.00179916
0.000198951
8.22899e-05
8.8891e-05
0.000679963
9.37849e-05
0.000177651
8.22035e-05
0.000102337
0.000107775
9.06833e-05
0.000233197
0.00217718
7.15191e-05
0.000374542
8.04703e-05
8.75603e-05
0.00424483
9.75389e-05
9.50239e-05
9.88418e-05
0.00185169
0.0140141
8.86469e-05
0.00197196
8.19985e-05
0.000684066
0.000737112
8.25108e-05
6.91768e-05
6.31458e-05
0.00217309
0.000124164
9.34433e-05
7.70142e-05
9.18167e-05
0.000125694
9.16836e-05
6.99278e-05
7.8524e-05
8.24541e-05
0.000124369
8.34432e-05
8.19247e-05
8.7248e-05
0.000106983
0.00392093
0.00414174
0.00320191
0.000265519
0.00118429
0.00361811
0.00242939
0.00433772
0.00326121
8.37553e-05
6.52237e-05
7.96837e-05
7.95451e-05
0.000492771
0.000116036
0.000119442
0.00403921
0.00252844
9.955e-05
0.000102891
0.000106597
0.00499935
0.00536253
0.000104889
0.00065841
0.00171763
8.36773e-05
0.00599505
0.000153821
0.00157896
9.81323e-05
8.88216e-05
0.00303799
0.0001164
0.00383462
0.00202574
0.00157745
0.001153
0.000123463
8.2082e-05
8.22445e-05
7.66677e-05
0.000172338
0.00614887
0.000931806
0.00195591
7.38724e-05
0.00216295
0.000531223
0.000174667
4.53905e-05
8.31377e-05
0.000105184
7.57809e-05
9.6157e-05
7.10574e-05
8.63696e-05
7.0019e-05
9.56824e-05
0.00309848
0.00308465
9.1177e-05
0.00132845
8.23993e-05
0.000355919
0.000103132
6.11e-05
0.000113676
0.000179401
8.77757e-05
0.000132494
7.84737e-05
7.35731e-05
8.59248e-05
0.000104986
9.99794e-05
0.0014862
8.6453e-05
8.82416e-05
8.57226e-05
0.000155695
7.65089e-05
8.95043e-05
6.54531e-05
0.00202626
7.13356e-05
8.51781e-05
0.000343308
9.23405e-05
6.48028e-05
0.00696103
0.00236109
9.68779e-05
9.80934e-05
0.000103585
0.000112232
9.0826e-05
0.000141402
8.95359e-05
6.04809e-05
7.24841e-05
0.000111662
6.51345e-05
7.82477e-05
6.59919e-05
0.00044502
0.000107844
0.000108447
0.000142848
8.27591e-05
0.000114277
8.20415e-05
0.00167589
0.000104482
0.000222425
0.00287918
0.000130971
8.73383e-05
7.75984e-05
0.00111933
8.56693e-05
0.00115032
0.00193808
0.000101457
8.47428e-05
0.00151979
0.00304483
7.61771e-05
0.000197019
0.00092005
9.65278e-05
8.38985e-05
8.44736e-05
0.000483737
8.92972e-05
6.63162e-05
8.79726e-05
0.00233775
8.22735e-05
0.0053237
0.000106367
7.97287e-05
0.0112266
0.000105507
0.00202575
9.37656e-05
0.00173436
9.01735e-05
7.64873e-05
7.34411e-05
0.000101098
0.000109016
7.86054e-05
9.03637e-05
8.69763e-05
7.88113e-05
6.89076e-05
7.30397e-05
0.000223904
8.61285e-05
8.46046e-05
0.00180508
6.64601e-05
0.00285783
0.000120025
8.16582e-05
0.00299538
7.08648e-05
0.000935295
0.000138268
8.09892e-05
8.88085e-05
0.00333685
0.000134824
0.000153469
0.00174615
0.00187889
0.000127918
0.00286546
0.00227621
0.000340947
0.000113378
9.43996e-05
0.000183701
0.000272559
0.00259122
0.0025315
0.000367373
7.87327e-05
9.81714e-05
0.00151883
0.00013721
8.48179e-05
0.00130638
8.26328e-05
9.03177e-05
0.00101722
8.78696e-05
0.00124473
9.76753e-05
0.00138643
9.71741e-05
8.86696e-05
4.76237e-05
0.000200869
9.88745e-05
0.00010654
4.85163e-05
5.69596e-05
0.000694573
8.40309e-05
0.00678803
7.73503e-05
9.25841e-05
9.01395e-05
0.000220193
9.26736e-05
0.000288255
7.23249e-05
7.60157e-05
0.000106492
0.010751
7.81241e-05
0.000179449
0.000109101
0.00182131
7.70121e-05
0.00294891
0.00281592
0.0072595
7.31007e-05
0.000437823
0.000169177
0.00151089
8.03404e-05
0.00165984
0.00420858
0.00241387
8.40727e-05
0.000113358
0.000382194
7.93029e-05
0.000320289
0.000104547
9.8236e-05
9.15873e-05
0.0016791
0.00010478
0.00131258
8.12455e-05
7.84127e-05
0.00144506
0.000117976
8.2868e-05
0.00203663
0.00203827
9.95604e-05
0.000772041
8.56453e-05
8.96465e-05
0.000112363
0.00015752
0.00237356
6.74086e-05
0.0023548
0.000127779
0.000100388
0.000264286
6.488e-05
9.29924e-05
7.54326e-05
8.80863e-05
0.000250371
9.68053e-05
6.51824e-05
0.000190566
8.29715e-05
0.000135667
0.000740872
9.07636e-05
8.19219e-05
9.84209e-05
0.000108927
7.16286e-05
7.66962e-05
0.00256601
8.83561e-05
0.00187538
0.000189031
9.69045e-05
0.000130222
0.000270457
0.000141493
7.16993e-05
0.000102303
0.000614683
9.93801e-05
0.00091286
8.34531e-05
8.77661e-05
0.00142818
0.00231022
7.64056e-05
0.00046085
0.00300509
7.76645e-05
0.000285103
8.78728e-05
8.34725e-05
0.000112857
0.00643785
0.000115963
0.00083075
0.000491196
9.33029e-05
9.41077e-05
9.15507e-05
7.78588e-05
0.000706742
0.00079409
6.97241e-05
8.23782e-05
0.000110986
0.000853797
7.98209e-05
8.58929e-05
0.000107763
0.00127409
7.5002e-05
7.22811e-05
7.44647e-05
6.67586e-05
7.55909e-05
8.42294e-05
8.91708e-05
0.00139746
9.33249e-05
0.000136814
0.000129972
9.73896e-05
0.00786401
9.08524e-05
7.27882e-05
0.000199211
0.000101726
6.54715e-05
0.00533068
0.000641081
0.000233122
6.88982e-05
7.80778e-05
0.000299552
0.000148541
0.000117435
8.3058e-05
7.28327e-05
0.00440539
7.65747e-05
0.000490145
0.000419458
0.00217353
4.29725e-05
8.51906e-05
8.49088e-05
7.33155e-05
0.000191858
8.57521e-05
6.28088e-05
6.06299e-05
7.5419e-05
8.03835e-05
0.00229975
9.03376e-05
9.67307e-05
0.000397316
7.78759e-05
0.000101933
0.000113616
9.56015e-05
9.18561e-05
8.77203e-05
9.02355e-05
9.90624e-05
0.000125976
8.68756e-05
0.000225814
9.35365e-05
0.00229611
6.77211e-05
9.55952e-05
9.11744e-05
0.000283915
0.000343538
0.000184415
0.0108917
0.000320731
0.000180393
7.57428e-05
0.00309705
8.92881e-05
0.000114582
8.7738e-05
0.00709837
8.56771e-05
0.0001075
7.26086e-05
6.75031e-05
0.000117817
0.00206704
0.000141506
8.12283e-05
0.000108263
0.0001052
0.000203436
0.000108563
0.000156198
0.00025169
0.000459911
0.000104085
0.00176458
0.00017097
0.00011569
9.91523e-05
6.15967e-05
5.15562e-05
7.84474e-05
6.54741e-05
7.56819e-05
6.35778e-05
0.00104375
6.96209e-05
0.00702279
0.000107302
9.04431e-05
0.000128062
0.000107597
0.000910252
6.78089e-05
8.86483e-05
9.19776e-05
8.94354e-05
6.25496e-05
0.000107067
0.00135742
0.000501346
0.000153591
0.001388
8.34592e-05
0.000120966
0.000106795
0.0006526
0.000201655
9.58879e-05
0.00399294
9.52278e-05
7.37403e-05
9.06839e-05
6.77226e-05
9.51584e-05
7.71644e-05
5.11509e-05
0.00101154
9.57799e-05
0.000112595
6.26999e-05
8.58876e-05
9.59841e-05
7.70162e-05
7.46918e-05
8.33291e-05
5.69601e-05
7.42596e-05
0.00129055
8.99472e-05
0.000924864
8.9045e-05
8.86882e-05
0.00680255
8.19576e-05
0.000118094
3.48179e-05
8.73311e-05
9.94148e-05
9.21851e-05
8.47901e-05
8.59199e-05
9.60127e-05
0.000211142
8.8336e-05
9.20633e-05
0.000317479
0.000204028
8.80638e-05
0.000102056
0.00174463
0.00180476
8.76607e-05
8.42271e-05
8.96861e-05
0.000100153
0.000116708
8.14283e-05
0.001799
9.35035e-05
8.81434e-05
9.60067e-05
9.30951e-05
6.01649e-05
7.6361e-05
0.000112675
0.00026981
0.00169042
7.76605e-05
7.69025e-05
7.93766e-05
0.00271053
0.000102709
8.10264e-05
5.57495e-05
6.91283e-05
0.000614208
9.06336e-05
0.000162295
5.99242e-05
5.92675e-05
7.36354e-05
0.00140291
0.000152283
8.36162e-05
0.00124974
0.00010089
0.00113313
0.000822394
7.30739e-05
9.0798e-05
0.000196191
7.87036e-05
9.04615e-05
0.000100343
0.000103045
0.000717304
0.00254878
0.00023003
7.76623e-05
8.51658e-05
0.000249409
7.48329e-05
9.05358e-05
5.60791e-05
7.24965e-05
7.93385e-05
0.00108031
0.00135619
0.00219078
8.89886e-05
7.58795e-05
8.30465e-05
0.00268482
0.000375158
8.185e-05
9.55123e-05
0.00136927
9.32639e-05
0.00184074
0.0005638
0.00184316
0.00213797
8.62662e-05
7.88908e-05
8.29452e-05
9.65184e-05
0.000689275
0.00281293
9.13404e-05
0.00030477
8.69359e-05
0.00471021
0.000106203
0.000172289
7.84789e-05
0.000413031
0.00137915
0.00350591
0.000105725
9.95247e-05
8.65742e-05
0.00255656
8.10583e-05
0.00011334
9.75006e-05
0.000104464
0.000101653
0.00291634
9.55406e-05
7.73506e-05
0.00220235
7.034e-05
9.5452e-05
9.21276e-05
9.0417e-05
0.00189653
8.81176e-05
7.9417e-05
6.65831e-05
0.001626
0.000783409
0.000157708
8.03206e-05
0.000301942
9.1776e-05
0.00274769
0.00386248
0.00363582
0.000455912
0.00443399
0.000122021
0.00291602
0.00325409
5.53326e-05
6.61603e-05
7.94166e-05
8.96198e-05
9.66465e-05
8.90813e-05
0.000100926
6.69298e-05
0.000106733
8.44446e-05
0.000104157
0.000177777
9.66406e-05
0.000101228
0.000757816
0.000235913
0.000528646
0.00127407
8.36407e-05
8.65492e-05
0.0015322
0.000910696
0.0020286
0.000341377
8.70618e-05
0.00013468
8.37952e-05
9.0205e-05
8.32361e-05
6.82568e-05
9.1115e-05
0.000392833
0.000130206
0.000211236
0.000524097
0.000196826
0.00228756
0.000163251
9.38991e-05
0.000137465
8.63151e-05
0.000345893
0.000109505
8.19013e-05
0.000161863
8.16768e-05
0.000105276
7.95464e-05
8.86305e-05
0.000119273
7.49913e-05
8.34932e-05
8.13294e-05
0.00155759
0.000126364
0.000958132
0.00210754
8.66202e-05
0.00348874
9.11484e-05
0.000148749
0.00029251
7.08996e-05
8.93224e-05
0.00429719
0.00201967
0.000385266
5.09669e-05
0.00182896
0.00270331
8.07546e-05
0.000102847
0.000101747
0.000119712
0.000111187
0.000105636
0.000736111
0.000103675
8.24952e-05
7.69885e-05
9.64133e-05
0.000293915
0.000494035
0.000595855
0.00597155
0.00539392
0.00011483
8.78449e-05
0.00141111
8.06802e-05
7.84905e-05
0.000360727
0.000429442
8.35123e-05
0.000139181
4.71743e-05
0.000104835
9.59852e-05
0.0031136
7.93476e-05
7.93713e-05
0.00241048
0.000393298
7.49111e-05
0.000106235
0.00105935
0.000125864
9.30728e-05
0.000192605
8.68211e-05
7.22138e-05
7.13002e-05
0.000112103
8.67541e-05
0.000422078
0.00291467
0.000316358
0.000244026
0.00289424
9.41606e-05
8.46624e-05
0.00206983
6.58901e-05
8.73776e-05
0.000182201
0.000111772
0.00531221
9.39897e-05
8.55717e-05
0.000799306
7.32481e-05
0.00594029
0.000186841
0.00453633
7.32898e-05
5.58828e-05
0.00432775
0.000552322
0.000142406
0.00784063
8.90464e-05
8.67245e-05
0.000306962
5.2952e-05
0.000174256
9.54621e-05
0.00585428
9.57544e-05
7.5083e-05
0.00293802
0.000109759
0.00102096
0.00393604
0.00226122
0.000281053
0.00601697
7.16011e-05
0.0095511
9.75885e-05
7.21093e-05
0.000192526
0.000121831
0.000135891
0.000105383
8.41233e-05
7.01622e-05
0.00286552
0.00181838
0.00228479
0.00213189
8.39591e-05
7.51121e-05
8.12925e-05
7.97503e-05
7.47497e-05
9.44575e-05
0.0027404
0.000664661
9.49181e-05
0.000152375
0.00010375
0.000121551
0.000246703
7.46091e-05
8.64005e-05
7.79377e-05
8.11696e-05
0.000154878
0.000871444
0.00912037
0.000311475
0.00234562
0.000500215
8.66584e-05
0.000149283
0.00218512
7.22641e-05
7.54321e-05
7.37225e-05
0.00140806
0.00310931
0.00288989
0.00237311
7.91145e-05
9.15441e-05
0.00684941
0.000114707
0.000738295
9.37257e-05
6.6998e-05
8.10596e-05
7.97621e-05
0.000879657
8.30107e-05
0.000731135
0.00122624
0.00114019
0.000602112
0.00121189
0.000112526
8.74616e-05
0.000259264
9.28254e-05
8.80284e-05
9.47515e-05
9.52699e-05
8.26222e-05
8.36568e-05
0.000105425
9.90053e-05
9.02568e-05
0.00811007
0.00198788
0.0031201
9.39519e-05
9.52595e-05
0.0037806
0.00125531
8.98412e-05
0.00462479
7.63963e-05
9.59999e-05
0.00301515
0.0023212
0.00370169
0.00172554
7.03085e-05
0.0010254
0.00387433
0.00124686
8.21153e-05
0.00169255
0.00328151
0.00227568
0.00222846
6.65749e-05
0.00343881
0.00262581
0.000399112
0.00398679
0.00291084
0.00344344
0.00242895
0.000296412
0.00144963
9.53123e-05
0.00220587
0.00276147
0.00303004
0.000105141
8.96037e-05
0.00301179
6.35933e-05
9.03177e-05
0.00154115
0.00012507
0.00269411
0.00219939
0.000150365
8.57602e-05
0.000124562
6.50536e-05
0.00194447
0.00272458
0.00347641
0.00241575
0.00216055
7.91303e-05
0.000441875
0.00121041
8.50677e-05
5.836e-05
8.09271e-05
0.000322117
0.000160865
0.00010366
9.8311e-05
0.000161793
0.000205982
7.60379e-05
9.72309e-05
0.00272341
0.00100798
0.000153726
0.0120998
8.61923e-05
6.36868e-05
0.00192178
6.81823e-05
7.73328e-05
7.35624e-05
0.000163092
9.90237e-05
8.5188e-05
0.0027855
0.00104327
0.000818772
0.00148491
0.00315444
0.000177612
8.13138e-05
0.0018724
0.00203033
8.68529e-05
0.000748388
0.000112751
0.000320433
0.000173858
0.00199163
8.91611e-05
0.00162621
5.82348e-05
0.000114022
8.34154e-05
7.89085e-05
0.00128449
9.10394e-05
0.00197873
7.61926e-05
0.000555838
0.00211672
8.72261e-05
0.000500143
0.00514765
0.00243539
0.00244234
0.00224196
4.61559e-05
0.00156646
0.00370274
8.84983e-05
0.00010159
0.00064717
6.76102e-05
0.00227688
0.000180774
0.00184209
0.000577244
0.00241391
0.00173332
0.00160875
0.00345387
0.00105017
0.000163246
0.0160614
0.00533845
0.000125711
0.00609811
8.75356e-05
0.000815514
0.00105156
8.17335e-05
0.00920922
8.71174e-05
9.40639e-05
0.000129796
8.37136e-05
0.00230608
7.40605e-05
9.24014e-05
8.34828e-05
7.11872e-05
0.000124588
6.57904e-05
7.71724e-05
0.000116042
0.0119557
0.000815608
0.000161202
0.00148958
0.000683498
8.7045e-05
0.000196753
0.00197191
0.00477518
0.000677224
0.000696079
0.00259106
0.000504669
0.00548035
0.000472597
0.000224416
0.00282219
9.20112e-05
8.54085e-05
6.99642e-05
0.00204331
0.000124086
0.000563557
0.00103329
0.000884907
0.00155488
0.00469572
9.03202e-05
0.00129574
0.000261887
6.1983e-05
0.000123155
0.000328477
0.000179605
0.000317539
0.000174486
0.00275307
0.00275803
0.0101177
8.50219e-05
0.016925
7.29577e-05
0.00298822
0.000118416
0.000631508
0.00110005
0.000149674
7.46001e-05
0.000523
8.33042e-05
0.000138445
0.000103701
0.000109914
0.000233507
0.00106017
8.00336e-05
0.00817419
0.00143677
0.000162249
0.00227207
0.00334533
0.0186248
0.0057491
0.000100326
0.000770689
0.00123715
0.000175357
6.53931e-05
0.00119091
0.00231976
6.82776e-05
7.82362e-05
6.60088e-05
9.80265e-05
7.50967e-05
0.00103417
0.00117173
0.00141739
0.00132646
0.00018101
0.0146894
0.00106007
9.55982e-05
0.000194941
5.34338e-05
0.000115311
0.00155509
0.00117019
0.000380706
0.00113313
9.23973e-05
0.000119349
7.14321e-05
0.000103523
0.000168653
9.06968e-05
0.00245128
0.000103249
8.68215e-05
0.00135515
0.000923076
0.00303073
7.73972e-05
0.000102647
7.9422e-05
0.000158771
0.00024631
9.14223e-05
0.00330157
0.00435931
8.97993e-05
7.78017e-05
0.00865194
0.000164332
9.99438e-05
0.000138976
0.000196986
0.00118093
0.00258762
0.0135047
0.00278862
0.00207092
0.000103774
0.00235057
0.000259105
0.00306766
0.00281074
8.62002e-05
0.00300213
8.11301e-05
8.81583e-05
0.00457335
0.000114841
7.79891e-05
0.00295875
0.00304406
0.00557096
0.00375622
8.20315e-05
0.00285693
0.00457257
0.00424726
9.17553e-05
0.000125557
0.00531612
0.00615234
0.00349662
0.00110291
0.000863301
9.55065e-05
0.00247522
0.00379586
0.00276765
0.00220156
0.00244138
0.00309199
8.64923e-05
0.000102408
0.00233126
0.00371133
0.00141654
0.0024021
0.00237669
0.00164169
0.00694162
0.000100176
0.00281363
8.33991e-05
0.00375548
0.000188552
0.00181237
0.00174559
9.25134e-05
0.00565766
8.45399e-05
0.00211384
0.00334743
7.94841e-05
8.74503e-05
0.00306866
8.34038e-05
8.61558e-05
8.74719e-05
4.40924e-05
0.0035998
8.42217e-05
0.00344919
0.00902962
0.000102979
6.81657e-05
0.00690995
0.000102698
5.23565e-05
0.00392496
5.05025e-05
6.78038e-05
9.40893e-05
9.10726e-05
0.00276714
0.00194713
0.00460402
0.000103691
8.65808e-05
0.00585383
9.34017e-05
0.00188607
0.00189521
0.000109638
5.25684e-05
0.000302789
0.00039972
0.00362524
6.36643e-05
7.5166e-05
5.8461e-05
0.000838115
9.41832e-05
0.0026976
0.0023375
0.000281737
7.5549e-05
0.00141898
8.89971e-05
9.50973e-05
6.00448e-05
0.00215372
7.32415e-05
0.00190788
0.00565812
8.03238e-05
0.000138757
0.000272488
0.000103313
0.00302217
6.26856e-05
0.00198174
0.000144447
9.96491e-05
8.33934e-05
0.000354493
7.73962e-05
0.000101536
7.874e-05
0.00335286
7.74277e-05
6.0102e-05
7.4519e-05
8.39166e-05
0.000100154
0.00189898
0.00317821
6.9112e-05
7.29826e-05
0.0018367
6.01834e-05
0.00288354
0.000121225
5.86796e-05
0.0149133
0.0101239
0.00326914
9.29578e-05
8.9551e-05
0.00197054
0.00828737
7.63439e-05
0.00829001
6.94073e-05
0.00343939
0.00189931
0.000135573
0.000989755
0.00355701
0.00601361
0.0109942
0.00217047
7.8146e-05
8.56557e-05
6.47434e-05
0.0016845
0.00217816
9.60828e-05
0.0051499
0.000177612
0.000145955
7.65136e-05
0.00112427
0.00731167
0.00537361
8.78505e-05
0.000150524
0.00190537
8.02733e-05
0.00300567
9.69272e-05
0.00011715
7.73407e-05
0.00480536
0.00230969
0.00259583
8.15832e-05
9.43349e-05
0.00010109
0.00892013
9.91503e-05
0.0058632
7.54679e-05
7.7052e-05
0.00528616
0.00222956
0.000115186
8.57207e-05
0.0136474
7.81906e-05
8.94685e-05
0.00333946
0.0102186
0.000226004
0.00134785
0.000168212
0.0122144
0.00761448
0.00206223
0.000770083
7.40372e-05
0.00191593
0.000226885
0.00184165
0.0104561
0.000999132
0.00110746
0.00297841
0.00118271
0.00666574
0.00010178
0.0052132
0.00389581
0.00206941
0.00018592
0.000516624
0.011348
6.62139e-05
0.00258855
0.00675886
8.32505e-05
0.000990275
6.09438e-05
0.00956508
0.00255963
0.00130696
0.00201063
0.00253323
0.000155018
6.47421e-05
9.2219e-05
0.000240932
0.00760795
7.74301e-05
0.00209285
0.00220711
7.13079e-05
8.94088e-05
9.32857e-05
7.9871e-05
0.000107103
9.64682e-05
0.000700389
8.2409e-05
0.00511547
8.01544e-05
0.00784819
6.75937e-05
0.000658705
7.64984e-05
7.94339e-05
0.00197555
6.75902e-05
6.68414e-05
0.000100678
7.57965e-05
0.000180749
0.00169285
0.00155416
0.003107
0.000478787
8.34497e-05
8.08467e-05
7.88845e-05
7.14349e-05
0.000180502
8.03842e-05
9.54406e-05
0.000345187
0.000115646
0.0014933
7.12822e-05
8.26503e-05
8.11383e-05
8.87894e-05
0.000116629
0.00013629
0.00313495
8.8015e-05
0.000119272
0.00133913
8.1345e-05
0.000590423
0.000143687
0.000581105
0.000699565
0.000457462
0.000103709
0.000182636
9.38689e-05
9.09197e-05
8.84083e-05
7.63471e-05
9.06592e-05
0.000347993
0.000104428
9.45088e-05
8.49569e-05
7.8158e-05
0.000786865
9.65464e-05
0.00166943
9.03568e-05
0.000268974
8.66844e-05
9.15144e-05
0.00040836
0.000534949
0.000263863
0.000106535
7.31481e-05
7.17332e-05
0.00262792
0.00076597
8.70913e-05
0.00163133
0.00121659
6.9754e-05
0.000167319
0.000220932
0.00290665
0.00119518
7.82203e-05
9.75393e-05
0.00365924
9.0536e-05
0.00128924
7.87717e-05
0.000121983
8.86727e-05
6.91153e-05
0.000112244
0.000116203
0.00011391
9.00755e-05
4.7017e-05
0.00226816
6.51856e-05
0.000117436
0.000181798
5.27694e-05
9.61316e-05
0.00153471
0.000101934
0.00070717
0.00380838
0.00374424
8.97163e-05
5.13611e-05
9.25929e-05
7.72966e-05
0.000632312
8.74903e-05
9.38867e-05
0.00102209
0.000112624
8.03984e-05
9.11957e-05
9.06734e-05
7.66251e-05
7.81766e-05
0.000100149
0.000127768
0.00251232
0.000316775
0.00267412
9.00662e-05
0.000249588
5.64083e-05
8.71347e-05
0.00298507
5.80284e-05
7.6258e-05
0.00294161
5.44372e-05
0.00291668
7.25233e-05
5.60372e-05
0.000209094
0.00326821
0.00187821
0.00273411
0.00195544
8.33723e-05
0.00333105
0.00293514
8.3775e-05
0.00241939
9.04933e-05
0.00334679
0.0024177
9.5178e-05
0.00225835
0.00328433
0.00164511
9.21498e-05
0.00173568
0.00300714
0.000178975
8.44968e-05
0.00165638
9.01111e-05
8.40821e-05
8.26186e-05
9.22788e-05
0.0028413
0.000154353
0.000142504
7.56338e-05
9.48717e-05
0.000101247
0.000204687
8.98203e-05
0.00425718
8.94106e-05
0.000274927
0.000113993
0.000105896
0.000986922
8.28344e-05
8.50288e-05
8.65111e-05
8.4858e-05
9.05426e-05
8.49884e-05
0.000122982
8.90732e-05
0.00022175
0.000115627
0.000146904
7.27552e-05
8.93343e-05
0.00109764
7.54884e-05
0.00013612
0.00169901
5.61592e-05
8.47526e-05
0.00010806
7.25049e-05
8.30393e-05
9.1138e-05
6.06149e-05
7.48247e-05
0.000167585
0.000374688
0.000128265
0.000103578
0.000108934
0.000106957
0.000110418
0.000500083
9.99685e-05
7.33601e-05
0.000298016
0.000136316
8.04654e-05
0.000449569
9.29152e-05
0.00298836
0.00134664
7.74923e-05
0.000163406
0.000191084
0.00342265
0.0026134
0.000101221
8.54099e-05
7.45321e-05
8.66928e-05
0.000113335
0.000105159
7.98681e-05
8.03226e-05
8.35123e-05
0.00327802
6.26233e-05
8.55764e-05
8.1118e-05
0.00843794
0.00183194
0.000149289
0.00916339
0.000303367
7.62462e-05
0.000219514
7.97896e-05
0.000207452
7.86971e-05
0.00107776
7.29149e-05
8.73007e-05
0.00355913
0.0101546
9.87305e-05
8.19634e-05
0.0120009
0.000103659
0.0078825
9.96519e-05
7.50189e-05
9.899e-05
8.243e-05
0.00266267
9.37232e-05
0.00281625
8.77697e-05
7.55371e-05
0.00274394
8.67035e-05
8.26113e-05
0.00016334
0.00339412
8.99994e-05
0.000104855
0.00258754
6.99342e-05
0.000602525
0.00342938
0.00242016
4.70395e-05
0.000101986
0.00235437
0.00082759
0.00162789
0.00364365
0.000112934
9.35146e-05
0.000129937
0.000229688
0.000261103
0.0017073
9.4457e-05
0.00011144
9.04923e-05
0.00167963
9.09137e-05
7.75628e-05
8.47758e-05
0.00010373
0.000524008
0.00040332
0.00196512
0.00206655
0.000101752
0.00193551
0.0016834
0.00203426
7.50725e-05
0.000124729
0.00609629
0.000132737
0.00175165
0.000252613
0.000142822
7.95031e-05
0.00198633
4.48633e-05
9.47072e-05
8.26124e-05
0.000149217
0.00230426
0.00151986
0.00204434
0.00330575
0.000441094
8.42374e-05
8.37542e-05
0.00170505
9.35026e-05
8.43075e-05
7.40618e-05
0.00048539
7.57442e-05
0.00157367
0.000116308
0.00123143
0.00185855
0.0028612
9.78618e-05
0.00272728
0.00205215
9.06336e-05
0.00114769
0.00194482
0.000235188
0.00178562
8.43682e-05
0.00170067
0.000167536
0.000241888
0.00281227
0.00209832
0.000102543
0.000106115
0.00234316
0.00139977
7.41683e-05
8.15126e-05
0.00185222
7.52563e-05
8.34847e-05
0.000298627
0.0028724
9.03531e-05
7.67438e-05
0.00587111
9.03013e-05
0.000225606
0.000812196
9.98342e-05
0.00576224
7.77992e-05
0.000564101
0.0027139
0.00449971
8.18236e-05
7.53948e-05
7.39636e-05
0.00578315
0.000144332
0.000597104
0.000153028
0.00534797
0.00456723
9.81466e-05
0.000204899
0.000904064
0.00247031
0.00230202
0.00128213
0.00499092
8.20902e-05
9.87324e-05
8.51253e-05
0.000107174
0.000115408
6.98852e-05
0.000262191
9.00482e-05
8.15163e-05
0.000199935
8.97485e-05
0.00895033
0.000105633
7.01194e-05
8.27631e-05
0.000113474
8.06814e-05
7.88069e-05
0.00276611
0.000316159
8.79635e-05
0.000250231
6.42797e-05
0.000102403
8.83627e-05
0.000111342
6.81671e-05
0.000103386
0.000120441
0.0133273
5.26898e-05
0.00112788
0.000522417
0.00800441
5.35365e-05
0.00057844
0.00363249
5.87874e-05
8.68713e-05
0.00275478
7.23223e-05
0.000108339
5.45001e-05
7.53222e-05
8.7334e-05
8.80232e-05
6.14317e-05
8.93023e-05
0.000175757
7.80299e-05
8.32585e-05
0.00113891
5.11782e-05
8.39355e-05
5.13513e-05
0.000106259
0.000132007
0.000112445
8.61033e-05
0.00552008
9.07579e-05
8.07226e-05
6.36809e-05
0.000137815
6.79074e-05
8.85568e-05
6.98483e-05
0.00705696
0.0147468
9.88292e-05
0.00165212
0.000132274
8.5822e-05
7.11666e-05
0.000830592
0.00015207
8.53512e-05
0.000727953
8.26453e-05
7.36353e-05
0.00281323
5.98048e-05
0.00334618
0.00141484
0.000105399
0.000180097
6.32197e-05
0.00675157
7.74569e-05
0.000206993
7.92687e-05
7.79928e-05
9.05289e-05
7.31076e-05