/*--------------------------------*- C++ -*----------------------------------*\
| =========                 |                                                 |
| \\      /  F ield         | OpenFOAM: The Open Source CFD Toolbox           |
|  \\    /   O peration     | Version:  v2012                                 |
|   \\  /    A nd           | Website:  www.openfoam.com                      |
|    \\/     M anipulation  |                                                 |
\*---------------------------------------------------------------------------*/
FoamFile
{
    version     2.0;
    format      ascii;
    class       volScalarField;
    location    "5";
    object      O2;
}
// * * * * * * * * * * * * * * * * * * * * * * * * * * * * * * * * * * * * * //

dimensions      [0 0 0 0 0 0 0];


internalField   nonuniform List<scalar> 
108993
(
0.23301
0.23301
0.23301
0.23301
0.23301
0.23301
0.229434
0.23301
0.23301
0.23301
0.23301
0.23301
0.23301
0.23301
0.23301
0.23301
0.23301
0.23301
0.23301
0.23301
0.23301
0.23301
0.23301
0.23301
0.23301
0.23301
0.23301
0.23301
0.23301
0.23301
0.23301
0.23301
0.23301
0.23301
0.23301
0.23301
0.23301
0.23301
0.229674
0.199916
0.23301
0.23301
0.23301
0.23301
0.23301
0.155409
0.23301
0.232734
0.23301
0.23301
0.23301
0.23301
0.23301
0.23301
0.23301
0.23301
0.23301
0.23301
0.23301
0.23301
0.23301
0.23301
0.23301
0.23301
0.23301
0.23301
0.23301
0.23301
0.23301
0.229826
0.23301
0.23301
0.23301
0.23301
0.23301
0.23301
0.23301
0.23301
0.23301
0.23301
0.23301
0.23301
0.23301
0.23301
0.23301
0.23301
0.23301
0.23301
0.23301
0.23301
0.23301
0.23301
0.23301
0.23301
0.23301
0.23301
0.23301
0.23301
0.23301
0.23301
0.23301
0.23301
0.23301
0.23301
0.23301
0.23301
0.23301
0.23301
0.23301
0.214139
0.23301
0.23301
0.23301
0.23301
0.23301
0.231433
0.23301
0.23301
0.23301
0.23301
0.23301
0.23301
0.21866
0.23301
0.23301
0.23301
0.23301
0.23301
0.23301
0.23301
0.23301
0.23301
0.23301
0.23301
0.23301
0.23301
0.23301
0.23301
0.23301
0.23301
0.23301
0.23301
0.23301
0.23301
0.23301
0.23301
0.23301
0.180684
0.23301
0.233004
0.233
0.23301
0.23301
0.232999
0.23301
0.23301
0.23301
0.23301
0.23301
0.233016
0.233003
0.23301
0.23301
0.23301
0.23301
0.23301
0.23301
0.23301
0.23301
0.23301
0.23301
0.23301
0.23301
0.23301
0.23301
0.23301
0.233012
0.23301
0.23301
0.23301
0.23301
0.23301
0.23301
0.23301
0.23301
0.23301
0.23301
0.23301
0.23301
0.23301
0.23301
0.23301
0.23301
0.233024
0.23301
0.23301
0.23301
0.23301
0.23301
0.23301
0.23301
0.23301
0.23301
0.23301
0.231978
0.233001
0.23301
0.199788
0.23301
0.23393
0.232989
0.23301
0.233002
0.210599
0.119001
0.23301
0.23301
0.23301
0.23301
0.23301
0.23301
0.232961
0.23301
0.233011
0.23301
0.23301
0.23301
0.23301
0.233029
0.23301
0.191241
0.23301
0.23301
0.23301
0.23301
0.23301
0.23301
0.23301
0.230835
0.23301
0.23301
0.23301
0.23301
0.23301
0.23301
0.23301
0.208341
0.219982
0.23301
0.23301
0.23301
0.23301
0.23301
0.23301
0.23301
0.23301
0.23301
0.23301
0.23301
0.23301
0.23301
0.23301
0.23301
0.23301
0.23301
0.23301
0.23301
0.23301
0.23301
0.23301
0.23301
0.23301
0.202469
0.23311
0.181948
0.23301
0.23301
0.223993
0.23301
0.23301
0.23301
0.134064
0.14061
0.23301
0.23301
0.23301
0.23301
0.23301
0.23301
0.189496
0.23301
0.23301
0.23301
0.23301
0.23301
0.23301
0.23301
0.23301
0.232961
0.23301
0.229536
0.232682
0.23301
0.23301
0.23301
0.23301
0.23301
0.23301
0.23301
0.208301
0.23301
0.23301
0.23301
0.23301
0.23301
0.231925
0.23301
0.23301
0.213845
0.23301
0.23301
0.23301
0.23301
0.23301
0.23301
0.232847
0.23299
0.225733
0.23301
0.23301
0.23301
0.22711
0.233344
0.23301
0.214027
0.23301
0.23301
0.23301
0.23301
0.23301
0.23301
0.23301
0.23301
0.23301
0.23301
0.23301
0.23301
0.23301
0.23301
0.23301
0.23301
0.23301
0.128859
0.20441
0.23301
0.23301
0.23301
0.170159
0.23301
0.23301
0.23301
0.23301
0.23301
0.23301
0.23301
0.23301
0.23301
0.23301
0.23301
0.236966
0.23301
0.23301
0.23301
0.232582
0.23301
0.232934
0.23301
0.23301
0.232982
0.23301
0.233021
0.232974
0.23301
0.23301
0.23301
0.23301
0.23301
0.197133
0.23301
0.213072
0.232992
0.23301
0.233002
0.23301
0.206042
0.23301
0.233232
0.23301
0.23301
0.23301
0.23301
0.215201
0.219211
0.23301
0.23301
0.23301
0.23301
0.23301
0.23301
0.232279
0.23301
0.23301
0.231897
0.23301
0.23301
0.23301
0.22905
0.22723
0.200752
0.23301
0.230786
0.23301
0.233025
0.23301
0.23301
0.233011
0.23301
0.223678
0.233011
0.23301
0.233481
0.215671
0.233069
0.23301
0.23301
0.23301
0.23301
0.23301
0.23301
0.23301
0.23301
0.23301
0.23301
0.23301
0.232251
0.23301
0.23301
0.23301
0.23301
0.23301
0.23301
0.23301
0.23301
0.23301
0.23301
0.23301
0.23301
0.23301
0.23301
0.23301
0.23313
0.23301
0.222623
0.232994
0.23301
0.23301
0.23301
0.218905
0.23301
0.23301
0.232302
0.23301
0.23301
0.23301
0.23301
0.23301
0.23301
0.231689
0.203324
0.23301
0.23301
0.23301
0.23301
0.23301
0.23301
0.23301
0.23301
0.23301
0.23301
0.23301
0.23301
0.23301
0.23301
0.23301
0.23301
0.23301
0.23301
0.23301
0.23301
0.23301
0.23301
0.23301
0.23301
0.23301
0.23301
0.23301
0.23301
0.23301
0.219176
0.23301
0.23301
0.23301
0.23301
0.23301
0.23301
0.23301
0.23301
0.23301
0.23301
0.23301
0.23301
0.23301
0.23301
0.23301
0.23301
0.23301
0.23301
0.23301
0.233011
0.23301
0.23301
0.23301
0.23301
0.23301
0.23301
0.23301
0.23301
0.23301
0.23301
0.204328
0.23301
0.184275
0.23301
0.23301
0.23301
0.23301
0.23301
0.23301
0.23301
0.23301
0.226522
0.23301
0.123409
0.23301
0.23301
0.23301
0.23301
0.23301
0.239807
0.23301
0.23301
0.23301
0.23301
0.23301
0.229078
0.227681
0.23301
0.23301
0.23301
0.23301
0.23301
0.23301
0.0798251
0.23102
0.224455
0.23301
0.23301
0.228379
0.233012
0.232411
0.23301
0.23301
0.23301
0.23301
0.23301
0.23301
0.147502
0.230957
0.23301
0.23301
0.23301
0.23301
0.23301
0.23301
0.233155
0.23301
0.23301
0.23301
0.232952
0.23301
0.23301
0.23301
0.239552
0.23301
0.23301
0.23301
0.236432
0.23301
0.23301
0.23301
0.232958
0.23301
0.23301
0.23301
0.23301
0.23301
0.23301
0.23301
0.218747
0.23301
0.23301
0.23301
0.23301
0.186081
0.23301
0.23301
0.23301
0.232565
0.129646
0.23301
0.221259
0.23301
0.233008
0.23301
0.23301
0.23301
0.23301
0.227422
0.23301
0.23301
0.23301
0.23301
0.23301
0.23301
0.23301
0.23301
0.23301
0.23301
0.23301
0.23301
0.23301
0.23301
0.194392
0.150945
0.229401
0.23301
0.232817
0.151465
0.231173
0.15312
0.150555
0.23301
0.23301
0.23301
0.23301
0.23301
0.23301
0.23301
0.208404
0.19847
0.23301
0.23301
0.23301
0.149982
0.152076
0.23301
0.23301
0.227137
0.23301
0.164142
0.233006
0.231686
0.23301
0.23301
0.177363
0.23301
0.229133
0.230836
0.227322
0.231081
0.23301
0.23301
0.23301
0.23301
0.23301
0.205796
0.23301
0.213496
0.23301
0.231731
0.23301
0.23301
0.23301
0.23301
0.23301
0.23301
0.23301
0.23301
0.23301
0.23301
0.23301
0.198422
0.227427
0.23301
0.231254
0.23301
0.23301
0.23301
0.23301
0.23301
0.23301
0.23301
0.23301
0.23301
0.23301
0.23301
0.23301
0.23301
0.23299
0.23301
0.23301
0.23301
0.23301
0.23301
0.23301
0.23301
0.231055
0.23301
0.23301
0.233009
0.23301
0.23301
0.20271
0.201428
0.23301
0.23301
0.23301
0.23301
0.23301
0.23301
0.23301
0.23301
0.23301
0.23301
0.23301
0.23301
0.23301
0.23301
0.23301
0.23301
0.23301
0.23301
0.23301
0.23301
0.228143
0.23301
0.23301
0.205845
0.23301
0.23301
0.23301
0.232869
0.23301
0.232736
0.216581
0.23301
0.23301
0.232259
0.222132
0.23301
0.23301
0.233235
0.23301
0.23301
0.23301
0.23301
0.23301
0.23301
0.23301
0.227403
0.23301
0.174467
0.23301
0.23301
0.189146
0.23301
0.229824
0.23301
0.23301
0.23301
0.23301
0.23301
0.23301
0.23301
0.23301
0.23301
0.23301
0.23301
0.23301
0.23301
0.23301
0.23301
0.23301
0.22863
0.23301
0.224375
0.23301
0.23301
0.20321
0.23301
0.238208
0.23301
0.23301
0.23301
0.235517
0.23301
0.23301
0.230709
0.226719
0.23301
0.228221
0.205071
0.23301
0.23301
0.23301
0.23301
0.23301
0.22828
0.206773
0.23301
0.23301
0.23301
0.230402
0.23301
0.23301
0.231831
0.23301
0.23301
0.23757
0.23301
0.234044
0.23301
0.235392
0.23301
0.23301
0.23301
0.23301
0.23301
0.23301
0.23301
0.23301
0.23286
0.23301
0.12371
0.23301
0.23301
0.23301
0.23301
0.23301
0.23301
0.23301
0.23301
0.23301
0.134136
0.23301
0.23301
0.23301
0.227762
0.23301
0.226216
0.159707
0.124661
0.23301
0.23301
0.23301
0.233687
0.23301
0.233308
0.190966
0.232909
0.23301
0.23301
0.23301
0.23301
0.23301
0.23301
0.23301
0.23301
0.232341
0.23301
0.232352
0.23301
0.23301
0.233315
0.23301
0.23301
0.233966
0.232603
0.23301
0.232798
0.23301
0.23301
0.23301
0.23301
0.220162
0.23301
0.223334
0.23301
0.23301
0.23301
0.23301
0.23301
0.23301
0.23301
0.23301
0.23301
0.23301
0.23301
0.23301
0.23301
0.232998
0.23301
0.23301
0.23301
0.23301
0.23301
0.23301
0.231902
0.23301
0.205455
0.23301
0.23301
0.23301
0.23301
0.23301
0.23301
0.23301
0.228892
0.23301
0.233007
0.23301
0.23301
0.232903
0.232369
0.23301
0.23301
0.221868
0.23301
0.23301
0.23301
0.23301
0.23301
0.189884
0.23301
0.232918
0.233004
0.23301
0.23301
0.23301
0.23301
0.232971
0.232912
0.23301
0.23301
0.23301
0.232941
0.23301
0.23301
0.23301
0.23269
0.23301
0.23301
0.23301
0.23301
0.23301
0.23301
0.23301
0.23301
0.23301
0.23301
0.23301
0.23301
0.185761
0.23301
0.23301
0.23301
0.23301
0.23301
0.189183
0.23294
0.23301
0.23301
0.23301
0.23301
0.23301
0.23301
0.23301
0.23301
0.228844
0.23301
0.232973
0.232999
0.231475
0.23301
0.23301
0.23301
0.23301
0.23301
0.23301
0.23301
0.23301
0.23301
0.23301
0.217896
0.23301
0.23301
0.23301
0.23301
0.23301
0.23301
0.23301
0.23301
0.23301
0.23301
0.23301
0.23301
0.23301
0.23301
0.23301
0.232698
0.23301
0.23301
0.23301
0.23301
0.23301
0.23301
0.129427
0.23301
0.23301
0.23301
0.186972
0.23301
0.23301
0.23301
0.130666
0.23301
0.23301
0.23301
0.23301
0.23301
0.23279
0.23301
0.23301
0.23301
0.23301
0.233001
0.23301
0.233007
0.23301
0.23301
0.23301
0.231889
0.23301
0.23301
0.23301
0.23301
0.23301
0.23301
0.23301
0.23301
0.23301
0.233005
0.23301
0.212834
0.23301
0.23301
0.23301
0.23301
0.23301
0.23301
0.23301
0.23301
0.23301
0.23301
0.23301
0.232981
0.23301
0.23301
0.232937
0.23301
0.23301
0.23301
0.23301
0.23301
0.23301
0.0841332
0.23301
0.23301
0.23301
0.23301
0.23301
0.23301
0.23301
0.23301
0.23301
0.23301
0.23301
0.23301
0.23301
0.23301
0.23301
0.23301
0.23301
0.23301
0.23301
0.23301
0.232793
0.23301
0.23301
0.160128
0.23301
0.23301
0.23301
0.23301
0.23301
0.23301
0.23301
0.23301
0.23301
0.23301
0.23301
0.23301
0.23301
0.23301
0.23301
0.23301
0.233001
0.232968
0.23301
0.23301
0.23301
0.23301
0.23301
0.23301
0.184195
0.23301
0.23301
0.23301
0.23301
0.23301
0.23301
0.23301
0.23301
0.18711
0.23301
0.23301
0.23301
0.233003
0.23301
0.23301
0.23301
0.23301
0.233009
0.23301
0.23301
0.23301
0.23301
0.23301
0.22639
0.23301
0.23301
0.232871
0.23301
0.232932
0.232733
0.23301
0.23301
0.23301
0.23301
0.23301
0.23301
0.23301
0.233012
0.215856
0.233009
0.23301
0.23301
0.233006
0.23301
0.23301
0.23301
0.23301
0.23301
0.231297
0.232529
0.204372
0.23301
0.23301
0.23301
0.227648
0.233011
0.23301
0.23301
0.232344
0.23301
0.23143
0.232959
0.230833
0.233008
0.23301
0.23301
0.23301
0.23301
0.23301
0.127451
0.23301
0.23301
0.23301
0.228842
0.23301
0.23301
0.23301
0.23301
0.23301
0.212539
0.23301
0.23301
0.23301
0.227083
0.23301
0.23301
0.23301
0.23301
0.23301
0.233005
0.23301
0.23301
0.196992
0.23301
0.23301
0.23301
0.23301
0.23301
0.23301
0.23301
0.23301
0.233016
0.232472
0.23301
0.23301
0.23301
0.23301
0.216806
0.22083
0.223234
0.233008
0.221721
0.23301
0.217866
0.217324
0.23301
0.23301
0.23301
0.23301
0.23301
0.23301
0.23301
0.23301
0.23301
0.23301
0.23301
0.23301
0.23301
0.23301
0.23301
0.23301
0.23301
0.23301
0.23301
0.23301
0.233007
0.23301
0.231179
0.23301
0.23301
0.23301
0.23301
0.23301
0.23301
0.23301
0.23301
0.23301
0.23301
0.23301
0.23301
0.23301
0.228151
0.23301
0.23301
0.23301
0.23301
0.23301
0.23301
0.23301
0.23301
0.23301
0.23301
0.23301
0.23301
0.23301
0.23301
0.23301
0.23301
0.231043
0.23301
0.23301
0.209341
0.23301
0.212548
0.23301
0.23301
0.23301
0.23301
0.23301
0.19812
0.220735
0.23301
0.23301
0.224725
0.227826
0.23301
0.23301
0.23301
0.23301
0.23301
0.23301
0.232773
0.23301
0.23301
0.23301
0.23301
0.23301
0.23301
0.23301
0.187252
0.204838
0.23301
0.23301
0.23301
0.23301
0.23301
0.23301
0.23301
0.23301
0.23301
0.23301
0.23301
0.23301
0.201915
0.23301
0.23301
0.230897
0.232998
0.23301
0.23301
0.23301
0.23301
0.23301
0.23301
0.23301
0.23301
0.23301
0.23301
0.23301
0.23301
0.209197
0.23301
0.23301
0.180381
0.23301
0.23301
0.208487
0.23301
0.23301
0.23301
0.23301
0.18571
0.23301
0.23301
0.233007
0.23301
0.182644
0.23301
0.190862
0.23301
0.23301
0.196284
0.232995
0.23301
0.138063
0.23301
0.23301
0.23301
0.23301
0.23301
0.23301
0.157479
0.23301
0.23301
0.215257
0.23301
0.232545
0.154115
0.223851
0.232966
0.191295
0.23301
0.0861332
0.23301
0.23301
0.23301
0.23301
0.23301
0.23301
0.23301
0.23301
0.218401
0.23301
0.232685
0.229574
0.23301
0.23301
0.23301
0.23301
0.23301
0.23301
0.226258
0.232838
0.23301
0.23301
0.23301
0.23301
0.23301
0.23301
0.23301
0.23301
0.23301
0.23301
0.231844
0.165639
0.233003
0.212539
0.232994
0.23301
0.23301
0.23301
0.23301
0.23301
0.23301
0.205168
0.212015
0.229961
0.227913
0.23301
0.23301
0.231701
0.23301
0.232122
0.23301
0.23301
0.23301
0.23301
0.232085
0.23301
0.232946
0.231218
0.232994
0.232993
0.232993
0.23301
0.23301
0.23301
0.23301
0.23301
0.23301
0.23301
0.23301
0.23301
0.23301
0.23301
0.23301
0.176784
0.232213
0.217204
0.23301
0.23301
0.222647
0.23301
0.23301
0.223704
0.23301
0.23301
0.229076
0.191348
0.225589
0.224413
0.23301
0.232045
0.218183
0.226587
0.23301
0.218922
0.228716
0.229817
0.220013
0.23301
0.226553
0.229596
0.23301
0.228308
0.217279
0.228227
0.230996
0.233006
0.231263
0.23301
0.214762
0.222756
0.227367
0.23301
0.23301
0.22977
0.23301
0.23301
0.23301
0.23301
0.224186
0.232379
0.23301
0.23301
0.23301
0.23301
0.232881
0.228333
0.183529
0.212951
0.2311
0.23301
0.23301
0.232189
0.23301
0.23301
0.23301
0.23301
0.23301
0.23301
0.23301
0.23301
0.23301
0.23301
0.23301
0.232978
0.232815
0.233015
0.160456
0.23301
0.23301
0.230314
0.23301
0.23301
0.23301
0.23301
0.23301
0.23301
0.218082
0.23301
0.23301
0.233002
0.199236
0.23301
0.23301
0.228696
0.219351
0.23301
0.232277
0.23301
0.23301
0.23301
0.222779
0.23301
0.230683
0.23301
0.23301
0.23301
0.23301
0.233077
0.23301
0.229873
0.23301
0.232677
0.221433
0.23301
0.23301
0.175596
0.22794
0.193917
0.223252
0.23301
0.233007
0.229398
0.23301
0.23301
0.23301
0.23301
0.227396
0.23301
0.230053
0.23293
0.205176
0.227007
0.225453
0.217831
0.230408
0.23301
0.0951645
0.219924
0.23301
0.172589
0.23301
0.232903
0.231483
0.23301
0.15572
0.23301
0.23301
0.23301
0.23301
0.229921
0.23301
0.23301
0.23301
0.23301
0.23301
0.23301
0.23301
0.23301
0.180749
0.232924
0.23301
0.231038
0.233006
0.23301
0.23301
0.223185
0.198157
0.233012
0.232984
0.223012
0.232877
0.23491
0.23301
0.23301
0.206214
0.23301
0.23301
0.23301
0.240824
0.23301
0.233011
0.233009
0.23301
0.232693
0.173427
0.23301
0.230816
0.233
0.23301
0.23301
0.23301
0.23301
0.23301
0.23301
0.230383
0.229851
0.166265
0.23301
0.0699471
0.23301
0.222369
0.23301
0.233009
0.23301
0.234969
0.23301
0.23301
0.23301
0.23301
0.23301
0.23301
0.23301
0.231175
0.23301
0.217429
0.231588
0.23301
0.227652
0.18135
0.0922909
0.211737
0.23301
0.232749
0.232912
0.23301
0.23301
0.231719
0.226722
0.23301
0.23301
0.23301
0.23301
0.23301
0.230341
0.231303
0.229101
0.231284
0.23301
0.0437379
0.23301
0.23301
0.23301
0.23301
0.23301
0.232184
0.23301
0.23301
0.23529
0.23301
0.23301
0.23301
0.23301
0.23301
0.23301
0.216291
0.23301
0.23301
0.232999
0.23301
0.196172
0.23301
0.23301
0.23301
0.23301
0.23301
0.23301
0.227184
0.163175
0.23301
0.23301
0.169376
0.23301
0.23301
0.23301
0.23301
0.232848
0.186532
0.135726
0.229511
0.233008
0.23301
0.213864
0.23301
0.207982
0.193616
0.23301
0.219457
0.23301
0.23301
0.164755
0.23301
0.23301
0.191612
0.215202
0.177797
0.186003
0.23301
0.212772
0.22394
0.206006
0.23301
0.23301
0.182484
0.177841
0.20917
0.226228
0.232528
0.23301
0.222735
0.232638
0.20076
0.22532
0.22615
0.189163
0.23301
0.23301
0.234291
0.182231
0.228402
0.230052
0.211914
0.231985
0.203223
0.23301
0.221289
0.23301
0.177694
0.23301
0.232544
0.232828
0.23301
0.193802
0.23301
0.196233
0.181508
0.23301
0.23301
0.211269
0.23301
0.23301
0.23301
0.23301
0.206587
0.23301
0.180966
0.138147
0.23301
0.23301
0.167656
0.23301
0.23301
0.220713
0.23301
0.23301
0.23301
0.23301
0.228659
0.229892
0.195439
0.23301
0.23301
0.199073
0.23301
0.23192
0.225932
0.23301
0.23301
0.23301
0.23301
0.212641
0.23301
0.23301
0.23301
0.23301
0.23301
0.231872
0.231615
0.23301
0.23301
0.232233
0.23301
0.23301
0.23301
0.227921
0.23301
0.225357
0.201249
0.23301
0.23301
0.23301
0.23301
0.182377
0.23301
0.224347
0.233009
0.23301
0.23301
0.23301
0.23301
0.23301
0.23301
0.204373
0.23301
0.23301
0.23301
0.23301
0.23301
0.215676
0.229572
0.23301
0.23301
0.211615
0.23301
0.229488
0.23301
0.23301
0.137134
0.172583
0.230097
0.23301
0.23301
0.228615
0.189178
0.23301
0.163832
0.23301
0.215147
0.186086
0.23301
0.231153
0.186951
0.218068
0.156988
0.208279
0.23301
0.23301
0.23301
0.23206
0.227317
0.23301
0.174047
0.23301
0.23301
0.23301
0.23275
0.186793
0.200198
0.23301
0.23301
0.230277
0.23301
0.174362
0.23301
0.23301
0.23301
0.179259
0.194339
0.210827
0.23301
0.23301
0.23301
0.187459
0.23301
0.174711
0.23301
0.23301
0.179488
0.23301
0.23301
0.23301
0.150205
0.23301
0.23301
0.22876
0.163481
0.23301
0.232768
0.23301
0.134112
0.212509
0.229688
0.23301
0.23301
0.225078
0.23301
0.228272
0.206396
0.232218
0.232617
0.200784
0.23156
0.155415
0.23301
0.0901897
0.186299
0.23301
0.23301
0.232877
0.117522
0.23301
0.207043
0.15382
0.23301
0.232444
0.23301
0.165284
0.224577
0.23301
0.195009
0.193737
0.23301
0.23301
0.23301
0.23301
0.19249
0.23301
0.217042
0.23068
0.23301
0.23301
0.23301
0.23301
0.23301
0.23301
0.23301
0.23301
0.176516
0.23301
0.15315
0.23301
0.23301
0.23301
0.23301
0.231028
0.23301
0.23301
0.23301
0.23301
0.23301
0.231987
0.232654
0.22894
0.23301
0.23301
0.23301
0.23301
0.23301
0.23301
0.23301
0.23301
0.23301
0.23301
0.232928
0.23301
0.23301
0.23301
0.23301
0.23301
0.23301
0.228027
0.23301
0.23301
0.232736
0.23301
0.232776
0.23301
0.23301
0.232916
0.233009
0.23301
0.23301
0.23301
0.23301
0.23301
0.23301
0.23301
0.233012
0.23301
0.23301
0.23301
0.23301
0.233008
0.23301
0.227594
0.23301
0.23301
0.23301
0.23301
0.233009
0.232809
0.233012
0.23301
0.23301
0.23301
0.153576
0.236478
0.23301
0.231295
0.231771
0.23301
0.23301
0.23301
0.228194
0.234097
0.23301
0.23301
0.227204
0.23301
0.231767
0.23301
0.23301
0.23301
0.23301
0.23301
0.23301
0.23301
0.23301
0.23301
0.228599
0.23301
0.23301
0.23301
0.23301
0.23301
0.231143
0.23301
0.23301
0.22798
0.225459
0.23301
0.23301
0.23301
0.23301
0.232794
0.23301
0.23301
0.232898
0.23301
0.23301
0.23301
0.23301
0.23301
0.23301
0.23301
0.23301
0.212735
0.233011
0.20836
0.23301
0.23301
0.23301
0.23301
0.171279
0.23301
0.23301
0.233038
0.23301
0.182353
0.23301
0.23301
0.23301
0.227196
0.211812
0.228304
0.211842
0.23301
0.2271
0.222889
0.23301
0.228808
0.23301
0.227013
0.229014
0.23301
0.216282
0.225796
0.224467
0.23301
0.22411
0.226037
0.23301
0.23301
0.232048
0.23301
0.23301
0.23301
0.23301
0.228435
0.23301
0.23301
0.23301
0.23301
0.23301
0.23301
0.23301
0.229498
0.23301
0.23301
0.23301
0.23301
0.232527
0.23301
0.23301
0.23301
0.23301
0.23301
0.23301
0.23301
0.23301
0.23301
0.23301
0.23301
0.23301
0.23301
0.23301
0.23301
0.23301
0.227301
0.23301
0.23301
0.23301
0.23301
0.23301
0.23301
0.23301
0.23301
0.23301
0.23301
0.23301
0.23301
0.23301
0.23301
0.23301
0.233011
0.23301
0.23301
0.23301
0.23301
0.23301
0.23301
0.23301
0.226763
0.230405
0.23301
0.23301
0.23301
0.214002
0.177043
0.23301
0.23301
0.23301
0.23301
0.23301
0.23301
0.23301
0.23301
0.23301
0.191745
0.23301
0.23301
0.23301
0.12651
0.230646
0.23301
0.143601
0.23301
0.23301
0.23301
0.23301
0.23301
0.23301
0.232874
0.23301
0.23301
0.229628
0.141524
0.23301
0.23301
0.134185
0.23301
0.12545
0.23301
0.23301
0.23301
0.23301
0.169085
0.23301
0.164383
0.23301
0.23301
0.179288
0.23301
0.23301
0.23301
0.164701
0.23301
0.23301
0.181316
0.23301
0.233007
0.163389
0.232869
0.23301
0.23301
0.223791
0.233047
0.233201
0.194635
0.23301
0.23301
0.23301
0.23301
0.23301
0.229324
0.23301
0.23301
0.23301
0.230296
0.23301
0.23301
0.23301
0.23301
0.232904
0.23301
0.229556
0.215952
0.23301
0.229148
0.230307
0.219718
0.23301
0.23301
0.217336
0.23301
0.228413
0.23301
0.23301
0.23301
0.23015
0.23301
0.23301
0.23301
0.23301
0.230285
0.228776
0.23171
0.195878
0.233016
0.23301
0.23301
0.227741
0.23301
0.23301
0.23301
0.23297
0.23301
0.231886
0.23301
0.23301
0.218365
0.231109
0.23301
0.232256
0.230759
0.23301
0.232707
0.23301
0.23301
0.231608
0.23301
0.231294
0.23301
0.233007
0.232684
0.230717
0.23301
0.23301
0.228953
0.231977
0.23301
0.23301
0.230696
0.23301
0.23301
0.23301
0.211499
0.23301
0.23301
0.134235
0.23301
0.23301
0.232907
0.23301
0.134121
0.23301
0.232988
0.23291
0.218192
0.23301
0.23301
0.23301
0.133025
0.23301
0.232986
0.23301
0.13971
0.136723
0.23301
0.23301
0.232143
0.230052
0.231021
0.230275
0.223557
0.23301
0.23301
0.23301
0.23301
0.23301
0.23301
0.23301
0.23301
0.23301
0.23301
0.23301
0.163604
0.23301
0.23301
0.23301
0.23301
0.23301
0.23301
0.229916
0.23301
0.23301
0.23301
0.23301
0.23301
0.23301
0.23301
0.23301
0.23301
0.23301
0.169411
0.23301
0.23301
0.233024
0.17898
0.23301
0.23301
0.216429
0.23301
0.23301
0.231073
0.23301
0.23301
0.23301
0.23301
0.23301
0.23301
0.23301
0.23301
0.23301
0.23301
0.23301
0.232273
0.23301
0.23301
0.23301
0.23301
0.23301
0.23301
0.23301
0.188387
0.23301
0.23301
0.23301
0.233009
0.23301
0.23301
0.23301
0.155954
0.168004
0.23301
0.229963
0.23301
0.23301
0.23301
0.232956
0.23301
0.23301
0.23284
0.23301
0.23301
0.229557
0.23301
0.229338
0.180808
0.23301
0.23301
0.23301
0.156511
0.23301
0.23301
0.23301
0.23301
0.23301
0.23301
0.23301
0.233012
0.23301
0.23301
0.232858
0.231003
0.230362
0.23301
0.229898
0.232301
0.23301
0.228261
0.111412
0.23301
0.232968
0.232771
0.23301
0.23301
0.23301
0.233009
0.229061
0.23301
0.23301
0.23301
0.23301
0.23301
0.233004
0.233025
0.226602
0.23301
0.23301
0.23301
0.230984
0.23301
0.23301
0.23301
0.207753
0.232203
0.23301
0.23301
0.23301
0.23301
0.228308
0.201011
0.23301
0.232582
0.232911
0.232814
0.23301
0.23301
0.139801
0.23301
0.23301
0.23301
0.23301
0.232811
0.23301
0.23301
0.23301
0.23301
0.23301
0.23301
0.23301
0.212724
0.213297
0.23301
0.232779
0.23301
0.23301
0.23301
0.192829
0.204392
0.148368
0.23301
0.23301
0.23301
0.23301
0.233007
0.23301
0.23244
0.23301
0.23301
0.23301
0.18546
0.164641
0.23301
0.23301
0.232473
0.232544
0.232992
0.232182
0.224844
0.228741
0.178949
0.223085
0.23301
0.23301
0.23301
0.23301
0.23301
0.23301
0.232182
0.183544
0.2219
0.225253
0.227365
0.23301
0.226303
0.226563
0.23301
0.23301
0.224672
0.233013
0.232491
0.232999
0.23301
0.231337
0.22139
0.23301
0.23301
0.155472
0.23301
0.23301
0.227478
0.169771
0.23301
0.23301
0.23301
0.23301
0.23301
0.23301
0.23301
0.230147
0.150387
0.23301
0.23301
0.23301
0.221383
0.230896
0.23301
0.23301
0.23301
0.225872
0.23301
0.23301
0.23301
0.23301
0.23301
0.23301
0.23301
0.184284
0.233011
0.23301
0.23301
0.23301
0.23301
0.23301
0.233011
0.23301
0.23301
0.23301
0.23301
0.23301
0.23301
0.23301
0.23301
0.23301
0.23301
0.23301
0.23301
0.23301
0.23301
0.19247
0.23301
0.232785
0.23301
0.23301
0.23301
0.23301
0.23301
0.23301
0.232132
0.232761
0.20423
0.232818
0.23301
0.230974
0.232988
0.232796
0.232866
0.233042
0.212828
0.23301
0.23301
0.23301
0.23301
0.23301
0.23301
0.23301
0.233071
0.23301
0.171604
0.23301
0.23301
0.23301
0.23301
0.23301
0.23301
0.230132
0.155856
0.229924
0.23301
0.23301
0.23301
0.230238
0.23301
0.23301
0.228884
0.23301
0.228498
0.23301
0.23301
0.23301
0.228653
0.229865
0.228997
0.226625
0.230414
0.231971
0.132612
0.20948
0.227599
0.23301
0.23301
0.23301
0.23301
0.232509
0.154897
0.233017
0.229634
0.157154
0.15819
0.23301
0.15818
0.233011
0.23301
0.23301
0.23301
0.23301
0.229876
0.23301
0.23301
0.23301
0.187868
0.23301
0.166752
0.224596
0.232935
0.155197
0.23301
0.232842
0.151385
0.23301
0.23301
0.23301
0.23301
0.23301
0.23301
0.156739
0.23301
0.23301
0.232409
0.23301
0.150959
0.232576
0.23301
0.231565
0.226669
0.227861
0.228347
0.226508
0.23301
0.229847
0.23301
0.23301
0.228785
0.233005
0.229898
0.228475
0.23301
0.23301
0.23301
0.230574
0.144747
0.23301
0.23301
0.225097
0.23301
0.131053
0.23301
0.23301
0.23301
0.224837
0.23301
0.22808
0.23301
0.23301
0.23301
0.225285
0.225561
0.23301
0.23301
0.23301
0.137271
0.160642
0.23301
0.194969
0.23162
0.227447
0.142702
0.23301
0.19163
0.23301
0.23301
0.23301
0.23301
0.23301
0.23301
0.23301
0.140225
0.23301
0.23301
0.23301
0.23301
0.23301
0.23301
0.23301
0.233008
0.232959
0.23301
0.23301
0.180359
0.23301
0.133181
0.23301
0.23301
0.193461
0.23301
0.23301
0.23301
0.134803
0.23301
0.23301
0.22724
0.23301
0.23301
0.23301
0.228594
0.23301
0.23301
0.23301
0.23301
0.23301
0.23301
0.23301
0.221739
0.23301
0.232983
0.23301
0.229892
0.23301
0.23301
0.23301
0.233012
0.23301
0.23301
0.23301
0.23301
0.23301
0.23301
0.23301
0.23301
0.23301
0.23301
0.163505
0.23301
0.23301
0.23301
0.23301
0.23301
0.23242
0.23301
0.23301
0.23301
0.23301
0.23301
0.23301
0.23301
0.23301
0.23301
0.23301
0.23301
0.232047
0.23301
0.23301
0.23301
0.23301
0.23301
0.23301
0.170934
0.23301
0.23301
0.23301
0.23301
0.233007
0.23301
0.233024
0.229954
0.23301
0.23301
0.23301
0.23301
0.23301
0.23301
0.178069
0.23301
0.23301
0.178078
0.23301
0.23301
0.23301
0.23301
0.23301
0.23301
0.233069
0.23301
0.23301
0.23301
0.177476
0.183489
0.178562
0.23301
0.232597
0.23025
0.23301
0.23301
0.23301
0.177767
0.23301
0.23301
0.23301
0.23301
0.232947
0.23301
0.23301
0.23301
0.23301
0.23301
0.233011
0.22365
0.23301
0.233008
0.227586
0.23301
0.230388
0.23301
0.23301
0.23301
0.23301
0.23301
0.228884
0.23301
0.232909
0.232415
0.232956
0.232731
0.22014
0.23301
0.23301
0.23301
0.23301
0.23301
0.23301
0.23301
0.23301
0.23301
0.231972
0.233014
0.233011
0.231494
0.23301
0.21668
0.233009
0.215787
0.23301
0.23301
0.222319
0.23301
0.23301
0.23301
0.213088
0.221014
0.216236
0.23301
0.214701
0.23301
0.23301
0.23301
0.23301
0.23301
0.182495
0.233011
0.23301
0.23301
0.231801
0.233014
0.23301
0.23301
0.23301
0.23301
0.205283
0.23301
0.2327
0.23301
0.233007
0.23301
0.23301
0.23301
0.23301
0.23301
0.23301
0.133468
0.23301
0.232974
0.23301
0.23301
0.202134
0.23301
0.23301
0.23301
0.229593
0.23301
0.231009
0.227714
0.207763
0.23301
0.178118
0.228107
0.23301
0.23301
0.216427
0.233015
0.23301
0.193847
0.231229
0.23301
0.23301
0.23301
0.185857
0.23301
0.23301
0.23301
0.23301
0.232222
0.23301
0.159979
0.23301
0.23301
0.23301
0.23301
0.23301
0.23301
0.23301
0.23301
0.23301
0.232694
0.23199
0.208608
0.222138
0.203855
0.216663
0.205546
0.23301
0.23301
0.23301
0.19709
0.229741
0.161319
0.229852
0.23301
0.227874
0.203975
0.17255
0.171999
0.23301
0.203018
0.181712
0.209483
0.23301
0.229807
0.202838
0.197313
0.181106
0.211129
0.21602
0.226703
0.23301
0.223128
0.23301
0.208714
0.23301
0.180897
0.225629
0.23301
0.23301
0.224033
0.212011
0.23301
0.232956
0.23301
0.23301
0.227989
0.23301
0.23301
0.23301
0.23301
0.230045
0.23301
0.0453453
0.232769
0.23301
0.23301
0.225914
0.23301
0.131971
0.175073
0.222697
0.23301
0.23301
0.23301
0.194593
0.23301
0.23301
0.23301
0.23301
0.23301
0.225763
0.228116
0.23301
0.220793
0.167336
0.23301
0.23301
0.231142
0.23301
0.23301
0.160674
0.23301
0.23301
0.23301
0.217895
0.105654
0.198489
0.23301
0.23301
0.23301
0.199358
0.232265
0.21445
0.213983
0.23301
0.23301
0.23301
0.232922
0.23301
0.230305
0.200825
0.23301
0.171992
0.23301
0.23301
0.229294
0.23301
0.23301
0.23301
0.184572
0.240024
0.23301
0.23301
0.23301
0.232351
0.23301
0.23301
0.090895
0.23301
0.23301
0.23301
0.23301
0.23301
0.23301
0.23301
0.23301
0.23301
0.23301
0.23301
0.223637
0.23301
0.212125
0.0842226
0.23311
0.224766
0.23301
0.226147
0.23301
0.23301
0.236059
0.205526
0.173791
0.222349
0.233252
0.232934
0.23301
0.23301
0.232906
0.23301
0.233237
0.23301
0.23301
0.214423
0.23301
0.23301
0.23301
0.232853
0.23301
0.23301
0.187071
0.23301
0.23301
0.23301
0.19373
0.169953
0.23301
0.233779
0.232832
0.230951
0.231773
0.232934
0.23301
0.23301
0.23301
0.23301
0.23301
0.23301
0.23301
0.23301
0.23301
0.23301
0.231477
0.206903
0.23301
0.23301
0.231453
0.23301
0.23301
0.23301
0.23301
0.23299
0.23301
0.23301
0.23301
0.23295
0.23301
0.20661
0.233046
0.23301
0.232328
0.218325
0.23301
0.233229
0.23301
0.23301
0.23301
0.230779
0.23301
0.23301
0.23301
0.23301
0.232962
0.23301
0.233159
0.228927
0.221537
0.232688
0.23301
0.23301
0.23301
0.231274
0.23301
0.233187
0.23301
0.23301
0.23301
0.23345
0.23301
0.23301
0.23301
0.23301
0.229411
0.23301
0.23301
0.23301
0.23301
0.184268
0.233012
0.23301
0.23301
0.23301
0.232835
0.23301
0.23301
0.23301
0.16708
0.23301
0.120911
0.233012
0.23301
0.183497
0.183176
0.23301
0.23301
0.23301
0.23301
0.23301
0.23301
0.231691
0.23301
0.23301
0.23301
0.179787
0.23301
0.23301
0.23301
0.23301
0.195199
0.201675
0.23301
0.180146
0.23301
0.23301
0.23301
0.23301
0.23301
0.182411
0.229508
0.23301
0.23301
0.23301
0.23301
0.23301
0.23301
0.23301
0.23301
0.233034
0.23301
0.232601
0.23301
0.23301
0.23301
0.233012
0.23301
0.23301
0.211686
0.23301
0.23301
0.23301
0.23301
0.190436
0.23301
0.22992
0.23301
0.232707
0.23301
0.23301
0.23301
0.23301
0.23301
0.23301
0.23301
0.233013
0.199678
0.23301
0.23301
0.23301
0.23301
0.23301
0.23301
0.23301
0.23301
0.23301
0.23301
0.23301
0.23301
0.23301
0.206821
0.212319
0.23301
0.23301
0.23301
0.23301
0.22266
0.23301
0.2315
0.23301
0.232927
0.23301
0.23301
0.23301
0.23301
0.23301
0.23301
0.22741
0.233017
0.23301
0.23301
0.23301
0.23301
0.23301
0.23301
0.23301
0.23301
0.23301
0.23301
0.230166
0.23301
0.23301
0.23301
0.227708
0.228057
0.23301
0.23301
0.23301
0.23301
0.23301
0.23301
0.225991
0.23301
0.23301
0.22819
0.23301
0.233
0.230156
0.234114
0.232888
0.23301
0.0401058
0.23301
0.229954
0.23301
0.232904
0.23301
0.232647
0.218974
0.23301
0.23301
0.23301
0.196815
0.199466
0.23301
0.232686
0.230667
0.17152
0.23301
0.23301
0.23301
0.23301
0.233032
0.23301
0.23301
0.23301
0.23301
0.23301
0.23301
0.217162
0.230664
0.23301
0.23301
0.23301
0.23301
0.23301
0.23301
0.227448
0.169762
0.23041
0.23301
0.23301
0.229514
0.227415
0.23301
0.23301
0.202481
0.233335
0.19916
0.23301
0.2331
0.23301
0.23301
0.23301
0.23301
0.23301
0.23301
0.23301