/*--------------------------------*- C++ -*----------------------------------*\
| =========                 |                                                 |
| \\      /  F ield         | OpenFOAM: The Open Source CFD Toolbox           |
|  \\    /   O peration     | Version:  v2012                                 |
|   \\  /    A nd           | Website:  www.openfoam.com                      |
|    \\/     M anipulation  |                                                 |
\*---------------------------------------------------------------------------*/
FoamFile
{
    version     2.0;
    format      ascii;
    class       volScalarField;
    location    "5";
    object      p_rgh;
}
// * * * * * * * * * * * * * * * * * * * * * * * * * * * * * * * * * * * * * //

dimensions      [1 -1 -2 0 0 0 0];


internalField   nonuniform List<scalar> 
108993
(
0.604385
0.494499
0.474848
0.5064
0.572041
0.580709
-1.84831
0.587221
0.496045
0.614858
0.510783
0.511906
0.533204
0.513501
0.583226
0.0851308
0.654929
0.577669
0.516316
0.467819
0.593746
0.417858
0.352995
0.591611
0.530703
0.560322
0.467472
0.462631
0.504279
0.589597
0.497922
0.512135
0.464017
0.634007
0.427899
0.590569
0.480809
0.581843
1.16173
-5.47313
0.413515
0.542719
0.498167
0.507148
0.166093
-8.14378
0.468795
0.484081
0.535008
0.330666
0.488861
0.460818
0.470147
0.504043
0.582077
0.587445
0.454784
0.572043
0.541787
0.569029
0.569328
0.533859
0.58993
0.485655
0.51165
0.537605
0.531277
0.551358
0.540882
-0.731588
0.592318
0.547471
0.570734
0.554591
0.542818
0.508054
0.489533
0.66875
0.462377
0.53687
0.580669
0.570678
0.518507
0.529866
0.577942
0.490274
0.531874
0.504634
0.574866
0.54687
0.55066
0.5045
0.556313
0.564117
0.556659
0.489979
0.502531
0.568766
0.496017
0.52259
0.555821
0.48725
0.584805
0.531235
0.578597
0.551214
0.588581
0.271427
0.497485
-1.44966
0.235815
0.545591
0.461096
0.226994
0.546204
-0.529792
0.576907
0.534553
0.389901
0.498998
0.559995
0.475461
0.467411
0.494797
0.584262
0.207456
0.405818
0.57632
0.454038
0.426461
0.473097
0.459001
0.547366
-0.346458
0.5421
0.503534
0.47144
0.554464
0.588485
0.517001
0.500116
0.528133
0.412078
0.45623
0.433257
0.5724
0.575962
-7.02605
0.494467
-0.650118
-0.632336
0.563454
0.279409
-0.608883
0.53559
0.302606
0.566948
0.182321
0.341003
0.738104
-0.588121
0.138641
0.514136
0.5943
0.507588
0.377
0.581727
0.499398
0.495046
0.550452
0.520874
0.587116
0.47299
0.538356
0.458357
0.513892
0.178857
0.501909
0.54868
0.530008
0.580679
0.52286
0.294681
0.500863
0.520267
0.58471
0.37337
0.567355
0.572788
0.499285
0.548035
0.388792
0.550949
0.324161
0.551514
0.49514
0.409614
0.573676
0.56963
0.502897
0.582277
0.284031
0.595087
0.0647277
-0.191683
-0.695087
0.537469
-3.62681
0.555393
-0.728905
0.734296
0.576268
0.175906
-2.597
-6.29057
0.576104
0.580665
0.535018
0.271122
0.492372
0.391918
-0.747893
0.495878
0.218887
0.393995
0.507236
0.193629
0.525991
0.135223
0.521765
-4.96939
0.59143
0.504889
0.511459
0.526586
0.511167
0.430311
0.516148
-0.171135
0.181432
0.522692
0.543525
0.586112
0.123895
0.302975
0.0936773
-2.64923
0.84756
0.176222
0.484771
0.523866
0.492025
0.525087
0.55078
0.244878
0.13006
0.25037
0.49259
0.474958
0.581032
0.528718
0.54451
0.354585
0.181738
0.445016
0.511412
0.525952
0.523842
0.580673
0.548388
0.585003
0.48592
-2.83114
-0.23217
-6.71233
0.55187
0.509882
0.139856
0.512766
0.474905
0.464973
-6.95646
-7.02895
0.544059
0.503015
0.361006
0.528564
0.425053
0.500831
-4.86715
0.555882
0.529874
0.419908
0.529653
0.512828
0.527108
0.496393
0.52954
0.844826
0.586266
0.371211
-0.743527
0.585881
0.586177
0.530149
0.602126
0.307202
0.546332
0.603218
-2.2311
0.584333
0.548344
0.467418
0.590739
0.596244
-0.883562
0.48941
0.456017
-4.46334
0.537077
0.460346
0.48555
0.528481
0.528879
0.574411
0.0125659
-0.241398
0.0950079
0.486347
0.496689
0.340917
0.0442969
-0.255406
0.528977
-2.34435
0.594045
0.539428
0.558262
0.54875
0.499498
0.529589
-0.949991
0.345544
0.581287
0.560357
0.580618
0.514239
0.586144
0.52275
0.512707
0.536434
0.581248
-6.0694
-2.24638
0.339048
0.573979
0.568147
-6.49448
0.515504
0.513238
0.383078
0.341091
0.514157
0.513733
0.541413
0.37825
0.519132
0.481212
0.563141
-0.0478124
0.30537
0.399744
0.508081
-0.487949
0.367712
-0.940323
0.527915
0.543991
-0.970575
0.542141
-0.893291
-1.00727
0.385821
-0.00955375
0.582344
0.403718
0.533396
-5.7332
0.495381
-1.6171
-0.798367
0.404725
-0.753619
0.529017
-2.08894
0.385001
-0.234871
0.514224
0.1792
0.497952
0.388333
-0.692244
-0.547476
0.538516
0.351982
0.40004
0.398221
0.578383
0.477697
0.0192441
0.548151
0.346107
-0.19184
0.594041
0.498983
0.515409
-0.385386
-2.4158
-2.88446
0.586122
0.663201
0.480406
-0.395568
0.509283
0.577294
-0.40253
0.592087
-0.57094
-0.410308
0.585419
-0.299586
-3.7222
-0.398934
0.489921
0.544348
0.601154
0.251243
0.482717
0.506558
0.529505
0.570332
0.533077
0.539378
0.523048
1.16471
0.366781
0.384846
0.447237
0.530926
0.523914
0.471596
0.57129
0.529185
0.591106
0.5073
0.585272
0.563866
0.522662
0.537706
0.530081
0.305962
0.459055
0.146225
-0.687461
0.701915
0.48837
0.557508
0.199484
0.482589
0.466995
0.674504
0.578412
0.513625
0.256433
0.297285
0.234941
0.530525
-0.146024
-1.98278
0.215628
0.576852
0.516976
0.519433
0.518983
0.302941
0.48412
0.47789
0.484213
0.45775
0.617417
0.565279
0.584265
0.170532
0.468688
0.117055
0.589547
0.31988
0.534911
0.514214
0.495713
0.511484
0.523817
0.531511
0.503033
0.163532
-0.822751
0.512075
0.530491
-1.4643
0.513218
0.273454
0.413301
0.519864
0.440074
0.51696
0.125194
0.573792
0.521203
0.545397
0.549301
0.116903
0.0587386
0.422275
0.474044
0.507818
0.280191
0.554171
0.530051
0.328697
0.483873
0.51562
0.590179
0.30624
0.536048
0.574307
0.545205
0.376244
0.519366
0.670241
-2.18652
0.590721
-5.28317
0.586264
0.587721
0.531177
0.550821
0.584213
0.344412
0.555363
0.523483
0.68149
0.515382
-7.48096
0.591574
0.570061
0.59026
0.519975
0.364263
-3.43823
0.507905
0.599892
0.524879
0.488436
0.438823
-0.415092
0.0529493
0.573127
0.528808
0.393127
0.409631
0.488441
0.436646
7.32112
0.883701
-0.524884
0.331215
0.566005
-0.832163
-0.376283
0.116677
0.47235
0.578243
0.540974
0.501989
0.590308
0.143221
-8.5461
0.773199
0.486338
0.510349
0.38625
0.59425
0.547364
0.51852
-0.200348
0.516116
0.511344
0.594141
0.509993
0.585563
0.51118
0.515017
-2.97954
0.352845
0.5307
0.593543
-1.39175
0.594371
0.44489
0.482539
-0.312225
0.460386
0.592131
0.478032
0.423181
0.513311
0.267618
0.593911
-1.0686
0.522763
0.249366
0.521331
0.578764
-5.45777
0.560655
0.556883
0.520684
-0.908341
-5.39704
0.24251
0.0379324
0.49463
-0.954731
-0.157998
0.25208
0.577552
0.594189
0.277646
0.124767
0.365258
0.579604
0.376195
0.53151
0.204272
0.533137
0.238917
0.420734
0.525661
0.232607
0.248152
0.268113
0.0821782
-3.71686
-6.5369
-1.13981
0.550096
-0.28113
-6.69136
0.728265
-6.84726
-6.58766
0.562595
0.482789
0.530604
0.532729
0.331065
0.640771
0.271113
-2.13842
-3.20959
0.276517
0.493926
0.352627
-6.7461
-6.78933
0.544967
0.142177
-2.779
0.548499
-7.63491
0.520489
0.645949
0.73328
0.272902
-6.74401
0.274899
-1.06716
-0.459806
-2.66939
-0.266641
0.423902
0.516378
0.337409
0.597924
0.531564
-1.06763
0.838385
-2.04624
0.832769
2.97045
0.187283
0.529784
0.462247
0.460503
0.363809
0.587056
0.180659
0.426964
0.534405
0.460101
0.254487
-3.64927
-0.414107
0.584251
1.92502
0.567744
0.377765
0.569521
0.586148
0.32546
0.548359
0.206561
0.434699
0.107722
0.582877
0.178528
0.381157
0.242185
-0.969831
0.576355
0.405742
0.200583
0.0708025
0.155544
0.452306
0.585981
-0.292515
0.49882
0.499281
0.63249
0.493034
0.121827
-5.97393
-3.66163
0.404251
0.382219
0.390596
0.345895
0.412506
0.677675
0.568683
0.500838
0.489526
0.413456
0.498986
0.38097
0.48772
0.186423
0.241382
0.553538
0.303983
0.497785
0.410483
0.452939
-1.75003
0.415263
0.592657
-2.0646
0.524554
0.528075
0.452751
0.555432
0.538095
-0.88099
1.14788
0.533903
0.443695
0.329677
-0.176445
0.585035
0.506979
-0.260852
0.432999
0.442242
0.377492
0.319642
0.392438
0.58801
0.542802
-2.13954
0.522024
-7.92669
0.536578
0.53491
-7.72656
0.258703
-0.450626
0.395315
-0.692469
0.589836
0.374872
0.217551
0.548163
0.421915
0.248794
0.526953
0.572006
0.542798
0.560615
0.540299
0.423916
0.410812
0.527223
-1.44245
0.544845
-0.0836705
0.590155
0.522072
3.57763
0.588328
-1.94203
0.56192
0.534754
0.409768
0.347889
0.279322
0.597635
-0.272434
-2.91349
0.596236
-2.3919
-3.21378
0.981895
0.437503
0.275477
0.593255
0.4038
-1.39188
-4.48759
0.409826
0.589633
0.438761
-1.1703
0.431416
0.598909
0.487945
0.457481
0.496347
-1.73342
0.457358
-0.272396
0.490034
-0.642158
0.450342
0.39355
0.362356
0.0447786
0.485531
0.505358
0.362975
0.361737
1.40529
0.351706
-9.03118
0.353857
0.344455
0.458387
0.104752
0.344356
0.0381606
0.536223
0.532534
0.0785877
-8.72855
0.54237
0.186279
0.206566
-1.71023
0.515583
-3.08575
-6.39338
-9.55492
0.242476
0.161539
0.320546
-0.499476
0.577476
-0.200578
-6.76978
0.522881
0.538462
0.504238
0.172856
0.444127
0.25347
0.18118
0.573327
0.147337
-0.49208
0.557762
-0.143799
0.362682
0.537302
-0.39505
0.389921
0.589649
-0.689121
0.478688
0.544951
0.465779
0.587555
0.544886
0.317767
0.346319
2.56836
0.551804
2.20767
0.721296
0.329988
0.561042
0.487093
0.317342
0.360311
0.516722
0.222718
0.381093
0.510768
0.338737
0.513302
0.520011
-0.562039
0.518691
0.307678
0.168876
0.339831
0.383944
0.532902
-0.744291
0.589664
-3.54819
0.593847
0.514709
0.178773
0.284048
0.427178
0.520876
0.664538
1.31974
0.44489
-0.910185
0.554211
0.373535
-0.989409
-0.534583
0.542184
1.04858
-0.837531
0.372483
0.660322
0.367413
0.304894
0.280774
-6.57394
0.435592
-0.0845139
0.187848
0.682117
0.341353
0.317901
0.293359
0.14009
-0.862951
0.657553
0.494756
0.519091
0.123467
0.516375
0.591227
0.461422
-0.101021
0.511524
0.476595
0.518684
0.518151
0.498771
0.521587
0.533929
-0.0977291
0.531273
0.453467
0.58905
0.522901
-7.20985
0.537174
0.555001
0.518512
0.564616
0.517628
-5.21515
1.01441
0.357451
0.512357
0.58243
0.253459
0.568651
0.399043
0.315523
0.511697
-0.278557
0.496943
0.406176
0.0672721
-0.255088
0.58084
0.508163
0.509944
0.58831
0.383263
0.312061
0.486164
0.581135
0.505796
0.526229
-0.851368
0.51595
0.319561
0.0980397
0.518597
0.281993
0.50535
0.496137
0.369481
0.520535
0.534562
0.334898
0.408584
0.559528
0.490699
0.521253
0.47217
0.438594
0.393165
0.545886
0.806091
0.149197
0.507532
-6.25995
0.249787
0.376471
0.447673
-6.8141
0.350989
0.105241
0.358253
-5.99895
0.516586
0.58591
0.585678
0.478818
0.635034
0.84738
0.43437
0.360245
0.420492
0.412526
0.612133
0.40874
0.632617
0.351456
0.548103
0.726587
0.14659
0.364977
0.460654
0.539088
0.511805
0.513355
0.525825
0.512789
0.556713
0.642713
0.081243
0.493524
-3.65827
0.706338
0.516641
0.519402
0.419714
-0.145926
0.512989
0.714071
0.56502
0.442822
0.513668
0.37603
-0.354581
0.0301348
0.535462
-0.677426
0.529906
0.561156
0.551361
0.144978
0.479499
0.417592
6.68669
0.197316
0.528654
0.558467
0.513775
0.467952
0.48135
0.512965
0.53942
0.565456
0.568854
0.516391
0.537804
0.53298
0.586471
0.507957
0.286705
0.519113
0.580581
0.496901
0.508356
1.27752
0.21356
0.284597
-8.16628
0.501379
0.566538
0.248503
0.589904
0.583412
0.507929
0.528832
0.449293
0.510586
0.275998
0.452597
0.352376
0.530648
0.527964
0.515566
0.526886
-0.0214455
-0.31088
0.576016
0.580532
0.534147
0.42342
0.257965
0.537553
-4.35093
0.529251
0.411617
0.452878
0.504796
0.512997
0.625047
0.795905
0.54862
-4.06529
0.35733
0.37339
0.333374
-0.790926
0.441469
0.727687
0.555084
0.505783
-0.679047
0.586669
0.511422
0.390466
0.391032
0.395912
-0.346618
0.376336
0.511232
0.513648
0.544272
0.534292
0.545844
0.394861
0.585341
0.409635
0.400919
0.406661
0.502649
0.546392
-0.774424
-2.33836
0.781659
0.531076
0.516704
0.853354
0.522255
0.502719
0.521591
0.588193
0.521437
-1.1173
0.706485
-2.39682
0.527767
0.236483
0.584651
-1.98373
-0.901175
0.365258
0.348265
0.360632
0.279566
-0.158778
0.586291
-0.650889
-0.612417
0.535588
0.588463
0.637416
0.565262
0.575671
6.91979
0.541002
0.580423
0.577633
-0.382988
0.545756
0.529535
0.37424
0.41722
-0.977002
-1.76801
0.53222
0.329522
0.590175
-2.92871
0.591621
0.618724
0.580704
0.274745
0.519043
-0.989915
0.684117
0.592835
-3.47029
0.590392
0.292797
0.515697
0.358466
-0.448877
0.470783
0.395122
0.241664
-0.31156
0.964037
0.357046
0.576629
0.102459
0.582292
-1.13202
-0.426729
-0.15215
-0.878579
-0.284017
0.342706
-0.916776
-1.06433
0.419209
0.420816
0.571602
0.243975
0.580256
0.514259
0.536519
0.425685
0.49589
0.428046
0.441279
0.127848
0.559279
0.568596
0.111176
0.562488
0.16333
0.0398211
0.525794
0.301501
-0.29366
0.0295409
-0.735302
0.148525
0.384846
0.597856
0.522837
0.205347
0.508831
0.40475
0.439909
0.0755234
0.546543
0.547579
0.142335
0.568496
-0.40676
0.556592
0.18894
0.522492
0.435396
0.187658
0.601988
0.530005
0.516528
0.521868
0.607713
0.528545
0.500488
0.348287
0.515771
0.377787
0.297758
-0.63
0.592802
-0.878391
-3.11179
0.585575
0.742893
0.498
0.51414
0.516548
0.442572
0.493428
-4.16546
-0.817102
0.472965
0.677526
-0.397398
0.806284
0.585858
0.601946
0.573128
0.637322
0.606797
0.437562
-0.735066
0.454299
0.508698
0.281368
0.76397
0.516077
0.296354
0.279049
-6.38194
-5.03176
0.793713
0.515991
-0.893317
0.486365
0.394449
0.0404791
0.389332
0.402856
0.525274
0.3878
0.46889
0.745367
-4.09985
0.347997
0.657748
0.197214
0.403249
0.398573
0.162097
-0.189216
0.402737
0.436086
0.706701
0.396783
0.216421
0.542461
0.674218
0.266759
-0.516098
-2.65828
0.687385
0.694268
-5.23313
0.593684
0.555984
-3.24482
0.594306
0.500905
0.600456
0.437463
-7.17072
0.572578
0.589584
-0.144209
0.600512
-7.6181
0.596381
-5.33777
0.598771
0.381582
-4.04569
0.993942
0.382556
-7.76351
0.682806
0.310899
0.167492
0.580278
0.490683
0.588776
-8.16073
0.273451
0.543384
0.858054
0.584859
0.876207
-7.27247
0.0148158
0.951846
-5.40746
0.589667
-3.11966
0.536975
0.58819
0.542364
0.521322
0.501943
0.460974
0.527221
0.524896
0.217563
-0.429941
-0.597999
-1.52686
0.524226
0.533805
0.564926
0.525239
0.522295
0.54282
-2.35135
1.39673
0.531059
0.537781
0.500156
0.271301
0.468479
0.583715
0.358721
0.525459
0.587299
0.585745
-0.532374
-5.99136
0.340336
-2.49717
-0.135558
0.586526
0.750997
-0.443336
0.589447
0.585811
0.549526
-1.63114
-2.00198
-0.500832
0.149555
0.588711
0.583541
-0.902961
0.587749
-0.330445
0.477966
0.586343
0.342848
0.586828
-0.268525
0.578276
0.305873
1.84612
-0.210618
0.326409
-0.463504
0.10312
0.582288
0.381568
0.529178
0.591922
0.586575
0.527797
0.508192
0.551025
0.423973
0.577309
0.538835
-4.97475
-0.298636
0.376912
0.52774
0.536169
-1.87661
-0.47084
0.533631
0.353246
0.566811
0.590961
-1.48211
-4.23627
-1.45873
-0.310577
0.568989
1.55137
-3.17695
-0.550244
0.517521
-1.30914
-1.6249
-1.08595
-1.09544
0.376936
-0.850795
-1.22077
0.182844
-2.03477
-0.497622
-1.95934
-0.533814
0.71801
-0.352098
0.463124
-1.63396
-1.44099
-0.448776
0.514908
0.504064
0.710268
0.585243
0.547275
-0.708977
0.449949
-0.43025
0.468914
0.586076
0.592762
0.582717
0.584176
0.7598
0.0278306
-6.02829
-0.0469178
-0.0875022
0.580934
-0.323057
0.280663
0.410527
0.52892
0.4399
0.592619
0.585786
0.404085
0.581731
0.267776
0.583005
0.584852
0.256675
-0.857539
0.714743
0.749921
-6.3219
0.139612
0.520898
-0.554555
0.584751
0.586875
0.528809
0.587692
0.545833
0.591848
-1.31963
-0.0240889
0.149878
-0.210213
-5.88846
0.651573
0.588046
-0.701195
0.637781
0.363376
1.0286
0.32419
0.295521
0.34414
0.161098
0.407271
-0.67514
0.527638
0.461805
0.591458
0.577745
-0.208248
0.530251
-0.00688215
0.370557
0.514135
0.46959
0.565477
0.061407
-6.81524
-0.0720206
-3.73268
0.102629
0.573603
-0.624294
0.522523
0.580932
0.383032
-0.924666
0.195398
-1.64267
0.509337
-0.0444751
-0.264375
-2.1381
-1.76487
0.487698
-0.711789
0.169349
0.574695
-8.50345
-0.362133
0.16866
-3.31659
0.571659
0.989248
0.709145
0.453129
-4.62655
0.158836
0.579268
0.50213
0.491442
-0.820718
0.468268
0.519178
0.415981
0.20956
0.468306
0.527126
0.439422
0.547911
-7.40729
0.411823
0.562248
1.02803
1.10447
0.585092
0.183868
-0.108891
-4.81864
-0.23613
-0.207116
-0.601666
0.0495175
1.40165
-0.283936
0.210213
-4.81787
0.528746
0.45702
0.460879
-4.12361
0.161535
0.598665
-0.326625
-0.3721
-0.000153145
-6.15039
0.194653
-0.197753
0.546162
0.522504
0.51761
0.197395
0.586828
0.164785
0.243363
-0.746822
-0.948459
-7.67509
0.244118
-5.31937
0.411731
-0.572647
0.356309
0.0877796
-0.250661
-1.1917
0.39084
0.318646
0.569531
0.522963
0.571262
0.29715
0.65454
0.181949
0.434295
-3.30791
0.279849
0.216352
0.590502
-5.8407
-8.72804
-4.6844
0.59225
-0.264608
-0.656518
0.544418
0.524236
-0.257846
0.292775
0.474321
0.491096
0.488934
0.372943
0.56838
-0.0795042
-0.213816
-0.211292
-0.0805071
0.512375
-3.56925
0.0657411
0.480432
0.212071
0.51474
0.698471
0.122904
0.912193
0.695663
-0.886173
0.378585
0.42816
0.689255
0.461325
0.275954
0.548494
0.73425
0.415153
0.341494
-0.957937
-0.197443
-3.7695
0.404485
0.431586
0.523728
0.432225
0.558666
0.567159
-0.402536
-6.64333
0.570218
0.516118
-5.74673
0.5501
0.50493
0.578251
0.567449
0.390567
-5.29036
-7.6151
-0.422934
-0.788161
0.52406
-2.10263
0.581017
-1.15181
-4.16088
0.566188
-0.59779
0.543057
0.532219
-7.0818
0.414168
0.465621
-4.46824
-1.30925
-6.35325
-5.33547
0.483664
0.293936
0.252184
-2.30194
0.365754
0.477507
-5.27974
-6.20436
-2.21073
-1.12923
0.146783
0.612665
0.0657705
-0.63597
-3.01712
-0.188104
0.793253
-4.81828
0.537071
0.585567
0.337406
-5.88234
0.207023
-0.484974
-0.692251
-0.51249
-5.49939
0.543534
-0.416266
0.533852
-6.33203
0.582479
-0.780371
-0.793134
0.579223
-5.53915
0.584865
-3.67389
-6.1269
0.565327
0.580697
-1.98412
0.582978
0.519647
0.518068
0.580574
-2.00583
0.528894
-6.26427
-7.90733
0.51717
0.547446
-6.5584
0.367156
0.486525
-0.0882414
0.486088
0.486957
0.539252
0.523228
-1.45636
-0.721335
-6.86253
0.519901
0.463568
-3.95708
0.559992
0.553133
-0.297665
0.511641
0.513106
0.191391
0.299418
-1.73816
0.586509
0.555102
0.586066
0.147449
0.39837
0.717445
0.333743
0.196253
0.417827
-0.212665
0.314756
0.274822
0.585797
0.109063
0.490357
-1.24914
-2.95684
0.495303
0.594613
0.545141
0.199243
-5.12906
0.586067
-0.0663181
0.902606
0.578743
0.475334
0.873086
0.529255
0.388681
0.524388
-3.43017
0.52587
0.586246
0.538962
0.490101
0.569929
-1.48494
-0.61766
0.586365
0.585924
-2.0642
0.507174
-0.461181
0.674563
0.508621
-6.89176
-7.87565
-0.990514
0.556175
0.589165
-1.64486
-6.66446
0.501436
-8.34495
0.504192
-3.77385
-4.47411
0.556817
0.841948
-5.4761
-0.495679
-7.23389
-2.66022
0.339694
0.516269
0.527954
0.467524
-2.00842
0.650877
-6.42269
0.473227
0.860593
0.511672
-0.474002
-6.0054
-4.22579
0.515548
0.173845
-0.668009
0.50482
-6.23043
0.474545
0.589787
0.568662
-6.81997
-3.8114
-2.6141
0.533389
0.503549
0.537419
-6.81162
0.436997
-8.66908
0.504858
0.502945
-5.52882
-0.154827
0.592991
0.490071
-6.0348
0.471112
0.471928
-2.59144
-8.55149
0.195615
-0.523864
0.592989
-3.72798
-4.17428
-0.57652
-0.527174
0.33458
-1.27591
0.422247
-1.5995
-3.03055
1.51457
1.05793
-2.25619
-0.0526028
-3.18008
0.591859
3.02324
-5.23841
-0.515342
0.592108
0.0613003
-2.48398
0.586698
-2.6491
-2.51399
0.589069
2.46864
0.591844
-8.5051
-0.377187
-0.0152954
-3.74086
-4.17918
0.588827
0.592213
0.484326
0.486161
-4.1343
0.556281
-1.56076
0.413262
0.522054
0.523718
0.521794
0.522845
0.531462
0.593359
0.0943833
0.54639
-7.55473
0.522402
-10.2737
0.523514
0.0108108
0.552125
0.347248
-0.680146
0.519678
0.519405
0.538433
0.386595
0.807335
2.54065
3.05508
-0.71895
0.091708
0.257767
0.26019
0.568074
0.42293
0.253639
0.283959
0.47953
0.184533
0.201656
3.18718
0.271531
0.280126
0.34583
0.326043
0.424614
0.305931
-2.69353
0.44701
0.171351
2.9817
0.669933
0.0873243
0.430755
0.806754
-0.108909
-0.210355
0.530734
0.295176
0.364999
0.377184
0.355215
0.355858
0.508678
-0.681094
0.542153
0.34961
0.55692
0.412194
-0.210432
0.579604
-1.4775
0.341828
-0.649741
0.58193
0.571104
-0.606517
0.644892
0.464403
0.54182
0.567436
0.540508
-6.49865
-1.07727
0.521956
-0.0313979
0.603542
0.494456
0.706702
0.837955
-1.90266
-0.0566357
0.325261
0.46398
-2.97835
0.552428
0.635717
0.62253
0.0577141
0.486962
0.428885
0.575607
0.103183
0.528225
0.581418
0.0649022
-1.30903
0.335267
0.101221
0.219605
0.0529024
0.325647
-0.657586
0.579129
0.0137954
0.106898
-0.136486
0.570734
0.359528
0.304053
0.526051
0.235693
0.367734
0.520212
-0.113136
0.529344
0.574319
0.56966
0.567509
0.409566
0.512213
0.27144
0.0556129
-3.50492
0.0770943
-3.32029
0.231973
0.532604
0.359327
0.349024
-6.57161
0.360399
0.591903
-0.657764
0.359943
-5.80131
0.535095
0.361042
0.186665
-2.54363
0.478097
-2.24505
0.398708
0.329084
-2.92717
-0.200387
0.545558
-1.57608
0.560194
-2.78131
-1.89401
0.179559
0.38097
-3.74166
-0.248442
0.173045
-0.295801
-3.52051
0.713907
0.569223
-0.326213
0.684927
0.2315
0.437648
0.48566
-2.25262
0.303298
0.349646
0.373207
0.572108
0.569294
0.311793
0.248319
0.574655
0.555907
0.499238
0.675108
0.519509
0.450201
0.557271
0.271327
0.504737
0.426709
0.489349
0.553657
0.505533
0.556648
0.553542
0.555325
0.339435
0.577457
0.535973
-0.0451132
0.577765
0.374679
0.37289
0.57751
0.582724
0.461974
0.579704
0.565149
0.511354
0.51049
0.578557
0.117114
0.0634204
0.287331
0.522795
0.483458
0.512122
0.22049
0.42268
0.521149
0.578409
0.6479
0.517787
0.582727
0.0737358
0.573328
-2.4926
-0.125328
0.529922
0.514096
0.742517
-3.32528
-4.89351
0.565571
0.582192
0.512682
0.580328
0.341572
0.404155
0.582987
0.525126
0.589924
-4.38932
0.586424
0.525929
0.526943
-9.53267
0.172156
0.564667
-9.06799
0.733628
0.586553
0.263038
0.409211
0.042323
0.362287
-0.469028
0.344561
0.527093
-1.34294
-8.93883
0.511081
0.523872
-8.86274
0.31852
-9.29303
0.510913
0.623795
0.530448
0.480585
-6.2686
0.516016
-6.53259
0.434587
0.543523
-5.49299
0.605009
0.534309
0.53219
-6.61862
0.453824
0.188445
-5.29868
0.47303
-0.101116
-6.64938
0.293515
0.231634
0.497107
0.205509
-0.186827
0.266797
-4.70003
0.500284
0.58846
0.249228
0.301635
0.247795
-0.126969
0.549853
0.525163
0.513147
0.408899
0.550811
0.301313
0.295845
0.590054
0.866688
0.135696
0.0233088
-2.24915
0.529776
-0.490788
0.233423
-1.48081
0.579531
0.412176
-4.10233
0.499078
-0.663055
0.186724
0.494993
0.579176
0.205558
0.5277
0.527754
0.639519
0.527562
-0.530462
-1.83786
0.156516
-5.09356
0.673318
0.535976
0.626173
-2.42008
0.526166
0.59024
0.34309
1.10872
0.496691
0.47911
0.503097
-0.111259
-1.07282
-0.203561
0.396863
1.16976
0.609872
0.494716
0.873961
-0.531263
0.208184
0.773703
0.304352
-0.15495
0.031432
0.592016
1.26018
0.451994
0.804905
0.0401073
-0.688797
0.486561
0.530004
0.418784
0.268769
0.60494
0.412149
0.0712811
-3.37009
0.304775
0.508285
-7.08433
0.312718
0.564868
0.690593
0.530051
-7.33269
0.586939
-0.190734
0.668471
-2.52045
0.566298
0.579375
0.587319
-6.71342
0.69869
-0.290242
0.674792
-6.4911
-6.56364
0.405368
0.506915
-0.0319578
-0.609421
0.586889
1.34868
-3.21633
0.440643
0.262914
0.548229
0.297933
0.376419
0.562037
0.51066
0.540734
0.473414
0.515003
0.58017
-5.5922
0.459693
0.460445
0.546261
0.211447
0.250595
0.363406
-0.721619
0.512721
0.504676
0.326083
0.58165
0.455727
0.539563
0.44767
0.512431
0.666598
0.732341
-6.20858
0.514713
-0.0112072
0.611444
-7.87118
0.565304
0.622184
0.486122
0.563694
0.473866
0.82625
0.541823
0.344411
0.561574
0.548408
0.467772
0.380275
0.561723
0.489196
0.390824
0.590532
0.205899
0.963307
0.560111
0.685594
0.559888
0.368641
0.286287
0.589685
0.434964
-6.39722
0.569126
0.631702
0.583385
0.599969
0.620187
0.580198
0.582027
-8.70292
-8.29836
0.540116
-0.32731
0.590642
0.457363
0.623142
0.293334
0.589745
0.443286
0.709772
0.518376
0.59016
-1.64041
0.624706
-1.07274
-4.89999
0.515457
0.391384
0.631267
-5.88927
0.590812
0.54501
0.584974
0.582124
0.585439
0.585622
0.5862
0.544293
0.626456
0.538012
0.651296
1.10502
1.48022
0.535199
-0.672466
0.673006
0.305037
-1.47773
-3.18543
0.280625
0.634599
-0.830929
0.304353
0.4204
0.223264
0.553828
-1.06904
0.35853
0.35823
0.381662
0.533124
0.358341
0.534935
0.866993
-2.95532
0.175801
0.537477
0.406747
1.17583
0.358033
0.331293
0.545153
-3.02427
1.71426
0.582077
0.602732
0.363783
0.491515
-1.87057
-4.61285
0.44173
0.112444
0.923331
1.10457
0.565902
0.501619
-5.64408
0.582951
0.589404
0.533938
0.586028
1.09442
0.605452
0.517299
0.692726
0.587168
0.49985
0.567715
0.535032
-1.77501
-1.34803
0.580245
0.217354
0.536661
0.537987
0.588895
-6.11243
-2.4951
-7.86967
0.564927
0.584616
0.322927
0.520103
1.01861
0.867875
-0.0706948
0.547002
0.534856
0.616413
-6.47241
-8.63162
0.981424
0.537258
-0.448851
-0.676837
1.18838
-0.44152
-1.09984
-2.26153
-5.73483
-0.483166
0.542881
0.58328
0.544535
0.587165
0.591403
0.584583
0.865005
-7.02897
-0.658144
-0.176602
-0.951123
0.594217
-2.89775
-2.76691
-0.0708291
0.815925
-1.11411
0.823222
1.20165
0.116896
0.473434
0.350325
-0.783944
0.533368
0.571262
-8.95893
0.492665
0.455425
-0.555692
-6.61267
0.590714
0.521372
0.285089
0.518904
0.494295
0.453441
0.59236
-0.188613
-5.59398
0.583115
0.467472
0.749294
-1.06394
0.390331
0.449682
0.46958
0.563389
-0.76095
0.585582
0.537087
0.21023
0.467935
0.572736
0.516272
0.54091
-5.86807
0.958773
0.536225
0.585458
0.535698
0.556449
0.600047
1.00015
0.511403
0.466201
0.446234
0.542778
0.452971
0.514498
0.590911
0.519117
0.492012
0.570373
0.524684
0.634735
0.536388
0.52998
-4.1306
0.533963
-0.698301
0.635701
0.571052
0.560336
0.585894
0.587472
0.642793
1.00915
-0.374974
-3.21998
-0.581278
0.654296
0.0315884
1.13506
-0.338622
-0.486408
0.892321
-1.686
0.518618
0.652299
0.589373
0.513984
0.484739
0.587576
0.402939
-0.45562
0.542367
-5.93447
0.337658
0.426802
0.642376
0.547015
0.492775
0.555259
-1.23145
-8.9069
-0.673217
0.523022
0.550733
0.453786
0.0411639
0.512084
0.698239
1.15362
0.654095
1.09134
0.590128
0.59138
0.472244
0.942028
1.47817
1.1171
0.509724
0.886339
0.132434
-8.94847
-2.19414
0.663938
0.525315
0.472975
0.562796
0.553217
0.695441
-6.95822
0.69016
-1.14099
-6.817
-6.73894
0.545551
-6.91894
-0.203958
0.576626
0.57492
0.579781
0.258143
-0.579522
-0.521739
0.589965
0.207554
-5.56293
0.536411
-8.47796
0.404683
-0.058369
-6.45066
0.594046
0.105062
-6.81331
0.670406
0.589832
0.56825
0.318061
0.558912
0.480952
-6.21786
0.538692
0.364043
0.289024
0.520365
-6.66378
0.575309
0.504513
-0.654476
-0.147544
-0.177229
-1.34389
-0.136833
-0.487964
-0.361054
0.342666
0.591167
-0.190133
1.04744
-0.254617
-0.0811592
0.787009
0.366019
0.30464
0.220079
-7.18228
0.587833
0.433911
-0.0772273
0.594668
-5.9967
0.594526
0.553633
0.590483
-0.0256341
0.397355
-1.5798
0.314202
0.58478
0.417923
-0.151268
-0.147922
0.759607
0.540741
-0.360419
-6.38401
-6.83548
0.482004
-3.79112
1.93582
-0.561068
-6.76857
0.589844
-4.14417
0.522302
0.525666
0.592908
0.545478
0.548502
0.302276
0.527129
-6.18548
0.526023
0.495675
0.564022
0.555865
0.573544
0.593351
0.587263
0.663141
0.861458
0.492938
0.530122
-5.16738
0.484809
-5.91348
0.408964
0.513929
-4.50823
0.599656
0.522585
0.514438
-5.6922
0.241663
0.546311
-2.5916
0.565353
0.562971
0.5492
-2.30243
0.547267
0.514329
0.590691
0.525608
0.531982
0.563345
0.616005
-0.0810617
0.55974
0.580928
0.569339
-0.238741
0.569021
0.720585
0.322051
0.121614
0.57207
0.573183
0.567415
0.106108
0.41385
0.352785
0.589746
0.546947
0.475396
0.588615
-8.38058
0.555696
0.55143
0.589524
0.568261
0.551319
0.545014
0.54694
0.548477
0.496604
0.415912
0.561929
0.463354
0.536129
0.592824
0.543784
0.513961
0.459858
-0.0399518
0.582217
0.498111
0.508839
0.489869
0.556551
0.483244
-7.8527
0.372836
0.595495
0.600549
0.564457
0.577099
0.589847
0.448931
-0.692929
0.713145
0.297543
0.582489
0.526416
0.587507
0.516033
-6.86169
0.453728
0.512819
-6.9286
0.480608
0.185814
0.541678
0.563084
0.543009
0.579146
-0.161237
0.545065
0.519118
0.558127
-7.13041
-5.82632
-6.54514
0.480435
0.567697
0.794278
0.262527
0.570852
0.523676
-7.25386
0.574237
0.518996
0.575821
0.349539
-0.384029
0.539897
0.571786
0.538544
0.460999
0.462554
0.611995
-0.173142
0.423198
-0.78027
-1.29143
0.403975
-0.17908
0.12496
0.573492
0.424735
0.32492
0.343456
-2.55509
0.40714
0.515341
0.369903
-0.37289
-0.215138
-1.42508
0.479867
0.397472
0.536243
0.276407
0.366197
0.399814
0.313159
0.317082
0.519751
0.29998
0.430972
1.06185
1.13766
0.542679
-1.95027
-0.796853
-1.1094
0.450505
0.320198
-0.665106
0.368518
0.314452
0.579523
-2.36407
-1.07436
-1.6143
0.579297
-1.9049
0.538176
0.141096
0.521601
0.0228571
0.588935
-6.99081
-0.906697
0.535587
0.536601
-1.08787
0.481781
0.535653
-0.312848
0.32454
0.536232
-5.59897
0.540912
0.156768
0.327818
-0.876566
0.063319
0.579358
0.0255481
0.542025
0.470208
0.0766051
-5.8284
0.55496
1.02858
0.00944164
0.58048
-3.10101
0.503909
0.0602085
0.529264
1.31372
0.410691
-0.709429
-0.107261
-2.23722
0.469624
-7.29235
-0.362826
0.0257202
0.508563
-1.28243
-0.464525
0.553577
-2.95664
-0.508595
0.250687
0.619775
0.469626
-4.17829
0.575654
0.58058
0.582551
0.516757
-0.107237
0.51738
-1.62026
0.464545
0.253417
0.516673
0.529871
0.522609
0.51783
0.367956
0.512521
0.549408
0.299019
1.07002
-0.662077
-3.24953
-1.81421
-1.43934
-1.27137
0.412859
0.523499
0.527209
-3.78484
1.2048
-6.61353
-0.468245
0.316134
-1.01332
-1.70601
-8.13796
-6.36989
0.525798
-6.34548
-7.58178
-0.590828
0.507134
-0.667887
-3.8726
-4.39415
-6.18717
-1.87929
-0.517335
-0.343804
0.251165
-0.726412
0.232725
-3.1678
0.645808
-6.70055
-0.219371
0.4186
0.267364
0.221906
-2.60805
0.471733
0.707421
0.564756
0.432402
0.523157
0.625455
0.534934
0.442594
0.439839
-1.19321
0.550727
-3.57937
0.676926
0.450105
0.551051
-0.0851021
0.474091
-6.80343
-6.20778
-0.845765
0.478426
0.542659
0.552747
-4.89997
0.538899
0.536327
0.278092
0.144825
0.495004
-0.141066
-2.82586
0.459141
-0.790942
-6.46895
0.591262
0.35915
1.6847
0.366281
0.515874
-6.47832
0.4418
0.448059
0.607357
-1.18527
-7.3282
-3.61082
0.545721
0.380682
0.590054
-3.28047
2.56664
0.244736
-4.4909
0.563018
0.568949
0.563313
0.227194
0.513631
-0.196236
-3.15956
0.544878
-6.11231
0.573841
0.571623
-0.230809
0.532698
0.530006
0.530459
-5.41292
-3.03987
0.568441
0.555749
0.237663
-0.421443
0.521727
0.343403
-7.984
0.359272
0.385156
0.48592
0.5692
0.585029
0.541934
0.585824
0.585859
0.189884
0.585255
0.497501
-0.869998
0.511634
-2.27512
6.14971
-0.933588
-1.02435
0.556013
-2.94114
0.11459
0.585788
-0.922303
-3.17799
-5.89288
0.0847557
-0.434328
0.135179
0.500674
0.261341
0.0568847
-0.745695
-0.0996227
0.218326
0.398136
2.86415
0.585574
0.585478