/*--------------------------------*- C++ -*----------------------------------*\
| =========                 |                                                 |
| \\      /  F ield         | OpenFOAM: The Open Source CFD Toolbox           |
|  \\    /   O peration     | Version:  v2012                                 |
|   \\  /    A nd           | Website:  www.openfoam.com                      |
|    \\/     M anipulation  |                                                 |
\*---------------------------------------------------------------------------*/
FoamFile
{
    version     2.0;
    format      ascii;
    class       surfaceScalarField;
    location    "5";
    object      phi;
}
// * * * * * * * * * * * * * * * * * * * * * * * * * * * * * * * * * * * * * //

dimensions      [1 0 -1 0 0 0 0];
oriented        oriented;


internalField   nonuniform List<scalar> 
210647
(
0.00384357
-0.00363464
-0.0036028
0.0033943
0.00019174
0.000701551
0.00336435
-0.00425719
0.00158077
-0.00216375
0.000384035
0.000199122
-0.0049264
0.00201965
0.00196625
0.000940877
-0.000916114
0.00252719
-0.000772626
-0.000837913
6.80992e-06
9.90569e-05
-5.65165e-06
-0.00010006
-0.0184645
0.00287177
0.0118225
0.00389725
3.67422e-06
-0.000195017
0.000191645
0.00175704
0.00313614
0.00232845
-0.00722122
-0.000368609
0.00293104
-0.00196906
-0.000592966
0.00119983
0.000427313
0.00131335
-0.00293983
0.000801728
0.00228714
-0.00120707
-0.00188114
-0.00202618
0.00220035
-0.00141609
0.00124218
-0.000419916
0.000365712
-0.00032118
0.000375715
-0.00174038
0.000550254
-0.000829737
0.00202031
-0.00259829
0.00227299
-0.000137997
0.000463072
-0.00248244
0.00283142
0.000274246
-0.000622996
0.000733554
-0.000934812
0.00110674
-0.000905054
0.00466096
0.000631335
-0.0027551
-0.00253694
-0.00145462
-0.00206854
-0.000992647
0.00451623
4.3409e-08
0.000993606
-0.000993392
0.00193707
0.00560865
-0.00413483
-0.00341063
-0.00118509
0.000220698
0.00146322
-0.000498571
0.00237575
-0.00244946
-0.00227308
0.00234743
-0.00224101
0.0026449
-0.00136945
0.000965944
0.000185622
-0.000922391
0.00117397
-0.000436644
0.00287298
0.00357807
-0.00166493
-0.00478593
0.00486209
0.000586026
-0.00087096
-0.00457666
-0.00559661
0.0027684
-0.000818104
0.00364705
0.00105999
-2.44524e-05
-0.00103284
-2.51716e-06
-0.00485061
0.00354881
-0.00185157
0.00315382
-0.000856247
6.95494e-05
0.000536449
0.000250853
-0.00119913
0.00407231
-0.000789866
-0.00542923
0.00613485
8.46025e-05
-0.00540418
-0.00235042
0.00716612
0.000588648
-0.000555513
0.000271097
0.00251723
-0.0022322
0.00354753
-0.000692742
-0.000315113
-0.00253945
-0.000490125
0.00318054
-0.00268981
0.00269412
0.0143073
-0.00458231
-0.0117656
0.0090104
-0.00360117
-0.00937986
0.00398624
0.00251848
0.00420136
-0.00514697
-0.00157216
-0.00113396
-0.00124733
-0.00123497
0.00361694
-0.000241459
-1.12058e-06
0.000243011
-0.00100975
-0.00373297
0.00474305
0.00159579
-0.00192228
0.00051312
-0.000186635
-0.00675879
-0.00160898
-0.00252327
0.0109041
0.00234861
0.00277945
-0.00856342
0.00589429
0.00285228
-0.00295748
-0.00139189
0.00149807
-0.00196661
0.000269488
-0.00551186
0.00720937
-0.00312262
0.00452102
-0.00275063
0.00135259
0.00834243
-0.00364881
-0.00596743
0.00127622
-0.00146457
-0.000521947
-0.00161026
0.00359723
-0.00158665
0.00257428
-0.001085
9.77025e-05
0.000508834
0.000767387
0.000603385
-0.00187901
0.00210939
0.00103669
0.000104787
-0.00325014
-0.00097356
0.00466881
-0.00142744
-0.00226759
-0.0010929
0.000606173
-0.00050044
0.000987603
0.00181647
0.000448651
-0.00244972
0.000184863
0.00172835
-0.00269664
-8.6386e-05
0.00105531
0.00202997
-0.00275571
-0.000378772
0.00110498
-9.36936e-07
0.000382195
-0.00389916
0.00351831
-0.000313656
0.0014307
-0.00272841
0.00161189
-0.00081127
-0.000147075
-0.000169399
0.00112813
0.000444432
0.00396126
-0.00142585
-0.00297953
-0.00252175
0.00344292
0.000447026
-0.00136734
-0.00218388
0.00028898
0.00189511
-0.00352892
0.00251013
0.000700918
0.00031842
0.00176003
-0.00141437
-0.00137723
0.00103228
-0.00324905
-0.000959925
0.00659605
-0.00245562
-9.15177e-05
-0.00274211
0.000247742
0.00258642
-0.00218337
0.000538026
0.00258011
-0.00093441
0.00217704
-0.000939404
0.000815447
-0.00205253
0.000418207
-0.00198485
-0.000616291
-0.0010362
0.00346589
0.00155066
-0.0039799
0.00373551
-0.00253446
-0.00145231
0.000251746
-0.000835016
2.40804e-05
-0.0063102
0.00586119
-0.000665385
0.00111488
0.00380477
-0.00592989
0.0024671
-0.000341708
-0.000135575
-0.004148
0.000190748
0.00409319
-0.000420203
-0.00221436
0.000174838
0.00246018
0.00135594
-0.00150034
0.000289614
-0.000144875
0.00134136
0.00325137
-0.00259648
-0.00199598
5.02855e-05
-0.00155228
0.00150235
-0.00110303
0.000715608
-0.000718153
0.00110628
-2.40345e-05
0.000266526
-0.0004325
0.000190413
-0.00202049
-0.00128498
0.00360876
-0.000302541
-4.32819e-05
-0.00144072
2.21284e-05
0.00146226
-0.000249608
-0.000134542
0.00145539
-0.00107082
0.00275064
0.00222412
-0.00225024
-0.00272401
-0.00241971
0.000890493
0.00176908
-0.000239482
0.00114531
0.00154479
0.000621679
-0.00331156
0.000824521
-0.000311069
-0.00293263
-0.000649366
0.000866072
-0.000216496
0.00271583
-0.00263726
-0.00141186
0.00133378
-0.000547579
-0.000166052
0.00131298
-0.000598852
0.00166893
0.000825678
-0.00134908
0.00116344
-1.16726e-06
0.000459797
-0.00162184
-0.00165221
0.0015327
-0.000438516
0.000558215
0.000344164
0.00118181
-0.00158309
5.73751e-05
0.00142309
-0.00268916
-0.000435707
0.00170228
-2.0647e-05
-0.00227913
0.00780903
-0.0055087
0.00290753
-0.00194551
-0.00124612
0.000284966
-0.000300428
0.00162441
0.000250137
-0.00157348
0.00112952
-0.00185793
0.000810966
-8.22744e-05
0.00354085
0.00226584
0.000495334
0.000556889
-0.00331733
-0.00546559
-0.0143575
0.00622469
0.0135986
0.00111213
0.00225237
-0.00266637
-0.000697729
-0.00485143
-0.00499875
0.00251262
0.00777786
0.00348762
-0.00236162
0.00284779
-0.00397357
0.0017544
0.00267731
0.00161278
-0.00136918
-0.000242854
-0.00757533
0.00669492
0.00356698
-0.00268243
0.00205911
-0.000443205
0.00113352
-0.00274886
-0.00090517
-0.00908684
0.00382404
0.00620065
0.00163566
-0.000826003
0.000192004
-0.00100131
0.0011403
0.00112728
-0.00196479
-0.000302475
0.00682703
-0.0018877
-0.00189509
-0.00304351
0.00111572
0.00337419
-0.00294477
-0.000679726
4.92624e-05
-0.000225657
0.000856581
0.00202692
-0.00461577
0.00128388
0.00130523
-0.0135187
0.0131118
-0.0104033
0.0103175
0.000734069
0.00044154
6.70659e-05
-0.00124252
-0.000310999
-0.00182392
0.00213534
0.00101601
-0.00117942
-0.00312142
0.0032849
0.00262454
0.00274303
-0.00395384
-0.00141323
0.00307784
0.000153908
-0.00263958
-0.000591773
-0.00342165
0.00257352
0.00287523
-0.008717
-0.00384106
0.00594613
0.00661225
-0.000402164
-0.000109214
-0.000866424
0.00137813
-0.000283701
-0.00442495
-0.00400798
-0.00358394
-0.00104564
0.00415046
0.000479819
0.00423111
0.0149735
-0.0126036
-0.00659395
0.00403357
-0.00128421
0.000319379
-0.00306825
0.000306684
-0.00210168
-0.00024685
0.00204214
-0.000274487
-0.00517008
0.00202319
-0.00107463
-0.00186564
-0.000495369
0.00343601
-0.00202852
0.000208959
0.00199629
-0.000176358
-9.89923e-05
-0.0001438
0.000559843
-0.000316635
-0.00178694
-0.00123468
0.000582719
0.00243922
0.00139172
7.27725e-05
-0.00190796
0.000443699
-0.000946179
0.00075392
0.0022006
-0.00200875
0.00902573
-0.00167952
-0.0041938
-0.00315214
0.00398667
0.00119832
0.00268323
-0.000544637
0.000492605
-0.00263065
0.00148169
-0.00050563
-0.00136888
0.000393151
-0.00723191
0.000104337
0.00710755
-0.00195592
0.000903454
0.00994377
-0.016428
-0.00607691
0.0125637
0.0223881
-0.00038461
-0.0120579
0.00050411
0.000402751
-0.000841872
-6.46042e-05
-0.000239751
-0.00024415
2.29616e-05
0.000461085
-0.0149384
0.00338619
-0.00972939
0.0212894
-0.00322881
0.000895032
-0.00109833
0.00343258
-0.00393615
0.00251334
-0.000647141
0.00207097
0.000759236
-0.000885405
0.00436712
-0.0042401
0.00943126
-0.012736
-0.00342796
0.00673275
-0.0078646
-0.00755261
0.0108865
0.00453092
0.00112793
-0.00332089
-0.00216876
0.00436212
-0.013051
0.0205072
0.0044307
0.00272166
-0.0135243
-0.000196556
-0.000425618
-0.00183319
0.00245588
-0.000156277
0.00243881
-0.00223629
-4.57655e-05
0.000452763
-0.000167758
0.000602411
-0.000886977
0.00216053
0.00472679
6.97482e-05
-0.0069539
-0.000586993
0.000713661
-4.42263e-05
-8.20067e-05
0.000598032
-0.000668548
7.08566e-05
-0.00023666
0.00281708
0.000432044
-0.00337751
0.000129184
-0.00160036
0.0014874
-0.0033345
0.00344791
-0.00308138
0.00235634
0.000987749
-0.000262046
-0.0020447
0.00526734
0.00182954
-0.00505181
-0.00187528
-0.00202697
0.00228062
0.00162202
0.000313631
0.000920517
0.00326922
-0.00450298
0.00304371
9.32686e-05
-0.00193672
-0.00119977
0.00331868
0.00296471
-0.00735233
0.00107263
-0.000741009
-9.03396e-05
0.000163217
0.000824403
0.00323652
-0.0019767
-0.00208357
0.00258331
-0.000509036
-0.00185529
-0.000218693
-0.000241411
0.000285428
-0.00192531
0.00188164
0.000566508
-0.0033974
0.000830956
0.0020002
0.00982654
-0.00375101
-0.00345843
-0.00261697
-0.000301389
0.000405013
-0.000231863
0.000128262
-0.00128291
0.00169283
-9.01255e-05
-0.000319065
-0.000469283
-0.00170978
-0.00103165
0.00321132
0.000566943
-0.0048811
0.00688566
-0.00257134
-0.000527122
0.0018161
-3.73778e-05
-0.00125106
-0.00120176
-0.000632221
-0.000342966
0.0021775
-0.000176125
-0.0002288
0.000103566
-0.00135792
0.00224618
0.000454505
-0.00134218
0.00219801
0.00602702
-0.00784942
-0.000375399
0.00223665
-0.0017457
-0.00070284
0.000212297
-0.00552961
0.00422938
-0.00188779
0.00318965
-0.00213433
0.00248964
0.00146737
-0.00182202
0.00196128
0.00194722
-0.00315378
-0.000754354
0.000468819
0.00467485
0.00141577
-0.00274432
0.000246666
0.00108251
-0.000228173
-0.00341994
0.000299365
0.00334945
-5.7771e-06
-6.60864e-05
0.000476917
-0.000616459
-0.000475266
0.00111893
-2.6612e-05
-0.0075787
0.000606827
0.000618393
0.00635965
-3.15584e-05
-0.00105557
0.00108739
-0.00424411
-0.00857422
-5.38911e-05
0.00331406
-0.00692405
0.00254095
0.00109417
0.0018492
-0.00671186
0.00486349
-0.000291023
0.000278221
-0.00296237
0.00297554
0.00894488
-0.00799176
0.0029354
-0.00378441
0.00158963
0.00163979
-0.00358344
0.000354481
0.00425784
-0.00242527
0.00169292
-0.00354802
0.00139807
-0.00294923
0.00253494
-0.000985433
-0.00220216
-0.000260259
0.00246288
-0.00348749
0.002504
0.00430593
0.00652292
-0.00919569
0.00513377
-0.00246954
-0.000264397
0.0110603
-0.0109577
0.00098875
-0.00106236
-0.000448145
0.000521967
-0.000330286
-0.000109393
0.0016113
-0.00117123
0.00312182
-0.000309266
-0.0031141
0.000302023
0.0106235
-0.00515818
-0.0018269
-0.00363834
0.000852921
0.00166034
-0.00475053
0.00223781
-0.00383569
0.00633029
-0.00360244
0.0011082
-0.0198715
0.00222725
0.00185976
0.0157975
0.00945379
-0.00202734
-0.00537793
-0.00204827
0.00360494
0.00189796
-0.00727288
0.0017762
0.00175894
0.00030358
-0.000261408
-0.00180083
0.000437711
-0.000365868
0.000100083
-0.00017163
0.00507513
0.00551959
2.88713e-05
-0.000997735
0.0010255
-0.00330786
0.00328077
-0.00953482
0.00988233
0.0132634
-0.0135854
-0.00105279
0.000398895
0.000452075
0.000202187
-0.000662731
-0.000891904
0.00162104
-0.00302638
0.00121656
0.000197878
0.00161256
-0.00030294
-0.000573627
0.000953897
-0.00207685
0.00169691
0.00225072
-0.000331843
-0.00262966
0.000711134
0.000464305
-0.000905518
0.000441383
0.000550076
-0.00106385
-0.00603265
0.00654674
-0.000826393
0.0032885
-0.00250166
3.98228e-05
0.0169258
-0.00309364
-0.0107543
-0.00311968
0.00587084
0.00485932
-0.0115217
0.00079158
-0.000695555
0.000512043
0.000183647
0.000918037
-0.00109296
-0.00350757
0.0036831
-3.11385e-06
3.22415e-05
-2.89651e-05
0.00842106
0.00688109
0.0148725
-0.00148922
-0.00422153
-0.00916158
-0.000601526
0.000225747
-0.00264748
0.00302288
0.00279084
-0.00228818
-0.0130853
0.0126375
0.0248428
0.0165067
-0.0266787
-0.0158137
0.0109538
-0.00458533
0.00930199
-0.0156703
0.00187445
-0.00401982
0.00506972
-0.00292391
0.00136345
6.48361e-05
-0.00142801
0.000377003
-0.00121537
-0.00466079
0.00549948
-0.00341427
-0.00247591
0.00365491
0.00223566
-0.00280939
0.00410307
0.000363041
-0.00165608
-0.00136884
0.000925405
-0.0123582
0.0128018
0.0122158
0.00359731
0.0114817
-0.000111591
-0.0127389
-0.00173131
7.55934e-05
-0.000433851
0.00209
-0.00232968
0.00214727
0.0049154
-0.00473254
1.77322e-05
6.31968e-05
-5.73641e-05
-2.33395e-05
-0.00328292
0.00288387
0.00111195
-0.000712425
0.00148531
-0.00252113
-0.00227592
-0.00216925
0.0012319
0.00321382
-0.00181677
-0.000928478
-0.000404147
0.0031495
0.00549055
-0.00104519
-0.00180606
-0.0026392
0.00200598
-0.000822871
-0.00122105
3.85385e-05
-0.00277936
0.00212064
-0.00193864
0.002598
0.00227116
-0.000874324
0.00290763
-0.00430361
1.78862e-05
-0.000101481
0.000101549
-0.00246891
0.000318239
0.00349475
-0.00134361
-7.1784e-05
-0.000285285
0.000107968
0.000249303
-0.00195579
-0.00315352
0.00248486
0.00262467
0.00422833
-0.00656803
-0.00264256
0.00513181
0.00797958
0.000953829
-0.00344301
-0.00548425
0.004556
-0.00101367
0.0176438
-0.0210207
-0.00308059
-5.10838e-05
0.0010091
0.00212302
0.00197495
0.00130908
3.0706e-05
-0.0033143
0.0162905
-0.0328789
0.00095045
0.014773
-0.003104
-0.00100475
0.00140687
0.00270251
-0.0013463
-0.0037146
0.00348119
0.00158023
-0.00140868
0.00409251
0.00177203
-0.00445523
-0.00274214
-0.005681
0.00587521
0.00254269
-0.00574306
0.00879404
-0.00574138
-0.000675651
0.000428813
-0.000250292
0.000497623
-0.00207759
0.000307228
-0.00330968
0.00508044
-0.00131453
0.00261083
0.000892191
-0.0021883
-0.00065571
0.0015357
0.0010288
-0.0019086
-0.00267472
0.00232854
-0.00243038
0.00277711
0.000461788
0.00267954
-0.00371375
0.00057303
-0.000245941
0.00104632
-0.000866741
0.00010296
0.000705212
0.000128975
-0.00104117
0.00020743
-0.0016644
0.00110621
-0.000837935
0.00139643
0.00336679
0.00176294
-0.00780386
-0.00262943
-0.000470262
-5.54525e-05
0.0031557
0.000277222
-0.000890989
0.00239703
-0.00178266
-0.00219179
0.00173542
0.000465327
-8.6626e-06
0.00212387
-0.00103146
0.0038987
-0.00499061
0.000731461
0.000522503
-0.0037254
0.0024719
-0.0109381
0.00571961
0.0052432
0.000138042
-1.19788e-05
3.4077e-05
-0.000160022
-0.00547811
0.0139246
-0.0115316
0.00400913
0.0169621
-0.00153139
-0.00872063
-0.0065943
0.0040506
-0.00315637
-0.00156352
0.000669961
3.67269e-05
0.000101576
0.000786503
-0.00273551
0.00333723
-0.00138773
6.57001e-05
0.0011047
-0.000997484
-0.000172602
0.000417099
-1.3959e-05
-0.000403059
-0.0011996
-0.00156803
0.000461704
0.00230634
0.00117541
-0.00051629
-0.00059316
0.0120342
-0.00991826
-0.00381927
0.00179223
-0.000324499
0.000693959
0.000662015
-0.00103086
-0.00415322
5.30944e-05
0.00112958
0.00297107
-0.000507922
0.000304232
0.00182582
-0.00162189
0.00217712
-0.00163749
-0.000395604
-0.000143557
-0.00258362
0.000313852
0.00276406
-0.000493591
0.0175096
-0.00409301
-0.00292355
-0.0104575
0.000582821
-0.000558525
-0.00174176
-0.00233086
0.00223854
0.00183443
0.0176048
0.00157108
-0.00407396
-0.0161707
0.000878751
-0.00198027
-0.00281903
0.00392129
0.000741878
0.00315367
-0.00204833
-0.00184679
0.000585044
-0.00014907
-0.000170296
0.000221738
0.00202935
-0.00208056
-0.00165702
0.000219012
0.00126791
0.00137044
0.000334983
3.48395e-05
-0.00173994
0.00823781
-0.00529242
0.0155184
-0.0183972
-0.0133852
0.0119148
0.00697027
-0.00548281
-0.0116227
-0.0143357
-0.0143203
0.039805
-0.0032542
0.00278409
-0.000690367
0.00116075
0.00204061
-0.00596403
0.000408307
0.00351566
0.00631142
-0.00208437
-0.00301891
-0.00120762
0.0143161
0.027254
0.00784377
-0.0504267
0.00449529
0.00232803
-0.00393712
-0.00286832
0.000630653
-0.000567297
0.00275211
-0.00281508
0.00563684
-0.00246875
-0.00286503
-0.000102984
0.00210411
-0.00200066
0.000211344
-0.000183361
-0.0026849
0.00265742
0.000142646
-0.00270284
0.000812772
0.00174792
1.17615e-05
0.00409983
-0.000820207
-0.00329082
-0.000417393
-0.00311245
0.00217085
0.00135924
1.30744e-05
0.00326155
0.000248574
-0.0035228
0.00895398
-0.0046504
-0.00430357
0.00456275
0.000660356
-0.00321244
-0.00201038
-0.00133954
0.00387161
-0.00135888
-0.00117254
-6.61095e-05
-0.00109193
-0.000385192
0.00154365
-0.00121789
0.00096613
0.00171542
-0.00146321
-0.00269061
0.00157874
-0.000215423
0.00132766
-0.000197652
0.00185364
0.00093866
-0.00259427
5.9958e-05
0.000376012
-0.000435705
-0.00262447
-0.000135837
6.99874e-05
0.0029646
-0.00155856
0.000950301
-0.00235579
7.0767e-05
-3.76286e-05
-3.28717e-05
0.000315332
-0.000652866
0.0003337
0.00798865
-0.00758502
-0.00156937
0.00180474
0.00291749
-0.000618313
-0.00226095
-3.80315e-05
0.000609857
0.00285153
-0.000379864
-0.00308102
-0.00260764
-0.000543512
0.00124481
0.00190674
-0.000167084
-0.00461175
-0.00249193
0.00727063
0.00196277
-0.000339126
-0.00162322
7.50248e-05
1.77722e-05
-9.26594e-05
-0.00211912
-0.0045797
0.00456332
0.00213582
0.00616339
-0.000833807
-0.000766576
0.00248207
-0.00212704
0.00122394
0.00155976
-0.000562925
-0.00379758
0.00280115
0.000596563
0.00285181
-0.00411488
0.000667128
0.00530976
-0.00391896
-0.00297006
0.00157979
-0.00263031
-0.0012237
0.0035012
0.000353399
-0.00102028
-0.000797863
0.00467859
-0.00286018
-0.000335489
0.0016114
-0.00127543
-0.00567463
0.0161878
0.00386426
-0.0152753
0.00114395
0.000604298
0.000496725
-0.00224482
-0.00164291
0.00147249
-0.00240477
0.00257552
6.57264e-06
0.0027908
-7.27915e-05
-0.00272427
0.0212424
-0.00582457
0.00329295
-0.018508
0.000994226
-0.00397685
-0.00659519
0.00957855
0.0158039
-0.0234479
0.00565657
0.00199445
-0.00077053
0.00267475
-0.000245746
-0.00165793
0.000622569
-0.00366932
0.00581333
-0.00276544
0.00609318
0.00734586
-0.00548329
-0.00794655
-0.00397196
0.00209731
0.00195232
-7.70327e-05
0.0127819
-0.00165894
0.00250767
-0.0136039
-0.00889106
0.0118098
0.00315549
0.00091074
-0.000249139
-0.00784998
0.00718894
0.000350876
-0.00191232
0.000228642
0.00133293
-0.000986166
-0.00158205
0.00151487
0.0010538
-9.78296e-05
-0.000225245
-0.000113671
0.000436911
0.00212429
-0.00145261
0.00043962
-0.00111103
0.0460062
-0.0329645
0.0185332
-0.0306368
-0.00152128
-0.000225492
-0.000950149
0.00269741
0.000970853
-0.000106161
0.0244185
-0.0251598
0.00352839
0.00654275
-0.0100748
0.000301178
-0.000100761
-0.000298054
-0.00810485
0.000954646
0.0106797
0.00027275
-0.00121098
0.00074809
0.000190446
-0.010519
0.00152575
0.00900516
-0.00968661
0.00417116
0.00379751
0.00171894
-0.0111412
0.0166604
-0.0114794
0.00595369
0.000372315
-0.000345419
-0.00290773
0.00288121
0.000173871
0.00192425
-0.00296555
0.000867898
0.00323703
-0.00541082
0.00393119
-0.006924
-0.00278278
2.11542e-05
-0.00675007
0.0127373
0.00298003
-0.00908434
0.0158855
-0.00436658
-0.0250548
0.0136686
0.000203441
-0.000712098
-0.00178023
0.00228938
-0.0050645
0.00531931
0.00397274
-0.00422722
0.00036696
-6.55829e-05
0.000662842
-0.000240612
0.000306309
-0.00072817
-0.000705256
-0.000669937
-0.00037945
0.0017548
-0.00441724
0.00111815
0.00104232
0.00225707
-0.000871988
-0.00609834
0.00701292
0.000205425
-0.00011052
-9.45024e-05
-0.00252589
-0.00113525
1.34335e-05
0.00364799
-0.00639793
0.00637865
-0.00930278
0.0092769
-0.000240336
0.00189208
0.000151866
-0.00180321
0.00129191
4.48269e-06
-0.000296296
-0.000999569
-0.00420014
0.00292265
0.00320483
-0.00192677
0.00075767
-0.022385
0.0185486
0.00395921
0.00556629
0.0179819
-0.0157076
-0.00797567
0.00175112
0.000577453
-0.00511927
0.00289657
-0.000494783
-0.000412745
0.000907936
-0.00111473
-0.0144379
0.0158363
0.00142938
0.00117696
0.000933333
-0.00353921
-0.00736999
0.0100751
0.00490554
-0.00760796
0.000299347
-5.43615e-05
-0.0002447
-0.000482881
0.000874957
-0.0009377
0.000546204
0.00193961
-0.00228625
-0.00365564
0.00400295
-0.000206552
-0.00251663
0.00220967
0.000514171
0.00975506
-0.0107884
0.00244098
-0.00143526
0.0104412
0.00101089
-0.00791398
-0.00353135
-0.000106046
6.63929e-05
-3.19671e-05
-0.00410045
0.000185656
-0.00724433
0.00655099
0.00841339
-0.00848116
-0.00568143
0.0163403
-0.0222219
0.00178765
-0.00336933
1.49126e-06
0.00402519
-0.000657129
0.000559502
0.000670042
0.00162898
-0.00285811
-0.00242891
-0.000299415
0.00271385
1.50119e-05
-0.00375711
0.000123326
0.00227771
0.00135617
0.000553807
0.000957259
-0.00337003
0.00185954
-0.0018155
-0.000138601
0.00195486
0.00139473
-0.000401371
-0.00240629
0.00141326
-0.000959141
0.000536018
-0.000862058
0.00128563
-0.00275926
0.000168564
0.00377065
-0.00117954
-0.00388726
-0.000432671
0.0045963
-0.000275633
-0.000144061
0.000640617
-0.000197201
-0.000299173
0.00626325
-0.00322497
0.00422512
-0.00723356
0.00348632
-0.000530388
0.0012504
-0.00420604
0.00101016
-0.00323996
-0.00112316
0.00335319
0.00313292
-0.000291662
-0.00488596
-0.00236368
-0.0021445
0.00174934
0.000480717
-6.50458e-05
-0.000559505
-0.00139558
0.000216768
0.000721249
0.000457978
-0.001063
0.00148688
8.36259e-07
-0.000424258
0.00117084
-6.12053e-05
-0.00347269
-0.00648773
0.00106011
0.00170555
0.00372273
-0.00191484
0.00164158
-0.00154127
0.00211238
-0.000165698
5.86075e-05
-0.00200476
0.000707899
-0.0015789
0.000547756
0.000323739
-0.000922532
0.000397787
0.000985055
-0.000459856
-0.000290078
-0.00106198
0.00327495
-0.00192203
-0.00175061
-3.64156e-05
0.0014974
0.000289921
0.000642559
0.000417244
0.00236812
-0.00332369
-0.00358478
0.000860552
-0.00209066
0.00481525
0.00314404
-0.00492623
0.00260457
0.00907241
0.00881728
0.00064398
-0.0185253
6.6159e-05
-0.00363129
0.00236161
0.00120345
-0.00167492
0.00294615
0.000127484
-0.0013985
-0.00109489
-0.000459603
0.00155487
0.00609972
0.00441597
-0.00677434
-0.000227115
0.000223396
-0.00167103
0.000287046
-0.000683188
0.00264099
-0.00224457
-0.00233429
-0.000450617
0.00283675
-0.00229329
-1.88524e-05
0.000373239
0.00193949
0.00158401
-0.0018948
-0.00363764
0.00394884
0.00117304
0.000382402
-0.000873985
-0.000681266
0.000627943
0.00147091
-0.0020986
0.00205635
-0.00203855
-1.77115e-05
0.00220536
-0.000526561
-6.86027e-05
-0.00160991
-0.0163604
0.00546128
-0.00971901
0.0199729
-0.00263788
-2.53488e-05
0.00276808
0.00338853
0.00170811
-0.00493722
-0.000158245
0.00222374
0.00161956
-0.00284339
-0.000999512
0.0025624
-0.00462251
0.000890014
0.00117071
-0.000242845
0.00324836
-0.00471669
0.00171175
-0.00071388
-0.00443616
0.00304515
0.00210546
-0.00140796
0.000512872
0.000895161
0.000243019
0.00277786
-0.00273103
-0.000289546
-0.000297875
-0.00327623
0.00331827
0.000256128
-0.0018591
0.00202055
-6.86404e-05
-9.25875e-05
-0.000239937
-0.00259563
0.00373208
-0.000896605
0.00427053
-0.00485613
-0.00376107
0.00434713
0.00134336
-0.0012299
-0.000640075
0.000701817
0.00262878
0.00083309
-0.00416303
0.00199418
3.46698e-05
-0.00202847
0.000564633
-0.00184763
-0.000573476
0.00185672
0.00027913
0.0039724
-0.00288239
-0.00136811
-3.28368e-05
0.000973425
0.000119592
-0.00273556
0.00461629
-0.00328858
-0.000446977
0.000142686
-0.00279198
0.00309689
-0.00161802
-0.00153843
0.00333713
-0.000180445
0.00276759
-0.00298575
0.00296562
-0.00274697
0.000810631
-0.0015179
0.000707441
-0.00354321
0.000401525
0.0028883
0.000253815
0.00160781
0.000669858
-0.000228227
-0.0020492
-0.00272456
-0.000737367
0.00285074
0.000611661
-0.00157472
0.00145054
0.000966967
-0.000842955
-0.0105777
0.0139253
-0.0062636
0.00291666
-0.000126732
0.0032818
0.000383839
-0.00353848
-0.000385496
-0.000498641
0.00262202
-0.00173757
-0.00340193
-0.00586551
0.0087628
0.00114511
-0.003494
0.00136653
0.00191249
-0.00212456
0.00587159
-0.00211995
-0.00162719
-0.00315096
0.000465213
-8.14208e-05
0.00276742
2.20959e-05
1.32414e-05
-0.00279848
0.00276364
-0.0006048
-0.000366706
0.00280346
-0.00183143
0.00339544
0.000310125
-0.00211139
-0.00159371
0.000649653
0.00281243
-0.013253
0.00979097
0.000428123
-0.000456632
-0.000399701
0.000428647
6.8419e-05
0.00344271
-0.00231156
-0.0011991
-0.00319085
-0.00297131
0.000367902
0.00579508
-0.0020201
-0.00276019
-0.000965789
0.00574697
0.00354203
-0.00281216
-0.00362715
0.00289732
0.00251597
0.0056988
-0.00467272
-0.00304036
0.000517621
-0.000353473
0.00287659
-0.00104356
0.000628616
0.00212766
-0.00171218
0.0022919
-0.00434503
-0.00225463
0.00430855
-0.00310767
0.00248326
0.00268782
-0.00206273
-0.0016236
0.000625527
0.000998526
0.00374401
-0.00194416
-0.000975437
-0.000823837
0.00264554
0.00061011
-0.00636198
-0.00282747
0.00149045
0.00029413
0.00141879
-0.00247681
-0.000434303
0.0014926
-0.000569726
0.00128641
0.00146086
-0.00223254
0.00390819
0.000808034
0.0011381
-0.000972219
0.000548787
-0.000714311
0.00241869
-0.000355739
-0.0020625
0.00132863
0.00176955
-0.00395323
0.000855785
-0.00117151
-0.000391294
0.00160119
-3.70798e-05
0.000461427
0.000111637
0.000735793
-0.00130828
-0.00039449
0.00150827
0.00481537
-0.00592876
0.00667892
-0.00174926
-0.0048214
0.00155548
-0.00168532
0.000130121
-0.00804495
0.00260805
0.0054949
0.000269083
0.000307868
-0.000576495
-0.000716815
-0.00198099
-0.000231963
0.00293052
0.00243879
0.00101752
-0.00060502
-0.00285054
-0.00249606
0.00214092
0.000828681
-0.000473096
8.91601e-05
-0.00148018
0.000663418
0.00072788
0.00232238
-0.0019087
-0.00287285
0.00178329
0.00149236
-0.000402062
0.000704
-0.00140444
6.85507e-05
0.000632102
0.0171996
0.00537265
-0.0163168
-0.00576153
0.0014631
0.000421037
-0.000502709
-0.00138111
0.00271046
0.0050275
-0.00733211
-0.00248912
0.00363868
-0.00189126
0.000742623
0.00116787
-0.000318333
-0.00180799
-9.92978e-05
0.00165507
0.000787943
-0.000687259
-0.000100235
-0.00355374
-0.0039389
0.00616206
0.00133118
-0.00522826
0.00935644
0.00311302
-0.0074471
0.00229794
0.00308951
-0.00203124
-0.00335587
-0.00163227
0.00402154
-0.00200739
-0.000381517
0.00232752
-0.000522035
-0.00136319
-0.000441865
-0.00201057
0.00225384
-0.00190444
-0.00281121
0.000471275
0.00424483
-0.00165014
-0.00215172
0.00210141
0.00164289
0.0151901
0.00352732
-0.0099176
-0.00862943
0.0010844
-0.00248879
0.00176974
-0.000364747
0.00178452
0.000564798
0.000135461
-0.00248451
0.00423235
-0.00740686
-0.00118542
0.00436088
0.00373871
0.000608724
-0.000145479
-0.00293857
-0.000643976
0.0038266
-0.000243543
-0.00144913
-0.00070762
0.00262106
-0.000464106
-0.00282232
-0.000842424
0.00490365
-0.00123424
-0.00546349
-0.00531021
0.00912108
-0.0210499
0.00808707
0.0180044
-0.00450263
-0.00149259
0.00283133
0.00135074
-0.00268918
-0.00282077
-0.000495653
0.00318279
0.000134472
-0.00209129
-0.000118437
-0.000974612
-0.00423406
-0.00224768
0.00745935
0.00469903
-0.00409948
0.0055462
-0.00603637
0.00400222
0.000138823
-1.50244e-05
-0.00412564
0.000562327
-0.0023664
0.00220446
-0.000399959
0.00160916
-0.00041187
-0.00337338
0.0021768
0.00673339
-0.000214534
-0.00169483
-0.00482339
0.00212659
0.00159418
-0.00035232
-0.00336782
0.00229041
-0.00226079
-0.000365369
0.000336093
-0.00747198
0.0164114
-0.00889123
-0.00120149
-0.0125365
0.00825966
-0.000110519
-0.000667764
0.000964879
-0.000185957
0.000250313
7.53217e-05
-0.000325392
-0.00420845
-0.00177057
0.00389115
0.00208855
0.00021958
-0.00134269
0.000131004
0.000992377
-0.00119326
-0.00288271
0.000885587
0.00125912
0.000682709
0.00208236
-0.00402373
-0.00105406
0.00903836
0.00259596
0.000827331
-0.0050667
0.0016437
-0.00219205
0.000564819
-0.00524524
0.00687318
-0.00100921
8.17297e-05
0.00114735
0.00845965
-0.00960144
-0.00187651
0.00309014
0.000943824
0.000972514
0.00151085
-0.0034273
0.00111546
-0.00372398
0.000336589
0.00227245
-0.00198153
-0.00227896
0.00296954
0.00129164
-0.0214604
0.00286624
0.0185411
-0.000577437
0.000588651
-0.00205569
0.00204468
-0.000398367
0.000340588
0.000494508
-0.000436411
0.00105733
-3.23962e-05
-0.000919343
-0.000105372
-0.0147076
-0.00591638
0.00102178
3.58114e-05
-0.00107944
-0.000204594
0.00369024
-0.00240586
-0.00264446
0.00259474
0.000172031
-0.000121813
0.0156604
0.0158738
-0.0286653
-0.00300328
4.44373e-05
-0.00330367
-0.000115933
0.0033756
-0.00170638
0.00239951
-0.00105301
0.000359193
-0.00220864
-1.38186e-05
-0.000122235
0.00234508
0.00468695
-0.00111494
0.000658124
-0.0042294
-0.00255273
-0.000764954
0.000875716
0.00244237
0.000857931
0.00401748
0.000290146
-0.00516569
1.28286e-05
0.00283849
0.00209001
-0.000604233
-0.00432736
0.000424347
0.00178256
-0.000806457
-0.00140017
0.00102504
0.00655559
0.00510918
-0.012681
-0.00137252
-0.000846276
0.00264352
0.000422663
-0.00299005
-0.00113931
0.00370729
-0.0117739
0.0102741
0.000987509
0.000304074
0.00283892
0.00253338
-0.00830475
0.00293319
0.00298977
-0.00317369
0.00100554
-0.000821009
0.00151893
-0.000919271
-0.00461124
0.00401226
0.00465246
0.0186882
-0.00487078
-0.0182576
-0.00820031
0.00770132
-0.0138691
0.0144781
0.000979368
-0.00493122
0.0019195
0.00203226
-0.023656
0.0234475
0.00435514
-0.00345551
-0.00186175
-0.00151553
-0.000564805
0.0039426
0.0128544
-0.0122763
-0.00892218
0.00834794
0.00270764
0.0022534
-0.0173935
0.0124376
-0.00486019
0.00176214
-0.000722881
0.00382083
-3.12877e-05
-0.000121509
-0.000366605
0.000519843
-0.00134128
-0.000157414
-0.00900729
-0.000151864
0.00695478
0.00241191
-0.00011726
0.00133588
-0.00431213
0.0030944
0.00319405
0.00432802
-0.00405659
-0.00346428
-0.00112707
0.000311665
4.63046e-06
0.000811207
-0.00114255
0.0039498
0.000388166
0.00266567
0.00112611
-0.00257082
-0.00122054
0.00230413
-0.00138114
0.00221727
-0.00314017
0.000984034
-0.000195284
0.00118262
-0.00197108
-0.00156487
-0.00180962
-0.00148579
1.10411e-05
-0.00100189
-0.00119972
0.00219086
0.000433314
0.00276544
-0.0028624
-0.00033618
-0.00055561
0.000311636
0.00180209
-0.00155839
0.00290853
-0.00349412
0.0032549
0.00122637
-0.00157281
-0.000280296
0.00364604
0.00011312
-0.0034781
-0.00744465
0.0091464
-0.00167013
0.00210918
-0.000405603
-0.000207314
-0.00146084
0.00469054
0.0277016
-0.0272772
-0.00530958
0.00275539
-0.00394823
-0.001251
0.00178667
-0.00075264
0.000252261
-0.00326302
0.00160485
8.79637e-05
0.00156795
-0.00343184
0.0082095
-0.0139421
0.00923109
-0.00428311
-0.00319987
0.00421024
0.00123945
0.000891706
-0.000696894
-0.000435379
0.00119925
-6.63134e-05
0.000845578
-0.00174353
-0.000870195
0.00176827
-0.00109213
0.00180328
0.00176561
-0.00247632
0.000262429
0.00056463
-0.000826639
0.00407918
-0.00202061
-0.00205818
0.000876265
0.00102699
-0.00190289
0.00366902
0.000929879
-0.00404776
-0.000551173
-0.00194357
0.00276142
-0.0147487
0.0140432
-0.00712788
0.00515136
0.00604327
-0.00408856
-0.00318371
0.000123994
0.00391239
-0.000852727
-0.00173