/*--------------------------------*- C++ -*----------------------------------*\
| =========                 |                                                 |
| \\      /  F ield         | OpenFOAM: The Open Source CFD Toolbox           |
|  \\    /   O peration     | Version:  v2012                                 |
|   \\  /    A nd           | Website:  www.openfoam.com                      |
|    \\/     M anipulation  |                                                 |
\*---------------------------------------------------------------------------*/
FoamFile
{
    version     2.0;
    format      ascii;
    class       volScalarField;
    location    "5";
    object      Qdot;
}
// * * * * * * * * * * * * * * * * * * * * * * * * * * * * * * * * * * * * * //

dimensions      [1 -1 -3 0 0 0 0];


internalField   nonuniform List<scalar> 
108993
(
1.66643e-28
7.30602e-12
1.85092e-29
0
3.24266e-99
7.45935e-75
0.129869
2.0115e-124
2.71144e-73
1.35156e-28
4.85561e-65
0
4.65869e-101
4.6056e-70
6.35784e-62
3.71609e-07
7.9826e-20
0
1.05634e-97
4.51344e-28
1.82975e-96
1.10372e-83
3.89943e-56
0
0
1.50968e-56
0
3.55508e-33
1.81276e-31
1.28067e-62
2.35712e-88
0
0
5.24262e-19
1.03534e-97
8.27931e-91
1.41299e-94
2.89675e-84
249.047
93.2236
0
7.93856e-77
0
1.3564e-105
1.21707e-10
1219.18
0
0.00739788
1.83645e-33
7.5328e-45
0
9.68973e-07
6.99195e-16
6.50813e-100
1.27582e-53
5.67995e-51
1.2306e-96
1.82574e-84
7.19526e-83
1.1822e-82
1.8809e-77
6.86743e-76
3.59119e-63
4.06364e-102
0
7.1102e-42
1.84215e-102
2.7361e-88
3.69866e-54
0.264444
3.36502e-67
4.88581e-93
3.86165e-88
7.50581e-92
2.56341e-27
2.12509e-79
1.25231e-102
3.07673e-17
1.34794e-99
2.51029e-104
7.97893e-46
1.70631e-46
8.4704e-91
2.26447e-80
8.72839e-59
5.87226e-80
0
0
8.32654e-94
1.99692e-101
8.64256e-93
3.93714e-86
1.75543e-94
5.20662e-118
0
0
1.34734e-85
7.5981e-70
3.32419e-90
2.27417e-95
2.86458e-88
5.42668e-80
1.80326e-69
0
9.11563e-74
0
2.08076e-59
2.51171e-85
2.08111e-104
6.69148
3.12564e-19
0
6.24268e-18
1.976e-09
2.86488e-80
0.310202
1.69962e-93
1.23071e-52
1.24106e-06
3.83893e-84
3.7608e-54
4.74002e-72
4.85858
1.35833e-39
1.33802e-88
1.01279e-15
3.20155e-34
8.73568e-41
1.29385e-72
1.32355e-75
6.70742e-51
9.80186e-75
5.79637e-71
0.00139974
2.53699e-86
1.35044e-40
3.73273e-71
0
1.9721e-60
5.57012e-64
0
4.86461e-83
0
2.61786e-73
1.8589e-74
1.04352e-91
0
386.144
0
0.110087
0.185238
0
2.58002e-31
0.173598
0
4.58884e-21
7.84595e-51
9.09396e-87
4.07909e-91
0.00497713
0.140061
2.48005e-92
1.8512e-87
0
0
1.54967e-08
0
0
1.26686e-100
2.45628e-78
0
0
1.85975e-08
1.1321e-81
4.20912e-44
1.19496e-53
0.0364931
1.02387e-101
3.15478e-58
4.5947e-94
3.42411e-29
1.45983e-83
3.1765e-90
4.06199e-43
5.33499e-58
0
0
9.75186e-64
2.67916e-53
4.33484e-42
0
9.89881e-91
0
0.00954868
5.35023e-80
1.00762e-26
8.92493e-36
1.08942e-77
4.9275e-78
3.14482e-44
2.78855e-91
0.000970469
7.73166e-87
5.60165e-81
0.0357036
0.00645595
2.02518e-54
16.9808
0
0
0.0076638
6.90987e-84
0.0767306
14.2575
97156.9
0
6.06073e-55
5.84753e-55
9.65898e-88
5.79684e-81
3.46177e-53
0.333519
2.13534e-15
0.0084085
0
1.84201e-101
1.46462e-88
1.112e-47
0.230968
2.78238e-62
3.97184
4.15532e-61
6.35523e-100
2.13212e-36
9.65535e-87
0
1.21779e-81
2.82929e-77
0.375583
5.62587e-87
1.26604e-93
6.30733e-55
0
2.40174e-88
1.30211e-78
8.10611e-06
14.2506
7.68753
4.43895e-84
4.65649e-84
4.64697e-82
1.48845e-91
8.12025e-68
1.8993e-81
1.54298e-84
4.51729e-85
1.21326e-82
2.8041e-50
2.92485e-79
0
1.02888e-52
2.34275e-28
1.13598e-17
6.06903e-14
0
3.45941e-48
5.08289e-53
8.35302e-36
1.12004e-76
6.92639e-63
5.7654e-109
1.70975e-34
7.7237
1000.24
387.292
5.46874e-64
8.99703e-92
16.1915
0
1.05683e-33
5.35259e-35
519.405
1775.39
3.58987e-72
1.37045e-67
4.51325e-29
2.71744e-99
1.0384e-37
1.0977e-39
12.6362
1.73116e-57
3.18351e-60
8.30247e-37
2.34066e-59
5.55162e-72
2.05849e-52
5.79832e-83
9.75706e-56
0.00171235
3.74454e-101
0.196356
0.207986
2.30593e-66
2.43225e-103
2.1251e-68
4.17841e-32
5.34326e-93
5.35845e-22
7.69867e-29
11.9804
0
1.79777e-77
1.24397e-26
1.95598e-79
2.49659e-25
0.725306
2.55941e-105
6.79483e-28
202.569
5.25806e-66
2.98752e-20
7.31931e-105
3.11043e-36
3.72306e-38
1.88148e-71
2.08437
0.381894
3.77247
1.05301e-79
1.17762e-24
2.87038e-57
6.6041
307.804
8.60729e-62
9.71973
4.97395e-68
0
0
7.90663e-67
9.9588e-71
0
0.000392832
8.06156e-41
3.99874e-58
4.21852e-66
4.49715e-57
5.59674e-44
1.76341e-68
4.72575e-116
1.27732e-42
5.77342e-65
0
72.0186
10.3448
0
0
7.60901e-56
34.8108
1.20536e-76
5.03459e-99
3.4459e-25
5.28219e-42
3.01887e-44
1.02191e-43
9.0071e-29
4.62073e-37
3.37765e-46
7.04392e-71
0
0
1.29467e-12
2.17108e-33
1.13992e-42
1.05272
6.13369e-35
0.0425063
5.60058e-39
8.84309e-63
0.0227977
3.45356e-75
0.00436408
0.0243442
3.04638e-39
0.0146354
3.43164e-51
1.21797e-54
7.83262e-33
92687.4
1.34613e-39
10.9545
0.0213749
3.40657e-55
0.0154976
0
9.0252
2.9051e-36
282.501
1.00031e-100
6.04684e-13
5.5034e-74
4.78437e-35
11.7311
2.39903
6.21705e-85
4.89968e-60
0
1.06307e-54
3.94632e-74
2.4441e-24
55299.2
1.66489e-81
2.45377e-49
3167.5
7.14326e-63
0
8.747e-73
4.1457
0.59519
9.5746
4.03641e-90
284940
9.91628e-15
70.7063
0
2.64916e-93
0.858004
9.75205e-82
1.72132
0.0413906
4.46416e-111
0
1209.62
0
6.20559e-76
3.86235e-85
2.4163e-30
3.33201e-79
1.03189e-51
1.70989e-90
1.48322e-73
1.00467e-60
7.01785e-49
2.51689e-44
8.67683e-72
1.31139
3.58677e-10
1.62908e-14
2.94153e-09
1.53377e-47
0
4.63958e-61
0
3.71385e-47
9.62566e-26
1.64487e-88
2.74079e-65
0
0
3.78776e-64
0
0.000595525
2.04767e-27
0.96773
0.0174981
3.91488e-07
3.14767e-35
1.96985e-37
1.24096
3.40683e-34
1.21621e-31
0.0414577
1.92157e-89
0
3.72148e-22
2.33949e-93
3.37948e-26
1.40674e-75
0.0398451
3.93793
9.50761e-06
1.9857e-67
2.67106e-70
2.60251e-71
5.88815e-48
1.77392e-18
1.25612e-35
2.284e-32
2.80626e-35
6.93643e-10
5.25757e-18
1.14415e-65
5.69403e-36
1.12454e-12
1.27642e-31
5.01775e-06
3.59293e-64
1.39548e-17
3.26918e-59
7.28214e-43
1.18339e-19
7.71815e-83
6.30896e-69
2.4372e-67
1.09485e-38
1.33691e-15
0
6.55672e-45
9.41205e-72
419.087
9.29774e-43
1.29993e-09
4.66434e-14
5.13992e-73
1.65141e-38
3.5188e-45
1.55444e-81
1.01338e-60
1.74921e-45
6.06171e-20
1.01568e-22
6.12647e-57
1.27169e-57
6.09172e-17
1.55278e-22
3.2044e-33
0.017851
0
1.75253e-48
0.0392187
4.75086e-21
2.16502e-52
8.49543e-81
0.00390988
8.25615e-58
3.52282e-87
0
1.80902e-30
2.71269e-75
1.42508e-15
10.3148
2.79124e-59
58.979
3.5271e-104
1.54777e-59
0
6.35782e-57
3.52317e-64
0.00888712
3.63642e-67
2.81381e-96
1.2032
5.09319e-50
3365.35
7.06656e-64
2.86267e-62
2.50708e-60
3.05186e-95
1.94749e-27
0
3.33074e-22
1.77956e-22
3.74523e-76
3.42552e-37
1.1505e-19
1.44151
12.3866
9.20014e-53
7.64059e-72
3.19369e-32
0
1.22847e-37
9.25039e-18
1.31317e+06
2.1322
7.91448
2.67244e-21
3.2589e-71
1.12403
0.120727
0.0544009
8.55992e-28
2.18841e-45
1.46839e-39
3.24057e-80
2.1889e-46
7.24674e-12
704.48
2.09173
0
0
7.01199e-30
7.26934e-77
3.55748e-19
3.97713e-43
845.266
2.80494e-62
1.70521e-70
3.67417e-79
0.000228773
6.82658e-16
2.48963e-38
0
0
2.19187e-27
1.68722e-69
6.34127e-77
0
7.72871e-78
1.94923e-20
4.16913e-44
556.431
2.64202e-36
0.00579857
1.29744e-40
6.95248e-26
1.0273e-44
1.45329e-13
1.25943e-79
10.2261
6.85721e-99
0.000104571
2.04501e-95
1.08546e-36
22.356
6.40695e-13
1.71086e-73
2.71959e-67
0.252272
14569.8
1.50834e-14
11.5515
2.51615e-27
0.0028586
0.00441661
5.4556e-15
1.13146e-65
2.69456e-75
8.30557
0.000383119
1.35026e-13
7.59587e-56
3.00862e-12
8.09627e-58
2.80662e-12
4.6713e-73
3.97353e-14
1.42187e-37
2.12814e-12
1.8407e-15
2.54273e-14
2.84217e-15
0.00128656
7.03941
10.902
1.01989
8.80821e-18
110.743
17.0108
3.23439
24.0291
11.7789
0
5.53413e-21
6.27604e-60
0
4.27408e-36
1.70423e-17
3.5784e-22
4.93507
24.9204
4.15188e-21
1.4501e-13
5.00198e-12
12.4527
27.862
2.17364e-83
1.37745e-05
0.518409
2.65136e-73
244.716
1.48355e-05
0.425432
5.49855e-08
4.93751e-17
99.0499
9.5483e-18
56.2918
0.182826
0.432097
3.03134
7.72664e-83
1.18561e-36
4.98813e-15
1.42103e-38
1.39191e-33
229873
1.26515e-07
30.6588
4.10625e-07
605.791
2.57801e-13
7.40227e-69
1.14015e-101
0
9.28297e-15
1.52663e-90
2.58837e-14
0
7.29766e-76
0
4.30108e-12
41.4359
2601.42
9.8621e-42
8.06437
5.84156e-32
4.60888e-18
1.05223e-05
0
2.65809e-17
2.73244e-18
3.13043e-11
1.79241e-08
5.20125e-06
1.70343e-43
3.31238e-10
3.9503e-08
5.83055e-23
0.0184768
3.7783e-97
1.99383e-09
2.81609e-10
4.72311e-06
5.01794e-09
0
1.85886e-100
0.163157
4.20827e-103
1.32391e-35
7.32963e-06
3.2691e-57
1.78213e-06
4508.5
31.7446
1.2e-19
1.80504e-14
2.43506e-14
3.23528e-15
2.74101e-17
1.81186e-08
6.97592e-54
0
8.20153e-103
2.06286e-18
6.46075e-106
4.05207e-09
2.529e-101
5.05729e-12
2.84966e-09
6.14003e-33
1.06027e-13
2.74876e-99
4.22153e-17
6.75577e-30
0.78486
2.06437e-48
1.36999e-10
8.61231
0
8.04347e-45
4.57393e-26
0.0744631
3.91787e-85
0.260311
9.92407
1.9258e-44
8.97689e-25
37515.1
1.26243
5.41027e-27
1.67843e-43
0
5.8007e-26
2.22362e-27
2.39996e-18
1.19325e-47
5.41717e-10
0
9.05243e-68
0.351601
6.61761e-94
385.346
3.57449e-77
1.39075e-56
1371.03
1.08797e-16
3.4228
4.26008e-37
0.0154792
1.46821e-59
5.564e-11
9.05281e-17
1.43537e-88
8.0242e-35
6.33566e-20
1.19214e-69
0
0
2.54713e-46
4.78922e-51
7.65847e-25
1.74752e-41
8.45675e-98
0.931737
7.28018e-59
46504.6
1.95814e-32
1.62438e-63
663866
4.53393e-28
0
2.72424e-36
1.09318e-53
0
0
2.76452e-07
4.33312e-30
0.145038
0.190329
2.67185e-09
0.110104
28.1483
2.41903e-05
5.62499e-24
8.8724e-07
7.41097e-31
1.77932e-20
1.36812
67.1975
3.98848e-20
4.65854e-38
5.78439e-24
0.127901
2.20059e-18
4.38242e-28
0.102356
7.58766e-33
3.91416e-79
1285.95
2.11629e-24
3682.77
5.95198e-22
2715.01
3.30203e-23
1.70843e-12
0
0.00190879
2.5948e-08
1.97676e-62
2.8219e-71
1.38427e-73
0.457994
1.71636e-21
1472.21
0
2.32628e-78
9.89727e-45
0.0608897
7.1957e-26
0.0933747
7.30471e-94
2.33083e-46
1.75401e-07
383.175
3.29695e-75
0.00590226
5.85831e-11
0.571202
0
0.160305
6.74217
1435.99
1.01342e-14
2.14919e-08
7.55014e-34
0
1.0005e-89
0
2092.88
0.169448
1.55936e-79
2.51444e-73
5.06963e-05
1.12354e-14
0
1.42065e-72
2.36141e-99
2.07267e-10
0.250913
0
926.407
8.61915e-11
5.84938e-24
0
8.06544e-82
6.39107e-64
0
0.196005
4.9997e-22
0.00249028
1.34559e-118
5.84411e-77
2.55062e-13
1.55176e-05
243959
1.86107e-42
160266
7.62515e-06
1.00272e-14
1.11019e-15
0
1.47862e-14
0
4.05392e-38
3.84823e-89
1.66225e-16
3.16149e-30
2.09181e-05
1.61926e-54
0
0.00357696
7.20446e-78
5.75701e-12
5.41619e-15
7.64205e-17
2.94679e-19
1.42484e-59
0.216142
5.27129e-65
1.41907
6.9819e-16
1.10607e-23
1.68101e-78
1.28916e-25
3.30475e-05
6.85839e-76
9.79228e-20
40667.9
1.88846e-13
0.000157511
2.49688e-65
7.24843e-23
0.0855464
0.368901
0
0.00013415
14.6795
2.70629e-21
9.25678e-21
5.02746e-20
1.14992e-26
6.67831e-30
714.635
6.74834e-11
40.1338
1.24879
2.18992e-15
1.70318e-10
4.80188e-26
2.50686e-18
15.0333
0.276511
4.838e-21
4.71902e-86
3.52466e-62
28.6294
6.77593e-93
1.07103e-66
2.60276e-89
193.448
0
3.45827e-32
3.90734e-36
0
4.27613e-39
0
2.81486e-29
0.00019589
6.57581e-39
5.07488e-43
6.38709e-35
1.42408e-84
974.418
7.62528e-78
7.0456e-34
8.98377e-61
6.27259e-42
0
11.7297
0.00274858
1.26072e-58
1.84195e-34
0
4.31524e-23
4.10975e-11
1.14318e-17
2.13106e-53
0
0.0856196
1.17382e-79
0.0102943
2.96305
0.236819
0
0
1.01273e-30
4.32796e-71
2.50345e-32
4.0902e-14
0
3.59377e-79
7.63297e-31
1.31544e-67
4.29747
9.71675e-33
2.54036e-18
4.7286e-79
3.49877e-31
8.85079e-17
5.30767e-05
2.23292e-25
5.93281e-42
8.22881e-32
3.3164e-58
4.13239e-25
0
1.33964e-69
0
1.47004e-70
416.383
4.91871e-45
1.80055e-08
2.18319e-82
3.08549e-06
5.46874e-09
4.62863e-72
203.582
1.44894e-23
2.2001e-18
1.53164e-17
77.3272
4.81101e-25
0.000100287
2.98799e-09
190.553
8.43885e-44
3.52809e-75
0
1.72805e-10
3.57366e-07
0
0.00462411
5.13393e-67
3.15324e-18
0
0.00323012
2.40593e-21
0.000677892
7.1083e-24
3.39179e-05
4.67068e-11
5134.93
6.37359e-06
3.07978e-07
4.28472e-54
1.13424e-102
0
3.38683e-49
0
1.68397e-96
2.20498e-15
0.73565
1.86251e-36
1466.36
2.75068e-12
3.18212e-44
5.85397e-49
7.59783e-10
0.016868
0
1.56381e-11
1.24602e-30
7.78743e-34
0
1.50422e-20
0.0385354
5.25525e-05
0
0.0345635
1.07829e-74
1.74466e-37
1.25494e-31
3.64199e-80
1.38696e-84
9.66939e-41
1.53288e+06
7.11801e-15
8.53545e-99
1.22072e-34
3.21486e-90
9.85035e-49
6.3521e-65
4.47196e-95
1.60976e-15
1.07038e-28
3.72972e-33
9.46774e-92
3.91619e-36
5.68464e-37
0
2.70788e-31
0
2.73253e-48
3.48003e-67
4.5358e-15
6.92686e-30
0.428249
1.50529e-13
1.34881e-22
89.147
1.76868e-31
1.60184e-99
1.63631e-16
2.29442e-51
2.86953e-50
1.5529e-28
2.3568e-34
5.00386e-28
6.87808e-47
0.000214338
2.65888e-48
1.25535e-23
1.78587e-38
1.4442e-36
3.61108e-30
2.25249e-49
22.4691
0.404589
0
5.82233e-60
6.50009e-59
1.27377e-30
8.4485e-24
6.64238e-70
2.84081
1.1171e-79
4.96152e-65
0
9.7798e-67
0
0
5.03701e-09
3.52418e-18
2.52727
5.2177e-18
3.33255e-18
4.0071e-14
0.0102363
7.43075e-14
1.5469e-11
4.32456e-45
3.42082e-18
0.00908963
3.3984e-106
9.00557e-12
7.53824e-60
2.26798e-61
0
7.49921
1.75367e-05
4.25112e-101
11.9705
3.05363e-71
1.28632
0.270111
1.0286e-56
1.03282e-34
1.00887e-28
1.66897e-24
5.37591e-27
1.23033e-22
9.74475e-97
0.00519167
7.42173
0.00030844
6.74109e-59
4.78795e-111
0.00270042
3.04825e-71
8.0924e-83
0
0
4.2906e-68
13596.6
2.01913
7.32817
0
3.28866e-14
6.24239e-57
0.363163
0
3.50205e-46
0
5.61459
1.95958e-13
0.31321
0.0307318
0.0356
0.241689
1.22812e-37
3.65788e-39
1.90333e-17
8.60208e-72
1.52613e-17
2.02407e+06
6.16303e-69
3.24333e-19
7.39165e-61
0.532087
2.32157e-47
2.3067e-63
8.98344e-14
2.34816e-24
0.00014102
4.3444
1.62758e-62
2.61899e-20
1.0493e-24
0.139696
3.90903e-65
7.28176e-21
2.35362e-77
8.87875e-14
0
0.00293363
1.1369e-09
4.23841e-66
1.145
0
5.29994e-79
3.09323e-72
5.37881e-26
1.24015
0
5.40015e-13
2.31273e-20
0
0.13084
4.83892e-64
1.65039e-65
5.34388e-08
8.4297e-35
1.88308
0.693046
0.289715
0.000652563
0.461087
8.58472e-83
1.53784
1.70497
0
4.02681e-49
0
4.98231e-21
4.74786e-33
2.14003e-67
4.37296e-68
8.15981e-43
3.83686e-81
3.99749e-29
3.30792e-31
0.000753551
2.19128e-73
6.39209e-36
3.87216e-57
2.90495e-18
6.28243e-55
7.23191e-58
1.7655e-50
8.99956e-19
0.461664
1.17257e-56
0.66499
1.84013e-12
1.31775e-48
4.31228e-16
1.08858e-36
2.04464e-08
1.28198e-77
4.3967e-27
3.13643e-12
6.07351e-56
3.13792e-20
3.73745e-19
4.58268e-76
2.11463e-19
3.01218
2.6699e-20
2.05624e-17
1.15614e-18
2.69931e-07
8.62137e-11
1.38202e-17
5.69168e-60
0
4.45969e-49
7.73707e-17
2.3373e-70
1.09345e-91
3.82527e-18
2.02207e-51
9.56269e-33
3.02497e-22
1.83651
1.47014e-18
2.18412e-05
28.3973
2.1107e-64
8.20354
2.73281e-82
3.262e-48
2.63796e-53
2.69064e-49
5.34662e-75
58.7886
34.4555
0.00451971
3.04495e-13
8.84525
1.9884
8.54833e-61
5.08055e-30
2.10564e-109
5.16466e-15
3.03691e-16
1.43958e-26
0.811713
9.99502e-83
6.32795e-87
4.55717e-25
6.80792e-09
1.69975e-54
0
1.31234e-16
12034.2
840.244
6.97505e-08
6.79753e-82
0.000243142
1.82066e-45
3.005e-26
1.35472e-05
1.69122e-19
2.23349e-21
7.15975e-68
8.23216e-27
3.99741e-18
8.06054e-10
9.85626
1.9387e-17
2.00636e-17
0.803718
0.00239688
5.58874e-27
1.51548e-09
0
3.79107e-29
2.08639e-23
1.1069e-14
4.33459e-10
0
0
5.092e-18
2.57523e-14
7.74123e-05
26.2916
3.45287e-16
1.13263e-15
28.778
8.87551e-41
3.54084e-66
32.3973
4.71343e-39
4.23667e-93
6.52046e-37
1.01032e-35
2436.06
1.73784e-58
2.41751e-58
0.341816
1.95795e-35
1161.01
1.0296e-38
22.4998
3.1751e-37
7.91684e-42
10.7258
0.00108213
8.95667e-42
1005.87
8.08672e-16
7.95558e-25
8.39661e-07
4.67853e-76
5.25335e-73
0
81.9661
1.35825e-11
4.67635e-32
2.34543
6.21796e-55
0.694007
28.3749
6.21581
0.00143251
53.4106
3.2197e-47
972726
5.98168e-43
1.61353e-40
1.57191e-34
4.30234e-87
4.58362e-81
2.82603e-91
8.1121e-74
6.29551e-78
7.48461
6.9322e-05
0.181862
0.6545
0
3.37302e-54
4.27604e-59
0
0
0
1.27199
0.320277
5.43252e-57
3.78223e-50
3.74848e-43
1.43894e-07
3.31461e-12
2.2674e-36
7.45179e-24
1.13484e-47
1.26693e-40
5.0063e-43
0.00961168
8030.87
6.60475e-05
24.8606
0.325837
3.99738e-39
3.60812e-11
5.27067e-05
1.13496e-45
7.52655e-50
2.40265e-44
2.2111
30.4941
1.06798
346.93
8.26954e-59
4.71585e-87
4307.99
1.4203e-53
0.00670862
1.98066e-42
1.59693e-50
8.87319e-15
5.62024e-57
0.00762952
8.06038e-64
0.000455425
24.8901
176.494
0.000224513
0.00533633
8.85816e-05
7.88203e-86
0.00121555
8.50876e-44
6.38441e-54
1.49867e-56
6.26508e-55
4.55227e-72
5.38009e-51
1.49193e-29
3.67066e-77
5.13128e-11
190989
0.418964
15.3196
1.36331e-69
5.54261e-58
1734.13
2.55375e-05
1.47931e-57
0.315685
1.76583e-52
1.41767e-52
0.646361
9.86116
563.992
33.069
1.18685e-48
0.726038
1017.25
10.0885
1.56498e-58
19.8522
0.557779
0.547897
17.6612
0
1254.27
0.55102
1.6507e-53
0.416632
3.84935
0.465178
0.0468686
0.00547363
0.0387571
0
1.177
462.573
730.319
6.34266e-68
3.96414e-83
1970.92
0
4.67711e-10
0.000195777
4.03253e-75
11.1533
0.0141694
1.46574e-31
1.22946e-23
3.96069e-24
9.76673e-28
0.00291188
12.2346
33.3814
10.6473
1.39383
1.94069e-54
0.0175614
0.0143441
3.46773e-31
0
5.9542e-34
6.10574e-21
4.03926e-28
1.59516e-42
1.20546e-22
9.27695e-22
1.02408e-23
7.71256e-29
2.18044e-17
0.057748
0.00311051
0.000481655
1871.13
1.40854e-05
6.64611e-65
1.08062
3.907e-30
1.9572e-27
4.13692e-25
8.24646e-37
1.63848e-68
2.25678e-31
22.0209
1.6641e-05
3.0607e-11
0.654574
92.7763
7.40403e-12
1.21143e-28
1.17761
9.34287
2.0409e-08
4.64108
5.24921e-65
7.57609e-06
4.18746e-89
7.45769
7.18576e-34
0.407561
1.79455e-55
4.86831e-81
1.61716e-86
9.2649e-85
2.29606
1.59075e-79
2.07839
0
2.68301
8.04757
9.9751e-44
2.29193e-68
65.5464
2.59151
5.47198
11.3573
5.11702e-76
0.0116689
2934.54
3.92082e-61
8.89394e-48
1.98114e-06
0
1.01852
3.96523e-44
1.78982
0.504847
8.64151
0.669563
8.39793
0.493496
1.47347
3.46374e-21
130454
278444
1.52982e-05
184247
4.66646e-40
0.0054975
0.99681
0
303718
1.42507e-07
2.47953e-19
3.96782e-37
2.01053e-08
1.01914
3.49419e-18
3.47512e-48
2.67086e-36
4.95772e-17
1.09211e-102
0
4.036e-20
5.15654e-25
18217.9
0.748519
1.17853e-23
5.87192
0.000375364
1.61506e-93
2.11106e-13
7.92146
42.5381
0
12.2642
18.4411
2.23603
3835.11
0.0407621
3.38495e-18
154.936
2.89109e-22
1.34697e-24
3.57027e-27
0
1.86163e-14
0.224287
8.29028
2.4421e-05
5403.73
6.90407
4.68696e-16
0.355738
3.4029e-05
0
2.5173e-68
5.22367e-17
1.36059e-39
2.00593e-15
0
0.650998
18895.6
63254.2
0
790799
1.9824e-28
0.674669
3.62955e-17
5.05609
0.00359758
20.1929
7.12106e-27
2.42093e-23
1.36241e-46
3.49754e-69
8.60886e-94
0
7.10355e-12
0.420575
4.57205e-21
8141.98
0.194136
1.39416e-15
32.5959
2.35126
67276.2
43116.1
5.95018e-87
1.91658
0.0403152
2.16336e-86
9.45396e-52
0.993399
1.92741
3.17962e-101
4.31802e-82
0
4.193e-41
3.97439e-108
5.20601
3.30313
4.37838
0.944897
1.27937e-68
2.10234e+06
1.53679e-07
1.71428e-100
8.42195e-18
1.7913e-45
7.79364e-16
0
0
9.05433e-17
30402.9
1.07256e-40
1.87838e-22
2.30296e-17
2.26048e-26
9.50657e-77
4.30738e-38
12.1945
2.96315e-14
3.00862e-25
0.00949186
0.000108831
39.2242
2.47793e-29
1.06791e-27
1.27806e-27
5.71063e-24
7.01616e-17
2.49325e-25
0.622761
22.2409
3.60316e-25
0
5102.45
3.64062e-19
7.91609e-82
3.17582e-19
3.52191e-18
0.53109
26.0212
6302.32
1.00299
0.00127359
0
9.00236
4.99952e-17
7.80425
6.88626
3.79382e-64
17.2847
1.22049e-54
1.07539e-56
211.006
0
2.12023e-15
9.88149
14.4526
59.6073
37.4717
2.01723e-35
17.5553
1.15649
3.65624
2.35005e-45
2.10341e-08
49.4034
57.0169
12.6768
3.01919
0.00445478
1.29768e-30
1.26379
0.0662937
9.99799
7.24118
2.19968
12.5291
3.67553e-59
9.14204e-78
19814.4
113.418
14.8079
0.366455
17.4987
0.62598
202.9
0
3.63792
6.9935e-63
169.439
1.96939e-31
0.129969
0.0558359
2.64241e-41
85.9525
2.47138e-33
4.87056
103.232
4.79385e-49
6.80851e-30
13.4479
1.35107e-32
2.42829e-47
1.45233e-84
1.34243e-75
4.49669
3.01875e-61
112.004
693.747
5.40686e-82
4.92057e-76
37.7112
5.66922e-47
0
0.726108
1.16097e-84
5.79744e-80
0
1.41964e-42
0.664523
0.810296
694.922
1.41865e-39
0
32.8736
4.22295e-50
13.8566
10.3737
0
7.58965e-98
1.76786e-14
1.07418e-27
8.13666
0
1.23731e-36
8.24269e-104
1.44943e-82
0
0.683051
0.732431
7.09746e-15
1.37474e-33
3139.78
7.94573e-26
0
2.02344e-109
16.63
1.08085e-60
10.6897
6.34805
1.31513e-75
3.11232e-71
4.45776e-12
1.89596e-09
6.77733
0
22.4179
2.07804e-05
9.84295e-83
4.08893e-11
0.000276563
1.5256e-57
1.24291e-18
1.38255e-51
56.9498
2.99238e-52
0
1.71782e-53
1.048e-15
1.40676e-48
12.5738
162.013
0
0
1.35339
6.70935e-102
1.64064
1.68335e-15
0
23027.1
1853.87
1.02208
3.10043e-17
1.39617e-36
0.904466
841.759
1.17241e-36
143.318
4.05257e-41
354.602
3.71158
9.98042e-33
9.43213
102.183
1457.33
6317.66
1.61159
1.65984e-13
8.16109e-45
5.91453e-65
12.3486
0.5732
7.48599e-07
65.3074
4.22796e-27
0.00147767
7.8846e-44
180.132
149.775
66.9293
1.76666e-43
1.36058e-06
0.669576
6.78924e-99
3.25093
8.30693e-32
2.34726e-69
4.41819e-69
222.056
13.1124
24.7986
4.45967e-48
1.00466e-57
7.29379e-38
455.965
1.33748e-07
3416.8
2.44216e-101
0
15.0396
0.000547511
3.591e-96
2.61605e-35
4651.24
9.64096e-32
1.3216e-30
0.154528
204.027
8.87036e-06
0.0811014
1.92435e-96
9530.91
3348.56
0.357441
0.00029023
2.14189e-38
37976.4
8.76538e-43
0.179391
9334.73
2.58331
967.104
119803
4.90651
425466
1.14984e-100
1.71477e+06
22.2606
4.49864e-05
2.02398e-98
2180.39
745612
1.04935e-88
24.3702
507379
0
6.77786
5.88895e-98
3449.31
4.15861
0.000684292
26.6425
29.8038
3.00139e-48
1.57811e-96
8.55386e-21
6.75884e-12
73245.4
0
12.7383
1.71224
1.32756e-81
0
6.41633e-89
1.18766e-31
4.46064e-10
1.83655e-61
5.87213e-06
3.94157e-31
266.816
6.76227e-33
263435
3.77978e-84
0.000137793
0
1.48772e-21
0.109099
9.88829e-87
1.26045e-83
3.90319e-38
1.63137e-22
2.48445e-08
154.705
62.1813
8690.84
3.43878e-05
6.23952e-17
8.20452e-18
2.12865e-53
6.82772e-45
0
1.49393e-15
1.00908e-43
8.15029e-11
5.1341e-09
54.0046
2.35022e-19
1.4124e-17
1.26304e-34
4.5496e-18
2.13663e-13
9.9374e-63
0.151691
2.14e-53
9.96835e-07
52.1672
1.27532e-11
2.91973
2.71695e-40
4.95465e-09
538.32
0.0244647
3.83187e-64
3.25755e-26
1.43715e-40
3.09471e-43
2.64636e-36
2.01404e-50
2.15497e-14
0
8.52992e-18
3.11146e-38
1.43873e-59
1.726e-43
0
1.35611e-37
0.634253
0
1.66509e-05
1.06559e-37
0
0.000384752
4.45404
0.0141025
2.61003e-22
2.4443e-61
6.96567e-63
9.37736
3256.21
6.80935e-49
0.161024
9607.9
1.94917e-60
2.8936e-11
0
0.745067
4740.42
1.79086e-41
1.71117e-25
0.135985
0
6548.88
1.244e-23
1.35443e-71
5.90032e-52
5.41822e-31
1.37993e-31
1.9774e-70
5.34447e-57
1.83252e-36
7.77349e-66
0.826983
1.5409e-35
0
3.61199e-20
2.76738e-67
7.25259e-24
1.89281
3.25924e-36
4.03534e-70
10.2467
2.40946
1.13911e-25
5.78592e-75
7.42895e-95
9.98949e-16
0.00344095
8.93068e-51
3.74396e-41
537.145
1.94185e-23
1.0759e-25
1.27454e-24
7.55511e-24
1.25565e-34
2.34203e-74
2.39211e-12
0.00537433
56.4741
0.00674122
4.64444
7.46351e-14
0.132916
0
3.52197e-36
10.7318
1.89982e-75
3.32484e-37
0.0147142
9.13563e-71
47.0465
2.08533e-79
0
1.6542e-10
0.278684
14.2185
0.312698
12.8922
1.44074e-28
0.159461
6.57846
2.11528e-74
6140.48
1.73513e-54
0.553693
0.325387
7.03577e-15
13.1513
0.0732249
20.6594
1.13203e-09
16.381
0.0896994
1.56064e-13
8.16028e-58
2868.32
1.04026e-11
4.83909e-12
9.62234e-30
5.34784e-77
0.266815
3.15966e-25
5.93994e-26
1.12823e-12
2.79586e-56
5.49359e-58
8.99425e-28
2.32046e-11
2.04225
8.73128e-46
1.1511e-25
1.70385e-13
9.15263e-49
0.00699361
1.16235e-43
1.55324e-19
1.47044e-23
3.3574e-31
1.14732e-55
4.28229e-45
1.26333e-34
2.07015e-42
2.24828e-41
7.50002e-39
2.12422e-33
0
6.72126e-61
0.00042313
0
0.00796413
12.1874
1.01261e-71
1.07436e-14
3.34826e-08
1.07091e-43
1.84047e-40
3.65899e-20
1.84018e-86
4.09436e-45
6.38801e-09
0.0404807
2.15288e-26
9.82486e-46
4.74345e-15
5.67502e-91
2.98625e-16
0.037463
9.37521e-88
2.38761e-46
0.003157
6.22307e-87
1.07804e-45
5.98477e-07
2.93205e-53
0.178977
0.083137
9.22597e-21
1.0256e-88
9.01974e-08
291.128
1.93295
1.70547e-25
5.55744e-58
1.15392e-84
1.64893e-56
1.58264e-51
4.58039e-41
1.00315e-59
5.67294e-66
1.39063e-29
6.17926
8.41699e-38
5.20101e-65
1.44749e-64
1255.39
0.571791
0.005019
189.353
3.77499e-06
4.40245e-36
3.61213e-06
0
9.7869e-53
4.20547e-52
0.263841
0
7.43811e-47
0.707851
215.421
8.10047e-39
1.29296e-41
476.713
0
1474.78
7.98976e-38
3.16009e-16
1.61245e-35
6.96916e-24
17.7754
2.34788e-38
20.4802
3.32052e-46
4.31954e-65
6.41126
1.07664e-31
0
3.19747e-08
22.0324
8.01893e-45
5.38489e-06
5.1461
2.52733e-66
1.27807
23.5735
0.0101768
1.70363e-08
1.06162e-36
0.600012
0
0.00149089
5.80803
0
2.06309e-36
1.69431e-24
2.95925e-26
1.78426e-25
1.44177
0
1.28638e-14
9.8827e-41
2.24897
1.70849e-10
2.43758e-24
7.69536e-20
1.17035e-82
0.00450417
2.19594e-68
1.71266
7.15747
2.07096e-40
1.58687
2.04246
4.04672
3.00942e-59
0
3731.62
0
1.02004
1.04324e-20
0
0
2.42817
9.50755e-79
1.47049e-78
5.67522e-17
4.28485e-80
2.34568
0.310675
0.109413
22.3108
0.0288089
0
6.26601e-25
0.386265
6.16366e-37
1.38612e-64
4.34995e-43
0.0216005
1.44788e-34
0.123249
4.89314e-22
5.06633e-06
4.0174
0.184111
0
0.151677
1.79374
1.49309e-30
0.0182687
0.0583957
3.06135e-13
1.34494
1.08489e-11
0.229645
4.49993e-05
0.000532483
2.85618
2.84461
1.00141e-06
0.00206188
1.358
0.39571
2.33682e-63
1.33244e-27
2.90185
1.13726e-17
2.49546e-24
0.0360344
109.408
1.27922e-14
3.99107e-25
220.941
2.69164e-24
2.8462e-13
0.96129
4.75417e-31
0
1.21791e-42
0.289411
0.122346
1609.09
5.23803e-55
1.1128e-49
0
75.7657
1.38827e-14
0.145156
1.03465e-14
118.122
0
5.83694e-07
4.45094e-44
4.72697
0.695139
2.11928
12.603
371.607
4.43768e-32
2.69305e-07
1.10043e-45
1.68999e-17
4.94948e-71
0
4.74232e-45
1.21856e-15
5.22597e-67
3.65306e-48
1.71174e-30
161706
3.5526e-28
2.66768e-28
9.34083e-68
5.0291e-10
1.11748e-22
0
1.07136
1.45038e-46
1.91882e-44
0
0
1.89395e-24
1.37629e-68
1.35127e-18
4.83377e-45
2.10459e-10
2.6964e-11
70548.6
1.71043e-46
0.00139573
0
3655.57
0
8.55669e-07
7.97716
3.1744e-78
0
4214
6.40782e-37
1.27248e-20
2.32195e-73
2.04775e-63
4.78859e-29
3.84488e-38
6.98537e-78
5.03719e-65
7.75608e-20
1.60766e-47
8.24542e-11
16.9595
2.37283e-77
5.87175e-07
4.87597e-75
1.17884e-12
5.99425e-20
2.82234e-46
5.37862e-73
417.545
3.37225e-50
5.67409e-24
0
3.97847e-06
2.64033e-27
1.14654e-80
3.50855e-102
889.483
3759.68
4.72676e-60
0.781705
1.87927e-47
6.45451e-79
1.09792e-30
0.000624879
1.16801e-48
7.25384e-21
0.266671
2.54926e-17
7.49851e-48
0.142998
5.53242e-29
2.50946
1.01462
2.95645e-27
2.58055e-41
1.93619e-23
47.646
6.33426e-51
1.1291e-14
1.93572e-38
8.56194e-39
5.10975e-39
5.20883e-44
1.08281e-41
0.204562
5.25924e-28
4.53848e-11
0.00307175
3.96977
12.7462
3.20315e-43
0.79666
0.562445
5.58884e-55
0.78278
876939
4.63446e-86
0.428496
0.0491333
3.30023e-28
3.90925e-31
5.81722e-55
0.00497524
1.02944
0
5.04029e-79
3.12672e-35
1.49193e-60
0
0.000447824
0.288805
0.148854
1.62651e-09
1.26142e-32
4.43075e-06
4.53283
0
3.18822e-22
3.07594e-40
28.6764
0.615508
5.01304e-52
2.97913e-16
1.25532e-84
1.53271e-15
0.448809
25.3399
5.478e-41
0.00338794
0.00515595
0.118575
4.08073e-97
1.44543e-74
5886.22
2.75442e-53
1.87049e-52
3.77286e-76
7.2192e-56
0.0214294
1.06495e-12
3.54736e-10
3.54705e-12
1.44064e-34
2.44131e-32
5.67468e-27
5.47028e-79
3.37339
11.6116
1.24386e-71
0.00317026
9.82989e-81
0
3.12729e-56
898.678
5.67802
622.724
1.67465e-22
5.845e-77
2.13627e-89
0
0.00698846
1.0469e-07
470.867
2.30443e-23
1.80425e-74
1.1672e-30
380.809
5326.58
8.83129e-06
0
1222.34
1456.14
0.0726572
0
8.80518
0.217131
15.5077
1.88184
0
0
0
1.56216e-37
1.93463e-71
3.71312e-33
2.35499
982.28
14.9157
35.6581
6.72886
1.31466e-13
0.25161
0.255171
0
0
9.3497
0.00301142
0.335709
0.119161
2.22985e-103
4.4217
15.5053
4.24317e-42
0
440.597
2.65727e-56
9.72191e-101
4.31548
71.1059
0
9.44125e-79
1.58226e-54
3.27074e-55
9.13001e-17
0
1.14186e-67
1.13049
8801.48
3.05216e-58
3.98201e-19
3.783e-11
17.5029
4.53545
1.27639e-27
1.52283e-100
6.97006e-87
6.56758
3.15245e-46
2.98399e-21
5.68443e-06
5.9965e-105
1.43872e-09
1.33736e-72
5.02602e-50
22.1824
1.41405e-06
1.06389e-47
0
1.93821e-49
5.99131e-48
6.16364e-15
9.02051e-06
5.90708e-74
5.60151e-12
5.16334e-33
7.92095e-51
6.14354e-14
1.26298e-75
1.06082e-71
1.63466e-75
5.59018e-57
6.01477e-56
3.06232e-47
3.54306e-25
5.10088e-51
9.27693e-47
9.16195
5.02609e-66
0.669689
5.33369e-25
7.66126e-94
3.68456e-51
0
4.5262e-61
2.07224e-23
1.63658
2.59608
34.2726
0
1.99953e-14
1.34742
0.0106926
2.37747
1.31183
0.0121553
4.66487
9.00334e-36
4.02454e-22
0
2.12035e-34
5.6649e-72
2.53381e-46
6.44701e-28
0
7.3925e-62
131.721
2.62417e-42
2.34729e-16
2.57556e-23
1.60429e-61
4.15564e-22
1.56838e-38
0.0830536
709.376
1.15993
9.20146e-37
5.44237e-60
1.68239e-10
2.25469
3.94847e-10
9.07182e-13
7.4613
5.17535e-22
8.03251
3.9445e-100
0
4.70872e-11
7.06331
7.73507
7.27774
8.45535
2.25635
0.21171
814.965
16.5566
7.42341
9.70645e-77
0
2.72211e-39
7.66623e-34
0.0412473
49.2641
0.0163866
0.467933
37.8555
36.1873
1.56611e-35
68.4538
0.334513
2.46208e-81
8.28298e-96
7.62469e-68
0.00515264
3.408
5.15123e-06
0
0.00708132
32.7996
1.0778e-06
2161.03
5.71967
160.506
10.3296
3.96746e-79
85.4131
15.8023
1.42796e-06
6.29351e-78
3.14186e-09
0
7.1068e-71
0
8.42584
9.47558e-72
2.66806e-53
5.59808
1.05083e-42
13.2355
1.02058
4.44017e-43
0.0886202
5.00774
3.91096
0.676012
3.10766
1.50035e-07
4.19141
2.14731e-35
1.17584e-93
4.96379
0.0226284
8.82839
8.7339
5.70914e-07
1.5935e-28
2.45474e-10
1.33539
2407.21
0
9.38128e-30
10.8455
1.16594e-76
377.984
5.42816e-75
8.05674e-42
4.18707e-74
9.05282
2.57881e-50
1.00168
0
1.70205e-40
5.23195e-24
36.2688
31.3852
0.000161956
4.76978e-58
0.0452625
1026.37
30.5529
0
26.5899
548.827
7.60868
1625.52
1.87813e-34
30.9452
7.78246e-70
1.7655e-13
4.89121e-58
3.05556e-55
8.88114e-47
3.49602e-45
2.6723e-60
1480.71
7.22049e-85
3.1362e-09
0
5.61428e-57
6.50518e-54
1.73448e-84
2.32103e-38
0.0231198
0.0474318
0
7.32388e-63
2.64622
5.1215e-37
532.361
3.89588e-12
3.27173e-65
16.3252
2.70357e-31
9.20696e-63
1.61752e-34
346.264
1.15674e-12
1.08675e-60
0.524068
7.40273e-16
5.80379e-31
1.66615e-59
0.128292
1.58879e-81
0
6.47744e-62
0
8.45448e-73
8.50518e-33
6.13327e-28
19.7398
9.51493e-88
0.000234032
9.22819e-58
0.0766995
4.60436e-56
3.14225e-12
1.62686e-27
0.00948
1.85865e-31
1.04246e-32
2.45113e-33
3.18623e-56
6.76688e-09
1.1767e-39
0
0
0
1.33464e-46
203.581
3.6477e-60
3.40011e-70
2.31095e-55
1.68757e-29
1.88806e-36
0.175131
1.82556e-79
1.18522e-77
2.61407e-33
0
7.46242e-42
0
4.02382e-55
1.36533e-24
0
4.21094e-90
6.43045e-28
0.129841
2.14762e-63
0
3.03153e-92
4.12697e-51
8.92119e-35
8.74453e-50
1667.17
7.72876e-09
4.02493e-35
8.3241e-24
0