/*--------------------------------*- C++ -*----------------------------------*\
| =========                 |                                                 |
| \\      /  F ield         | OpenFOAM: The Open Source CFD Toolbox           |
|  \\    /   O peration     | Version:  v2012                                 |
|   \\  /    A nd           | Website:  www.openfoam.com                      |
|    \\/     M anipulation  |                                                 |
\*---------------------------------------------------------------------------*/
FoamFile
{
    version     2.0;
    format      ascii;
    class       volScalarField;
    location    "5";
    object      qin;
}
// * * * * * * * * * * * * * * * * * * * * * * * * * * * * * * * * * * * * * //

dimensions      [1 0 -3 0 0 0 0];


internalField   uniform 0;

boundaryField
{
    fire_inlet
    {
        type            calculated;
        value           nonuniform List<scalar> 
41
(
32816
40702
31980.1
39544.2
25771.8
13890.7
22947.3
26101.8
32683.9
31903.9
29566.6
21373.3
32379.9
27020.3
32239
38690.6
39449.9
33773
42315.9
41369.7
43632.9
34516.2
46955.1
48288
36085.1
46735.1
42659
43696.1
43246.3
34826.9
41697.1
42834.1
38453
45289.9
48155.7
36209.6
40425.8
41094
45834.6
44132.7
45600.4
)
;
    }
    outlet
    {
        type            calculated;
        value           nonuniform List<scalar> 
400
(
2557.27
2939.67
3518.62
4307.74
4645.42
4946.3
5490.81
5448.44
2093.34
2501.77
2954.02
2727.05
3525.46
3327.78
4323.98
4063.81
2246.58
2862.45
3012.2
3080.56
2980.72
3101.8
2820.83
2949.05
2632.82
2805.6
2418.56
2449.73
2645.36
4278.76
5135.64
3228.75
3935.33
4817.3
5186.2
3398.8
5586.28
3161.9
5131.71
4773.54
2795.11
3769.05
4939.17
5327.26
4533.73
4760.37
4331.26
4489.27
4559.34
4192.03
4209.12
2911.09
4350.16
4271.66
3714.86
3463.92
3626.83
2961.06
2795.38
3482.3
3183.19
3933.95
3259.24
3065.21
3264.09
2908.23
3094.84
3289.35
3917.97
5102.37
4539.93
4673.95
4125.38
4819.21
2832.32
3294.25
3406.64
4234.51
3766.48
2915.51
4026.83
3342.09
3192
3375.5
3576.86
3555.61
3628.88
3242.16
3861.39
3841.65
4279.09
3626.14
3376.72
3987.92
4252.14
4006.59
3871.74
3699.4
3628.33
3728.54
459.363
459.367
459.345
459.336
459.322
459.315
459.309
459.307
459.309
459.308
459.308
459.308
459.308
459.308
459.308
459.308
459.309
459.354
459.336
459.339
459.321
459.326
459.315
459.32
459.311
459.312
459.31
459.31
459.31
459.334
459.307
459.35
459.337
459.321
459.315
459.315
459.31
459.346
459.308
459.348
459.312
459.363
459.335
459.308
459.31
459.312
459.308
459.328
459.323
459.315
459.319
459.313
459.331
459.338
459.337
459.308
459.309
459.308
459.308
459.362
459.326
459.321
459.321
459.314
459.319
459.324
459.348
459.309
459.325
459.307
459.31
459.309
459.339
459.308
459.334
459.334
459.308
459.31
459.309
459.313
459.329
459.325
459.308
459.311
459.309
459.309
459.32
459.313
459.308
459.326
459.309
459.322
459.32
459.315
459.31
459.309
459.312
459.314
459.317
459.313
459.31
459.308
459.309
459.309
459.31
459.318
459.316
459.309
459.314
459.311
464.183
466.177
469.562
467.335
475.694
470.86
479.681
478.239
486.459
481.768
488.826
486.965
489.368
489.747
488.849
488.466
489.138
488.841
488.843
488.517
488.718
488.874
490.308
489.647
490.692
489.748
491.618
490.165
491.334
491.464
493.127
492.314
490.67
461.767
463.816
472.46
484.459
490.255
485.025
490.821
464.129
464.168
462.853
461.64
461.508
461.883
464.258
464.271
465.141
467.086
469.794
476.529
475.566
489.307
464.621
463.318
461.525
461.224
465.056
462.962
461.613
464.405
480.326
461.769
461.975
463.236
463.643
466.38
472.548
478.154
472.288
482.565
478.318
487.39
485.34
489.465
465.476
488.676
487.4
486.052
487.508
486.769
488.595
486.504
488.183
487.816
486.558
486.751
486.699
485.955
490.292
466.317
468.031
462.704
480.682
462.23
463.299
464.415
464.086
464.74
466.838
464.965
462.93
463.351
461.5
465.935
469.045
489.031
462.774
467.192
464.827
489.057
482.868
487.567
471.941
473.164
469.461
467.213
463.855
476.618
484.385
486.534
480.671
484.549
485.987
481.335
469.683
485.423
484.055
470.35
485.289
484.663
484.906
483.037
484.21
482.056
483.001
482.258
482.932
481.856
481.156
474.233
464.715
473.985
476.184
467.068
465.648
464.887
466.01
465.339
466.89
465.159
470.823
468.96
475.035
469.26
473.202
468.702
470.072
468.498
481.926
480.629
480.77
479.411
480.737
479.819
478.091
478.247
479.321
475.066
480.906
468.947
468.262
473.828
475.007
474.634
475.362
468.249
467.847
475.883
470.399
473.879
474.032
469.39
470.071
472.709
468.973
473.046
474.832
474.644
)
;
    }
    base
    {
        type            calculated;
        value           nonuniform List<scalar> 
14237
(
2359.35
3056.16
3162.75
1151.17
1773.27
2373.51
2832.69
2445.27
2890.26
4936.66
4183.63
1143.32
1188.06
1319.27
1438.78
1731.06
3098.79
3046.92
3965.1
4286.38
4607.97
5060.77
4833.67
6161.71
4412.51
4946.62
2992.13
1118.21
1052.59
3026.49
1454.25
1573.4
4265.26
3636.76
4184.55
4562.7
4033.22
1243.77
4394.92
2237.09
2442.8
2385.6
4444.27
1260.96
4592.14
4226.39
4159.36
2723.96
3158.62
2322.98
2862.18
1185.18
3141.95
2229.92
3426.9
3486.53
1874.28
1103.56
1465.95
1965.37
2872.43
5264.74
13147.9
15814.7
18964.1
2280.41
3101.41
6285.26
12915.9
1561.33
1396.35
459.407
459.387
459.357
459.388
459.344
459.359
459.339
459.347
459.331
459.338
459.325
459.332
459.323
459.326
459.319
459.322
459.316
459.319
459.314
459.316
459.311
459.313
459.309
459.309
459.31
459.31
459.311
459.311
459.312
459.312
459.313
459.313
459.315
459.314
459.316
459.316
459.316
459.316
459.321
459.319
459.32
459.32
459.32
459.322
459.322
459.326
459.323
459.326
459.329
459.333
459.334
459.348
459.35
459.361
459.382
459.41
459.388
459.471
459.432
459.562
459.717
459.785
462.779
462.151
613.92
673.04
733.869
717.825
666.356
513.946
478.217
472.323
469.723
459.311
459.312
459.313
459.316
459.325
459.355
459.412
459.542
460.283
465.878
479.327
547.74
459.311
459.312
459.311
459.313
459.312
459.311
459.313
459.313
459.314
459.319
459.319
459.333
459.334
459.35
459.351
459.401
459.387
459.479
459.435
459.529
459.524
459.605
459.6
459.822
459.997
459.786
460.197
460.076
460.655
460.33
461.43
460.928
462.464
461.793
463.807
463.085
465.978
464.812
467.531
466.867
468.513
468.27
468.698
468.87
467.846
468.286
466.566
467.196
465.556
466.105
464.672
465.064
464.55
464.378
465.636
465.561
466.049
465.759
467.507
466.872
467.607
467.993
466.824
467.751
465.329
466.74
462.832
465.26
466.591
464.493
473.295
471.63
489.281
463.629
465.789
470.276
478.342
487.096
499.465
522.035
676.501
1040.28
1115.91
778.474
1070.61
1869.16
1767.2
1050.63
804.299
732.54
578.256
546.013
527.329
463.663
459.463
459.646
459.926
460.442
460.981
461.141
460.66
460.13
459.674
459.554
459.917
462.017
462.789
459.309
468.427
576.32
634.99
717.182
711.536
725.862
576.959
494.738
474.911
470.707
459.312
459.312
459.312
459.312
459.314
459.318
459.334
459.384
459.46
459.734
462.754
470.962
498.002
490.56
478.637
483.378
465.839
463.148
467.037
467.098
474.082
484.072
493.647
502.697
569.105
864.746
1130.81
970.141
806.915
1485.89
1965.58
1402.77
833.321
814.217
676.959
562.647
538.996
506.165
459.527
459.776
460.195
460.724
461.192
460.984
460.441
459.892
459.594
459.685
460.652
459.41
690.297
697.281
698.65
631.131
506.395
475.608
471.134
469.208
459.313
459.317
459.328
459.361
459.428
459.584
460.626
470.899
493.874
547.445
459.311
501.105
531.139
750.359
1180.2
1107.88
758.232
1366.25
2031.55
1563.26
860.749
785.92
722.704
572.114
540.773
507.351
459.63
459.92
460.414
461.04
461.145
460.634
460.109
459.646
459.68
460.547
506.195
653.169
709.434
695.341
678.796
560.511
486.852
472.452
470.047
459.341
459.393
459.488
459.871
465.347
483.33
521.272
967.645
1207.37
905.381
958.005
1856.33
1922.19
1134.84
795.317
779.514
630.925
548.771
529.134
493.456
459.552
459.774
460.214
460.756
461.208
460.953
460.435
459.883
459.541
459.866
625.152
459.321
459.315
487.414
470.362
588.883
474.059
494.703
459.471
671.644
468.271
459.357
459.35
459.358
459.34
459.349
459.333
459.337
459.328
459.334
459.32
459.327
459.318
459.321
459.316
459.318
459.312
459.314
459.314
459.312
459.311
459.313
459.313
459.314
459.315
459.315
459.318
459.319
459.321
459.322
459.321
459.327
459.334
459.334
459.337
459.34
459.336
459.336
459.339
459.345
459.359
459.347
459.388
459.372
459.426
459.393
459.506
459.465
459.615
459.57
459.845
459.703
460.266
460.361
463.362
466.422
463.639
459.32
672.085
683.713
667.436
653.386
661.823
634.021
643.207
608.223
534.584
481.115
475.007
474.02
468.584
459.344
490.188
459.317
459.32
459.312
459.313
459.311
481.503
459.327
459.327
459.343
459.315
459.315
459.316
459.404
459.531
459.793
461.571
468.527
497.945
517.095
947.061
459.494
475.118
459.313
459.313
459.315
459.316
459.319
459.325
459.325
459.338
459.338
459.36
459.367
459.388
459.388
459.448
459.436
459.518
459.479
459.572
459.573
459.757
460.042
459.739
468.658
460.311
460.079
460.887
460.474
461.599
461.043
462.817
461.972
464.85
463.466
466.674
465.512
468.327
467.64
468.943
468.881
468.543
469.157
467.256
468.166
466.159
466.569
465.139
465.56
464.325
465.005
465.657
464.849
465.739
466.108
466.937
467.03
468.061
468.466
468.266
470.477
467.148
468.416
465.115
467.059
465.253
466.628
472.685
489.518
470.935
593.632
465.046
465.096
488.908
481.917
483.788
475.816
476.079
463.042
517.567
541.404
653.735
752.681
837.617
471.118
467.414
471.235
1275.79
888.473
960.434
1931.5
1896.38
1083.91
770.366
750.714
634.364
541.588
499.718
494.708
489.327
490.45
459.31
459.763
460.186
460.716
461.204
460.989
460.388
459.861
459.555
459.832
610.594
630.046
502.034
500.334
461.172
459.416
569.376
582.543
459.386
459.388
459.412
459.312
459.31
461.221
468.549
460.696
461.908
459.31
459.311
658.139
649.125
598.359
584.164
582.509
498.645
483.042
480.591
472.896
470.153
469.141
472.355
468.91
459.599
459.378
459.458
459.35
460.174
462.224
477.173
504.682
530.989
459.31
491.444
459.448
674.021
651.273
1244.8
1083.15
775.35
1367.46
2034.41
1513.52
853.585
751.12
712.055
575.039
519.798
1112.49
459.622
580.318
459.634
459.9
460.338
461.015
461.151
460.614
460.102
459.67
459.636
673.24
718.066
542.794
766.178
459.902
459.674
460.113
460.683
461.254
460.996
505.143
552.244
460.417
459.626
459.874
460.372
461.012
461.22
460.15
518.672
585.885
698.913
737.681
891.365
1535.77
2081.3
459.313
459.479
510.66
506.174
471.228
459.43
494.797
459.312
459.888
556.864
521.083
1161.25
531.324
517.93
459.491
459.389
459.417
460.463
485.097
2006.67
1686.53
820.481
1009.02
1259.06
1251.02
805.856
1240.62
459.729
460.444
459.87
460.777
459.612
459.363
459.34
459.354
459.336
459.345
459.331
459.336
459.325
459.33
459.322
459.326
459.315
459.312
459.322
460.712
485.608
460.211
460.586
459.318
459.322
459.323
459.324
459.322
459.331
459.337
459.349
459.351
459.362
459.361
459.357
459.371
459.362
459.392
459.377
459.386
459.419
459.444
459.44
459.464
459.55
459.561
459.742
459.647
459.956
459.953
460.665
460.633
758.46
714.079
616.386
603.802
1019.29
459.558
536.858
459.313
470.846
472.892
459.482
477.106
478.118
582.551
574.233
459.431
459.476
459.374
459.396
495.841
1973.8
479.419
490.577
500.536
535.983
494.873
1265.54
459.315
459.321
459.318
459.32
459.328
459.323
459.361
459.362
459.379
459.376
459.404
459.408
459.469
459.459
459.524
459.54
459.631
459.634
459.834
460.021
459.774
809.265
460.371
460.232
461.054
460.624
461.868
461.464
463.345
462.797
465.545
464.37
467.686
466.544
468.933
468.425
469.225
469.485
468.225
468.795
466.684
467.419
465.595
466.321
465.042
464.992
464.888
465.692
466.154
465.564
466.974
466.979
468.537
468.872
470.576
471.565
468.633
473.927
467.159
468.865
475.506
463.888
459.74
460.126
794.034
526.746
1266.22
1225.32
1261.3
1059.92
898.203
861.28
1001.6
2117.61
1932.43
520.73
1531.13
1492.85
1214.63
512.595
680.717
665.543
460.47
571.379
1003.14
1065.29
609.429
624.742
460.3
589.777
625.237
507.564
459.795
459.989
459.833
459.996
460.997
461.339
460.782
460.114
459.679
459.722
629.973
631.74
598.281
459.41
461.776
495.405
503.42
544.955
596.173
757.172
713.812
664.235
466.714
655.313
632.154
716.992
470.393
507.101
507.525
505.979
459.327
459.468
459.469
459.404
459.375
459.405
708.509
673.374
487.109
460.655
460.42
459.321
459.315
910.723
464.168
464.009
590.975
618.719
459.365
477.316
480.546
467.592
470.546
473.553
1170.2
535.061
528.827
459.313
461.145
459.313
459.314
459.353
459.377
459.335
459.335
459.359
462.544
550.354
468.308
459.573
509.296
462.171
792.608
459.561
469.623
463.633
465.077
459.817
820
492.485
488.471
481.2
478.892
459.678
537.504
459.317
459.32
459.32
470.897
467.423
467.52
459.568
459.313
1761.32
518.735
459.819
804.426
468.169
666.325
460.191
497.432
498.673
482.533
460.686
459.719
459.79
461.247
461.1
460.342
459.837
468.701
580.695
696.781
466.745
465.532
460.127
459.314
509.608
513.484
510.384
652.4
461.046
2003.35
1775.55
863.285
646.366
460.32
460.718
461.198
461.285
461.379
459.84
459.531
459.316
459.317
459.35
459.34
459.347
459.334
459.34
459.327
459.329
459.322
513.051
506.234
481.238
460.174
459.333
459.345
459.348
459.364
459.36
459.382
459.388
459.4
459.397
459.422
459.414
459.468
459.469
459.477
459.472
459.539
459.497
459.747
459.703
459.826
459.819
460.187
460.112
460.9
460.855
833.669
763.423
606.018
615.525
1695.04
509.547
511.696
589.503
579.287
461.207
791.346
460.778
639.138
459.593
1065.48
459.516
459.548
783.108
476.717
538.686
548.827
690.035
736.766
462.908
460.056
459.333
487.573
494.884
477.437
459.382
459.363
459.397
459.411
459.44
459.445
459.498
459.497
459.586
459.567
459.712
459.724
459.921
460.198
459.885
459.753
459.976
460.636
460.427
461.437
461.085
462.832
462.21
464.427
463.482
466.574
465.134
468.488
467.578
469.565
469.351
469.152
469.842
467.826
468.749
466.931
467
465.441
466.503
465.766
465.443
466.118
466.061
466.864
467.188
468.978
468.845
471.557
472.049
474.114
474.262
466.553
542.49
459.839
468.297
1643.55
1542.71
481.895
473.992
476.053
472.376
459.368
527.089
508.59
828.471
1010.64
1166.11
512.814
494.062
495.767
484.347
460.198
609.948
460.982
460.386
807.005
868.888
472.946
460.963
462.445
460.675
460.233
460.74
470.109
464.987
475.276
459.354
459.351
459.37
461.456
461.591
461.307
461.325
460.619
460.519
459.325
470.934
594.893
576.524
496.168
498.971
654.812
592.571
460.79
460.785
989.493
459.735
459.954
459.408
474.655
473.068
461.029
495.229
459.327
508.549
504.22
459.943
459.962
459.343
463.445
463.402
949.614
667.696
1717.58
1673.27
572.745
583.034
600.112
461.404
775.49
459.345
459.444
459.512
465.136
466.093
465.829
653.422
479.156
459.718
523.966
515.836
626.973
547.203
460.212
490.086
459.332
459.313
577.457
464.146
466.782
469.939
460.469
537.881
459.33
459.346
459.442
918.874
706.372
476.357
477.671
468.603
459.321
459.321
459.324
507.724
463.781
463.942
461.191
459.446
460.179
519.905
459.333
746.644
1316.79
459.341
629.86
662.58
693.802
459.609
459.335
459.829
459.797
471.28
469.653
471.2
459.929
459.51
471.056
550.656
531.925
768.72
504.299
459.952
801.639
995.843
930.589
460.168
459.615
460.841
878.415
461.621
459.342
459.342
459.338
459.34
460.995
459.745
1105.95
1412.14
459.367
459.389
459.381
459.397
459.396
459.43
459.401
459.477
459.483
459.504
459.518
459.551
459.539
459.733
459.738
459.942
459.926
460.369
460.345
461.277
461.258
1058.27
574.359
820.728
460.246
477.372
510.818
868.989
601.682
469.773
827.789
459.373
459.377
459.435
817.958
1044.62
464.674
464.624
530.194
493.221
614.812
459.383
459.439
459.418
459.488
459.47
459.55
459.553
459.652
459.657
459.849
459.853
459.996
460.232
459.939
559.885
460.248
732.301
460.839
460.389
461.752
461.02
463.46
462.325
465.093
464.134
467.392
466.592
469.26
468.931
470.261
470.298
469.421
469.905
467.27
468.781
466.547
466.771
465.477
466.463
466.13
466.268
468.311
466.924
469.398
469.193
473.664
473.558
476.753
476.661
460.206
466.282
459.789
460.232
459.346
459.374
459.338
498.044
502.422
608.079
461.487
559.313
461.457
460.788
462.424
459.353
459.342
506.363
459.35
459.362
459.363
487.421
686.33
577.89
459.886
459.997
488.968
493.443
459.54
459.443
459.476
461.345
461.459
507.317
460.617
460.66
562.64
546.348
460.612
460.562
461.25
459.423
459.383
459.431
544.398
561.744
460.955
460.952
464.656
687.546
711.753
678.914
999.731
730.559
538.778
555.409
476.958
461.132
459.849
473.447
479.979
459.858
1507.04
499.777
474.369
463.019
463.002
1183.19
1728.83
824.531
459.612
459.644
477.795
521.057
501.18
762.92
465.882
506.294
501.11
505.828
459.399
465.61
465.019
643.276
530.121
519.962
527.067
566.537
499.726
459.368
459.387
461.32
461.454
542.603
1303.72
459.866
460.188
483.725
460.239
460.002
466.918
467.931
461.654
1110.02
462.559
462.953
462.559
509.675
541.022
547.282
462.466
462.93
765.357
491.035
491.802
485.446
464.837
464.661
470.236
460.539
460.184
460.563
459.57
459.732
459.342
517.842
496.69
465.103
466.046
459.363
459.379
459.942
539.148
459.363
459.348
498.751
472.741
460.528
459.438
459.436
459.461
459.478
459.475
459.56
459.521
459.581
459.56
459.761
459.756
460.136
460.002
460.649
460.625
461.439
461.417
519.646
459.699
459.352
459.462
497.452
461.006
463.826
463.772
517.05
461.762
513.741
459.544
459.544
459.662
459.663
459.794
459.774
459.965
459.862
460.043
460.166
460.056
460.966
460.352
462.085
461.272
463.837
462.876
465.807
465.095
468.781
467.052
470.376
469.858
470.003
470.842
468.844
469.728
466.901
468.882
466.54
466.885
466.312
466.418
466.978
467.391
470.825
469.596
473.449
471.629
459.342
462.949
464.573
508.284
460.668
461.017
460.873
460.879
459.458
464.186
463.953
460.325
460.518
484.572
460.022
470.187
527.501
459.447
459.478
459.602
461.444
461.621
468.538
498.099
487.223
495.373
461.792
461.886
462.789
475.372
477.669
459.458
518.081
462.672
462.654
459.348
507.285
502.832
459.659
459.774
459.987
459.366
459.368
477.55
459.358
790.153
459.398
464.618
460.196
459.523
479.01
481.673
476.904
459.351
459.342
459.668
459.786
459.395
476.812
460.271
460.346
504.278
495.674
461.967
463.394
464.05
463.02
461.472
459.403
459.429
460.53
460.553
459.36
459.359
459.444
459.367
459.393
459.364
461.038
461.476
460.624
461.707
462.415
484.314
464.22
464.348
459.41
459.419
483.549
490.762
461.521
459.498
459.524
459.574
459.593
459.68
459.706
459.969
459.963
460.193
460.045
460.855
460.841
461.411
461.459
477.442
459.443
459.432
460.953
460.655
461.844
461.77
470.389
469.554
471.958
486.567
459.502
459.666
459.777
459.764
459.929
459.867
460.037
460.025
460.381
460.347
461.201
462.907
461.256
465.144
463.302
467.121
466.2
469.252
468.325
471.186
470.462
470.002
470.898
468.959
469.872
466.719
467.778
466.294
466.522
467.444
466.874
469.69
468.791
472.024
475.995
470.517
459.362
459.528
459.627
459.52
460.073
459.914
460.074
463.701
461.176
459.445
460.993
463.531
463.418
462.708
459.43
459.399
460.721
462.283
461.477
485.427
460.384
459.607
459.604
459.796
501.332
489.61
503.593
459.467
459.412
462.019
462.432
461.177
463.643
459.457
462.6
463.411
460.408
461.063
460.679
488.73
490.122
459.474
459.479
459.508
482.187
459.522
459.677
459.624
476.918
460.416
459.448
459.364
459.374
459.372
463.128
462.779
461.334
461.866
462.253
462.8
460.651
459.547
459.388
464.958
464.889
461.429
461.477
479.879
482.522
460.627
461.402
460.895
460.092
460.205
479.338
474.675
475.396
482.89
482.208
477.055
462.631
459.403
461.806
459.704
460.215
482.291
481.099
462.572
462.609
459.96
461.659
460.081
460.068
460.16
460.192
461.253
463.401
461.726
465.257
463.47
468.451
465.811
470.544
469.235
470.86
471.079
469.897
470.927
467.651
469.633
466.934
467.139
466.993
467.224
468.935
467.471
475.84
462.38
459.725
459.919
459.742
461.916
459.783
459.758
460.054
460.664
478.336
462.28
474.636
462.271
461.227
477.966
459.566
462.541
462.622
460
471.38
461.596
459.711
476.136
472.517
462.753
459.651
460.912
460.843
461.572
461.911
471.092
471.492
469.417
471.627
474.479
468.86
468.609
459.396
460.282
460.7
472.754
470.451
475.697
472.46
465.46
465.71
460.845
460.606
461.787
470.34
460.402
469.047
470.044
467.517
462.847
466.027
463.077
469.055
466.334
471.326
469.645
470.919
471.488
469.893
470.672
468.12
469.55
467.139
467.98
462.701
477.792
475.984
474.797
461.949
471.36
471.606
460.315
461.778
461.801
460.622
467.307
460.097
460.297
468.809
459.789
473.165
472.224
468.53
466.126
469.324
469.882
460.167
460.036
471.764
471.159
472.763
467.634
460.02
463.011
469.477
471.426
469.648
468.207
463.387
462.906
465.792
470.702
470.149
463.221
467.909
469.859
466.194
469.882
469.231
469.324
460.635
465.051
460.217
460.67
471.658
471.575
461.78
471.699
470.01
460.957
471.767
471.837
471.942
461.585
471.944
472.431
459.479
459.415
459.353
459.332
459.317
459.313
459.309
459.308
459.31
459.31
459.309
459.31
459.309
459.309
459.308
459.308
459.308
459.308
459.308
459.308
459.307
459.308
459.307
459.307
459.307
459.307
459.307
459.307
459.307
459.307
459.307
459.307
459.307
459.307
459.307
459.307
459.308
459.307
459.308
459.308
459.308
459.308
459.308
459.308
459.308
459.308
459.31
459.488
459.444
459.421
459.423
459.375
459.391
459.348
459.357
459.338
459.345
459.328
459.33
459.326
459.327
459.326
459.325
459.32
459.321
459.315
459.319
459.311
459.31
459.312
459.492
459.473
459.448
459.386
459.362
459.38
459.417
459.435
459.39
459.361
459.351
459.334
459.324
459.329
459.317
459.32
459.316
459.316
459.313
459.312
459.31
459.31
459.308
459.308
459.308
459.308
459.369
459.339
459.314
459.311
459.309
459.307
459.307
459.308
459.412
459.379
459.37
459.338
459.319
459.314
459.312
459.343
459.479
459.468
459.47
459.308
459.486
459.459
459.455
459.406
459.382
459.372
459.4
459.428
459.378
459.357
459.391
459.344
459.307
459.358
459.358
459.343
459.325
459.312
459.309
459.31
459.308
459.307
459.307
459.425
459.323
459.314
459.312
459.38
459.361
459.377
459.403
459.429
459.398
459.368
459.354
459.35
459.325
459.313
459.31
459.308
459.307
459.307
459.314
459.31
459.436
459.391
459.363
459.347
459.31
459.307
459.307
459.307
459.318
459.336
459.395
459.454
459.379
459.376
459.39
459.445
459.419
459.351
459.311
459.315
459.367
459.398
459.314
459.329
459.312
459.372
459.42
459.339
459.332
459.31
459.31
459.309
459.31
459.309
459.309
459.308
459.308
459.307
459.307
459.307
459.307
459.307
459.307
459.307
459.308
459.307
459.308
459.308
459.308
459.308
459.308
459.308
459.432
459.359
459.377
459.404
459.354
459.373
459.337
459.346
459.33
459.336
459.328
459.327
459.326
459.326
459.318
459.319
459.315
459.315
459.36
459.308
459.308
459.407
459.43
459.361
459.39
459.378
459.374
459.383
459.363
459.401
459.396
459.447
459.406
459.395
459.359
459.381
459.364
459.354
459.356
459.31
459.39
459.318
459.314
459.372
459.319
459.316
459.317
459.315
459.317
459.311
459.316
459.309
459.31
459.309
459.309
459.31
459.318
459.307
459.308
459.307
459.307
459.307
459.307
459.312
459.312
459.485
459.428
459.417
459.385
459.314
459.312
459.329
459.326
459.334
459.336
459.348
459.41
459.372
459.308
459.314
459.317
459.314
459.308
459.447
459.308
459.467
459.309
459.386
459.363
459.309
459.308
459.313
459.308
459.394
459.309
459.311
459.31
459.314
459.431
459.322
459.321
459.318
459.31
459.342
459.333
459.354
459.356
459.365
459.309
459.329
459.309
459.311
459.31
459.31
459.31
459.382
459.308
459.309
459.309
459.308
459.36
459.34
459.327
459.321
459.317
459.314
459.313
459.317
459.327
459.375
459.375
459.316
459.359
459.309
459.325
459.383
459.355
459.317
459.317
459.318
459.318
459.315
459.317
459.311
459.311
459.31
459.311
459.31
459.336
459.352
459.313
459.314
459.312
459.32
459.324
459.308
459.308
459.345
459.313
459.311
459.308
459.313
459.359
459.325
459.331
459.351
459.332
459.355
459.311
459.31
459.309
459.309
459.317
459.309
459.312
459.311
459.325
459.32
459.32
459.318
459.312
459.311
459.313
459.319
459.336
459.331
459.357
459.322
459.312
459.313
459.338
459.309
459.309
459.354
459.34
459.604
459.759
460.1
460.82
461.922
462.875
462.647
461.44
460.484
459.98
459.806
460.313
464.322
468.202
466.008
470.166
470.022
470.569
468.91
464.589
462.493
462.854
468.38
469.63
469.777
459.528
459.677
459.849
459.76
460.167
459.958
460.468
460.206
460.872
460.621
461.562
461.031
462.192
461.762
462.833
462.416
463.33
463.004
463.644
463.521
463.595
463.569
463.105
463.217
462.369
462.73
461.857
462.092
461.13
461.375
460.647
460.796
460.206
460.326
459.938
460.086
460.035
459.819
460.309
459.969
460.949
460.542
462.297
462.181
465.781
463.619
459.639
459.615
459.609
459.645
459.604
459.63
459.576
459.614
459.539
459.588
459.493
459.523
459.464
459.491
459.45
459.472
459.427
459.465
459.411
459.436
459.457
459.457
459.456
459.462
459.518
459.487
459.542
459.557
459.545
459.577
459.571
466.8
459.862
460.426
461.259
462.531
462.878
462.247
460.837
460.256
459.829
459.915
461.126
463.527
463.397
467.455
466.247
466.838
466.523
469.49
466.239
467.458
462.402
462.504
465.032
469.265
459.951
470.144
460.56
461.822
459.833
459.682
460.138
461.261
462.589
463.141
462.492
461.368
460.456
459.848
459.805
460.518
467.508
461.875
462.768
468.261
468.126
462.995
462.85
461.919
460.821
460.081
459.746
459.936
461.524
467.912
463.949
464.774
461.672
459.663
463.206
461.204
462.715
463.167
459.793
463.071
461.933
460.971
460.028
459.768
460.029
461.904
463.201
465.945
464.342
463.224
461.529
465.819
464.416
462.071
461.183
459.737
463.167
463.64
464.425
464.692
462.421
463.156
462.161
467.854
460.624
460.767
459.732
459.657
459.985
459.826
460.195
460.004
460.499
460.237
461.07
460.717
461.856
461.458
462.395
461.915
462.796
462.671
463.304
463.107
463.362
463.381
462.985
463.064
462.39
462.81
461.589
462.25
461.09
461.508
460.565
460.857
460.211
460.356
459.995
460.129
459.868
459.851
459.947
459.957
460.358
460.397
461.811
461.834
463.272
465.989
463.109
459.692
460.21
460.278
459.662
459.643
459.666
459.612
459.656
459.538
459.641
459.522
459.532
459.457
459.504
459.457
459.475
459.443
459.462
459.453
459.439
459.472
459.491
459.515
459.517
459.552
459.569
466.001
464.843
462.714
462.984
459.668
462.032
459.818
460.028
463.558
462.727
461.324
460.413
459.835
459.889
460.652
460.065
465.753
463.402
464.055
461.684
463.294
461.377
459.83
461.647
461.935
460.335
467.373
461.118
463.728
462.618
459.593
461.374
460.056
461.007
463.288
460.324
459.814
460.063
460.642
462.398
463.603
461.338
462.928
464.183
460.793
459.672
463.766
463.87
464.4
464.82
462.898
460.613
460.587
461.916
462.47
460.081
460.834
460.363
459.873
459.978
460.193
460.115
461.957
459.824
459.834
463.621
464.195
461.104
460.563
459.832
459.808
460.955
461.28
459.826
459.714
461.121
461.13
459.965
459.916
460.246
460.127
460.76
460.458
461.285
460.909
461.872
461.462
462.59
462.292
462.841
462.866
463.158
463.009
462.76
463.443
462.534
462.824
462.042
462.115
461.473
461.451
460.754
461.02
460.264
460.661
460.02
460.106
459.899
459.953
459.939
459.931
460.233
460.077
461.013
460.418
460.497
460.553
459.796
461.276
460.825
462.039
461.534
459.747
459.685
459.83
459.594
459.691
459.59
459.634
459.569
459.585
459.509
459.574
459.503
459.519
459.506
459.514
459.566
459.531
459.607
459.735
459.623
463.693
461.713
461.441
463.016
460.983
460.759
460.556
460.319
460.083
459.778
463.341
464.66
459.886
460.138
459.913
459.897
460.575
463.313
463.23
462.447
462.787
462.677
461.748
461.801
461.236
463.823
463.596
462.895
461.444
462.87
461.761
459.911
460.192
463.458
461.289
464.315
464.233
465.891
465.845
465.859
460.03
460.496
460.449
461.813
461.382
465.577
466.721
460.469
459.873
459.981
461.511
460.011
461.239
460.91
459.795
459.725
460.041
459.937
460.387
460.25
460.738
460.595
461.441
461.198
462.141
461.993
462.713
462.603
463.132
463.066
463.585
463.733
463.171
463.492
462.509
462.705
461.735
462.238
460.821
461.523
460.588
460.77
460.043
460.215
459.8
460.036
459.876
459.761
459.971
460.233
459.951
460.753
460.841
459.879
460.617
460.216
462.234
461.793
464.008
465.447
459.737
459.982
459.663
459.681
459.681
459.71
459.604
459.757
459.602
459.688
459.578
459.629
459.564
459.63
460.254
462.672
463.469
461.004
462.978
460.353
466.496
459.971
460.458
461.949
461.558
459.856
461.197
461.619
460.127
460.336
461.722
459.883
461.917
460.168
460.354
459.64
459.719
459.661
460.682
460.393
461.812
461.278
460.166
460.464
460.191
460.022
459.995
459.949
460.287
463.698
460.194
460.507
460.121
460.103
459.816
460.001
460.428
462.395
467.263
460.794
466.832
465.282
464.692
460.88
460.874
459.941
459.792
460.266
460.005
460.457
460.292
461.099
460.774
461.912
461.858
462.825
462.814
463.726
463.471
464.417
464.583
464.593
465.215
464.083
464.656
462.873
463.736
462.118
462.533
461.435
461.552
460.179
460.669
459.9
460.125
459.758
459.794
460.134
460.981
460.808
462.099
461.859
462.013
461.758
467.131
467.38
460.067
460.29
467.814
468.778
467.87
460.169
460.397
459.917
460.108
459.826
459.944
459.763
459.87
459.71
459.763
459.74
459.777
464.017
465.495
460.53
460.455
459.94
459.903
459.805
463.09
460.923
460.736
460.529
459.849
460.174
460.461
463.476
460.448
467.222
460.099
460.233
459.98
460.006
460.023
459.838
460.164
460.613
460.113
460.212
459.993
463.397
460.152
459.801
459.925
459.787
459.747
459.969
468.599
459.802
465.733
465.308
460.958
460.222
460.098
460.072
460.435
460.145
461.01
460.845
462.033
462.052
463.829
463.288
465.866
465.777
466.605
467.349
466.846
467.871
466.971
467.547
464.434
467.719
463.768
464.671
461.807
462.883
460.979
461.31
460.094
460.62
459.805
459.752
459.932
459.717
461.958
461.48
470.025
460.664
461.406
460.249
460.314
460.816
460.285
460.4
460.211
460.354
460.114
460.198
460.444
466.162
468.738
460.756
460.765
460.789
463.333
465.453
459.879
460.208
459.784
459.779
460.404
460.088
459.883
459.829
468.556
460.243
462.742
462.185
461.422
462.326
460.532
459.994
459.943
459.967
460.037
470.437
471.299
470.414
470.475
459.818
459.893
459.869
459.756
459.775
459.749
460.009
461.848
466.499
470.393
469.259
459.942
468.939
460.976
460.869
462.547
462.365
465.063
464.121
467.566
466.996
469.51
471.338
470.735
471.599
471.231
471.188
467.332
470.439
466.462
467.401
463.958
464.111
461.768
461.989
460.562
460.836