/*--------------------------------*- C++ -*----------------------------------*\
| =========                 |                                                 |
| \\      /  F ield         | OpenFOAM: The Open Source CFD Toolbox           |
|  \\    /   O peration     | Version:  v2012                                 |
|   \\  /    A nd           | Website:  www.openfoam.com                      |
|    \\/     M anipulation  |                                                 |
\*---------------------------------------------------------------------------*/
FoamFile
{
    version     2.0;
    format      ascii;
    class       volScalarField;
    location    "5";
    object      qr;
}
// * * * * * * * * * * * * * * * * * * * * * * * * * * * * * * * * * * * * * //

dimensions      [1 0 -3 0 0 0 0];


internalField   uniform 0;

boundaryField
{
    fire_inlet
    {
        type            calculated;
        value           nonuniform List<scalar> 
41
(
32356.7
40242.7
31520.8
39084.9
25312.5
13431.4
22488
25642.5
32224.6
31444.6
29107.3
20914
31920.6
26561
31779.7
38231.3
38990.6
33313.7
41856.6
40910.4
43173.6
34056.8
46495.8
47828.7
35625.8
46275.8
42199.7
43236.8
42787
34367.5
41237.8
42374.8
37993.7
44830.5
47696.4
35750.3
39966.5
40634.7
45375.3
43673.4
45141.1
)
;
    }
    outlet
    {
        type            calculated;
        value           nonuniform List<scalar> 
400
(
-776.941
-1021.17
3059.31
554.361
4186.12
4486.99
1079.99
4989.14
717.561
518.539
622.513
636.209
823.757
832.445
3864.68
3604.51
470.972
-467.763
-82.298
-232.822
172.092
25.6335
278.778
161.409
212.209
228.777
278.585
346.125
214.176
3819.46
1494.42
-283.17
-152.529
4358
4726.89
-498.606
1377.38
-767.609
4672.41
1065.2
-913.024
3309.75
1184.12
1402.4
495.828
4301.06
500.737
1183.77
1122.28
179.042
336.208
-853.16
3890.86
967.105
112.958
-214.824
-48.7977
671.766
478.947
851.203
700.27
-137.716
186.247
181.574
251.466
300.512
2635.54
-388.647
155.235
1309.27
856.965
1144.42
1154.58
781.871
288.869
-108.948
105.323
828.995
700.261
456.033
1018.34
555.676
564.851
304.68
244.049
638.563
213.879
441.546
3402.09
670.15
3819.79
785.208
2917.42
3528.62
938.431
3547.29
745.06
749.522
565.012
583.295
0.0587417
0.0630029
0.0410004
0.0314233
0.0176748
0.0111204
0.00533825
0.00293515
0.00485071
0.00419099
0.00403058
0.00422235
0.00369067
0.00427982
0.00396735
0.00438493
0.0051386
0.050232
0.0321099
0.0351154
0.0166241
0.0226758
0.0109753
0.0168945
0.00670766
0.00891875
0.00566538
0.00625624
0.00671075
0.0297021
0.00400833
0.046476
0.033123
0.0180392
0.0109715
0.0119355
0.00627727
0.0429137
0.00367716
0.0446647
0.0086038
0.0597011
0.0316753
0.00459661
0.0064594
0.00853204
0.00477254
0.0246077
0.0202994
0.0119009
0.0156376
0.00996104
0.0272014
0.0350129
0.0342739
0.00491222
0.00567587
0.00498067
0.00503594
0.0589268
0.022898
0.0171971
0.0181591
0.010852
0.0154281
0.0205239
0.0445362
0.00585259
0.0213504
0.00396959
0.00694624
0.00584382
0.0356412
0.00493126
0.0306318
0.030575
0.00487236
0.00644762
0.00620322
0.0101924
0.0251487
0.0221153
0.00452534
0.00720845
0.00541656
0.00588339
0.0165894
0.00994386
0.00531177
0.0233264
0.00586195
0.0186774
0.0161265
0.0121191
0.00716349
0.00602237
0.00877638
0.0103842
0.0138589
0.0097926
0.00695752
0.004569
0.00561809
0.00593181
0.00664656
0.0152785
0.0127951
0.00541804
0.0110999
0.00754966
4.87761
6.87124
10.2543
8.02819
16.3831
11.5505
20.3667
18.9275
27.1415
22.4522
29.5072
27.6457
30.0524
30.4304
29.5296
29.1469
29.8134
29.5165
29.5117
29.1842
29.3795
29.5368
30.9654
30.3065
31.3453
30.4022
32.2669
30.8162
31.9787
32.1111
33.7739
32.9673
31.3166
2.46138
4.50999
13.1482
25.132
30.9172
25.6933
31.4779
4.82422
4.86362
3.54839
2.33611
2.20313
2.57848
4.95387
4.96639
5.83551
7.77897
10.4856
17.2116
16.2511
29.9907
5.31644
4.01335
2.22144
1.91912
5.75099
3.6583
2.30918
5.10121
21.0058
2.46458
2.67083
3.93186
4.33838
7.07517
13.2393
18.8412
12.9776
23.2487
19.0037
28.07
26.019
30.147
6.17076
29.3489
28.0662
26.7163
28.1684
27.43
29.2508
27.1602
28.8364
28.4707
27.211
27.4056
27.3521
26.6094
30.9431
7.01159
8.72213
3.39976
21.3602
2.92595
3.99412
5.11029
4.78149
5.43578
7.53226
5.65996
3.6256
4.04643
2.1955
6.6304
9.73843
29.7119
3.46944
7.88747
5.52102
29.7359
23.5354
28.2401
12.6304
13.8514
10.1535
7.90584
4.54998
17.302
25.0493
27.1898
21.3564
25.2279
26.661
22.0146
10.376
26.0901
24.7263
11.0411
25.9495
25.3299
25.5651
23.6987
24.8713
22.7206
23.6626
22.9224
23.5961
22.5263
21.8208
14.9234
5.40971
14.6687
16.8645
7.76302
6.34178
5.5808
6.70305
6.03388
7.58423
5.85308
11.5148
9.654
15.7216
9.951
13.8897
9.39614
10.7642
9.19213
22.6021
21.3125
21.4437
20.0904
21.4078
20.4962
18.7644
18.923
19.9952
15.7478
21.578
9.63687
8.95467
14.514
15.6929
15.3213
16.0411
8.94151
8.53908
16.5669
11.089
14.562
14.7161
10.0809
10.7622
13.3959
9.66434
13.7321
15.5138
15.3305
)
;
    }
    base
    {
        type            calculated;
        value           nonuniform List<scalar> 
14237
(
1888.2
2582.61
2687.35
682.868
1300.21
1903.67
2358.65
1971.59
2418.34
4457.44
3516.7
679.454
724.554
852.427
970.32
1262.63
2625.91
2576.92
3490.97
3810.61
4132.91
4582.44
4345.69
5585.84
3566.04
4264.13
1491.61
654.316
586.493
2553.88
985.912
1104.33
3789.23
3164.57
3710.5
4038.18
3027.95
774.175
3697.96
1766.54
1972.61
1911.71
3917.27
791.836
3823.8
2125.26
3102.2
2249.75
2682.27
1850.96
693.905
721.022
2670.53
1760.92
2952.95
3010.8
1403.36
638.934
-1109.62
-2382.51
-499.752
2346
5105.23
8347.99
10731.5
-2299.5
623.246
3212.63
4539.09
-2874.17
-1322.43
0.100371
0.0807816
0.0500522
0.0817492
0.037256
0.0519789
0.0324164
0.0400199
0.0247324
0.0316767
0.018512
0.0255323
0.0163817
0.0193576
0.0123801
0.0150089
0.00971276
0.0125254
0.00783105
0.00967363
0.0039472
0.00665305
0.00229438
0.00232623
0.00340573
0.00292074
0.00476806
0.0041286
0.00478948
0.0047994
0.0061519
0.00600227
0.007853
0.00746585
0.00868384
0.00889485
0.00947024
0.00862367
0.0136797
0.0121707
0.0129085
0.0127233
0.0132774
0.0145068
0.0148215
0.018456
0.0161238
0.0188357
0.0217941
0.0262383
0.0263436
0.0409316
0.0425521
0.053788
0.0749357
0.102808
0.0805982
0.163398
0.123707
0.254117
0.405922
0.475228
3.45504
2.8332
-86.8607
-99.2171
-38.6307
-73.6932
-156.622
7.20153
18.7776
12.9753
10.3886
0.00360996
0.00437337
0.00532655
0.00844405
0.0167334
0.046814
0.103798
0.233654
0.973029
3.00664
-15.3806
-237.934
0.00322931
0.003964
0.0036233
0.00486317
0.00431809
0.00352042
0.0052248
0.00524747
0.00655912
0.0111065
0.0108931
0.0258662
0.0261394
0.0427214
0.0431588
0.0935435
0.0796545
0.172003
0.127855
0.221959
0.216205
0.297337
0.292693
0.514949
0.689794
0.478494
0.889678
0.768691
1.34697
1.02202
2.11976
1.61945
3.15108
2.48138
4.48838
3.76911
6.64982
5.48726
8.19625
7.53435
9.17419
8.93188
9.36064
9.53084
8.51691
8.95291
7.24203
7.86961
6.23584
6.78328
5.35679
5.74575
5.23506
5.06318
6.3209
6.2455
6.73377
6.44384
8.19089
7.55616
8.29141
8.67712
7.50963
8.43663
6.01608
7.42655
3.51939
5.94713
7.27428
5.17826
13.9679
12.3089
29.9331
4.32042
6.47842
10.9623
19.0143
27.7432
40.0894
62.6553
217.014
502.584
272.845
46.5093
278.127
902.892
980.488
303.349
-4.01505
-90.5525
99.2978
86.5041
67.8931
4.35447
0.156182
0.338894
0.619349
1.13428
1.67365
1.83344
1.35185
0.822277
0.366385
0.246312
0.609328
2.70872
3.47988
0.00223678
9.09845
-132.984
-39.4154
-99.9381
-37.065
-164.978
-100.23
23.0617
15.5528
11.3695
0.00369401
0.00418794
0.00431823
0.00435916
0.00605559
0.0103375
0.0256128
0.0762057
0.151879
0.42502
3.43264
-5.27935
-1.57467
31.2133
19.3056
24.033
6.52844
3.83956
7.72562
7.78696
14.7621
24.7239
34.275
43.3211
109.713
394.535
522.281
87.1401
35.7127
712.324
1085.8
555.51
54.6838
-139.627
-89.7266
103.095
79.5249
46.7827
0.220295
0.468823
0.887589
1.41623
1.88444
1.67586
1.13293
0.583639
0.285976
0.376802
1.34405
0.103499
-64.2166
23.2055
-96.8415
-192.22
22.643
16.2341
11.7916
9.87681
0.00543275
0.00901524
0.0199006
0.0530767
0.119644
0.275435
1.31519
-3.01206
-76.7378
-173.115
0.00352533
41.7305
71.7588
289.001
533
230.212
59.7538
671.266
1251.55
770.071
117.675
-34.6265
-102.909
109.217
81.2828
47.932
0.322993
0.612487
1.1062
1.73196
1.83743
1.32639
0.801148
0.338085
0.3724
1.23871
46.8194
-48.3963
47.3058
-121.859
-150.181
-60.5477
24.8512
13.0987
10.7103
0.0326775
0.0846639
0.179816
0.562222
5.59375
-88.7731
-199.246
427.364
465.052
112.571
276.619
1204.93
1080.68
232.117
21.134
-179.892
-5.22675
89.2548
69.6762
34.1037
0.244785
0.467458
0.907268
1.44898
1.89991
1.64541
1.12747
0.574851
0.233326
0.557873
-45.0567
0.0126471
0.00734453
28.056
11.0477
129.478
14.737
35.3288
0.164612
32.2669
8.94623
0.0500027
0.042998
0.0509387
0.0334787
0.0424795
0.0267252
0.0301488
0.0213844
0.0269037
0.0134797
0.0203578
0.0109588
0.0144176
0.00949974
0.0110521
0.0058324
0.00724864
0.00567448
0.00372467
0.00357011
0.00651867
0.00658228
0.00710727
0.00817144
0.00789967
0.011056
0.0121316
0.0138028
0.0154342
0.0136273
0.0198107
0.0273733
0.0273159
0.030064
0.0330215
0.0288257
0.0290515
0.0320425
0.0379237
0.0516901
0.0395603
0.0808154
0.0648066
0.118355
0.0858994
0.198904
0.15732
0.307892
0.262354
0.536238
0.395105
0.955999
1.05186
4.04167
7.09891
4.32228
0.0117393
32.1328
26.833
43.7721
49.1132
0.385416
12.4416
-1.22428
-85.2917
-59.1826
21.4304
15.6369
14.6724
9.2565
0.0357935
30.8302
0.00902029
0.0118344
0.00444746
0.00473999
0.00318634
22.1585
0.0195545
0.0188987
0.0347921
0.00759088
0.00715212
0.00768714
0.0959138
0.222094
0.483677
2.25295
8.31701
-293.11
-206.582
344.088
0.186947
15.7962
0.00475799
0.00474101
0.00689476
0.00792387
0.0112382
0.0173998
0.0177856
0.030152
0.0304296
0.0527245
0.05978
0.0803418
0.0803719
0.140423
0.1282
0.21035
0.171705
0.264601
0.26585
0.449208
0.734763
0.430975
9.34605
1.00308
0.771333
1.57786
1.16552
2.28879
1.73398
3.50225
2.65925
5.52564
4.14694
7.34332
6.18399
8.9886
8.30418
9.60293
9.54067
9.20862
9.8187
7.92905
8.83292
6.83667
7.24576
5.82059
6.24094
5.00971
5.68819
6.3411
5.53286
6.42357
6.79143
7.62027
7.71344
8.74437
9.1485
8.9507
11.1593
7.83354
9.10131
5.80098
7.74502
5.93719
7.31218
13.3566
30.1705
11.6121
134.227
5.73647
5.78597
29.5458
22.569
24.4352
16.4899
16.7499
3.73355
58.1948
82.0178
-50.2873
279.77
335.641
11.802
8.10142
11.9171
488.925
242.875
344.237
1329.5
1209.86
410.456
84.789
-37.8243
-2.18512
82.0786
40.3289
35.3385
29.9608
31.0932
0.00299624
0.456294
0.878473
1.40889
1.89658
1.68063
1.07994
0.552875
0.247339
0.523766
-39.9308
-33.5952
42.6647
40.9766
1.86345
0.10956
-74.5477
-65.8451
0.0797039
0.0815464
0.105508
0.0039429
0.00381929
1.91266
9.22402
1.38757
2.59972
0.00361608
0.00431025
50.193
45.2871
-4.79116
-49.9567
-191.891
19.076
23.6359
21.2266
13.5528
10.8169
9.80841
13.036
9.58449
0.290814
0.0702967
0.150123
0.0419196
0.862288
2.88684
-52.6599
-222.316
-141.792
0.00379082
32.0812
0.14128
-61.5697
191.648
388.651
387.342
170.418
735.089
1384.76
784.79
176.761
45.199
-143.171
108.07
60.3543
278.032
0.315418
-135.103
0.326759
0.593098
1.03082
1.70721
1.84287
1.3064
0.794215
0.362092
0.327586
-170.222
-17.5179
-96.4795
84.6265
0.594282
0.366496
0.804759
1.37468
1.94575
1.68853
45.7211
92.1092
1.10845
0.31779
0.566135
1.06445
1.70374
1.91181
0.843166
59.2088
31.2375
-101.796
42.0221
210.31
820.615
1477.32
0.00487198
0.172339
-160.321
-230.511
6.06706
0.123476
33.0451
0.0056498
0.57842
-197.38
-0.363142
498.178
-111.775
-214.067
0.183167
0.0810039
0.108994
1.15066
-179.75
1361.78
1048.11
230.771
339.442
409.399
449.444
181.92
616.153
0.422202
1.13613
0.562548
1.46911
0.303925
0.0558214
0.0334611
0.0477174
0.0294096
0.038138
0.0241971
0.0290586
0.0182368
0.023405
0.0153395
0.0195344
0.0086235
0.00483219
0.0156689
1.39654
26.2641
0.901161
1.27294
0.0112727
0.0147585
0.0162675
0.0168081
0.0151606
0.0239691
0.030072
0.0422296
0.044206
0.0552218
0.0534866
0.0498563
0.0635102
0.0550924
0.0852905
0.0701482
0.0783544
0.111694
0.136944
0.132728
0.156709
0.24225
0.253154
0.434097
0.339604
0.648159
0.644839
1.35582
1.32336
93.1315
65.3293
1.55409
12.2018
336.671
0.250751
-100.414
0.00663267
11.5305
13.5586
0.174
17.7608
18.7746
-177.805
-145.599
0.122948
0.16741
0.066376
0.0876507
-298.17
1328.9
-118.347
-271.858
33.7755
7.01806
34.0744
490.968
0.00866266
0.0140376
0.0108264
0.0124507
0.020771
0.0154092
0.053646
0.0544645
0.0714101
0.0682255
0.0967898
0.100494
0.161545
0.151735
0.216892
0.232176
0.323551
0.326466
0.526312
0.713444
0.466253
213.239
1.06335
0.923797
1.74492
1.31501
2.55572
2.1538
4.02756
3.48183
6.21664
5.04798
8.34945
7.21197
9.58981
9.08248
9.88648
10.1412
8.89343
9.4593
7.35961
8.09154
6.27603
7.00019
5.72543
5.67397
5.57153
6.37395
6.83686
6.24699
7.65618
7.66113
9.2195
9.5531
11.2577
12.2451
9.3178
14.6061
7.84342
9.5499
16.1741
4.57884
0.431173
0.816093
312.738
67.3762
674.363
454.293
451.641
396.285
274.175
277.043
418.764
1519.16
1309.93
-138.027
852.088
821.116
547.088
-194.193
2.73877
-86.8107
1.16204
43.6644
355.69
370.956
-36.2388
-81.7097
0.992587
130.317
164.847
48.1596
0.487596
0.681673
0.525542
0.688651
1.6892
2.03104
1.47426
0.80607
0.371557
0.414012
-206.157
-147.983
-121.112
0.10353
2.4677
36.056
44.0658
-107.058
-62.2252
29.34
27.3506
-9.71181
7.39348
0.249725
-31.5916
51.3167
11.0684
-157.253
-168.094
-161.31
0.0195811
0.161649
0.162017
0.0972781
0.0682602
0.098496
115.849
76.5923
27.7676
1.34692
1.11189
0.0130702
0.00716671
269.296
4.85248
4.69251
-5.9434
-7.54956
0.058003
17.9842
21.207
8.27399
11.2293
14.2324
473.006
62.6154
67.3047
0.00557078
1.8372
0.00540604
0.00586962
0.045284
0.0684971
0.0266172
0.0269218
0.0515134
2.37763
90.9567
-29.7281
0.265021
-232.755
2.75785
198.896
0.252614
10.3055
4.3244
5.76655
0.507991
259.43
33.0946
29.1058
21.8605
19.5589
0.370862
-123.032
0.00939587
0.0124477
0.0122963
11.5701
8.11135
8.2082
0.261351
0.00493819
1131.68
-148.952
0.511234
130.757
8.85004
-33.2575
0.882715
38.0596
39.2907
23.1866
1.37808
0.411625
0.482013
1.9389
1.79142
1.03368
0.529117
9.38084
-76.7214
23.9599
7.42521
6.21295
0.819117
0.00617787
50.1704
-197.501
-265.967
-61.531
1.73758
1402.29
1145.78
186.06
-39.3866
1.01292
1.41007
1.88922
1.97647
2.07038
0.532448
0.224152
0.00856042
0.00963749
0.0433339
0.033279
0.0405332
0.0270743
0.0328971
0.0206947
0.0217854
0.0156208
-225.001
46.8207
21.9056
0.865453
0.0258641
0.0376432
0.0406127
0.0570465
0.0527369
0.0754481
0.0806453
0.0930356
0.0898223
0.114981
0.107249
0.160476
0.161568
0.169925
0.164891
0.231685
0.189671
0.439483
0.395422
0.518402
0.511396
0.87805
0.803961
1.58993
1.54595
231.91
167.597
39.8832
49.3605
1085.42
-283.448
-248.663
-80.5735
119.662
1.89879
294.91
1.47025
-118.444
0.284668
281.089
0.208217
0.239348
141.707
17.3879
79.299
89.4079
226.383
267.978
3.53665
0.746977
0.0253501
-72.7956
-176.762
18.1073
0.0744875
0.055249
0.0892232
0.103237
0.132156
0.136838
0.19033
0.188842
0.278815
0.258962
0.40427
0.416215
0.612874
0.890384
0.577516
0.444407
0.667049
1.3274
1.11871
2.1261
1.77549
3.51687
2.89638
5.10443
4.16231
7.23972
5.80572
9.14513
8.23906
10.22
10.0061
9.81236
10.5005
8.49552
9.41603
7.60378
7.67119
6.12167
7.17977
6.44727
6.12381
6.79936
6.74177
7.54595
7.86875
9.65709
9.52484
12.2359
12.7269
14.7931
14.9401
7.24119
-115.07
0.531124
8.98012
1050.54
953.469
22.5444
14.6686
16.7251
13.057
0.0613422
53.6953
46.7041
221.335
428.598
578.141
-128.991
34.7091
36.4052
25.0087
0.890753
-43.4992
1.67408
1.07787
214.055
275.835
13.6235
1.64947
3.12697
1.36735
0.925958
1.43217
8.72691
5.22675
5.26022
0.04726
0.0440872
0.0637232
2.14762
2.28275
1.99866
2.01639
1.31022
1.21077
0.0170671
11.6148
-82.7519
-101.016
36.8265
39.6218
-25.4752
-84.6947
1.4817
1.47709
373.099
0.427031
0.645831
0.100962
15.3269
13.7482
1.72126
35.8674
0.0200643
-196.695
-169.046
0.636297
0.654723
0.0354241
4.13134
4.08838
348.409
43.8926
1110.94
1056.03
-109.92
-130.846
139.951
2.09528
196.009
0.0374158
0.135837
0.204274
5.81886
6.77787
6.51303
-13.4261
19.8229
0.409753
61.0841
55.9104
-138.653
-67.8911
0.903918
30.7525
0.0257143
0.0055243
-80.0248
4.83647
7.46991
10.6223
1.15858
-130.15
0.022232
0.0378934
0.1353
255.25
141.022
17.0333
18.3454
9.28717
0.0131099
0.0134399
0.0163914
-127.69
4.47093
4.63197
1.88248
0.13952
0.869911
-138.605
0.0262234
98.6899
661.81
0.0344439
-85.2295
16.8007
-29.1461
0.301997
0.0283282
0.521612
0.489594
11.9617
10.3375
11.8815
0.620989
0.203334
11.7387
-201.66
-67.9089
86.3599
-143.729
0.644051
105.163
255.661
300.809
0.85945
0.308423
1.53051
268.501
2.31279
0.0354929
0.0348099
0.031482
0.033584
1.68723
0.437123
515.084
766.804
0.0598386
0.082441
0.073735
0.0899102
0.0892122
0.122788
0.0936123
0.169498
0.17562
0.196489
0.210922
0.243621
0.231758
0.425201
0.430347
0.634626
0.6182
1.06034
1.0368
1.96713
1.94832
471.302
-155.593
201.487
0.937606
18.0496
51.4327
147.888
-66.0525
10.4573
189.72
0.0645452
0.0686756
0.127018
116.347
382.251
5.35789
5.30883
70.7702
33.881
148.002
0.0751091
0.131261
0.110114
0.180352
0.162296
0.242671
0.244895
0.344222
0.348811
0.541027
0.544745
0.688482
0.923923
0.63114
-100.131
0.939043
160.479
1.52963
1.08039
2.43922
1.70949
4.14044
3.0114
5.76713
4.81189
8.05425
7.25791
9.91374
9.58651
10.9138
10.9493
10.08
10.5609
7.93979
9.44636
7.22271
7.44346
6.15714
7.13884
6.81009
6.94699
8.9886
7.60227
10.0738
9.87048
14.3377
14.2306
17.4273
17.3338
0.898114
6.96838
0.480262
0.923168
0.0384181
0.0659826
0.0303329
38.3747
-150.19
-52.7842
2.17559
-95.5556
2.14906
1.47957
3.11587
0.0457095
0.0355591
-230.072
0.0428204
0.0551803
0.0564304
28.0875
123.816
-214.639
0.577771
0.689395
-78.9405
-161.824
0.232539
0.136231
0.169145
2.03708
2.15
-137.579
1.30832
1.35108
-67.7024
-90.309
1.30214
1.25259
1.93888
0.116569
0.0766789
0.1245
84.571
-109.589
1.64677
1.64321
5.34574
30.4888
144.935
126.501
420.233
171.107
-126.448
-223.095
17.6342
1.82408
0.540966
9.31852
-9.30761
0.550462
913.619
-153.28
15.0487
3.70662
3.68938
514.91
1114.36
167.141
0.303973
0.335978
18.4695
61.6773
-176.533
175.598
6.56624
-224.673
-199.555
-245.685
0.0911136
6.29726
5.70547
149.481
-108.878
-137.916
-115.646
75.2807
40.3778
0.0617077
0.0803758
2.01153
2.14505
-210.923
684.314
0.558592
0.880837
24.3911
0.931233
0.693974
7.60487
8.61736
2.3449
462.695
3.24995
3.64403
3.24983
-153.846
-143.2
-174.679
3.15237
3.61284
110.387
31.6828
32.4301
26.1082
5.50166
5.33488
10.7841
1.23102
0.876269
1.25526
0.263391
0.424957
0.0354987
1.70028
33.733
5.79295
6.73414
0.0548136
0.070792
0.633926
-222.643
0.0563485
0.04161
-174.718
13.4244
1.2195
0.131296
0.129255
0.153921
0.170668
0.168078
0.252436
0.214157
0.274058
0.252411
0.453214
0.448092
0.828036
0.69471
1.3408
1.31687
2.12976
2.10742
-224.772
0.391535
0.0452025
0.153864
-199.33
1.69795
4.51255
4.45904
-134.463
2.45309
-76.7383
0.236305
0.236546
0.354337
0.354736
0.486277
0.465611
0.656757
0.553701
0.73528
0.85746
0.747917
1.65683
1.04327
2.77045
1.96144
4.51582
3.55911
6.47648
5.76809
9.43526
7.71359
11.0256
10.5087
10.6569
11.4947
9.50772
10.3866
7.57085
9.54571
7.21418
7.55711
6.99015
7.09316
7.6554
8.06615
11.4979
10.2688
14.1195
12.3002
0.0337064
3.63949
5.26191
-158.156
1.35956
1.70911
1.56468
1.56989
0.150629
4.87227
4.63981
1.01708
1.21019
-42.478
0.71365
10.8725
-162.819
0.139442
0.169723
0.29401
2.13516
2.31168
9.22487
-225.978
-169.736
-242.919
2.48278
2.57688
3.47178
14.4489
11.6428
0.149591
-205.626
3.36111
3.3431
0.0413607
-126.053
-22.5733
0.351387
0.465486
0.6781
0.0593967
0.0609383
18.2233
0.0502679
77.8432
0.0897166
5.30455
0.887412
0.214993
19.6793
22.3358
17.5754
0.0445518
0.0352252
0.360709
0.479115
0.0878125
17.4782
0.962062
1.03741
-185.136
-208.029
2.65766
4.08357
4.7386
3.71049
2.16315
0.0962736
0.121754
1.22209
1.24514
0.0529198
0.0517242
0.136473
0.0601032
0.086525
0.0570813
1.72923
2.16735
1.31548
2.39556
3.10181
24.9664
4.89923
5.02421
0.103025
0.112002
24.1743
30.9095
2.21198
0.190557
0.2173
0.266414
0.285934
0.372468
0.399137
0.661426
0.655217
0.884744
0.737393
1.54641
1.53302
2.10144
2.1496
18.1057
0.135854
0.12499
1.645
1.34598
2.53484
2.46096
11.0358
10.2118
12.5564
22.8444
0.194598
0.3582
0.469317
0.455482
0.62076
0.559086
0.728779
0.717113
1.07301
1.03884
1.89079
3.58968
1.94452
5.81637
3.98169
7.78254
6.8665
9.90472
8.98293
11.8348
11.1101
10.6535
11.5483
9.62221
10.5278
7.39118
8.44288
6.96701
7.19433
8.11724
7.54617
10.3625
9.46188
12.6923
16.6582
11.187
0.0556168
0.21964
0.318755
0.211698
0.765858
0.60623
0.766086
4.38905
1.86786
0.137856
1.68341
4.21883
4.10656
3.39694
0.122323
0.0907945
1.41301
2.97275
2.16768
-54.0454
1.07522
0.298879
0.295827
0.487572
-220.665
-182.186
-237.203
0.160459
0.104625
2.70889
3.12168
1.86694
4.33122
0.150286
3.28937
4.10006
1.09982
1.75425
1.3701
-3.86499
-7.46598
0.167076
0.171545
0.200944
22.8456
0.214531
0.36936
0.31595
4.39713
1.10839
0.140907
0.0575097
0.0666611
0.0650689
3.81642
3.46874
2.02438
2.55633
2.9437
3.48295
1.34226
0.240188
0.0815862
5.6367
5.5602
2.1177
2.16568
-4.83986
-77.4198
1.31802
2.0929
1.58595
0.783294
0.896288
19.9824
15.2423
13.8155
22.6312
14.3595
17.619
3.3204
0.0959341
2.49687
0.396446
0.907523
-69.5816
-17.0728
3.2611
3.29813
0.651329
2.34933
0.772776
0.760093
0.851336
0.883493
1.9421
4.08219
2.41049
5.92779
4.14894
9.10911
6.47865
11.193
9.88856
11.5083
11.7261
10.5517
11.5742
8.31509
10.2909
7.60249
7.80514
7.66104
7.89201
9.60374
8.14156
-13.517
3.06955
0.416428
0.610994
0.433552
2.60585
0.474554
0.450253
0.745987
1.35344
18.9978
2.96679
11.6588
2.96076
1.91751
18.6219
0.258897
3.23101
3.31173
0.692078
11.4466
2.28699
0.403907
16.7955
12.4227
3.43514
0.343267
1.60206
1.53372
2.26124
2.59723
11.7594
12.1575
10.0848
12.2691
15.1068
9.52303
9.27011
0.0891239
0.973567
1.3905
13.2929
11.0311
16.3375
13.1173
6.13049
6.37774
1.53495
1.29684
2.47422
10.9022
1.09286
9.71228
10.7042
8.18557
3.53111
6.69711
3.75505
9.71204
6.99781
11.9723
10.3
11.565
12.1341
10.5422
11.318
8.78114
10.2049
7.8061
8.64012
3.38492
16.3999
13.2802
15.4037
2.63543
12.0098
12.2021
1.00654
2.46592
2.48727
1.31284
7.97181
0.78871
0.988127
9.45449
0.48053
13.8022
12.8604
9.18121
6.79006
9.98427
10.5357
0.858013
0.727931
12.4049
11.8067
13.4009
8.29167
0.711595
3.69341
10.1336
12.075
10.2999
8.86501
4.06709
3.5901
6.46028
11.3448
10.803
3.90145
8.5697
10.5136
6.85983
10.5349
9.88374
9.97409
1.32498
5.72575
0.908605
1.36098
12.2994
12.2186
2.46664
12.342
10.6625
1.64644
12.4124
12.482
12.5843
2.27287
12.5856
13.072
0.171931
0.10847
0.0461893
0.0253034
0.0106773
0.00665865
0.00208259
0.00165246
0.00418507
0.00341016
0.00275136
0.00364666
0.00246209
0.00306573
0.00213188
0.00209483
0.00198169
0.00201623
0.00160574
0.00166989
0.00137994
0.00152907
0.00120207
0.0012373
0.00102883
0.001128
0.000941547
0.00102083
0.000908983
0.000960282
0.000956103
0.000959182
0.00101496
0.00104505
0.00107569
0.00107609
0.00115685
0.00114382
0.00115936
0.00119629
0.00123507
0.00129473
0.00123338
0.00129803
0.00133595
0.00135803
0.00405284
0.181686
0.137837
0.115221
0.116327
0.0683237
0.0844112
0.0421434
0.0512694
0.0321004
0.038383
0.0222356
0.0241664
0.019611
0.0213089
0.0199796
0.0189065
0.0142257
0.0145711
0.00913694
0.0130438
0.00502062
0.00405569
0.00615866
0.186179
0.166996
0.141553
0.0795537
0.0556145
0.0733793
0.110683
0.127943
0.0850811
0.0552792
0.0462449
0.0293106
0.0182035
0.0235722
0.0116918
0.0147628
0.0106667
0.0103311
0.00759839
0.00684922
0.00481908
0.00477971
0.0027399
0.00284583
0.00186141
0.00184896
0.0636135
0.0339515
0.00941921
0.00620844
0.00325357
0.0022371
0.00213317
0.00179457
0.10541
0.0721587
0.0629783
0.0311504
0.0126731
0.00780201
0.00502947
0.0367714
0.172638
0.16129
0.163975
0.00139419
0.179427
0.153239
0.149101
0.100467
0.0763911
0.0655282
0.0933412
0.121335
0.0726896
0.0512715
0.0853312
0.0386072
0.00139888
0.052112
0.0526755
0.0373514
0.0200535
0.00686813
0.00268431
0.0047573
0.00243617
0.00205885
0.00163301
0.118318
0.0161112
0.00770183
0.00527677
0.0740483
0.0546999
0.0705037
0.0960539
0.122517
0.0918965
0.0621272
0.0480105
0.0441221
0.0198787
0.00756112
0.0048251
0.00235547
0.00179484
0.00148507
0.00702579
0.00309263
0.129285
0.0856827
0.0573147
0.0412789
0.00408643
0.00186672
0.0017097
0.00128769
0.0116917
0.0293327
0.0881925
0.14763
0.0729642
0.0695148
0.0839551
0.139084
0.113407
0.0450828
0.00579309
0.0100257
0.059959
0.0912171
0.00743001
0.0225114
0.00504844
0.0662921
0.112949
0.0319402
0.0250777
0.0040246
0.00424243
0.00316939
0.00346009
0.00274995
0.00247061
0.00183086
0.00167683
0.0013335
0.0013041
0.00115839
0.00111888
0.00106174
0.00115971
0.00118842
0.00119955
0.00125191
0.00124062
0.00118246
0.00120655
0.00113757
0.00149729
0.00137042
0.126138
0.053189
0.0706207
0.0979664
0.0473669
0.0670943
0.0304965
0.0400351
0.0234902
0.0297548
0.021438
0.020847
0.0193506
0.0196609
0.0118747
0.0125658
0.00918077
0.00882432
0.0537875
0.00144938
0.00249254
0.101059
0.124337
0.0552384
0.083982
0.0715618
0.0680214
0.0765149
0.0570186
0.0943161
0.089771
0.141051
0.099749
0.089248
0.0524365
0.0754342
0.0576434
0.0479271
0.0498074
0.00408115
0.0842513
0.0117147
0.00756688
0.0662083
0.0127852
0.00988985
0.0113166
0.00890616
0.0107855
0.00540774
0.00949565
0.00329296
0.00376511
0.00301244
0.0027014
0.00460843
0.0126094
0.00143641
0.00181429
0.0013778
0.00119099
0.00114458
0.00114818
0.00555709
0.00498388
0.178856
0.122167
0.111314
0.0788265
0.00776293
0.00654778
0.0230219
0.0202077
0.0281788
0.0294056
0.0413431
0.104032
0.0654972
0.00141141
0.00817928
0.0114938
0.00839908
0.00173117
0.141004
0.0015925
0.161011
0.00226317
0.0792134
0.0563411
0.00245418
0.00142542
0.00603055
0.0017164
0.087224
0.00269271
0.00480888
0.00360344
0.00790157
0.125221
0.0158587
0.0146869
0.0110514
0.00407886
0.0357813
0.0273
0.0480704
0.0497543
0.0584127
0.00298901
0.0226587
0.00232194
0.00415312
0.0034351
0.00296107
0.0033019
0.0759565
0.00137844
0.00204852
0.00270771
0.00197923
0.0543106
0.0337202
0.021276
0.01526
0.0112392
0.00825227
0.00732221
0.0108505
0.0209907
0.0679811
0.0686221
0.00901321
0.0527808
0.00284361
0.0187867
0.0765507
0.0488937
0.0104974
0.0104602
0.0116644
0.0115836
0.00878098
0.0110806
0.00488957
0.00489015
0.0032699
0.00499679
0.00344128
0.03014
0.0453889
0.00658215
0.00695777
0.00551412
0.0135944
0.0175986
0.00167417
0.00153048
0.0386946
0.0068471
0.0047859
0.00190678
0.00707864
0.0522092
0.0183516
0.0249768
0.0446605
0.0259399
0.049122
0.00397674
0.00301126
0.00267397
0.0023875
0.0107144
0.00264426
0.0059465
0.0048685
0.0188617
0.0135757
0.0134814
0.0114129
0.00583409
0.00456106
0.00603592
0.0121702
0.0290629
0.0246958
0.0505316
0.0160032
0.00562398
0.00675283
0.0318595
0.00223908
0.00286373
0.0477442
0.0335939
0.297445
0.452605
0.793388
1.51286
2.61456
3.5676
3.33961
2.13212
1.17707
0.672708
0.498458
1.00522
5.01404
8.89351
6.70003
10.8572
10.7128
11.2594
9.6014
5.28133
3.18496
3.54575
9.07109
10.3216
10.4676
0.22104
0.370512
0.541789
0.453381
0.860398
0.650832
1.1608
0.898891
1.56453
1.31423
2.25493
1.72433
2.88483
2.4546
3.52529
3.10865
4.02263
3.69604
4.33575
4.21284
4.28674
4.26139
3.79728
3.90896
3.06118
3.42185
2.54944
2.78464
1.8221
2.06706
1.33869
1.4879
0.898523
1.018
0.630512
0.778188
0.72677
0.511166
1.00094
0.661417
1.64097
1.23441
2.9884
2.87271
6.47279
4.31037
0.331815
0.309172
0.30237
0.338553
0.297592
0.323529
0.269647
0.307881
0.233139
0.281759
0.187138
0.216717
0.157829
0.184592
0.144068
0.166038
0.120944
0.158783
0.104322
0.129879
0.150796
0.150466
0.149422
0.155725
0.21128
0.18027
0.235859
0.250549
0.238066
0.270226
0.264261
7.49189
0.555908
1.11975
1.95168
3.22277
3.57052
2.93913
1.52951
0.949071
0.521236
0.607357
1.818
4.21874
4.08858
8.14697
6.93906
7.53005
7.21433
10.181
6.93053
8.14943
3.09359
3.19626
5.72329
9.95654
0.644139
10.8346
1.25292
2.5141
0.526324
0.37579
0.83117
1.95416
3.28103
3.83347
3.18407
2.06095
1.14812
0.540092
0.497809
1.21026
8.19941
2.56663
3.46025
8.95195
8.81737
3.68721
3.54264
2.61102
1.51382
0.773497
0.438641
0.628244
2.21607
8.60342
4.64089
5.46621
2.36343
0.357175
3.89767
1.89634
3.4072
3.85832
0.48651
3.7629
2.62559
1.6637
0.720332
0.461055
0.721716
2.59641
3.89297
6.63646
5.03392
3.91626
2.22053
6.5106
5.10793
2.76294
1.87499
0.430847
3.8585
4.33221
5.11664
5.38432
3.11304
3.84735
2.85287
8.54554
1.31698
1.46027
0.424805
0.350268
0.677861
0.519705
0.888374
0.697109
1.19187
0.929927
1.76294
1.41028
2.5491
2.15132
3.08744
2.60803
3.48893
3.36317
3.99614
3.79919
4.05447
4.07335
3.67684
3.75658
3.08261
3.50222
2.28117
2.94243
1.78195
2.2006
1.25758
1.54958
0.903554
1.04835
0.686974
0.821159
0.559791
0.542961
0.638769
0.649283
1.04981
1.08866
2.50319
2.52598
3.96418
6.6808
3.80042
0.385681
0.90318
0.97107
0.356183
0.336958
0.359767
0.305692
0.350269
0.232035
0.335175
0.215827
0.225849
0.150458
0.197433
0.150382
0.168643
0.137077
0.155446
0.146818
0.133024
0.165274
0.184224
0.208254
0.210992
0.245379
0.261977
6.69242
5.53527
3.40553
3.67549
0.361306
2.72408
0.511317
0.7219
4.24929
3.41933
2.01667
1.10561
0.527563
0.581945
1.34455
0.758646
6.44438
4.0938
4.74744
2.37655
3.98606
2.06948
0.522584
2.33959
2.62666
1.0271
8.06454
1.8104
4.41958
3.31024
0.286046
2.06604
0.748921
1.6991
3.97982
1.01659
0.506583
0.755696
1.3345
3.09017
4.29519
2.03047
3.61979
4.87435
1.48522
0.365154
4.45775
4.56163
5.09129
5.51048
3.5896
1.30579
1.27913
2.60803
3.16206
0.773679
1.52578
1.05478
0.565947
0.670301
0.885364
0.80835
2.64911
0.517408
0.528114
4.31242
4.88612
1.79585
1.25501
0.52422
0.500702
1.64765
1.97223
0.519357
0.407274
1.81381
1.82247
0.657864
0.608838
0.938719
0.81989
1.45318
1.15123
1.97739
1.60201
2.56492
2.15455
3.2829
2.985
3.5331
3.5583
3.85054
3.70087
3.45215
4.13493
3.22602
3.51599
2.73401
2.80752
2.16565
2.14272
1.44602
1.71245
0.955931
1.35299
0.712142
0.798604
0.590656
0.645414
0.6313
0.623501
0.925495
0.769098
1.70521
1.11026
1.19065
1.2457
0.489919
1.96823
1.51732
2.73089
2.22686
0.4406
0.37903
0.523788
0.287689
0.384801
0.283764
0.328006
0.262803
0.278424
0.203235
0.267744
0.197065
0.212609
0.199435
0.208081
0.259267
0.22451
0.300562
0.428709
0.316865
4.38497
2.40505
2.13342
3.70829
1.67454
1.45137
1.24805
1.01138
0.776052
0.472051
4.03262
5.35062
0.580005
0.831634
0.605082
0.589713
1.26796
4.00505
3.92255
3.13885
3.47889
3.36862
2.44008
2.49362
1.92863
4.51469
4.28848
3.58642
2.13619
3.56213
2.45337