/*--------------------------------*- C++ -*----------------------------------*\
| =========                 |                                                 |
| \\      /  F ield         | OpenFOAM: The Open Source CFD Toolbox           |
|  \\    /   O peration     | Version:  v2012                                 |
|   \\  /    A nd           | Website:  www.openfoam.com                      |
|    \\/     M anipulation  |                                                 |
\*---------------------------------------------------------------------------*/
FoamFile
{
    version     2.0;
    format      ascii;
    class       volScalarField;
    location    "5";
    object      rho;
}
// * * * * * * * * * * * * * * * * * * * * * * * * * * * * * * * * * * * * * //

dimensions      [1 -3 0 0 0 0 0];


internalField   nonuniform List<scalar> 
108993
(
1.17165
1.17168
1.17201
1.17181
1.17173
1.17165
1.06299
1.17166
1.17195
1.17165
1.17202
1.17205
1.17179
1.17192
1.17167
1.17208
1.17158
1.17168
1.1718
1.17176
1.17165
1.1719
1.17208
1.17166
1.17179
1.17176
1.17202
1.17177
1.1717
1.17166
1.17204
1.17194
1.17202
1.17168
1.17185
1.17168
1.17203
1.17177
0.968149
0.514109
1.1719
1.17203
1.17199
1.17182
1.17152
0.343407
1.17203
1.16286
1.17165
1.17203
1.17203
1.16961
1.17176
1.17205
1.17166
1.17169
1.17202
1.17173
1.17186
1.17173
1.17174
1.17179
1.17167
1.17209
1.17179
1.17178
1.17177
1.17178
1.17184
1.07765
1.17166
1.17178
1.17178
1.17177
1.17166
1.17204
1.1721
1.17166
1.17201
1.17177
1.17175
1.17176
1.17191
1.17205
1.17168
1.17203
1.17205
1.17206
1.17171
1.17176
1.17175
1.17204
1.17174
1.17175
1.17174
1.17198
1.17204
1.17184
1.17204
1.1721
1.17175
1.17185
1.17172
1.17188
1.17178
1.17175
1.1717
1.17185
1.17194
0.69042
1.17137
1.17176
1.17081
1.16822
1.17199
1.11474
1.17172
1.17196
1.17153
1.17203
1.17178
1.17184
0.814482
1.17203
1.17175
1.17196
1.17191
1.17177
1.17185
1.17184
1.17202
1.17184
1.17187
1.16349
1.17203
1.17208
1.17185
1.17188
1.17168
1.17191
1.17204
1.1721
1.17184
1.17185
1.17185
1.17179
1.1718
0.422652
1.17204
1.16727
1.1669
1.17175
1.17207
1.16613
1.17192
1.17151
1.17179
1.17193
1.17199
1.17182
1.16639
1.17198
1.17206
1.17166
1.17198
1.16809
1.17169
1.1721
1.17209
1.17196
1.17185
1.17171
1.17164
1.17207
1.17175
1.17184
1.16926
1.17209
1.17194
1.172
1.17173
1.17192
1.17194
1.17203
1.1719
1.17177
1.17192
1.17176
1.17175
1.17203
1.17193
1.17196
1.17191
1.17163
1.17193
1.17192
1.1719
1.17182
1.17182
1.17203
1.17169
1.1706
1.17165
1.17188
1.13918
1.16961
1.17195
0.575862
1.17188
1.20058
1.17047
1.17181
1.1689
0.671255
0.259574
1.1718
1.17171
1.17196
1.17194
1.17198
1.17191
1.16617
1.17186
1.17074
1.17208
1.17209
1.17194
1.17203
1.16308
1.17196
0.531272
1.17169
1.17209
1.17174
1.17202
1.17202
1.17195
1.17183
1.10275
1.17194
1.17209
1.17193
1.17165
1.17193
1.1719
1.17203
0.64834
0.834418
1.17193
1.17191
1.1721
1.1718
1.17194
1.17195
1.17191
1.17194
1.1719
1.17207
1.17199
1.17166
1.17203
1.17165
1.17157
1.17183
1.17199
1.17193
1.17207
1.17169
1.17167
1.17189
1.17166
1.17207
0.612052
1.15397
0.435952
1.17193
1.17206
0.887372
1.17198
1.17185
1.17186
0.319578
0.324217
1.17186
1.1719
1.17204
1.1718
1.17189
1.17194
0.501305
1.17179
1.17206
1.17189
1.17206
1.17198
1.17202
1.17202
1.17205
1.17008
1.17165
1.0605
1.15885
1.17174
1.17165
1.17194
1.17166
1.17202
1.17166
1.17166
0.663349
1.17167
1.17178
1.17177
1.17169
1.17167
1.13321
1.1721
1.17175
0.586227
1.17196
1.17176
1.1721
1.17166
1.17165
1.17181
1.14373
1.15834
0.94792
1.17199
1.17191
1.17208
0.967074
1.16624
1.17195
0.692146
1.17165
1.17208
1.17175
1.17193
1.17191
1.172
1.17048
1.17192
1.17176
1.17182
1.17166
1.17204
1.17169
1.1721
1.17204
1.17206
1.17165
0.316473
0.612888
1.17195
1.17178
1.17182
0.425156
1.1721
1.1721
1.17203
1.17192
1.17205
1.17208
1.17166
1.1719
1.17206
1.17191
1.1718
1.32443
1.17196
1.17202
1.17207
1.15061
1.17192
1.1654
1.17187
1.17196
1.16838
1.17197
1.16932
1.16798
1.17188
1.17178
1.17165
1.17192
1.17182
0.502638
1.17186
0.684671
1.16817
1.17192
1.16846
1.17186
0.638349
1.17192
1.16882
1.17202
1.17162
1.17196
1.17191
0.753276
0.824201
1.17204
1.17196
1.17193
1.17194
1.17179
1.17193
1.12889
1.17182
1.17208
1.06797
1.17165
1.17206
1.17198
1.03896
1.00733
0.607459
1.17165
1.07572
1.17171
1.16475
1.1721
1.17171
1.16101
1.1717
0.907138
1.16094
1.17166
1.18037
0.639292
1.1646
1.17187
1.17204
1.17165
1.17205
1.17185
1.17205
1.17206
1.17176
1.17198
1.17193
1.17166
1.14578
1.17181
1.17181
1.17162
1.17198
1.17166
1.17209
1.17172
1.17199
1.17175
1.17205
1.17169
1.17178
1.17167
1.17197
1.17208
1.1738
1.17204
0.898674
1.1677
1.17158
1.17207
1.17165
0.82955
1.17208
1.17209
1.14939
1.17172
1.17198
1.17208
1.17208
1.1719
1.17209
1.12872
0.628626
1.17127
1.17178
1.17198
1.17199
1.17206
1.1721
1.17209
1.17205
1.1721
1.17179
1.17168
1.17177
1.17171
1.17165
1.1721
1.17095
1.17166
1.17209
1.17206
1.17202
1.17176
1.17185
1.17199
1.17207
1.17205
1.1716
1.16948
1.17208
1.17208
0.784612
1.17205
1.17185
1.17179
1.17203
1.17197
1.17203
1.17188
1.17172
1.17202
1.17165
1.17169
1.17208
1.17208
1.17177
1.1718
1.17175
1.17105
1.17173
1.172
1.17105
1.17179
1.17164
1.17169
1.17127
1.17184
1.17181
1.17201
1.17046
1.17194
1.17163
0.61411
1.17165
0.482302
1.17165
1.1717
1.172
1.1719
1.17171
1.1713
1.17191
1.17207
0.978342
1.17165
0.288289
1.1717
1.17176
1.17165
1.1721
1.17193
1.50927
1.17174
1.17173
1.17208
1.1721
1.17179
1.05033
0.952388
1.17176
1.17208
1.17191
1.17191
1.17207
1.17183
0.283357
1.10642
0.920805
1.17198
1.1718
1.03194
1.16016
1.15137
1.17191
1.17175
1.1719
1.17183
1.17166
1.17107
0.332946
1.10465
1.17202
1.17208
1.17193
1.17166
1.17164
1.17201
1.15519
1.17186
1.17196
1.17165
1.16986
1.17173
1.172
1.17197
1.45265
1.17181
1.17187
1.17165
1.27899
1.17165
1.17174
1.17209
1.1488
1.17209
1.17171
1.17209
1.17183
1.17209
1.17198
1.17165
0.792022
1.17208
1.1653
1.17207
1.17175
0.475934
1.17163
1.17177
1.17198
1.15499
0.302567
1.17203
0.859965
1.1718
1.17023
1.15803
1.17205
1.1717
1.17166
0.965591
1.17074
1.17119
1.17167
1.17088
1.1721
1.17202
1.17205
1.17204
1.17205
1.17151
1.17182
1.17202
1.17201
1.17082
0.564153
0.400131
1.06182
1.17163
1.15637
0.396704
1.11169
0.394663
0.400677
1.17173
1.17181
1.17203
1.17192
1.17208
1.17154
1.17204
0.689656
0.577311
1.17188
1.1717
1.16868
0.396261
0.391954
1.17177
1.17124
1.006
1.17173
0.394254
1.1715
1.1278
1.1715
1.17203
0.423233
1.17194
1.03268
1.10523
1.01115
1.09122
1.17194
1.17198
1.17171
1.17165
1.17167
0.574352
1.17159
0.696642
1.1716
1.04743
1.17075
1.1721
1.17209
1.1721
1.17171
1.17165
1.17176
1.17189
1.17206
1.17209
1.17192
0.565194
0.860924
1.17173
1.0561
1.17178
1.17141
1.17151
1.17165
1.17148
1.17165
1.17204
1.17053
1.17203
1.1717
1.172
1.17161
1.17131
1.17004
1.17174
1.17156
1.17204
1.17207
1.17204
1.17206
1.17166
1.10943
1.17209
1.17201
1.17161
1.1721
1.17198
0.499999
0.587596
1.17192
1.17182
1.17189
1.17186
1.17189
1.17155
1.17178
1.17209
1.1721
1.17194
1.1721
1.17177
1.17209
1.1721
1.1716
1.17165
1.17197
1.17208
1.17192
1.17199
1.0332
1.17188
1.17164
0.63698
1.17183
1.17198
1.17197
1.16604
1.172
1.15982
0.784211
1.17184
1.17197
1.11248
0.859881
1.17176
1.1721
1.18485
1.17199
1.17198
1.17187
1.17208
1.17179
1.17165
1.17193
1.01636
1.17207
0.408709
1.1721
1.17196
0.459367
1.17197
1.03642
1.17179
1.16725
1.17166
1.17182
1.17187
1.17175
1.1721
1.17201
1.17204
1.17178
1.17183
1.17185
1.17195
1.1721
1.1719
1.17207
1.04464
1.17195
0.851632
1.17165
1.17192
0.565784
1.17166
1.43015
1.17175
1.17185
1.1719
1.22453
1.17183
1.17166
1.10446
0.996182
1.17164
1.03345
0.611013
1.17161
1.17201
1.17144
1.17165
1.17201
1.03573
0.571389
1.172
1.17166
1.17195
1.0917
1.17193
1.17167
1.13601
1.17199
1.17206
1.32643
1.17196
1.1628
1.17189
1.21185
1.17196
1.17182
1.17198
1.17118
1.17072
1.17196
1.17198
1.17198
1.16572
1.17195
0.316446
1.17202
1.17205
1.17209
1.17059
1.17194
1.17111
1.1718
1.17197
1.17169
0.32919
1.17208
1.17148
1.17131
1.0205
1.17172
0.983603
0.424529
0.319728
1.17185
1.16897
1.17209
1.18197
1.1717
1.16412
0.451222
1.15591
1.1718
1.17193
1.17186
1.17169
1.17131
1.17209
1.17175
1.17113
1.14701
1.17175
1.12833
1.17182
1.17167
1.16746
1.17201
1.1717
1.17795
1.1436
1.17165
1.16487
1.17166
1.17183
1.17156
1.16734
0.775312
1.17183
0.837908
1.17168
1.17162
1.17163
1.17206
1.1717
1.17203
1.17166
1.17191
1.17185
1.1718
1.16705
1.17171
1.17199
1.1705
1.17199
1.17159
1.17126
1.17172
1.17158
1.17187
1.13055
1.17168
0.63261
1.17164
1.17176
1.17189
1.17112
1.16836
1.17198
1.17161
0.983896
1.17057
1.16997
1.17172
1.17162
1.16702
1.14792
1.17184
1.17162
0.815731
1.17159
1.1716
1.1716
1.17202
1.17097
0.445915
1.16937
1.16373
1.17038
1.17156
1.17175
1.17201
1.172
1.16713
1.1656
1.17161
1.17203
1.17164
1.16485
1.17208
1.17171
1.17198
1.14745
1.1719
1.17207
1.1719
1.17165
1.17197
1.1719
1.17165
1.1681
1.17188
1.1721
1.17167
1.17182
0.438208
1.1721
1.1717
1.17164
1.17165
1.17165
0.499957
1.16928
1.17205
1.1719
1.1717
1.17025
1.17181
1.16938
1.17206
1.1719
1.03665
1.17208
1.17027
1.16883
1.11861
1.17165
1.1719
1.1719
1.17173
1.1721
1.17195
1.1721
1.17166
1.17194
1.17199
0.795911
1.17193
1.17193
1.17186
1.17191
1.17193
1.1712
1.17171
1.1719
1.17191
1.17204
1.17199
1.17111
1.17188
1.17202
1.17201
1.12147
1.17208
1.17168
1.17202
1.17168
1.17206
1.17189
0.315633
1.17075
1.17184
1.17172
0.46551
1.17172
1.171
1.17183
0.316
1.17171
1.17175
1.17175
1.17139
1.17163
1.02017
1.17161
1.17206
1.17191
1.17191
1.17109
1.17206
1.1715
1.17068
1.17174
1.17166
1.10519
1.17064
1.17178
1.17195
1.17209
1.17207
1.17202
1.1721
1.17177
1.17169
1.15982
1.17174
0.63588
1.17169
1.17196
1.1721
1.1718
1.16428
1.1721
1.17169
1.17178
1.17179
1.17208
1.17178
1.16396
1.17159
1.17208
1.1679
1.17168
1.17182
1.17183
1.17194
1.17183
1.1719
0.267633
1.17168
1.1718
1.17182
1.17207
1.17201
1.17202
1.17208
1.17164
1.17177
1.17178
1.17204
1.17186
1.17187
1.17174
1.17193
1.17207
1.17209
1.17178
1.17163
1.17191
1.1641
1.16896
1.17045
0.37187
1.17193
1.17177
1.17208
1.17168
1.17164
1.17192
1.17165
1.17208
1.17198
1.16713
1.17205
1.17194
1.17165
1.17165
1.17191
1.17186
1.15425
1.15944
1.1718
1.17176
1.17201
1.17188
1.17209
1.17208
0.51995
1.1721
1.17201
1.1721
1.17189
1.1721
1.1716
1.17168
1.17162
0.533006
1.1719
1.1719
1.1719
1.16896
1.17173
1.1717
1.17176
1.17175
1.16767
1.17166
1.17172
1.17194
1.17194
1.17194
0.956143
1.17139
1.17208
1.16334
1.17182
1.16652
1.15932
1.17195
1.17169
1.17198
1.17203
1.17197
1.17186
1.17183
1.16932
0.723824
1.17162
1.17209
1.17209
1.17149
1.17165
1.17204
1.17166
1.17165
1.17167
1.07662
1.15042
0.643287
1.17203
1.17187
1.17174
1.017
1.17055
1.17202
1.17197
1.14224
1.17196
1.11763
1.16959
1.1064
1.16502
1.17191
1.17167
1.17156
1.17176
1.17165
0.327058
1.17206
1.17166
1.17178
1.02232
1.17191
1.17208
1.17184
1.1721
1.17066
0.707866
1.172
1.17175
1.17174
1.00316
1.17171
1.17171
1.17171
1.17185
1.1721
1.17055
1.17154
1.17168
0.588916
1.17171
1.17202
1.17194
1.17169
1.16378
1.17209
1.17186
1.17119
1.15723
1.15452
1.1721
1.17178
1.17168
1.17172
0.795891
0.863878
0.909732
1.17047
0.880244
1.17192
0.813026
0.804144
1.17189
1.17189
1.17166
1.17131
1.17173
1.17195
1.1721
1.17187
1.17193
1.17197
1.17197
1.17083
1.17177
1.17179
1.17208
1.17174
1.17207
1.17209
1.17203
1.17084
1.16125
1.17208
1.10584
1.17199
1.17197
1.17164
1.17167
1.17134
1.17207
1.17192
1.17046
1.17207
1.17177
1.17174
1.17209
1.17175
1.00324
1.17176
1.17191
1.17182
1.17164
1.17038
1.17174
1.17205
1.17164
1.17206
1.17173
1.17207
1.17203
1.172
1.17164
1.17188
1.17205
1.10408
1.17175
1.17032
0.64582
1.1717
0.727376
1.17197
1.17166
1.17164
1.17209
1.17202
0.543556
0.802841
1.17016
1.17171
0.891091
1.0136
1.17174
1.17166
1.17174
1.17172
1.17173
1.17185
1.15938
1.17192
1.17202
1.17206
1.17163
1.17163
1.1721
1.17209
0.415009
0.547355
1.17163
1.17202
1.17022
1.17174
1.17194
1.17201
1.17209
1.17104
1.1721
1.17194
1.17189
1.17164
0.590681
1.17183
1.17164
1.10136
1.17067
1.17193
1.1712
1.15859
1.17195
1.17199
1.17164
1.16963
1.17175
1.17185
1.17166
1.17044
1.17085
0.649672
1.17164
1.17164
0.482992
1.17164
1.17171
0.634743
1.17164
1.17205
1.17163
1.17206
0.43832
1.17169
1.17171
1.16011
1.17165
0.415375
1.17163
0.497684
1.17164
1.17202
0.544418
1.17116
1.17203
0.322853
1.17158
1.17204
1.1679
1.17168
1.17182
1.17169
0.371482
1.17079
1.17173
0.771794
1.17172
1.15352
0.393848
0.909417
1.17025
0.500644
1.17166
0.234834
1.17193
1.17166
1.17165
1.1721
1.17197
1.17201
1.17209
1.17166
0.800802
1.16504
1.15911
1.06222
1.17166
1.17187
1.17167
1.17165
1.17167
1.17207
0.967283
1.16584
1.17183
1.17194
1.17193
1.16881
1.17173
1.17171
1.17016
1.17203
1.17168
1.1717
1.13623
0.36434
1.17059
0.683239
1.15561
1.17168
1.17166
1.16513
1.17166
1.17171
1.17166
0.644352
0.659558
1.07217
0.933559
1.17169
1.17169
0.988599
1.1717
1.14427
1.17209
1.17171
1.17193
1.1717
1.14359
1.17177
1.16969
1.06505
1.16149
1.17112
1.16997
1.17097
1.1717
1.16706
1.17197
1.17168
1.17171
1.1721
1.17184
1.17189
1.17188
1.17172
1.17166
0.398634
1.14297
0.781681
1.17166
1.17202
0.721065
1.16559
1.17189
0.916602
1.1718
1.17168
1.05048
0.533268
0.768769
0.873752
1.1718
1.11732
0.674883
0.975629
1.17195
0.774376
1.04144
1.07115
0.798036
1.17197
0.801196
1.06484
1.17207
1.03052
0.791848
1.02868
1.11082
1.17089
1.11878
1.17184
0.749122
0.765226
0.815539
1.17196
1.17202
0.936971
1.17167
1.17167
1.16858
1.17192
0.89818
1.15205
1.17165
1.17168
1.17166
1.17166
1.16753
0.98952
0.469559
0.710471
1.08252
1.17175
1.15962
1.14638
1.17178
1.17193
1.17188
1.17165
1.17165
1.17188
1.17168
1.17175
1.17167
1.17166
1.17201
1.16664
1.16551
1.1718
0.346111
1.17102
1.17165
1.07675
1.17166
1.17169
1.17163
1.17165
1.17186
1.1717
0.772155
1.16707
1.16989
1.16069
0.519485
1.17176
1.17168
1.04009
0.830561
1.17177
1.11843
1.17196
1.17184
1.1721
0.888416
1.17187
1.09098
1.17193
1.17203
1.17166
1.17172
1.15713
1.17179
1.07229
1.17208
1.13399
0.864006
1.17165
1.17193
0.435458
0.997059
0.556909
0.885901
1.17174
1.16792
0.92705
1.17173
1.17193
1.17072
1.17156
1.00825
1.1721
1.07698
1.16169
0.628174
0.998634
0.887846
0.802742
1.08785
1.1717
0.251809
0.700932
1.17102
0.426946
1.17174
1.16839
1.12346
1.172
0.371509
1.17108
1.17171
1.17172
1.17167
1.06302
1.17174
1.17167
1.1719
1.17208
1.1721
1.17192
1.17178
1.17166
0.402842
1.1515
1.1717
1.07032
1.1715
1.17166
1.1717
0.887295
0.532861
1.17148
1.1676
0.844035
1.14993
1.0349
1.16026
1.17209
0.576478
1.17172
1.17198
1.17196
1.569
1.17207
1.16805
1.17047
1.16609
1.13846
0.46715
1.17208
1.10231
1.17133
1.17165
1.17198
1.17209
1.17165
1.17209
1.17192
1.067
1.00263
0.342961
1.17193
0.241912
1.17159
0.855352
1.17198
1.16172
1.15806
1.24193
1.17191
1.17198
1.17181
1.17185
1.17173
1.17207
1.17178
1.11671
1.17151
0.752474
1.12569
1.17074
0.939214
0.488816
0.25923
0.66961
1.17166
1.14991
1.16692
1.17203
1.17193
1.12088
0.97236
1.1721
1.17202
1.17209
1.17185
1.17175
1.05987
1.0935
1.02726
1.1057
1.17193
0.195731
1.16889
1.17209
1.17148
1.17209
1.17161
1.10447
1.17158
1.17161
1.266
1.17185
1.172
1.17161
1.172
1.17187
1.17173
0.76635
1.17183
1.17197
1.16972
1.1615
0.548754
1.17156
1.17186
1.17168
1.17203
1.17171
1.17176
0.988829
0.421608
1.17175
1.172
0.37285
1.17173
1.1718
1.17172
1.17173
1.16117
0.483742
0.310408
1.05429
1.16907
1.17178
0.706697
1.17171
0.667285
0.539776
1.17178
0.78792
1.17186
1.172
0.399527
1.17189
1.17177
0.517102
0.72975
0.437807
0.480879
1.1719
0.718069
0.919124
0.666582
1.17199
1.17182
0.478425
0.440526
0.659279
0.955147
1.15698
1.17165
0.88781
1.15295
0.59002
0.925114
0.971269
0.502619
1.1718
1.17168
1.15134
0.462735
0.989711
1.07105
0.701201
1.13032
0.537049
1.17176
0.856007
1.17167
0.440855
1.1717
1.15341
1.16295
1.17175
0.498554
1.17168
0.550098
0.446996
1.17165
1.17171
0.676822
1.1717
1.17202
1.17205
1.17168
0.647357
1.17168
0.442752
0.324094
1.17204
1.17178
0.423256
1.172
1.1721
0.856345
1.17209
1.17209
1.17173
1.17198
1.04029
1.07356
0.471697
1.17197
1.17191
0.55059
1.17183
1.12825
0.928463
1.17201
1.1721
1.17203
1.172
0.704258
1.17165
1.1717
1.17165
1.17197
1.17207
1.11175
1.10368
1.17195
1.17192
1.1017
1.17204
1.17016
1.17166
0.976739
1.17191
0.905967
0.621243
1.172
1.17165
1.17165
1.16903
0.490113
1.17165
0.882399
1.17158
1.17171
1.17174
1.17165
1.17207
1.17179
1.17208
0.603968
1.17208
1.17165
1.17173
1.17176
1.17168
0.72529
1.0404
1.17166
1.17166
0.701298
1.17209
1.05926
1.17168
1.17208
0.305573
0.402469
1.07758
1.17166
1.1717
1.04581
0.443421
1.17203
0.371001
1.17207
0.628315
0.517443
1.17165
1.0691
0.476661
0.733469
0.345085
0.658241
1.17192
1.17207
1.1718
1.12993
1.01399
1.17177
0.42482
1.17185
1.17146
1.17207
1.15535
0.464363
0.549957
1.17206
1.16815
1.08388
1.17208
0.463403
1.17206
1.17165
1.17173
0.42241
0.547827
0.668226
1.17184
1.17182
1.17191
0.452022
1.17169
0.394699
1.17209
1.17208
0.468765
1.15778
1.17165
1.17205
0.335701
1.17208
1.17206
1.04287
0.372176
1.16709
1.16217
1.17165
0.30966
0.660995
1.07098
1.16682
1.17203
0.869632
1.17177
1.03428
0.579924
1.12122
1.11249
0.510723
1.09456
0.306367
1.17165
0.256098
0.487585
1.16538
1.17165
1.14382
0.251063
1.17165
0.631861
0.334358
1.17166
1.09599
1.17166
0.377986
0.92155
1.163
0.552711
0.545134
1.17165
1.17166
1.17179
1.17172
0.420421
1.17178
0.753377
1.09505
1.17169
1.17168
1.17169
1.1719
1.17165
1.17167
1.17096
1.1717
0.404102
1.17191
0.370346
1.17168
1.16847
1.1718
1.17169
1.10371
1.17169
1.17169
1.17191
1.17204
1.1716
1.08148
1.11573
0.998937
1.16893
1.17205
1.17207
1.17168
1.17189
1.17196
1.172
1.17201
1.16854
1.17007
1.1287
1.17205
1.17202
1.17201
1.16944
1.17185
1.17185
1.02592
1.17204
1.1713
1.12356
1.17146
1.14195
1.1718
1.1716
1.15213
1.16064
1.17191
1.17198
1.1716
1.17198
1.17145
1.17202
1.17168
1.17124
1.17164
1.17201
1.17181
1.17206
1.15608
1.17175
1.01839
1.17203
1.17122
1.17173
1.17173
1.17106
1.16385
1.16786
1.17175
1.17165
1.17187
0.406872
1.2652
1.17174
1.11031
1.07475
1.17195
1.17152
1.17169
1.02899
1.15789
1.17203
1.17176
1.00548
1.17183
1.07154
1.17159
1.17209
1.17196
1.17203
1.17175
1.17208
1.1721
1.17173
1.17208
1.0403
1.17205
1.17208
1.17152
1.17208
1.17179
1.10533
1.17175
1.17209
0.960304
0.913588
1.17174
1.17201
1.17204
1.17171
1.1646
1.17202
1.17199
1.15384
1.17174
1.17173
1.17174
1.17175
1.17206
1.17201
1.17179
1.17066
0.641903
1.16638
0.629314
1.17173
1.17159
1.17201
1.172
0.442221
1.17202
1.1717
1.17004
1.17201
0.480109
1.17186
1.17201
1.172
1.00371
0.703493
1.03106
0.706013
1.17202
1.00046
0.886007
1.17184
0.995196
1.17181
1.00481
1.04893
1.17134
0.767225
0.973847
0.885673
1.1715
0.886941
0.978054
1.17165
1.17178
1.10949
1.1715
1.17201
1.17201
1.17205
1.03404
1.17208
1.17173
1.17183
1.17178
1.17178
1.17207
1.17186
1.05782
1.17185
1.1718
1.17167
1.1721
1.1565
1.17185
1.17143
1.17187
1.17202
1.17205
1.17186
1.1717
1.17185
1.17186
1.17185
1.17204
1.17166
1.17204
1.16335
1.17165
1.17147
0.951138
1.17171
1.17168
1.17178
1.17175
1.17166
1.17172
1.17185
1.17176
1.17114
1.17058
1.17194
1.17199
1.17185
1.17185
1.17178
1.16603
1.17183
1.17176
1.17156
1.17183
1.17174
1.17106
1.17178
0.998044
1.09279
1.17172
1.17184
1.17174
0.664666
0.473964
1.17177
1.17173
1.17184
1.17177
1.17177
1.17193
1.17173
1.17199
1.17173
0.52736
1.17166
1.17199
1.172
0.32533
1.0987
1.17135
0.344398
1.1716
1.17173
1.1718
1.1718
1.17202
1.17203
1.16118
1.17176
1.17198
1.06418
0.340236
1.17198
1.17196
0.330127
1.17069
0.322079
1.17199
1.17153
1.17189
1.1718
0.432253
1.17196
0.418734
1.172
1.17185
0.462923
1.17166
1.17186
1.17117
0.415933
1.17204
1.17133
0.471321
1.17203
1.17038
0.41362
1.16524
1.17191
1.17171
0.921067
1.15806
1.17657
0.542672
1.17201
1.17168
1.17129
1.17207
1.17135
1.05944
1.17181
1.17168
1.17171
1.08637
1.17167
1.17206
1.17203
1.17166
1.16822
1.17197
1.06463
0.718073
1.17168
1.05738
1.0859
0.76861
1.17166
1.17094
0.669584
1.17199
1.03489
1.17166
1.17091
1.17173
1.08048
1.1721
1.1721
1.1717
1.1721
1.07082
1.04894
1.13151
0.544891
1.17019
1.17186
1.17165
1.02205
1.17187
1.17171
1.17208
1.17006
1.17188
1.13665
1.17188
1.16859
0.750858
1.11339
1.17194
1.12891
1.09711
1.17172
1.162
1.16198
1.17041
1.12651
1.17182
1.11418
1.17185
1.17137
1.14214
1.09665
1.17164
1.17183
1.0472
1.1371
1.17189
1.17143
1.09678
1.17156
1.17152
1.16959
0.637813
1.17056
1.17178
0.322664
1.17203
1.17164
1.16415
1.17174
0.32328
1.1717
1.16181
1.1573
0.759632
1.17167
1.17173
1.17171
0.32514
1.17154
1.16358
1.17164
0.336891
0.332153
1.16867
1.1721
1.11211
1.07545
1.10607
1.01284
0.875279
1.17206
1.1714
1.17182
1.17179
1.17188
1.17177
1.1721
1.17165
1.17204
1.1721
1.17175
0.343832
1.17204
1.17177
1.17184
1.16918
1.17054
1.17205
1.07385
1.1721
1.1719
1.1719
1.17165
1.17198
1.17185
1.1719
1.17209
1.17157
1.17166
0.34449
1.1721
1.16994
1.17179
0.404253
1.17178
1.17099
0.765339
1.17179
1.17209
0.989427
1.17189
1.172
1.1718
1.17183
1.172
1.17196
1.1718
1.17209
1.17206
1.17167
1.16991
1.10606
1.17181
1.17176
1.17181
1.1688
1.17146
1.17166
1.17186
0.452451
1.17175
1.17161
1.1717
1.17118
1.17165
1.17171
1.17169
0.345157
0.38758
1.17165
1.07739
1.17165
1.17179
1.17164
1.16934
1.17165
1.17179
1.16408
1.1717
1.17166
1.06862
1.17163
1.0457
0.497809
1.17169
1.17181
1.17162
0.395792
1.17166
1.17165
1.17171
1.17173
1.1717
1.17171
1.1717
1.16609
1.17162
1.17166
1.16682
1.07733
1.04562
1.17182
1.0738
1.14641
1.17189
1.02933
0.251009
1.1721
1.16547
1.16095
1.17205
1.17184
1.17208
1.16987
1.04941
1.17207
1.17208
1.17192
1.17189
1.17207
1.17131
1.17207
0.995016
1.17202
1.17174
1.17174
1.0776
1.17208
1.17198
1.17169
0.632406
1.12551
1.17174
1.17164
1.1719
1.17173
1.03148
0.562158
1.17188
1.15801
1.16849
1.16496
1.17173
1.172
0.318232
1.17173
1.17167
1.17192
1.17171
1.16555
1.17169
1.17167
1.17155
1.17168
1.17179
1.17164
1.17191
0.683901
0.705676
1.17167
1.16408
1.17191
1.1719
1.17169
0.463923
0.633538
0.334817
1.17176
1.17175
1.17191
1.17164
1.17141
1.17165
1.11751
1.17165
1.17191
1.17164
0.44759
0.367018
1.17162
1.1719
1.11834
1.12752
1.17084
1.11816
0.898938
1.04301
0.4573
0.894441
1.17165
1.17166
1.17166
1.17171
1.17172
1.17175
1.11291
0.432214
0.866203
0.901603
0.958332
1.17164
0.984648
0.991219
1.167
1.17169
0.891655
1.17172
1.13842
1.15359
1.1721
1.11055
0.852706
1.17183
1.17179
0.3526
1.17195
1.1721
0.965989
0.431269
1.17166
1.17192
1.17195
1.17165
1.17174
1.1721
1.1717
1.07934
0.326959
1.17175
1.17188
1.17159
0.842567
1.09857
1.17208
1.17209
1.17184
0.932092
1.17172
1.17167
1.16987
1.1721
1.17163
1.17198
1.17195
0.459124
1.17162
1.17195
1.17168
1.17196
1.17181
1.17164
1.17163
1.172
1.17161
1.17186
1.17193
1.17081
1.172
1.17169
1.17199
1.17196
1.17174
1.17202
1.17161
1.17196
1.17198
0.528301
1.17206
1.13862
1.17162
1.17172
1.17184
1.17172
1.17166
1.17162
1.14133
1.14336
0.593676
1.14091
1.17149
1.09847
1.1707
1.14607
1.1438
1.17253
0.724575
1.17195
1.17161
1.17166
1.17196
1.17185
1.17171
1.17148
1.16575
1.17183
0.420215
1.17203
1.1718
1.1716
1.17182
1.17174
1.17165
1.08555
0.347022
1.07221
1.17169
1.17182
1.17172
1.08332
1.17168
1.17157
0.967365
1.1716
0.958842
1.17168
1.17168
1.17147
0.973051
0.998691
0.982897
0.912993
1.07299
1.13479
0.33961
0.665389
0.946153
1.17191
1.17174
1.17166
1.17166
1.15538
0.395366
1.17135
1.06629
0.406415
0.409067
1.17182
0.399665
1.15938
1.17181
1.17173
1.17172
1.16371
1.03639
1.17093
1.17165
1.16196
0.497385
1.16989
0.364412
0.917251
1.15754
0.412778
1.17168
1.15863
0.401924
1.17142
1.17173
1.17165
1.17057
1.17181
1.17197
0.418143
1.17169
1.17209
1.1333
1.17164
0.403258
1.14466
1.17169
1.12465
0.964756
0.979168
1.03437
0.958089
1.16993
1.03552
1.17202
1.17166
1.00813
1.17142
1.03273
0.998449
1.17157
1.17001
1.17178
1.0922
0.329945
1.17166
1.17186
0.900988
1.17168
0.315396
1.17165
1.17187
1.17165
0.896218
1.17194
1.02583
1.17205
1.17172
1.17033
0.899451
0.900168
1.17163
1.17185
1.16387
0.319156
0.405126
1.17179
0.539695
1.04265
0.998048
0.325094
1.17172
0.529907
1.17207
1.17168
1.17167
1.17185
1.17169
1.17201
1.17183
0.322413
1.17167
1.17163
1.1718
1.17182
1.17168
1.17165
1.17165
1.17117
1.16961
1.17204
1.17185
0.483925
1.17174
0.317515
1.1715
1.17188
0.527354
1.1717
1.17188
1.17194
0.320085
1.17198
1.17182
1.00525
1.17171
1.17166
1.17183
1.04205
1.172
1.17188
1.17168
1.17209
1.17208
1.17165
1.17167
0.846159
1.17176
1.17078
1.17178
1.06777
1.17179
1.17169
1.17203
1.16568
1.17166
1.17165
1.17165
1.17202
1.16918
1.17202
1.17166
1.17201
1.17196
1.17165
0.367284
1.17182
1.17179
1.1717
1.17166
1.17182
1.15144
1.172
1.17199
1.17171
1.17167
1.17183
1.1721
1.17196
1.17175
1.17205
1.17194
1.17202
1.1375
1.17165
1.17204
1.17194
1.17202
1.17183
1.17206
0.398044
1.17149
1.17167
1.17172
1.17181
1.17114
1.17165
1.17212
1.07584
1.17154
1.1704
1.17165
1.1719
1.17166
1.17166
0.419904
1.17201
1.17193
0.417776
1.17205
1.1719
1.17183
1.17175
1.17168
1.17165
1.13618
1.17182
1.17194
1.17183
0.410795
0.467776
0.440145
1.17138
1.15167
1.06987
1.17205
1.17177
1.17167
0.409317
1.17177
1.17165
1.17176
1.17197
1.15945
1.17186
1.17178
1.17171
1.17099
1.17164
1.17044
0.90548
1.17182
1.16916
0.958688
1.17184
1.09461
1.17203
1.17178
1.17183
1.17206
1.17208
1.04656
1.17184
1.15033
1.14889
1.15807
1.13516
0.806223
1.17158
1.17185
1.17166
1.17184
1.17194
1.17185
1.17199
1.17199
1.17165
1.11069
1.1717
1.17159
1.12082
1.17178
0.753771
1.17079
0.755426
1.17171
1.17198
0.830893
1.17207
1.17198
1.17165
0.691071
0.823578
0.74586
1.1717
0.724248
1.17194
1.17205
1.17194
1.17183
1.17171
0.428162
1.1705
1.17196
1.17195
1.10634
1.17157
1.17196
1.16183
1.17196
1.17196
0.537037
1.17184
1.16208
1.17196
1.17055
1.17208
1.17172
1.17209
1.17185
1.1716
1.17208
0.308216
1.1717
1.17052
1.17209
1.17168
0.592423
1.17208
1.17208
1.17192
1.01572
1.17192
1.09932
0.984668
0.677322
1.17208
0.411151
1.01933
1.17209
1.17173
0.733036
1.17108
1.17184
0.578339
1.10002
1.17205
1.17166
1.17193
0.526308
1.17172
1.17171
1.17173
1.17165
1.11905
1.17164
0.311408
1.17182
1.16959
1.17165
1.17166
1.1712
1.17164
1.17202
1.17176
1.17174
1.16149
1.11719
0.704283
0.872719
0.649462
0.735737
0.671918
1.17189
1.17207
1.17196
0.550718
1.01911
0.409169
1.07034
1.17179
0.991586
0.651331
0.401295
0.434389
1.17196
0.492416
0.43263
0.713434
1.17196
1.03572
0.608811
0.570076
0.457963
0.684577
0.754129
0.93946
1.17207
0.838489
1.17198
0.664023
1.17143
0.43051
0.903298
1.17195
1.17207
0.924044
0.707097
1.17166
1.16679
1.1718
1.1721
0.967948
1.17173
1.17168
1.1718
1.17209
1.08401
1.17187
0.196416
1.16007
1.17209
1.17167
0.91202
1.17157
0.307556
0.443517
0.852539
1.17159
1.1719
1.17165
0.512549
1.17191
1.17191
1.17197
1.172
1.17173
0.906928
1.02646
1.17175
0.830306
0.444065
1.17172
1.17206
1.07656
1.17195
1.17171
0.42804
1.1721
1.17209
1.17175
0.751861
0.247309
0.569601
1.17166
1.17173
1.17166
0.587401
1.08355
0.731653
0.599241
1.17175
1.17176
1.17175
1.16885
1.17206
1.06877
0.587976
1.17178
0.434721
1.17172
1.17173
1.04986
1.17164
1.17152
1.17178
0.476285
1.47054
1.17174
1.17175
1.17034
1.12786
1.17181
1.17192
0.242929
1.17209
1.17177
1.1718
1.17174
1.17165
1.17187
1.17165
1.17165
1.17206
1.17174
1.17173
0.848383
1.17178
0.674816
0.275204
1.17351
0.872619
1.17186
0.982515
1.17191
1.17165
1.27987
0.620003
0.444278
0.816424
1.17162
1.15666
1.1718
1.17094
1.1548
1.16849
1.16082
1.16883
1.17186
0.666788
1.17166
1.17165
1.17195
1.16648
1.16511
1.17171
0.497511
1.17195
1.1718
1.17172
0.531085
0.423151
1.17183
1.17899
1.14583
1.10758
1.09628
1.13931
1.17181
1.17204
1.16432
1.17175
1.17205
1.17198
1.17196
1.17197
1.17163
1.17186
1.10396
0.634362
1.15858
1.16978
1.12244
1.17033
1.17174
1.17195
1.17197
1.16209
1.17173
1.17188
1.17173
1.15686
1.17196
0.605144
1.15621
1.16943
1.14717
0.768772
1.17175
1.16182
1.17172
1.17179
1.16779
1.05989
1.16511
1.17193
1.17178
1.17187
1.15734
1.17197
1.15384
1.03732
0.798697
1.13975
1.17175
1.17175
1.16444
1.11059
1.17163
1.16265
1.16643
1.16929
1.17169
1.17099
1.17173
1.16091
1.1721
1.17167
1.06
1.1718
1.17173
1.17165
1.16635
0.498912
1.16229
1.17195
1.17209
1.16776
1.14861
1.1721
1.17165
1.17189
0.387619
1.1603
0.280573
1.15753
1.17209
0.498588
0.497778
1.17179
1.17209
1.17177
1.17176
1.17169
1.1718
1.11507
1.17184
1.17173
1.17192
0.497482
1.17169
1.17169
1.17197
1.17185
0.552015
0.595483
1.17169
0.498107
1.17167
1.17201
1.17182
1.17204
1.17181
0.499788
1.0051
1.17165
1.17165
1.17002
1.172
1.17192
1.17163
1.17192
1.17199
1.1613
1.17193
1.15834
1.17173
1.17196
1.17165
1.16112
1.17182
1.17166
0.691058
1.17166
1.17168
1.17197
1.17175
0.45703
1.17195
1.06989
1.17168
1.15815
1.17165
1.172
1.17166
1.17169
1.17166
1.17174
1.17168
1.16154
0.57589
1.17179
1.1719
1.17186
1.17186
1.17165
1.17177
1.17166
1.17168
1.17164
1.17194
1.17165
1.17177
1.17152
0.564465
0.708122
1.16933
1.15854
1.17204
1.17186
0.888182
1.17165
1.09402
1.17176
1.16729
1.17192
1.1721
1.17196
1.17208
1.17164
1.17172
1.01129
1.16683
1.17168
1.17193
1.17201
1.17168
1.17191
1.17203
1.17195
1.17198
1.1718
1.16957
1.08584
1.17096
1.17188
1.17189
1.01796
1.02685
1.17134
1.17188
1.17183
1.17189
1.17134
1.17171
0.97773
1.17192
1.1717
1.03308
1.17082
1.16048
1.08578
1.19752
1.1482
1.17199
0.215674
1.172
1.02236
1.17204
1.14528
1.16928
1.13347
0.789641
1.17186
1.17207
1.17199
0.570128
0.509181
1.17196
1.13792
1.10055
0.437992
1.17187
1.17164
1.17173
1.1719
1.15809
1.17197
1.17207
1.17191
1.17186
1.17204
1.17198
0.713466
1.05641
1.16985
1.17183
1.17204
1.15849
1.17201
1.17203
1.00948
0.433445
1.08821
1.17206
1.17199
1.0505
1.00881
1.17177
1.17187
0.610272
1.17022
0.556273
1.17209
1.15745
1.1719
1.17174
1.17194
1.17176
1.17177
1.17174
1.17171
1.17178
1.17196
1.17179
1.17182
1.17173
1.1717
1.17189
1.17197
1.17178
1.17185
1.17188
1.17195
1.17167
1.17178
1.1717
1.17172
1.17025
1.15725
1.16389
1.17179
1.172
1.17165
1.17166
0.959865
1.17173
1.17167
1.17171
1.17166
1.1717
1.17166
1.16036
1.17196
1.17175
1.17184
1.17167
1.17187
1.17126
1.17201
1.17105
1.17084
0.866699
1.17182
1.17194
1.16953
1.17204
1.17206
1.17171
1.17193
1.17172
1.17203
1.17166
1.17193
1.17168
1.17185
0.716724
0.730539
1.17209
1.17184
1.172
1.1717
1.17165
1.17176
1.17176
1.17177
0.673924
0.259921
1.1717
0.264679
1.17164
1.17183
0.435204
0.370311
1.17165
1.17077
0.698857
1.17166
1.17172
1.17178
1.17174
1.17174
0.401883
1.17208
0.344584
1.17171
1.17172
1.17201
1.16314
1.16236
1.16437
1.1718
1.17198
1.17208
1.17193
1.17172
1.17178
1.17165
1.17186
1.17166
1.17202
1.16384
1.17209
1.17185
1.17184
1.17178
1.17184
1.1717
1.17169
1.17027
0.949803
1.16932
1.17165