/*--------------------------------*- C++ -*----------------------------------*\
| =========                 |                                                 |
| \\      /  F ield         | OpenFOAM: The Open Source CFD Toolbox           |
|  \\    /   O peration     | Version:  v2012                                 |
|   \\  /    A nd           | Website:  www.openfoam.com                      |
|    \\/     M anipulation  |                                                 |
\*---------------------------------------------------------------------------*/
FoamFile
{
    version     2.0;
    format      ascii;
    class       volScalarField;
    location    "5";
    object      T;
}
// * * * * * * * * * * * * * * * * * * * * * * * * * * * * * * * * * * * * * //

dimensions      [0 0 0 1 0 0 0];


internalField   nonuniform List<scalar> 
108993
(
300.001
300.018
300.001
300.001
300.001
300.001
330.445
300.001
300.001
300.012
300.001
300.001
300.001
300.001
300.001
300.002
300.027
300.001
300.001
300.01
300.001
300
300.002
300.001
300.001
300.001
300
300.01
300.008
300.001
300.001
300.001
300
300.003
300
300.001
300
300.001
362.88
679.467
300.003
300.001
300.001
300.001
300.139
1008.64
300
302.252
300.001
300.005
300.001
300.593
300.009
300.001
300.001
300.001
300
300.001
300.001
300.001
300.001
300.001
300.001
300.001
300.001
300.001
300.001
300.001
300.001
325.985
300.001
300.001
300.001
300.001
300.001
300.001
300.001
300.006
300
300.001
300.001
300.001
300.001
300.001
300.001
300.001
300.001
300.001
300.001
300.001
300.001
300.001
300.001
300.001
300.001
300.001
300.001
300.002
300.001
300.001
300.001
300.001
300.001
300.001
300.001
300.001
300.001
300
300.001
507.344
300.179
300.001
300.27
300.982
300.001
315.322
300.001
300.002
300.091
300.001
300.001
300
430.496
300.001
300.001
300.033
300.003
300.001
300
300
300.001
300
300.001
302.199
300.001
300.001
300
300.001
300.001
300.001
300.001
300.001
300.02
300
300
300.001
300.001
823.457
300.001
301.224
301.322
300.001
300.001
301.517
300.001
300.134
300.002
300
300
300.004
301.452
300
300.001
300.001
300.001
300.988
300.001
300.001
300.001
300.002
300.001
300.001
300.071
300.001
300.005
300.001
300.674
300.001
300.001
300.001
300.014
300.001
300
300.001
300.001
300.001
300
300.001
300.001
300.001
300.002
300
300.002
300.061
300.002
300.001
300.003
300.003
300.001
300.001
300.001
300.335
300.001
300
308.505
300.629
300.001
606.63
300.001
292.915
300.333
300.002
300.766
521.506
1325.21
300.001
300.001
300.001
300
300.001
300.001
301.509
300.004
300.298
300.001
300.001
300
300.001
302.292
300.001
656.467
300.001
300.001
300.005
300.001
300.001
300
300.001
318.622
300
300.001
300.001
300.001
300
300
300.004
539.703
420.327
300
300.001
300.001
300.001
300.001
300.002
300
300
300
300.001
300
300.001
300.001
300.001
300.098
300.066
300
300.001
300.001
300.002
300.001
300.001
300.001
300.001
571.044
304.708
798.53
300.001
300.001
395.526
300.001
300.001
300.001
1079.57
1065.42
300.001
300.001
300.011
300.001
300.002
300.001
695.453
300.001
300.001
300.003
300.001
300.001
300.001
300.001
300.001
300.409
300.001
331.328
303.404
300.001
300.001
300.001
300.001
300
300.001
300.001
527.475
300.001
300.001
300.033
300.001
300.001
310.219
300.001
300.042
597.42
300.001
300.015
300.001
300.002
300.002
300.003
307.396
303.542
370.407
300.001
300.001
300.002
363.16
301.518
300.001
506.07
300.001
300.001
300.001
300.001
300.001
300.001
300.412
300.009
300.001
300.001
300.001
300.001
300.001
300.001
300.001
300.001
300.001
1089.13
570.448
300
300.001
300.001
817.014
300.001
300.001
300.002
300.008
300.001
300.001
300.001
300.01
300.001
300.001
300.001
265.617
300.005
300.008
300.001
305.563
300.011
301.694
300.001
300.001
300.938
300.001
300.691
301.038
300.01
300.056
300.001
300.007
300.006
694.47
300.001
511.499
300.987
300.007
300.911
300.001
547.882
300.006
300.839
300.001
300.118
300.001
300.007
465.145
425.437
300.001
300.001
300.008
300.006
300.002
300.001
311.354
300.001
300.002
329.109
300.001
300.001
300.001
338.16
348.569
575.178
300.001
326.057
300.019
301.887
300.001
300.001
302.861
300.001
386.896
302.875
300.001
297.907
548.047
301.927
300
300.001
300.021
300
300.001
300.001
300.001
300.001
300.001
300.001
300.001
306.747
300.024
300.024
300.079
300.001
300.001
300.001
300.001
300.001
300.003
300.001
300.001
300.001
300.001
300.001
300.001
299.529
300.001
390.453
301.113
300.05
300.001
300.001
422.692
300.001
300.001
305.77
300.001
300.001
300.003
300
300.051
300.001
311.355
556.062
300.171
300.001
300.001
300.001
300.001
300.001
300.001
300.001
300.001
300.037
300.003
300.001
300.001
300.115
300.001
300.281
300.001
300.001
300.001
300.001
300.005
300.001
300.001
300.001
300.001
300.127
300.666
300.001
300.001
446.87
300.001
300.024
300.02
300.001
300.008
300.001
300
300.001
300.001
300.004
300.004
300.003
300.003
300.021
300.006
300.001
300.219
300.006
300.001
300.219
300.006
300.005
300.001
300.166
300.001
300.002
300.001
300.383
300.001
300.025
569.311
300.001
722.131
300.001
300.001
300.001
300.001
300.001
300.156
300.003
300.001
358.941
300.005
1194.36
300.001
300.001
300.001
300.001
300.01
233.182
300.004
300.004
300.001
300.001
300.014
334.406
368.771
300.001
300.001
300.005
300.003
300.001
300.004
1068.08
317.574
381.21
300.005
300.001
340.319
303.074
305.273
300.002
300.003
300.001
300.001
300.001
300.262
1038.8
318.079
300.001
300.001
300.005
300.001
300.005
300.001
304.39
300.001
300.001
300.001
300.461
300.026
300.001
300.001
242.263
300.054
300.001
300.001
275.046
300.001
300.044
300.001
306.06
300.001
300.04
300.001
300.01
300.001
300.006
300.001
442.682
300.001
301.724
300.001
300.002
732.047
300.013
300.001
300.001
304.413
1139.28
300.009
407.944
300.001
300.468
303.63
300.004
300.001
300.001
363.704
300.322
300.2
300.002
300.276
300.001
300.007
300.001
300.005
300.002
300.092
300.048
300.008
300.009
300.315
618.585
864.998
330.807
300.004
304.013
872.557
316.077
877.336
863.756
300.001
300.018
300.001
300.001
300.006
300.034
300.015
507.371
604.937
300.039
300.021
300.843
873.285
883.226
300.001
300.188
349.012
300.001
880.035
300.054
311.598
300.071
300.009
821.831
300.027
340.145
317.898
347.246
322.08
300
300.001
300.072
300.008
300.002
608.448
300.015
502.761
300.018
335.555
300.346
300.001
300.001
300.001
300.058
300.001
300.081
300.001
300.001
300.001
300.024
617.892
407.868
300.001
332.769
300.001
300.14
300.086
300.001
300.133
300.003
300.002
300.347
300.006
300.001
300.014
300.075
300.197
300.522
300.001
300.1
300.002
300.004
300.006
300.001
300.001
316.717
300.001
300.001
300.015
300.001
300.013
698.971
594.699
300.008
300.026
300.008
300.025
300.01
300.063
300.001
300.001
300.001
300.002
300.001
300.032
300.001
300.001
300.096
300.001
300.003
300.001
300.003
300.001
339.891
300.004
300.006
549.037
300.001
300.001
300.001
301.469
300.001
303.141
446.963
300.001
300.001
315.909
408.02
300.007
300.001
296.769
300.001
300.001
300.014
300.005
300.024
300.001
300.001
345.473
300.001
850.553
300.001
300.001
758.865
300.024
339.014
300.038
301.236
300.001
300.021
300.058
300.001
300.001
300.019
300.001
300.002
300.001
300.001
300.001
300.001
300.003
300.001
336.2
300.002
412.044
300.001
300.001
614.356
300.001
246.027
300.012
300.001
300.024
287.216
300.025
300.001
318.121
352.441
300.011
339.811
572.3
300.031
300.001
300.141
300.001
300.001
339.072
612.153
300.001
300.001
300.001
321.818
300.002
300.001
309.362
300.001
300.001
265.216
300.001
302.389
300.002
290.2
300.001
300.019
300.02
300.197
300.271
300.001
300.02
300.021
301.541
300.006
1088.12
300
300.001
300.001
300.341
300.028
300.211
300.001
300.001
300.102
1048.06
300.001
300.108
300.192
344.105
300.005
356.913
816.637
1077.14
300.054
300.8
300.003
297.517
300.001
302.063
772.809
304.147
300.001
300.001
300.017
300.054
300.201
300.001
300.001
300.244
306.515
300.001
311.563
300.024
300.001
301.198
300
300.001
298.529
307.404
300.001
301.743
300.001
300.001
300.101
301.183
451.67
300.004
418.457
300.032
300.084
300.006
300.001
300.068
300.011
300.004
300
300.024
300.001
301.259
300.001
300.001
300.405
300.001
300.104
300.212
300.063
300.091
300.001
310.937
300.001
552.807
300.004
300.001
300
300.252
300.91
300.001
300.013
356.79
300.341
300.54
300.001
300.09
301.295
306.276
300.001
300.033
430.054
300.094
300.012
300.093
300.003
300.284
781.853
300.652
302.098
300.388
300.041
300.047
300.011
300.007
301.22
301.649
300.013
300.001
300.003
301.809
300.001
300.001
300
306.369
300.002
300.001
300.002
300.003
300.001
300.002
300.002
301.024
300.002
300.001
300.017
300.001
795.001
300.001
300.001
300.004
300.001
300.004
697.315
300.634
300.001
300.002
300.001
300.474
300.019
300.649
300.003
300.002
338.889
300.001
300.384
300.81
314.15
300.001
300.002
300.002
300.001
300.002
300.009
300.001
300.001
300.001
300.001
440.471
300.001
300.013
300
300.001
300.024
300.182
300.027
300.025
300.002
300.001
300.004
300.201
300.003
300.001
300.001
313.47
300.001
300.053
300.001
300.026
300.002
300.001
1092.13
300.347
300.024
300.029
748.57
300.067
300.255
300.023
1091.11
300.001
300.001
300.001
300.132
300.046
344.524
300.071
300.002
300.005
300.002
300.188
300.001
300.083
300.333
300.025
300.016
318.07
300.339
300.039
300.001
300.001
300.001
300.001
300.001
300.001
300.006
303.127
300.004
550.696
300.011
300.001
300.001
300.037
302.008
300.001
300.011
300.001
300.041
300.001
300.046
302.078
300.13
300.001
301.056
300.001
300.001
300.001
300
300.001
300.002
1175.91
300.107
300.001
300.001
300.001
300.002
300.002
300.001
300.003
300.001
300.001
300.001
300.004
300.003
300.001
300.001
300.001
300.001
300.002
300.003
300.002
301.956
300.8
300.413
932.309
300.001
300.001
300.001
300.001
300.002
300.002
300.002
300.001
300.001
301.25
300.002
300.009
300.002
300.002
300.002
300.001
304.626
303.25
300.002
300.001
300.001
300.004
300.002
300.001
669.85
300.001
300.001
300.001
300.001
300.001
300.014
300.014
300.007
653.803
300.015
300.01
300.013
300.797
300.027
300.012
300.001
300.001
301.128
300.001
300.044
300.009
300.009
300.006
367.249
300.126
300.001
302.182
300.001
301.361
303.217
300.005
300.001
300.002
300.001
300.002
300.002
300.001
300.701
484.092
300.045
300.001
300.001
300.077
300.001
300.001
300.001
300.001
300.001
326.408
305.542
543.547
300.001
300.04
300.001
345.288
300.392
300.001
300
307.724
300.007
314.42
300.572
317.566
301.776
300.001
300.001
300.051
300.001
300.002
978.629
300.001
300.001
300.001
343.641
300.002
300.001
300.018
300.001
300.366
494.722
300.001
300.062
300.004
349.994
300.001
300.003
300.001
300.042
300.001
300.395
300.061
300.001
592.88
300.001
300
300.001
300.071
302.141
300.001
300.024
300.227
303.847
304.433
300.001
300.001
300.108
300.001
440.359
406.01
385.725
300.409
398.531
300
431.161
435.88
300.008
300.008
300.001
300.193
300.001
300.001
300.001
300.011
300.001
300.002
300.001
300.309
300.001
300.001
300.002
300.008
300.003
300.002
300.001
300.303
302.757
300.002
317.786
300.024
300.001
300.004
300.003
300.167
300.001
300.007
300.346
300.003
300.005
300.007
300
300.008
350.138
300.006
300.042
300.005
300.066
300.442
300.009
300.001
300.005
300.001
300.01
300.001
300.001
300.002
300.005
300.042
300.005
318.344
300.008
300.451
541.893
300.001
481.498
300.001
300.005
300.005
300.001
300.001
642.44
436.874
300.453
300.012
393.905
346.561
300.001
300.001
300.001
300.009
300.012
300.005
303.263
300
300.001
300.005
300.023
300.005
300.001
300.001
839.569
638.791
300.018
300.001
300.476
300.003
300.007
300.022
300.001
300.223
300.001
300.009
300.002
300.019
591.647
300.029
300.02
319.134
300.293
300.007
300.214
303.485
300.007
300.001
300.005
300.587
300.084
300.001
300.003
300.408
300.317
538.659
300.003
300.004
720.612
300.004
300.001
551.256
300.004
300.001
300.005
300.001
794.774
300.001
300.001
303.058
300.005
838.189
300.004
700.69
300.004
300.019
641.195
300.128
300.018
1069.41
300.032
300.004
301.072
300.001
300.001
300.001
932.82
300.317
300.001
454.022
300.001
304.715
879.322
385.954
300.372
696.624
300.001
1448.58
300.001
300.001
300.002
300.001
300.001
300
300.001
300.001
437.838
301.81
303.339
330.695
300.001
300.001
300.001
300.001
300.001
300.001
362.968
301.508
300.001
300.001
300.001
300.82
300.004
300.001
300.464
300.001
300.001
300.001
309.284
952.49
300.298
512.53
304.255
300.001
300.006
301.784
300.001
300.001
300.001
542.675
530.861
327.647
376.199
300.001
300.001
355.491
300.001
307.127
300.001
300.001
300.005
300.001
307.308
300.001
300.499
329.973
302.724
300.135
300.535
300.279
300.001
301.256
300.001
300.001
300.001
300.001
300.001
300.001
300.003
300.001
300.049
871.907
307.596
448.446
300.001
300.001
486.527
301.667
300.001
382.902
300.001
300.001
334.356
654.032
456.58
401.712
300.001
314.589
519.398
359.939
300.001
452.783
337.235
327.953
439.443
300.01
438.183
329.881
300.004
340.781
442.666
341.384
316.308
300.223
314.075
300.004
467.677
458.481
430.542
300.001
300.001
374.938
300.001
300.002
300.9
300
390.777
305.068
300.001
300.001
300.001
300.001
301.052
354.995
741.637
492.978
324.657
300.001
303.208
306.569
300.033
300.001
300.002
300.001
300.001
300.002
300.001
300.09
300.001
300.001
300.014
301.379
301.571
300.011
1001.75
300.254
300.002
326.293
300.001
300.001
300.008
300.001
300.001
300.001
454.005
301.275
300.568
302.896
672.353
300.022
300.001
337.672
422.241
300.037
314.298
300
300.015
300.001
394.999
300.013
322.051
300.001
300.001
300.001
300.001
303.877
300.001
327.609
300.001
310.014
406.056
300.001
300
798.522
352.302
626.588
396.145
300.001
301.059
378.921
300.001
300.013
300.35
300.134
348.251
300.001
326.19
302.656
556.656
351.577
395.385
436.69
322.956
300.001
1359.69
499.746
300.245
813.365
300.007
300.846
312.786
300.001
931.418
300.241
300.03
300.004
300.013
330.487
300.017
300.002
300.004
300.002
300.001
300.001
300.016
300.001
863.915
305.31
300.031
328.345
300.042
300.001
300.101
395.52
655.342
300.133
301.127
415.729
305.743
339.753
303.044
300.002
606.687
300.001
300.001
300.001
224.335
300.004
300.988
300.403
301.541
308.825
744.056
300.002
318.746
300.082
300.001
300.001
300.002
300.001
300.002
300.043
329.346
350.37
1011.78
300.039
1405.64
300.081
410.178
300.003
302.64
303.63
283.167
300.01
300.002
300.001
300.001
300.001
300
300.021
314.661
300.09
465.792
312.173
300.347
373.918
712.146
1320.38
522.796
300.001
305.749
301.303
300.001
300.001
313.601
361.128
300.001
300.001
300.001
300.034
300.001
331.554
321.421
342.002
317.879
300.001
1718.42
300.822
300.001
300.159
300.001
300.014
318.254
300.02
300.012
277.737
300.031
300.001
300.013
300.001
300
300.001
457.343
300.005
300.011
300.605
302.73
636.142
300.092
300.004
300.005
300.001
300.006
300.001
355.173
822.839
300.004
300.001
931.439
300.007
300.001
300.007
300.008
302.754
720.293
1111.75
333.272
300.769
300.001
495.649
300.008
524.349
646.405
300.001
445.026
300.001
300.001
868.543
300
300.007
674.475
480.104
794.55
724.508
300.001
487.759
381.864
524.704
300.006
300.025
727.751
789.654
530.806
367.587
303.775
300.002
395.261
304.927
592.166
379.504
361.548
693.589
300.001
300.001
305.369
752.385
354.932
328.1
499.39
311.012
650.85
300.001
409.815
300.001
789.042
300.001
304.814
302.334
300.001
699.846
300.001
634.575
778.754
300.001
300.001
517.253
300.001
300.001
300.001
300.001
540.313
300.001
786.138
1065.33
300.001
300.001
820.325
300.003
300.001
409.6
300.001
300.001
300.001
300.001
337.606
327.22
739.895
300.001
300.001
634.343
300.001
311.5
378.147
300.001
300.001
300.016
300.011
497.272
300.001
300.001
300.001
300
300.001
316.158
318.464
300.037
300.004
319.065
300.005
300.476
300.001
359.611
300.001
387.499
562.481
300.001
300.001
300.001
300.781
710.383
300.001
397.774
300.032
300.001
300.036
300.035
300.001
300.034
300.001
578.889
300.001
300.001
300.001
300.002
300.001
483.104
337.66
300.001
300.001
499.266
300.001
331.612
300.003
300.001
1129.6
863.435
326.01
300.004
300.001
335.824
786.144
300.001
935.134
300.001
557.553
673.336
300.001
328.732
731.049
477.914
1004.03
531.574
300.006
300.001
300.001
311.054
346.285
300.023
818.265
300.002
300.088
300.001
304.278
750.373
635.213
300.001
301.007
324.127
300.001
750.207
300.001
300.001
300.001
823.718
637.016
523.872
300.001
300.001
300.001
770.961
300.018
880.752
300.001
300.001
742.334
303.692
300.001
300.001
1030.79
300.001
300.001
336.773
932.115
301.274
302.545
300.001
1114.13
529.744
328.013
301.347
300.01
403.544
300.006
339.562
603.084
313.502
315.995
683.43
321.119
1127.44
300.001
1286.26
714.593
301.721
300.001
307.379
1365.33
300.001
553.614
1032.87
300.001
320.734
300.001
918.073
380.907
302.326
631.455
640.086
300.001
300.001
300.002
300.002
829.426
300.001
465.231
320.849
300.001
300.001
300.001
300.001
300.001
300.001
300.265
300.001
860.586
300.001
934.21
300.001
300.903
300.001
300.079
318.37
300.001
300.001
300.001
300.001
300.015
324.998
315.06
351.643
300.789
300.007
300.003
300.001
300.007
300.029
300.006
300.001
300.91
300.512
311.454
300.004
300.008
300.006
300.656
300.018
300
342.292
300.011
300.187
312.869
300.059
307.87
300.01
300.014
305.179
302.945
300.001
300.032
300.102
300.001
300.142
300.008
300.018
300.214
300.011
300.005
300.001
300.009
304.146
300.001
344.808
300.005
300.223
300.001
300.001
300.261
302.044
301.044
300.004
300.001
300.001
851.09
278.008
300.001
316.503
327.045
300.003
300.055
300.029
341.294
303.667
300.007
300.023
349.194
300.001
328.027
300.036
300.001
300.002
300.001
300.001
300.001
300.001
300.001
300.001
337.609
300.005
300.001
300.145
300.001
300.052
317.984
300.001
300.001
365.753
384.279
300.001
300.018
300
300.001
301.826
300.001
300.001
304.721
300.011
300.001
300.001
300.002
300.001
300.001
300.051
300.35
545.53
301.458
556.001
300.069
300.078
300.018
300.007
785.687
300.014
300.004
300.508
300.017
725.202
300.001
300.014
300.007
349.815
497.775
340.604
495.999
300.007
350.938
396.067
300.001
352.963
300.001
349.416
334.846
300.187
456.816
360.439
396.317
300.135
395.726
358.905
300.004
300.001
316.831
300.065
300.003
300.001
300.001
339.629
300.003
300.065
300.025
300.001
300.001
300.007
300.033
332.066
300.001
300.017
300.004
300.001
303.91
300.001
300.166
300.002
300.001
300.001
300.001
300.028
300.001
300.001
300.001
300.014
300.001
300.001
302.237
300.001
300.102
369.227
300.001
300.008
300.022
300.001
300.001
300.006
300.001
300.001
300.245
300.356
300.027
300.001
300.005
300.001
300.07
301.52
300.001
300.001
300.078
300.001
300.001
300.266
300.001
351.786
321.519
300.001
300.001
300.026
526.979
733.848
300.006
300.001
300.001
300.002
300.085
300.002
300.001
300.001
300.006
661.387
300.001
300.001
300.001
1058.97
319.791
300.125
1003.56
300.055
300.002
300.035
300.053
300.004
300.002
302.8
300.079
300.001
330.082
1015.44
300.001
300.001
1045.1
300.359
1069.44
300.001
300.066
300.002
300.004
803.445
300.001
828.65
300.014
300.001
751.662
300.009
300.001
300.155
834.278
300.001
300.162
738.55
300.004
300.414
838.737
301.722
300.01
300.006
381.049
303.63
298.832
643.096
300.001
300.001
300.205
300.008
300.191
331.547
300.001
300.001
300.002
323.39
300.009
300.007
300.004
300.001
300.883
300
329.945
487.976
300.001
332.186
323.53
456.22
300.001
300.248
523.415
300.001
339.353
300.107
300.235
300.001
325.143
300.001
300.001
300.014
300.001
328.122
334.828
310.569
640.613
300.411
300.001
300.015
343.571
300.001
300.001
300.001
300.428
300.004
309.185
300.003
300.895
466.88
315.584
300.005
311.375
320.251
300.008
302.477
302.583
300.434
311.946
300.043
315.381
300.062
300.091
307.794
320.382
300.044
300.051
335.396
309.072
300.001
300.119
320.344
300.061
300.097
300.638
548.901
300.37
300.001
1069.3
300.009
300.003
301.978
300.001
1067.24
300.001
302.63
303.78
461.47
300.001
300.001
300.001
1060.93
300.044
302.173
300.004
1025.21
1039.25
300.832
300.001
316.086
326.654
317.675
346.912
400.895
300.001
300.14
300.001
300.057
300
300.002
300.001
300.013
300.004
300.001
300.003
1007.97
300.001
300.036
300.001
300.735
300.397
300.002
327.133
300.001
300.002
300.037
300.002
300.001
300.001
300.003
300.001
300.055
300.009
1007.96
300.001
300.514
299.998
860.635
300.001
300.188
457.954
300.001
300.001
355.155
300.001
300.007
300.001
300.001
300.001
300.027
300.001
300.001
300.001
300.001
300.555
317.814
300.001
300.027
300.001
300.809
300.147
300.001
300
770.344
300.001
300.011
300.001
300.141
300.005
300.001
300.001
1003.63
895.817
300.001
326.074
300.001
300.001
300.006
300.616
300.001
300.015
301.979
300.012
300.001
328.722
300.006
335.943
699.196
300.006
300.008
300.009
875.396
300.001
300.001
300.001
300.001
300.001
300.001
300.001
301.494
300.007
300.001
301.235
326.201
336.046
300.001
327.149
306.595
300.001
341.175
1359.83
300
301.645
302.857
300.008
300.011
300.003
300.507
334.698
300.004
300.004
300.006
300.001
300.007
300.112
299.937
352.847
300.003
300.001
300.021
326.119
300.005
300.007
300.001
553.23
312.309
300.001
300.004
300
300.014
340.473
621.537
300.001
303.533
300.811
301.738
300.001
300.001
1085.24
300.001
300.001
300.001
300.001
301.561
300.028
300.001
300.051
300.017
300.003
300.002
300.001
512.047
496.334
300.001
301.962
300.001
300.001
300.001
751.926
551.891
1033.18
300.007
300.001
300
300.003
300.093
300.015
314.575
300.001
300.001
300.002
778.305
945.359
300.042
300.001
314.339
311.787
300.234
314.382
390.493
336.725
760.866
392.345
300.001
300.001
300.001
300.001
300.001
300.001
315.849
805.689
405.041
389.368
366.469
300.004
356.524
354.177
301.296
300.034
393.663
300.027
308.794
304.765
300.001
316.426
411.408
300.003
300.001
982.375
300.002
300.001
363.563
805.392
300.001
300.001
300.001
300.003
300.007
300.001
300.001
325.489
1058.33
300.001
300.003
300.02
416.353
319.851
300.001
300.001
300.001
376.685
300.001
300.005
300.543
300.001
300.017
300.001
300.001
758.576
300.042
300.001
300.001
300.001
300.001
300.004
300.037
300.001
300.049
300.002
300.001
300.258
300.001
300.001
300.001
300.002
300.001
300.001
300.011
300.001
300.001
660.295
300.001
308.774
300.011
300.001
300.001
300.001
300.001
300.012
307.935
307.494
588.893
308.158
300.049
319.883
300.273
306.771
307.381
299.817
483.35
300.001
300.012
300.001
300.001
300.001
300.001
300.111
301.634
300.001
826.854
300.005
300.013
300.012
300.001
300.02
300.001
323.62
998.232
327.631
300.002
300.001
300.014
324.295
300.002
300.046
363.122
300.012
366.323
300.001
300.001
300.083
360.988
351.799
357.394
384.583
327.478
309.703
1015.62
525.966
371.176
300.001
300.009
300.001
300.001
304.223
876.074
300.123
329.436
852.625
847.265
300.002
867.185
303.254
300.002
300.001
300.001
302.127
339.037
300.298
300.001
302.584
700.729
300.494
952.519
382.708
303.745
839.176
300.001
303.442
861.215
300.1
300.001
300.013
300.381
300.001
300.001
828.65
300.001
300.002
310.197
300.003
858.299
307.125
300.004
312.468
363.999
358.717
339.537
366.518
300.553
339.323
300.003
300.001
348.474
300.092
340.246
351.836
300.04
300.501
300.054
321.68
1047.72
300.001
300.003
389.618
300.001
1093.27
300.001
300.001
300.001
391.675
300.001
342.329
300.001
300.001
300.399
390.3
390.01
300.05
300.001
302.085
1081.63
855.884
300
646.653
337.072
351.912
1062.93
300.002
658.192
300.001
300.001
300.001
300.001
300.001
300.006
300.001
1071.28
300.001
300.035
300.001
300.001
300.001
300.001
300.001
300.173
300.541
300.001
300.001
719.191
300.007
1086.41
300.104
300.001
661.603
300.003
300.001
300.001
1078.02
300.011
300.001
349.284
300.008
300.002
300.001
337.033
300.002
300.001
300.001
300.001
300.001
300.002
300.009
414.609
300.001
300.231
300.001
329.078
300.001
300.013
300.007
301.629
300.001
300.001
300.002
300.001
300.699
300.002
300.001
300.001
300
300.001
944.528
300.001
300.001
300.001
300.001
300.002
305.251
300.002
300.002
300.007
300.074
300.001
300.001
300.001
300.004
300.001
300.001
300.001
308.975
300.001
300.001
300.001
300.001
300.001
300.001
872.764
300.107
300.011
300.004
300.001
300.16
300.001
299.912
326.532
300.06
300.416
300.001
300.001
300.001
300.005
828.45
300.001
300.001
832.669
300.001
300
300.001
300.001
300.001
300.003
309.45
300.001
300.001
300.001
846.72
744.448
790.439
300.109
305.254
328.424
300.006
300.001
300.016
849.822
300.001
300.004
300.001
300.009
303.237
300.001
300.001
300.001
300.218
300.04
300.347
387.613
300.001
300.748
366.31
300
320.963
300
300.001
300.001
300.008
300.001
335.591
300
305.623
305.951
303.568
309.716
435.003
300.052
300
300.001
300.001
300.026
300
300
300
300.005
316.481
300.021
300.047
313.523
300.001
464.967
300.321
463.883
300.025
300
422.258
300.001
300
300.001
506.774
425.903
469.862
300.001
483.741
300.001
300.008
300.001
300.054
300.001
813.152
300.406
300.001
300.001
317.71
300.057
300.001
302.647
300
300.001
651.102
300.001
302.468
300
300.391
300.002
300.001
300.002
300.001
300.049
300.001
1119.18
300.001
300.307
300.001
300.006
589.912
300.001
300.001
300.001
345.887
300.004
319.713
356.694
516.564
300.001
846.085
344.601
300.001
300.001
478.058
300.26
300.001
603.324
319.518
300.007
300.005
300.001
661.966
300.001
300.001
300.001
300.004
314.13
300.005
1111.65
300.003
300.634
300.004
300.001
300.178
300.004
300.005
300.001
300.001
302.621
314.625
496.835
401.973
538.288
476.339
520.464
300.006
300.001
300.001
633.967
344.747
847.537
328.204
300.029
354.181
536.754
865.953
799.953
300.001
709.682
804.637
490.545
300.001
339.247
574.129
612.496
760.067
511.418
464.711
373.768
300.006
418.482
300.009
526.983
300.072
808.476
388.649
300.002
300.007
379.862
495.194
300.029
301.299
300.001
300
362.849
300.012
300.001
300.013
300
324.085
300.001
1722.15
303.028
300.001
300.002
384.951
300.058
1121.26
783.948
411.566
300.048
300.001
300.001
680.844
300.001
300.001
300.011
300.009
300.013
387.102
342.113
300.005
422.427
781.836
300.001
300.001
326.437
300.008
300.011
810.092
300
300.001
300.012
466.236
1387.31
613.149
300.001
300.037
300.001
594.664
324.4
478.851
584.457
300.001
300.012
300.001
300.719
300.001
328.797
594.23
300.001
799.319
300.001
300.001
334.645
300.001
300.062
300.01
731.294
239.328
300.001
300.001
300.435
311.689
300.001
300.04
1408.65
300.002
300.019
300.014
300.001
300.001
300.001
300.001
300.001
300.004
300.001
300.012
413.55
300.001
518.877
1138.99
299.634
402.135
300.001
357.307
300.005
300.001
274.8
564.058
782.392
429.588
300.131
303.968
300.001
300.29
304.446
300.921
302.909
300.829
300.007
524.471
300.001
300.001
300.001
301.346
301.79
300.008
700.436
300.001
300.006
300.001
657.014
820.869
300.001
298.262
306.857
317.246
320.639
308.593
300.001
300.001
302.002
300.024
300.001
300.001
300.001
300.001
300.006
300
318.388
551.402
303.494
300.592
313.07
300.39
300.002
300.001
300.001
302.561
300.001
300.001
300.001
303.928
300.025
578.001
304.116
300.683
306.475
456.025
300.019
302.656
300.001
300.002
301.083
331.551
301.769
300.014
300.003
300.002
303.77
300.002
304.728
338.637
439.107
308.484
300.001
300.001
301.969
316.418
300.005
302.437
301.41
300.713
300.001
300.297
300.051
302.885
300.001
300.001
331.38
300.071
300.001
300.001
301.448
698.104
302.52
300.011
300.001
301.095
306.106
300.001
300.001
300.001
895.571
303.049
1224.25
303.754
300.001
698.461
699.551
300.003
300.001
300.019
300.002
300.002
300.005
315.204
300.001
300.024
300.002
699.524
300.001
300.001
300.001
300.001
632.245
586.862
300.001
698.693
300.025
300.011
300.001
300.002
300.001
696.643
349.538
300.001
300.001
300.51
300.005
300.004
300.008
300.001
300.004
302.769
300.005
303.438
300.001
300.001
300.001
302.818
300.001
300.001
506.661
300.001
300.006
300.001
300.004
762.928
300.002
328.344
300.014
303.529
300.001
300.005
300.001
300.001
300.001
300.031
300.01
302.709
606.588
300.001
300.002
300.014
300.001
300.004
300.001
300.001
300.003
300.005
300.006
300.004
300.001
300.129
619.658
494.516
300.666
303.501
300.002
300.007
395.032
300.004
321.263
300.031
301.22
300.001
300.001
300.004
300.001
300.004
300.001
347.204
301.34
300.001
300.001
300
300.013
300.012
300.008
300
300.001
300.001
300.635
323.536
300.273
300.008
300.001
344.951
341.986
300.171
300.007
300.007
300.001
300.104
300.001
359.031
300.041
300.025
339.93
300.322
302.977
323.551
293.659
306.19
300.003
1562.2
300.003
343.509
300
307.007
300.718
310.176
444.029
300.001
300.001
300.004
612.381
685.983
300.001
308.968
319.241
793.28
300.001
300.002
300.001
300.006
303.622
300.001
300.002
300.005
300.001
300.005
300.001
490.846
332.508
300.574
300.001
300.001
303.504
300.001
300.001
347.83
801.335
322.85
300.001
300.001
334.46
348.062
300.001
300
572.703
300.476
627.877
300.002
303.776
300.024
300.001
300.006
300.001
300.001
300.003
300.006
300.001
300.001
300.001
300.001
300.005
300.001
300.001
300
300.001
300.001
300.003
300.001
300.001
300.001
300.001
300.001
300.47
303.827
302.102
300.001
300
300.001
300.001
365.799
300.001
300.001
300.004
300.001
300.001
300.001
302.913
300.001
300.001
300.001
300.001
300
300.197
300
300.249
300.295
404.707
300.001
300
300.63
300
300.001
300.001
300.001
300.001
300.002
300.001
300.001
300.005
300.006
488.645
479.482
300.001
300.007
300
300.001
300.001
300.001
300.001
300.001
519.278
1316.01
300.001
1293.43
300.007
300.001
799.21
935.608
300.001
300.268
501.106
300.002
300.001
300.001
300.014
300.001
865.432
300.001
1005.24
300.001
300.001
300
302.28
302.483
301.96
300.002
300
300.001
300.001
300.001
300.001
300.001
300.001
300.001
300.001
302.101
300.001
300.005
300.007
300.001
300
300.001
300.001
300.432
369.738
300.621
300.002
300.011
300.001
300.001
300.006
300.005
300.001
300.002
332.068
300.006
300.001
300.008
300.128
300.001
300.301
300.006
300.013
300.418
300.001
301.07
853.076
343.866
300.029
300.001
300.544
339.116
300.005
300
300
300.001
300.28
300.002
300.016
333.554
629.726
320.028
302.336
300.001
300.001
636.731
300.002
300.012
300.001
300.002
300.001
300.007
533.864
791.926
310.999
315.192
621.143
300
300.009
300.005
631.59
300.771
300.001
844.069
300.001
484.64
300.004
311.811
300.017
300.001
572.962
300.002
300.004
300
300.002
300.006
300.001
289.291
691.973
300
300.006
323.651
300.001
300.002
300.007
300.002
300.006
300
300.003
300.004
300.001
300.001
300.012
300.028
300.001
300.002
300.001
300.008
300.002
300.01
300.005