/*--------------------------------*- C++ -*----------------------------------*\
| =========                 |                                                 |
| \\      /  F ield         | OpenFOAM: The Open Source CFD Toolbox           |
|  \\    /   O peration     | Version:  v2012                                 |
|   \\  /    A nd           | Website:  www.openfoam.com                      |
|    \\/     M anipulation  |                                                 |
\*---------------------------------------------------------------------------*/
FoamFile
{
    version     2.0;
    format      ascii;
    class       volVectorField;
    location    "5";
    object      U;
}
// * * * * * * * * * * * * * * * * * * * * * * * * * * * * * * * * * * * * * //

dimensions      [0 1 -1 0 0 0 0];


internalField   nonuniform List<vector> 
108993
(
(-0.102452 0.00127358 -0.135915)
(0.0297386 -0.0798517 -0.167159)
(0.00429405 -0.00347165 -0.157411)
(0.057591 -0.134187 -0.118034)
(0.00767775 -0.0568375 -0.0631464)
(0.00328003 -0.00244162 -0.0125229)
(0.785905 -0.0898494 -0.503531)
(0.00538041 -0.0126384 -0.00021603)
(-0.00631474 0.0223816 -0.206326)
(-0.127753 -0.0130551 -0.0167508)
(-0.0187911 -0.00687729 -0.0826668)
(-0.0121166 -0.00254262 -0.0840949)
(0.0442513 -0.127187 -0.0800299)
(-0.0238359 -0.0103323 -0.00393471)
(-0.00462202 -0.000713269 -0.0862074)
(-0.152725 -0.00163488 -0.0323935)
(-0.204913 -0.0121652 -0.00952299)
(-0.0209561 -0.00487791 -0.0380054)
(0.0454046 -0.128406 -0.139857)
(0.0731852 -0.0767166 -0.184497)
(0.0049018 -0.00436359 -0.0924902)
(0.0895428 -0.0123284 -0.310727)
(0.0367114 -0.00356463 -0.0792096)
(-0.0103478 -0.000607549 -0.115126)
(0.048594 -0.131055 -0.0821719)
(0.0343807 -0.0245266 -0.0401113)
(-0.0574419 0.187922 -0.0474686)
(0.0463479 -0.0647259 -0.189647)
(0.0563289 -0.0499768 -0.156458)
(0.00116622 -0.00257727 -0.113047)
(-0.0391839 0.0874526 -0.0815817)
(-0.0143976 -0.00952603 -0.0269294)
(-0.0479451 0.222011 0.0363706)
(-0.184565 -0.0198079 -0.164517)
(0.0802674 -0.198861 -0.295574)
(-0.00228128 -0.0149068 -0.0915295)
(-0.0242442 0.172328 -0.0322663)
(-3.0592e-06 -0.0192951 -0.109884)
(-0.800851 -0.507695 -0.370225)
(1.05791 -0.24433 -0.485257)
(0.0364359 -0.046792 -0.148619)
(-0.000890486 0.00253748 -0.129834)
(-3.43901e-05 -0.00501861 -0.0104134)
(0.102605 -0.139376 -0.00162661)
(-0.0819623 -0.0121872 0.0709203)
(-0.926411 -1.40464 -2.80777)
(-0.0208918 0.159951 -0.0374449)
(0.298847 -0.0174725 -0.289565)
(0.0505578 -0.00750716 -0.127385)
(0.0956453 -0.0142505 -0.246714)
(0.0402052 0.129108 -0.0883869)
(0.248689 0.0847039 0.0562784)
(0.0290659 -0.0454538 -0.154903)
(0.0162801 0.0872166 -0.0358982)
(-0.0467665 -0.00222484 -0.035103)
(-0.0270149 -0.00189312 -0.111973)
(0.0505957 0.227608 -0.0494491)
(-0.0142369 -0.0534028 -0.0485471)
(0.0120377 -0.0322022 -0.148954)
(-0.0179036 -0.0697561 -0.0637204)
(-0.0136457 -0.0626544 -0.0771367)
(-0.0213463 -0.114205 -0.105593)
(-0.0023053 -0.00708321 -0.107806)
(0.0680182 -0.00214504 0.000835981)
(0.04524 -0.218602 -0.0449518)
(0.0450906 -0.0348438 -0.0760526)
(0.0383254 -0.155161 -0.00230643)
(0.012747 -0.0850578 -0.11343)
(-0.0475055 -0.011563 -0.0330868)
(-0.13222 0.233278 -0.103843)
(-0.00271176 -0.00441261 -0.114584)
(0.0280744 -0.0868357 -0.125096)
(0.00346824 -0.0392464 -0.119163)
(0.0107934 -0.0837967 -0.101581)
(0.0487473 -0.0103178 -0.13021)
(-0.0151268 0.0558122 -0.1279)
(0.059151 -0.00444602 0.00095242)
(-0.201222 -0.0227047 -0.0628333)
(0.0960633 0.209914 -0.0896351)
(0.0265353 -0.138009 -0.0249643)
(-0.00588358 -0.016867 -0.130211)
(-0.0621712 -0.0113476 -0.0438454)
(0.0232751 -0.0092767 -0.15962)
(-0.000434008 -0.00537714 -0.109582)
(-0.0188773 0.00101696 -0.046165)
(-0.0105403 -0.0049235 -0.0152243)
(-0.00369004 0.000670247 -0.119903)
(-0.0170367 -0.0025891 -0.0789881)
(0.0100773 -0.0645013 -0.0469564)
(0.00925745 -0.134506 -0.0124838)
(-0.0100297 -0.120368 -0.043558)
(-0.014211 0.0700076 -0.113594)
(-0.00797771 -0.103227 -0.00854017)
(0.00276886 -0.0722526 -0.0187981)
(-0.0213628 -0.104134 -0.0223067)
(-0.0422364 -0.00846402 -0.02526)
(-0.000958008 0.0906094 -0.116514)
(-0.00302443 -0.0139918 -0.127525)
(-0.022028 0.0973434 -0.0950907)
(0.00309179 0.00696358 -0.103262)
(-0.0225909 -0.0952012 -0.0436571)
(0.0352804 -0.115835 -0.221919)
(-0.00439077 -0.0060607 -0.102947)
(-0.0389128 -0.0114057 -0.0586598)
(-0.00268609 -0.0203199 -0.12465)
(-0.0201236 -0.106343 -0.00336114)
(-0.00717799 -0.0137673 -0.119937)
(0.0783619 -0.264341 -0.43084)
(0.0524371 0.0202078 -0.108388)
(-0.0453441 -0.302061 -0.248511)
(0.181359 -0.00836727 0.0102914)
(-0.00595897 -0.134108 -0.0227923)
(0.0857437 0.0276231 0.00143162)
(0.305461 0.0156882 -0.0227091)
(-0.000693065 -0.0022143 -0.132473)
(0.161669 0.258626 0.558777)
(0.00566282 -0.0490216 -0.0766238)
(-0.0202739 -0.00502565 -0.121911)
(-0.191699 -0.0502157 -0.0326604)
(-0.00730165 0.0638983 -0.136043)
(-0.0411574 -0.0139767 -0.0162828)
(-0.069332 -0.125702 -0.217448)
(-0.175385 -1.52768 -0.284812)
(-0.0356455 -0.0091981 -0.128639)
(0.00214091 -0.0191057 -0.108457)
(-0.162789 -0.00209367 -0.0221001)
(0.0478945 -0.0397799 -0.140137)
(-0.0244916 -0.0106305 -0.137741)
(-0.0461809 -0.107553 -0.24618)
(-0.0374141 -0.160541 -0.276937)
(-0.0514457 -0.00609181 -0.0478595)
(-0.0528628 -0.183436 -0.235489)
(-0.00335461 -0.0271154 -0.154824)
(0.153063 0.0491536 1.14001)
(0.000370431 -0.00052154 -0.136819)
(-0.0170058 0.00177903 -0.146162)
(-0.0319476 -0.10633 -0.232235)
(-0.00423729 -0.0185514 -0.146248)
(0.00373659 -0.0155172 -0.111946)
(-0.0258278 -0.0095358 -0.0120352)
(-0.0302233 -0.00807174 -0.127262)
(0.000163113 0.00478704 -0.122594)
(-0.109122 -0.0188723 0.011985)
(-0.0300042 -0.127259 -0.253719)
(-0.028507 -0.146724 -0.278698)
(0.0028855 -0.0330729 -0.122257)
(-0.0030721 -0.015789 -0.124429)
(-0.346334 0.000263266 -1.34361)
(-0.0320641 -0.00775354 -0.125153)
(0.301776 0.0845718 0.794516)
(0.296067 0.0866851 0.854937)
(0.0320371 -0.0247361 -0.0113398)
(0.0219358 0.0150261 -0.0111854)
(0.248357 0.101413 0.836315)
(0.00676157 -0.0101255 -0.153751)
(0.130397 -0.00133172 -0.0849882)
(-0.0377817 -0.00794526 -0.103916)
(0.0432435 0.046036 -0.562406)
(-0.0635799 0.365629 -0.258221)
(0.195106 0.0752874 -0.0278854)
(0.26379 0.109471 0.815851)
(-0.0024919 0.557613 -0.330447)
(-0.0201455 0.0452431 -0.0735398)
(-0.00299026 0.00319168 -0.118535)
(-0.00556331 -0.00806871 -0.0407274)
(0.216679 0.0713629 -0.0403264)
(-0.00660959 -0.0363656 -0.0117399)
(0.0452782 -0.00385178 0.000264697)
(0.0544057 -0.0139379 -0.000886897)
(-5.61155e-05 -0.00393625 -0.130389)
(0.0248253 -0.0610335 -0.143971)
(-0.0177561 -0.00507782 -0.113323)
(0.187523 0.0582605 0.0310534)
(-0.000793507 -0.000817074 -0.119768)
(0.0124629 -0.168338 -0.177711)
(0.0756608 -0.0481717 -0.0537505)
(0.0728877 0.172379 -0.259285)
(0.039515 -0.0134012 0.00529668)
(-0.00837243 -0.00489866 -0.132803)
(0.00245467 0.020214 -0.130535)
(-0.127584 -0.02889 -0.0352382)
(0.0229933 -0.00673162 -0.169643)
(0.156613 0.119958 -0.449971)
(-0.0360084 -0.0107497 -0.118548)
(-0.0351895 -0.0107928 -0.0305628)
(-0.00301086 -0.0110311 -0.119701)
(0.148785 0.0285656 -0.408325)
(-0.0204591 -0.00593612 -0.0579397)
(-0.0308563 -0.00649515 -0.0695609)
(-0.0352553 -0.00450766 -0.118299)
(-0.00711128 -0.00929376 -0.108976)
(0.147669 0.121332 -0.305702)
(-0.00266149 -0.0077026 -0.110854)
(0.0744599 0.141324 -0.26758)
(0.000439953 -0.00456061 -0.138134)
(-0.0251539 -0.0115132 -0.167174)
(0.044661 -0.0455665 -0.149697)
(-0.00258069 -0.012154 -0.11923)
(-0.00242393 -0.0188067 -0.127296)
(-0.0309586 -0.00803436 -0.117701)
(-0.00732268 -0.0363589 -0.0230217)
(0.172657 0.079345 -0.280232)
(0.00152112 -0.00166553 -0.106513)
(-0.019432 -0.132078 -0.758098)
(-0.120883 0.124309 -0.184905)
(0.0460291 0.131076 0.468665)
(-0.00349643 -0.00539875 -0.147987)
(-0.760944 -0.187314 0.452464)
(-0.00232476 -0.016074 -0.144855)
(0.0561565 -0.0737358 0.32465)
(0.103194 0.160684 -0.0730022)
(0.000354139 -0.0119998 -0.119536)
(-0.100843 0.152227 -0.223755)
(0.261901 -0.930098 -0.0927252)
(0.395079 4.08518 -0.470119)
(-0.00182805 -0.0235042 -0.123205)
(-0.0252893 -0.00690264 -0.0867236)
(-0.00276651 -0.0058915 -0.145568)
(0.0691582 0.131016 -0.498454)
(-0.0760809 0.0655369 -0.113113)
(0.195428 -0.0854908 -0.0478697)
(0.391129 0.0553903 0.837856)
(-0.257053 -0.056726 -0.238015)
(0.0653183 -0.037749 -0.262066)
(0.112961 -0.0161274 0.00052077)
(0.0330784 -0.00971823 0.00443153)
(0.0684058 0.14253 -0.569898)
(-0.00831345 -0.00245513 -0.141185)
(0.283122 0.0801167 0.667034)
(0.0126087 -0.0164654 -0.0624735)
(-0.151213 -0.478124 0.27189)
(-0.0126869 -0.00596432 -0.110464)
(0.0339733 -0.0125984 0.00059326)
(0.0129719 -0.0484183 -0.14938)
(0.011235 0.0225864 -0.127884)
(-0.00361188 0.0520616 -0.0333963)
(-0.0026969 0.0612665 -0.284334)
(-0.0573379 -0.0942835 -0.108729)
(0.650364 0.173152 0.314795)
(0.0194295 0.159682 -0.569759)
(-0.00250283 0.0131577 -0.0603793)
(-0.0081736 -0.0108355 -0.143844)
(-3.6298e-05 -0.00362979 -0.00327356)
(0.0270068 0.0891518 -0.573836)
(0.0149307 -0.012125 -0.470846)
(-0.151305 -0.00279332 -0.022041)
(0.429879 -1.00829 -0.0158364)
(-0.30522 -1.63855 -0.310616)
(-0.0409385 0.137494 -0.568873)
(0.0592509 -0.0123497 -0.202601)
(-0.00820374 -0.00133024 -0.0856114)
(0.0559973 -0.206521 -0.0904594)
(-0.00549704 -0.00678632 -0.170359)
(-0.000778117 -0.00648337 -0.133471)
(0.0569286 0.0186646 -0.514471)
(0.00240285 0.139446 -0.611982)
(0.0402988 -0.0463903 -0.527157)
(-0.0345522 -0.000588542 -0.102114)
(-0.0307324 0.0867238 -0.187236)
(0.00552535 -0.00492141 -0.0029319)
(-0.000577537 0.00268989 -0.14415)
(0.0443238 -0.0018901 -0.112234)
(-0.153021 -0.0231372 -0.0251428)
(-0.16203 -0.00732005 -0.0221024)
(0.281394 0.223251 -0.0929598)
(0.0222556 -0.0159158 -0.0781209)
(-0.00465114 0.00122201 -0.136384)
(0.0569119 -0.0387073 -0.121171)
(0.00861448 -0.00661745 -0.00585157)
(-0.00541098 -0.0174865 -0.152389)
(0.0028591 -0.0173536 -0.0107959)
(-0.000514439 -0.00503572 -0.158335)
(0.219937 -0.747173 -0.217322)
(-0.00699791 -0.0602254 0.555831)
(0.665494 0.188827 -2.86693)
(-0.00463665 -0.00828371 -0.13253)
(-0.0014824 0.0589438 -0.0843894)
(0.203836 -1.25431 -0.729792)
(-0.0341703 -0.00662372 -0.110405)
(0.0781809 -0.0456808 -0.126334)
(0.0915188 -0.0498026 -0.125774)
(-1.39858 -0.91991 -0.735797)
(-1.53383 0.641353 -1.44865)
(0.0248304 -0.0343572 -0.00879633)
(-0.0374276 -0.0261554 -0.158969)
(-0.128498 -0.00198842 -0.0302445)
(0.0405449 -0.118386 -0.106408)
(0.130837 -0.0644746 -0.146932)
(-0.0574031 -0.0141269 -0.101218)
(0.0404798 -0.125957 -0.318264)
(-0.0494974 -0.0139468 -0.0123697)
(-0.0015335 0.00191737 -0.134779)
(0.117043 -0.0524743 -0.148843)
(-0.0029618 -0.00183084 -0.136971)
(0.0482382 -0.0842726 -0.0311445)
(-0.00835487 -0.00408478 -0.144548)
(-0.0148624 0.0744404 -0.140639)
(-0.00474657 0.000812657 -0.13607)
(-0.414691 -0.211407 -0.0192381)
(-0.00111971 -0.00564707 -0.0183839)
(0.0576898 -1.03193 0.488059)
(0.450207 -0.0948912 1.02302)
(-0.00712559 -0.01979 -0.117367)
(-0.00288044 -0.000913723 -0.0115604)
(-0.00118928 -0.00307951 -0.164517)
(0.00993188 -0.00898001 -0.092429)
(0.032356 -0.0292556 0.00574865)
(0.0183648 -0.00709054 -0.141899)
(0.0261108 -0.0178844 -0.0891148)
(0.348462 -0.687741 -0.0585463)
(-0.00301508 -0.0180878 -0.0410741)
(-0.0138195 -0.0893945 -0.0809735)
(-0.134273 -0.029055 -0.0148411)
(0.000195766 -0.012556 -0.0997235)
(0.0217191 -0.0209266 -0.102407)
(0.700059 0.200948 0.81449)
(0.0635317 -0.00070133 0.000520692)
(-0.126334 -0.0224488 -0.0147958)
(0.290195 0.486699 -1.46293)
(-0.00298875 0.00246901 -0.153137)
(0.0590547 -0.0501644 -0.160084)
(0.0719364 -0.00154504 -0.00151335)
(0.00151569 -0.010458 -0.176743)
(0.00229013 -0.00801976 -0.154499)
(-0.00698664 -0.0109446 -0.125355)
(0.0849097 0.00724537 0.998965)
(-0.0303464 0.268857 0.531408)
(0.517172 -1.39787 1.16183)
(0.0137495 0.0612934 -0.189906)
(-0.020574 -0.0114454 -0.168122)
(0.149532 -0.0102124 -0.0778641)
(0.016733 -1.79126 0.734285)
(-0.103607 0.0379833 0.524683)
(0.000699828 0.00317231 -0.156726)
(0.0357282 -0.161378 0.289561)
(-0.00573761 0.0010768 -0.104985)
(-0.000320532 0.00269605 -0.119348)
(-0.0163114 -0.076639 -0.0794916)
(-0.00199429 -0.00761922 -0.136205)
(-0.0268839 -0.00639844 -0.149897)
(0.0105963 0.0184174 -0.142584)
(0.312226 -0.0020887 0.169965)
(0.167088 -0.0540256 -0.225355)
(-0.0100849 -0.0183002 -0.125902)
(-0.0160532 -0.0110753 -0.0885285)
(-0.0174316 -0.00207817 -0.0656276)
(-0.000726927 0.000451066 -0.147304)
(-0.0059092 -0.0224309 -0.0898291)
(0.0137388 6.7475e-05 -0.0238811)
(-0.00124691 0.000678535 -0.150903)
(-0.00205811 0.00395122 -0.132505)
(0.00382809 -0.00273733 -0.000162447)
(-0.163547 -0.393537 0.057013)
(1.07858 -0.239877 0.034582)
(0.106136 -0.0808492 0.0357726)
(-0.00896967 -0.0281764 -0.127462)
(-0.00714841 -0.0180374 -0.135411)
(0.307829 -0.413963 -1.4365)
(-0.00486436 -0.00357574 -0.0873401)
(-5.0403e-05 -0.0112253 0.00201193)
(-0.131699 -0.00888864 -0.0870752)
(0.180929 -0.0584063 -0.231999)
(0.0040453 -0.00177915 -0.149758)
(-0.00616259 0.00166507 -0.140038)
(0.0496012 -0.00841957 -0.132446)
(0.0973705 -0.0518659 -0.216337)
(-0.00387801 -0.00304398 -0.142637)
(-0.011924 -0.0160564 -0.238038)
(-0.000393719 -0.0100244 -0.0729208)
(-0.121408 -0.398916 0.606732)
(0.0109312 0.0263598 -0.140271)
(-0.103858 -0.00728249 -0.0503352)
(-0.00627963 0.000118418 -0.147678)
(0.409387 0.0284029 0.97622)
(0.10839 -0.0447467 -0.209718)
(0.0975553 0.273486 0.977281)
(-0.0719824 -0.017518 -0.0767241)
(-0.00639518 -0.00714209 -0.13855)
(0.0130187 0.398755 0.763809)
(-0.00684867 -0.00714552 -0.107279)
(0.247363 0.0365416 1.08234)
(0.0478862 0.371038 1.04051)
(0.109289 -0.0609649 -0.215879)
(-0.0628329 -0.0247477 -0.0823423)
(-0.0278667 -0.000238512 -0.0715197)
(0.00845997 -0.034857 -0.0134198)
(-0.121529 -0.0318948 -0.0221256)
(1.62694 5.4202 0.00915682)
(0.0581802 -0.0392821 -0.101474)
(-0.301015 -0.156043 -1.23568)
(0.0383757 0.195705 0.516337)
(0.000680861 -0.0379203 -0.0101473)
(0.210309 0.176859 0.85538)
(-0.0557774 -0.0146928 -0.00600533)
(-0.236177 -0.94368 -0.0186522)
(0.133145 -0.0530889 -0.180424)
(-0.204544 0.18631 0.782469)
(0.0151962 0.055277 -0.107227)
(-0.163249 0.00140427 -0.00879536)
(-0.0059283 0.0230299 -0.195853)
(0.123552 -0.0559609 -0.183134)
(0.167196 -0.822429 -0.358468)
(0.163716 -1.62988 0.206062)
(0.00367698 0.00822178 -0.126191)
(0.200819 -0.0670675 -0.0168587)
(-0.000599714 -0.0342179 -0.00560819)
(0.00350627 -0.0339552 -0.019373)
(-0.00436092 -0.0185257 -0.121446)
(-0.00778208 -0.0122612 -0.174211)
(-0.0750048 0.0114705 0.453524)
(-0.000370128 -0.00877693 -0.00506244)
(0.0489201 -0.00687408 -0.185506)
(0.0542584 0.566932 -0.151307)
(-0.0106558 -0.00199179 -0.116082)
(-0.0188287 -0.00439379 -0.0629992)
(0.0019924 0.0202079 -0.17235)
(0.422328 0.3166 0.9676)
(-0.949604 0.0019036 -0.261372)
(0.352381 -1.19738 0.116139)
(-0.00537504 0.00196062 -0.0436636)
(-0.0249907 0.0992943 0.612702)
(0.0459269 -0.0573711 -0.165775)
(-0.0536328 0.0418909 1.00171)
(0.0241571 -0.000269582 0.00327028)
(-0.00675566 -0.0495617 -0.0213272)
(-0.060423 0.0604255 0.675416)
(-3.48942e-05 -0.0115548 -0.108309)
(-0.126307 0.922929 0.520517)
(-0.00678315 0.065955 0.681789)
(0.00103586 -0.0101676 -0.00255802)
(-0.206675 0.175256 0.686033)
(-0.548895 -0.465037 -0.778883)
(-0.10306 -0.00448534 0.959109)
(-0.096413 -0.0783074 -0.130124)
(0.00143515 0.000929833 -0.129415)
(-0.12692 -0.0228488 -0.0146576)
(0.110011 -0.0180881 0.18555)
(0.10797 -0.0738674 -0.0609095)
(0.0398177 -0.0372587 -0.000207104)
(-0.00275154 0.0133346 -0.13209)
(-0.0202406 -0.00870206 -0.0697281)
(-0.00753819 0.000853019 -0.142579)
(-0.0141424 -0.00868013 -0.144839)
(0.00858679 -0.0228569 -0.0427056)
(0.160765 0.165799 0.336793)
(0.0700973 0.00279892 -0.175226)
(0.06589 -0.0129837 -0.157868)
(0.175715 0.0556415 0.0294474)
(-0.0120312 -0.0055494 -0.149452)
(0.0013565 -0.0171923 -0.0406544)
(-0.0385722 -0.00197673 -0.0382939)
(-0.00546229 -0.0714961 -0.0229979)
(-0.0113786 -0.00310498 -0.148318)
(-0.133985 -0.0265376 -0.114062)
(0.0395171 -0.045243 0.000390923)
(-0.00661941 -0.00459356 -0.096769)
(-0.0213598 -0.00876256 -0.0644119)
(0.00267167 -0.0306863 -0.0380437)
(-0.0155373 -0.00738175 -0.121881)
(0.00267324 0.0182368 -0.0975759)
(0.0724751 -0.571347 0.0502913)
(-0.0209584 -0.00475988 -0.166968)
(-0.116548 -0.556201 0.26364)
(0.22874 0.0660611 0.707704)
(-0.107785 -0.140616 -0.00173811)
(-0.00821262 0.00156751 -0.149238)
(0.0276825 0.00272066 -0.0804292)
(-0.169676 -0.852364 0.0649733)
(-0.00114879 0.00180064 -0.154115)
(-0.0125137 -0.00350574 -0.156379)
(-0.300267 -0.062233 -0.0023312)
(0.00388507 -0.0420159 -0.0799225)
(-0.00878643 0.0242304 -0.135376)
(0.0228433 0.00650636 -0.0708584)
(0.0608404 -0.00307093 -0.000181941)
(-0.124057 -0.00286333 0.00257203)
(-0.00485278 0.00326861 -0.128508)
(0.433326 0.333859 -0.195008)
(0.085622 -0.346966 0.0886109)
(-0.223673 -0.0167681 -0.0101631)
(-0.00290542 -0.0243232 -0.127032)
(-0.0226391 0.0254258 -0.148166)
(-0.0053903 0.0232282 -0.161558)
(-0.00500611 -0.00254528 -0.143186)
(0.038008 0.0464716 -0.185734)
(-0.0213132 0.000959887 -0.151013)
(-0.00769016 -0.00257817 -0.14929)
(-0.0134943 -0.004827 -0.150888)
(0.168247 0.0472768 0.0310027)
(-0.130268 -0.030246 -0.230406)
(-0.0209952 -0.00853234 -0.0614724)
(-0.0167086 -0.00737233 -0.147588)
(-0.131039 -0.00240506 -0.0076357)
(-0.0198793 -0.00262743 -0.158183)
(-0.199258 -0.0121893 0.00686594)
(-0.00393144 -0.00763095 -0.110398)
(-0.214838 0.121813 -0.269346)
(-0.00797167 -0.000117559 -0.138763)
(-0.00505734 -0.00469677 -0.146446)
(0.0489357 -0.0450946 -0.155766)
(-0.0131286 -0.0756718 -0.0517204)
(-0.00772925 0.0151766 -0.135661)
(-0.00804407 0.00597529 -0.137652)
(-0.00810759 -0.00599906 -0.148729)
(-0.0962127 -0.00760599 0.0215428)
(0.371194 0.0607468 0.670423)
(-0.00595326 -0.00150612 -0.145277)
(-0.00578276 0.00723928 -0.130012)
(0.520768 -0.51116 0.180155)
(-0.0042409 -0.00544097 -0.145273)
(-0.193305 -0.0414146 -0.0349312)
(0.0740503 -0.0299122 -0.155929)
(-0.014962 0.0291369 -0.128284)
(-0.0853123 -0.0121832 -0.0343777)
(-0.00171091 -0.0023113 -0.14566)
(0.0162833 -0.154395 -0.586368)
(0.00493361 -0.0176088 -0.032466)
(-0.00707252 -0.00828758 -0.14432)
(0.0599753 -0.0058809 -0.176778)
(0.0396146 -0.0354199 -0.148144)
(0.418637 0.0267769 -0.499756)
(0.533641 0.0439163 -0.427481)
(0.060236 -0.0253316 -0.156272)
(0.0438265 -0.0654952 -0.103742)
(0.0697735 -0.0568138 -0.124864)
(-0.282634 0.0277471 0.11217)
(-0.000402956 -0.0641791 -0.0335678)
(-0.0156145 -0.00412987 -0.13413)
(-0.246448 0.0323917 0.165945)
(0.0471942 -0.0711976 -0.0944215)
(0.000685233 -0.0165747 -0.14282)
(-0.00357553 -0.0155628 -0.0996971)
(-0.213313 0.00715146 0.0941232)
(-0.0519172 -0.0132542 -0.00345678)
(-0.00109892 -0.0143606 -0.116835)
(0.00216253 -0.00220006 -0.133081)
(0.0940817 -0.00246504 -0.0177374)
(-0.00757523 -0.0085865 -0.0511862)
(-0.221632 -0.049421 -0.0696509)
(0.480089 -0.470794 -0.104242)
(-0.00913297 -0.00239208 -0.112541)
(0.42167 -0.0631523 -0.66969)
(0.0024339 -0.0022252 -0.0261352)
(-0.00585053 -0.0148717 -0.111135)
(-0.00745268 -0.00491917 -0.102013)
(-0.00603893 -0.0130022 -0.151448)
(-0.00713375 -0.0254512 -0.101602)
(-0.212504 -0.00752304 0.115238)
(-0.00721856 -0.00753518 -0.12837)
(0.0143899 0.0278644 -0.0979336)
(0.0739819 -1.3272 0.54581)
(-0.000642332 -0.0278068 -0.141436)
(0.164383 1.66303 -0.560188)
(-0.00602801 -0.00892175 -0.113903)
(-0.0166315 -0.00788759 -0.0642538)
(-0.00274929 0.00160338 -0.104772)
(-0.0129156 0.00309083 -0.0359073)
(0.0934707 -0.020909 -0.176777)
(0.156507 -0.202842 0.286839)
(0.061632 -0.0473907 -0.156721)
(-0.153549 -0.0343355 -0.126426)
(-0.00795566 0.0102583 -0.122573)
(-0.0224829 0.00703563 -0.133577)
(0.059423 -0.0392155 -0.136062)
(-0.383002 -0.095406 0.147652)
(0.0242966 -1.48049 -0.207601)
(-0.0289024 -0.00918549 -0.0967084)
(-0.00607027 0.00647147 -0.131023)
(0.0588832 -0.0380349 -0.162972)
(0.036333 -0.0428386 -0.152627)
(-0.0363778 -0.00158705 -0.130315)
(0.0146414 -0.0162855 -0.147219)
(0.189092 0.722894 1.29495)
(-0.371368 -0.204439 0.517906)
(0.198648 0.043967 1.17939)
(0.0975217 -0.0108547 -0.143266)
(-0.0068052 -0.0111454 -0.0901159)
(-0.211545 0.0172103 -0.0233687)
(-0.0616392 0.109408 0.60238)
(0.197192 -0.0237338 -0.17028)
(-0.112346 -0.0343578 -0.084523)
(-0.0342362 -0.0108557 -0.123578)
(0.00431993 -0.012692 -0.153069)
(0.0163546 -0.136679 -0.191028)
(-0.0249487 0.00102327 -0.125393)
(-0.164628 0.00351531 0.0285646)
(-0.455834 -1.701 -2.5548)
(-0.250459 -0.0762027 0.543491)
(-0.0275878 -0.00575624 -0.0214738)
(0.0244145 -0.0130022 0.000237627)
(0.0604187 -0.026757 -0.142547)
(-0.00444889 -0.000325841 -0.114698)
(0.0677389 -0.00624451 -0.183866)
(-0.0091752 -0.00642157 -0.14629)
(0.0952407 -0.215147 0.636847)
(-0.0296182 -0.0463437 -0.18091)
(0.00625013 0.0163104 -0.186228)
(-0.00224482 0.00202074 -0.111121)
(-0.0270089 -0.125431 -0.389129)
(-0.133307 -0.0699753 -0.00247697)
(-0.0130282 -0.00502507 -0.15188)
(-0.0294147 -0.00995024 -0.0838872)
(0.118151 -0.110308 0.626896)
(-0.133443 -0.0126645 -0.0104513)
(-0.025309 -0.0118774 -0.00377772)
(-0.000824875 0.00301255 -0.110592)
(-0.206715 -0.255418 0.59165)
(-0.000435278 -0.00396822 -0.101923)
(-0.148081 -0.0283165 -0.0335473)
(-0.0387736 -0.000283532 -0.117095)
(0.098949 0.0355942 1.17064)
(-0.0598404 -0.00359888 -0.126811)
(-0.0355213 0.0013841 0.0717283)
(-0.0430407 -0.00197623 -0.127166)
(0.0653155 -0.0387107 -0.140903)
(-0.0151938 -0.000423478 -0.139709)
(-0.201917 -0.0201997 -0.0406505)
(-0.00294207 0.00105073 -0.0967148)
(0.291447 0.270508 0.0844633)
(0.014847 0.0206455 -0.0834893)
(0.414995 0.10144 0.0712083)
(0.00984771 0.0250276 -0.0923935)
(-0.0238193 -0.0110867 -0.141906)
(0.529765 -0.675723 -0.515787)
(0.0921832 -0.0409422 -0.211866)
(-0.0128382 -0.0685099 -0.111624)
(-0.015815 0.0150547 -0.151002)
(0.879112 -0.0378585 -0.00814022)
(1.10325 3.56673 -0.812616)
(-0.165308 -0.0123033 -0.0363705)
(0.408889 0.120466 1.03263)
(0.0612635 -0.0446521 -0.136556)
(0.376607 0.0944683 0.283669)
(0.0186086 0.0559474 1.00883)
(-0.183708 -0.00572794 -0.0498833)
(0.007049 -0.0118438 -0.0227413)
(0.000230079 -0.000689243 -0.116612)
(-0.244902 0.0384532 -0.470198)
(-0.219336 -0.02406 0.0784899)
(0.198139 0.0211804 0.0117732)
(-0.0442739 0.00139262 -0.0113586)
(0.197309 0.0213735 0.00407286)
(-0.0112083 -0.00229217 -0.136037)
(0.000363002 -0.00648192 -0.145229)
(9.39942e-06 0.0109854 -0.131748)
(-0.178836 -0.00792505 -0.0424013)
(-0.0866074 -0.00515277 -0.0548929)
(0.155342 0.0735563 -0.0111938)
(-0.101946 -0.0138311 0.0189153)
(-0.164249 -0.0137656 -0.044966)
(-0.165611 -0.0146337 -0.053918)
(-0.222995 -0.00329314 0.0245556)
(0.130282 -0.666926 0.475303)
(-0.0115102 0.0577721 1.12727)
(-1.0868 -0.0818071 0.234418)
(0.0597937 0.000965295 -0.172471)
(0.0171822 0.143899 -0.198548)
(0.482794 -0.605522 0.705135)
(-0.91113 0.238449 -0.0791152)
(0.708917 -0.746926 0.762993)
(-0.105455 0.0744374 1.02444)
(0.0418416 -0.0240251 -0.0267317)
(-0.14706 -0.0350932 -0.0425545)
(-0.00258956 0.00215088 -0.138375)
(0.00233185 -0.0354958 -0.0161122)
(0.0909911 5.92607e-05 -0.162102)
(0.102359 -0.0357344 -0.00857989)
(-0.145693 -0.00204288 -0.0243642)
(0.0734909 -1.70603 0.446275)
(0.288733 -0.643978 -0.187972)
(-0.143228 -0.0156504 -0.00931407)
(0.0531553 -0.0908919 -0.122123)
(0.213919 0.0486279 -0.0298749)
(0.228402 -0.254616 1.04452)
(0.862283 -0.291026 1.05927)
(-0.0403835 -0.131129 -0.0548238)
(-0.0183133 0.0708425 -0.156019)
(-1.23302 0.155438 -0.0117911)
(0.0566412 -0.0350155 -0.00989964)
(0.450692 -0.0436326 -2.61891)
(0.0384595 -0.190384 -0.22258)
(0.526973 0.466278 0.308066)
(-0.112001 -0.111215 0.0212684)
(-0.147297 -0.0103483 -0.0417861)
(-0.107981 -0.104346 -1.7052)
(-0.159362 -0.0112187 -0.0262422)
(0.390705 1.38623 -0.0854166)
(-0.657456 0.0306701 0.155845)
(-1.26878 0.181188 -0.036315)
(0.293206 0.133698 0.770011)
(-0.262087 0.0171485 -0.0709314)
(-0.0222612 -0.00922768 -0.141009)
(0.184989 0.0172637 0.0132446)
(-0.0991591 -0.0102477 -0.00752218)
(0.0019358 -0.00782149 -0.153967)
(0.0562687 1.60855 -0.34762)
(-0.281707 -0.00061619 -0.0155655)
(-0.281196 -0.773786 -0.124868)
(-0.369814 -0.0516299 -0.030878)
(-0.513965 0.544319 0.201424)
(0.201525 0.0152082 -0.130812)
(0.00646976 0.00412129 -0.123957)
(0.0861218 -0.0133062 0.000392881)
(0.0890624 -0.00769686 -0.000795766)
(-0.148924 -0.0228425 0.00771232)
(-0.00218139 -0.00327569 -0.0501949)
(-0.0675045 -0.00605774 0.0362935)
(0.018939 -0.0458212 -0.110265)
(0.00130542 0.00678359 -0.1288)
(0.0899075 -0.0157597 0.00128648)
(0.140126 -0.00874841 -0.169854)
(0.78751 -0.361909 -1.14005)
(0.796489 0.768575 0.171307)
(-0.0097683 -0.0120667 -0.136821)
(-0.109406 0.108941 -0.27062)
(-0.00530439 -0.0138419 -0.164114)
(0.157548 0.022138 0.00175221)
(-0.159543 -0.0635108 0.00928704)
(-0.0019995 -0.00320894 -0.00985681)
(0.196774 0.01108 0.00519828)
(0.0615512 -0.00911433 -0.18359)
(-0.181653 -0.00717602 -0.030927)
(0.12611 0.0630186 -0.106943)
(-0.167602 -0.00290696 -0.0399145)
(-0.0685204 -0.00495808 -0.0490005)
(-0.174243 -0.0107974 -0.0339228)
(0.138834 0.0129539 -0.153242)
(0.206562 -0.00666456 -0.00416822)
(0.633655 0.0245528 0.265891)
(-0.00137697 -0.0510366 -0.0840196)
(0.185525 0.03891 0.0210472)
(-0.179404 -0.0131189 -0.0260083)
(-0.149941 -0.00781304 -0.0438675)
(-0.169128 -0.0153072 -0.0334893)
(-0.0612505 -0.00389725 -0.0599779)
(-0.00108773 -0.0109449 -0.0194958)
(0.610913 0.0783567 0.25533)
(0.054675 -0.0106759 -0.00431629)
(-0.0114975 -0.0035233 -0.14922)
(0.203832 -0.0846354 -0.250516)
(-0.0292673 -0.00288557 -0.0842578)
(-0.155947 -0.0290352 -0.0401008)
(0.43578 0.128838 -1.78601)
(-0.248373 0.0165407 0.0248486)
(-0.15264 -0.0198993 -0.0842926)
(0.100124 -0.0125797 -0.135809)
(-0.202335 -0.0330429 -0.0726509)
(-0.178543 -0.028228 -0.0545509)
(-0.168195 -0.024891 -0.0776461)
(-0.226611 -0.0822814 -0.0112312)
(-0.0317064 -0.0068567 -0.0904345)
(0.0475714 -0.0136677 0.000547645)
(0.0602523 -0.0116877 -0.00445741)
(-0.161463 -0.0170222 -0.116907)
(0.0488282 -0.00525731 0.00210923)
(0.0930349 0.00560884 -0.166044)
(0.0639326 -0.00756668 -0.00829729)
(-0.0979019 0.0150387 0.00463571)
(-0.164344 -0.022579 0.0148915)
(0.0325675 -0.00131759 -0.101171)
(-0.244397 -0.025836 -0.0757769)
(0.054012 -0.0203056 0.00401975)
(-0.179534 -0.0257025 -0.133633)
(-0.0860493 -0.0110012 -0.124913)
(-0.933221 -0.125369 -0.0846629)
(0.0155098 -0.0528585 -0.19004)
(0.12799 -0.0223797 -0.207294)
(-0.25134 -1.16319 -0.0228205)
(0.0149695 -0.105333 -0.0568699)
(-0.00554167 -0.00597956 -0.149463)
(-0.0936125 -0.0135743 -0.123468)
(0.0179963 0.258885 -0.22583)
(0.00393148 0.00827115 -0.133947)
(0.314421 0.258972 0.273398)
(0.796447 -0.973465 0.877147)
(-0.0781049 -0.0178315 -0.0283207)
(-0.0971332 -0.0149735 -0.124035)
(-0.168437 -0.0126717 0.659334)
(0.184337 -1.22927 -0.0790887)
(-0.138633 -0.0319418 -0.0489663)
(0.00229449 -0.00227311 -0.138215)
(0.236485 -0.0277354 0.0686448)
(-0.110312 -0.0150143 -0.111074)
(-0.0983852 -0.0163669 -0.111079)
(0.0889831 -0.0230544 -0.127898)
(0.114751 0.014635 -0.241719)
(0.0736077 0.00129958 -0.16515)
(0.00150805 -0.0078398 -0.0466439)
(-0.000224337 -0.00526013 -0.147569)
(-0.579377 0.0336998 0.0209216)
(0.0124535 0.0360558 -0.0979193)
(0.573924 0.415209 -2.90085)
(-0.00337494 0.000349693 -0.130352)
(-0.0219222 -0.00419633 -0.121549)
(0.633653 -0.147581 -2.70719)
(-0.15465 -0.00675383 -0.0274491)
(-0.294367 -1.55636 -0.292868)
(0.055111 -0.0327413 -0.047373)
(-0.0235832 0.228676 0.77331)
(-0.0016037 -0.00688295 -0.108644)
(0.074306 0.00621804 -0.174422)
(-0.158047 -0.000521723 -0.0134835)
(0.00642793 -0.134333 -0.0501024)
(-0.0860456 -9.68928e-05 -0.105239)
(-0.153977 -0.00467269 -0.0222955)
(-0.00630355 0.0127021 -0.129326)
(-0.0237869 -0.00992968 -0.104906)
(-0.0118099 -0.0104775 -0.000783981)
(-0.0103388 -0.0148929 -0.141015)
(-0.0129449 -0.00653998 -0.143223)
(-0.0455098 0.011882 -0.157359)
(0.0314741 -0.0416759 -0.158756)
(0.0080029 0.0179782 -0.0952904)
(-1.03123 -0.235425 -0.187047)
(-0.0099258 -0.0075121 -0.125924)
(0.292733 1.4631 1.23492)
(0.00971538 -0.0153638 -0.106575)
(-0.0274764 -0.0078038 -0.0629783)
(0.390406 1.6025 1.24426)
(0.0191239 -0.0205278 -0.116698)
(0.23196 -0.216081 0.536688)
(-0.105734 -0.0207978 -0.000971943)
(-0.0486078 -0.0161328 -0.0117765)
(-0.111033 -0.0116886 -0.0400363)
(-0.0998233 -0.00819926 0.184026)
(0.0353294 -0.00875908 -0.223032)
(0.0007046 -0.00977805 -0.0975193)
(-0.605577 -0.315539 0.0501952)
(0.929257 -0.0671635 -0.491661)
(0.123801 -0.0624414 -0.234968)
(0.770649 0.0136445 -0.0937382)
(-0.590276 -0.364451 0.46291)
(-0.235816 -0.166072 0.0111771)
(-0.0358833 -0.00734297 -0.182659)
(0.00527401 -0.00951617 0.154221)
(0.00134671 -0.000896111 -0.0946184)
(0.0342975 0.00822836 -0.20752)
(-0.781724 -0.294688 -0.0855834)
(0.00118321 0.676962 -0.663853)
(0.0280483 -0.0263013 -0.104636)
(-0.024821 -0.000260002 -0.142504)
(-0.115217 -0.022804 -0.107467)
(0.357911 0.234399 -0.32978)
(-0.156711 -0.00132878 -0.143516)
(0.00666116 -0.0192082 -0.0913925)
(-0.285033 -0.102657 0.0866647)
(-0.0831141 -0.0162049 -0.0838133)
(-0.00311886 -0.00128618 -0.050939)
(0.44654 -0.0562871 0.000476833)
(-0.0851994 -0.0123944 -0.148361)
(0.6306 0.0138577 0.168407)
(-0.102353 -0.0366131 -0.170564)
(0.255171 -0.0409706 0.00845776)
(-0.0893086 -0.00945678 -0.144322)
(0.0786409 -0.0111576 -0.158804)
(0.00662205 -0.0111855 -0.0126407)
(-0.198108 -0.0377478 -0.0685615)
(0.0797213 -0.170204 -0.0324143)
(-0.0296001 -0.00736205 -0.04173)
(-5.95688e-05 -0.0125573 -0.00766154)
(-0.000193466 -0.0111603 -0.00390103)
(0.0539902 0.433078 0.0504565)
(0.0943899 -0.0148418 -0.118271)
(5.55102 -0.138481 0.405315)
(0.14959 -0.0376822 0.00148354)
(0.143095 -0.021058 0.00508042)
(-0.0641849 0.0019872 -0.0808541)
(-0.267678 0.000420452 -0.0344998)
(-0.133318 -0.00296115 -0.020438)
(-0.136354 -0.0775046 -0.0823409)
(0.0268837 -0.0972973 -0.128538)
(-0.0133427 -0.00119912 -0.142651)
(-0.183317 -0.014983 -0.0489046)
(2.85191 -0.196593 0.02276)
(0.00020149 0.00177385 -0.123386)